Membrane in water
40347
    1TMC1    C1    1   2.649   0.880  11.455 -0.6053  0.2523  0.1834
    1TMC1    C2    2   2.550   0.968  11.449  0.1236  0.4553  0.0165
    1TMC1    C3    3   2.566   1.079  11.373 -0.0526 -0.1490 -0.0205
    1TMC1    C4    4   2.765   0.897  11.382  0.0081  0.8862 -0.2411
    1TMC1    C5    5   2.782   1.017  11.316 -0.2354 -0.6531 -0.4884
    1TMC1    C6    6   2.688   1.112  11.317 -0.0848  0.8196 -0.4462
    1TMC1     C    7   2.629   0.754  11.528 -0.2066  0.8305 -0.4450
    1TMC1     O    8   2.523   0.744  11.587 -0.4929  0.2861  0.0535
    1TMC1     H    9   2.460   0.955  11.508  1.3835 -1.0518  1.5986
    1TMC1    H1   10   2.844   0.823  11.378 -0.1641  0.8038 -2.0888
    1TMC1    H2   11   2.716   1.208  11.277  0.2514  1.7232  1.9502
    1TMC1    C7   12   2.889   1.033  11.225  0.1600  0.3184 -0.7008
    1TMC1    C8   13   2.456   1.176  11.383  0.2527  0.2156  0.1435
    1TMC1    O1   14   2.972   0.947  11.202  0.2099 -0.0940  0.3343
    1TMC1    O2   15   2.371   1.190  11.466  0.3067  0.3767 -0.2443
    1TMC1    O3   16   2.861   1.119  11.124 -0.8409 -0.0539  0.2679
    1TMC1    H3   17   2.769   1.151  11.111  0.7767  4.3284 -0.4319
    1TMC1    O5   18   2.462   1.254  11.273  0.8937 -0.4665  1.2363
    1TMC1    H5   19   2.531   1.229  11.209  0.6241  0.6353  0.5156
    2MPD2     C   20   2.756   0.287  11.685 -0.0142 -0.1673  0.0315
    2MPD2    C1   21   2.636   0.344  11.667 -0.1001 -0.2297 -0.1238
    2MPD2    C2   22   2.630   0.478  11.636  0.5570 -0.1992 -0.3365
    2MPD2    C3   23   2.752   0.545  11.595  0.4030 -0.7340  0.5659
    2MPD2    C4   24   2.874   0.481  11.614 -0.5327  0.0276  0.3089
    2MPD2    C5   25   2.871   0.352  11.657 -0.5758 -0.7634 -0.3956
    2MPD2     H   26   2.533   0.526  11.630  1.4176  1.2671 -2.4400
    2MPD2    H1   27   2.968   0.510  11.569 -1.2015 -0.3045 -1.3173
    2MPD2    H2   28   2.767   0.184  11.719 -1.6126  0.3578  2.1256
    2MPD2    H3   29   2.958   0.289  11.661 -0.3805 -0.4604  0.0909
    2MPD2     N   30   2.746   0.672  11.529  0.0762 -0.7521  0.1613
    2MPD2    H5   31   2.829   0.706  11.482 -0.1597  2.7692  2.2807
    2MPD2    N1   32   2.511   0.273  11.678  0.5656  0.0639  0.9213
    2MPD2    H7   33   2.424   0.324  11.664  0.0143 -1.0017  0.4183
    3TMC1    C1   34   1.590   1.231  11.058 -0.4909 -0.8938 -0.7238
    3TMC1    C2   35   1.648   1.356  11.067 -0.5591 -0.2461 -0.1971
    3TMC1    C3   36   1.710   1.422  10.957  0.3090  0.1353 -0.2060
    3TMC1    C4   37   1.602   1.157  10.947  0.8643 -0.2744  0.4879
    3TMC1    C5   38   1.664   1.220  10.846 -0.0829 -0.1152  0.2034
    3TMC1    C6   39   1.705   1.355  10.838 -0.2793  0.3068  0.1228
    3TMC1     C   40   1.482   1.192  11.148 -0.3144 -0.0329 -0.0330
    3TMC1     O   41   1.428   1.088  11.123 -1.0021  0.0405 -0.1035
    3TMC1     H   42   1.632   1.419  11.154  0.7451 -2.0794  1.3627
    3TMC1    H1   43   1.568   1.055  10.942 -0.4574  0.2131 -0.6542
    3TMC1    H2   44   1.732   1.393  10.740 -1.2390 -1.0192 -0.6473
    3TMC1    C7   45   1.708   1.137  10.735 -0.4894 -0.2374 -0.0257
    3TMC1    C8   46   1.704   1.563  10.960  0.5298 -0.1656  0.0495
    3TMC1    O1   47   1.803   1.172  10.666  0.1131  0.0762 -0.2956
    3TMC1    O2   48   1.609   1.611  11.026 -0.7386 -0.2425 -0.5458
    3TMC1    O3   49   1.606   1.068  10.688  0.5603 -0.4914  0.4568
    3TMC1    H3   50   1.531   1.065  10.752  0.3454  0.4962  0.2514
    3TMC1    O5   51   1.748   1.613  10.845  0.2555 -0.2370  0.2577
    3TMC1    H5   52   1.841   1.583  10.834 -0.5282 -2.4126 -0.3864
    4MPD2     C   53   1.180   1.269  11.551  0.2812  0.1326 -0.3012
    4MPD2    C1   54   1.225   1.388  11.501 -0.0982 -0.0603  0.1618
    4MPD2    C2   55   1.318   1.388  11.402  0.4718 -0.1304  0.2232
    4MPD2    C3   56   1.351   1.268  11.341  0.4768  0.2514 -0.3955
    4MPD2    C4   57   1.309   1.146  11.389 -0.1926  0.0141  0.1168
    4MPD2    C5   58   1.232   1.154  11.499 -0.2523  0.0922 -0.1497
    4MPD2     H   59   1.368   1.479  11.369 -0.0724  0.9352  2.3497
    4MPD2    H1   60   1.340   1.049  11.352 -1.7074  0.9308 -3.4719
    4MPD2    H2   61   1.109   1.255  11.632  0.9716  0.2037  0.3114
    4MPD2    H3   62   1.189   1.060  11.531  0.0348 -0.7410 -2.2822
    4MPD2     N   63   1.443   1.290  11.234  0.3139 -0.1181  0.2599
    4MPD2    H5   64   1.471   1.387  11.223 -1.3351  0.4095  0.7489
    4MPD2    N1   65   1.177   1.509  11.563 -0.1898 -0.6949 -0.2434
    4MPD2    H7   66   1.221   1.594  11.529 -1.0144  0.2733  1.1275
    5TCq1    O1   67   1.440   2.974  12.492  0.0575  0.3228  0.1849
    5TCq1    C1   68   1.314   3.026  12.493 -0.0595  0.5304 -0.0161
    5TCq1    O2   69   1.260   3.066  12.593 -0.6735 -0.3266  0.0378
    5TCq1    C2   70   1.297   3.073  12.359 -0.2618  0.7487 -1.0384
    5TCq1    C3   71   1.270   3.206  12.344 -0.1326 -0.2351 -0.6255
    5TCq1    C4   72   1.283   3.261  12.215 -0.1469  0.0261  0.3370
    5TCq1    C5   73   1.322   3.185  12.110 -0.6472 -0.0855 -0.9295
    5TCq1    C6   74   1.349   3.058  12.138 -0.2094  0.2602  0.3928
    5TCq1    C7   75   1.340   2.994  12.260  0.3057  0.9270  1.1165
    5TCq1    C8   76   1.427   3.000  12.028 -0.1249  0.0016  0.3903
    5TCq1    O4   77   1.412   3.040  11.912  0.0845 -0.5814  0.2969
    5TCq1    C9   78   1.261   3.401  12.183 -0.5348  0.2033 -0.6109
    5TCq1    O5   79   1.234   3.418  12.060  0.1297 -0.0659  0.5022
    5TCq1    O6   80   1.241   3.483  12.277 -0.3617 -0.3900 -0.0483
    5TCq1    H1   81   1.496   2.975  12.412 -1.8254  1.1427 -1.1044
    5TCq1    H2   82   1.232   3.268  12.424 -1.5205 -3.6892  1.4032
    5TCq1    H3   83   1.346   3.233  12.016 -0.9127  1.7334 -0.0796
    5TCq1    H4   84   1.354   2.888  12.279  0.2434  0.9785  1.4481
    6MPD2     C   85   1.684   2.741  12.073 -0.1208 -0.1080  0.1254
    6MPD2    C1   86   1.610   2.832  12.001 -1.2125  0.1409  0.2173
    6MPD2    C2   87   1.630   2.842  11.862 -0.5661  0.6757 -0.5868
    6MPD2    C3   88   1.730   2.772  11.803 -0.0198  0.4939 -0.1802
    6MPD2    C4   89   1.814   2.689  11.878  0.4987  0.4718 -0.3444
    6MPD2    C5   90   1.773   2.669  12.007  0.3321  0.0270 -0.3037
    6MPD2     H   91   1.575   2.910  11.799 -0.6887  0.5716 -0.5900
    6MPD2    H1   92   1.896   2.624  11.849  0.9219  1.1931 -0.7763
    6MPD2    H2   93   1.672   2.731  12.180  0.8700 -1.7998  0.0871
    6MPD2    H3   94   1.832   2.600  12.068 -0.1823  0.7227  0.9659
    6MPD2     N   95   1.761   2.803  11.672 -0.7163 -0.2140 -0.1927
    6MPD2    H5   96   1.696   2.861  11.620 -1.7485  0.6360  2.0264
    6MPD2    N1   97   1.523   2.913  12.078 -0.0109  0.0331  0.3183
    6MPD2    H7   98   1.536   2.894  12.177  0.3855  1.0640  0.4603
    7TCq1    O1   99   3.623   2.894  12.728  0.0277 -0.0532 -0.1235
    7TCq1    C1  100   3.633   2.799  12.819  0.0386 -0.2383 -0.1522
    7TCq1    O2  101   3.657   2.821  12.942 -0.3516  0.0619  0.1361
    7TCq1    C2  102   3.650   2.668  12.756 -0.3864 -0.0481 -0.1454
    7TCq1    C3  103   3.580   2.621  12.645  0.4183 -0.2765 -0.4928
    7TCq1    C4  104   3.603   2.489  12.606 -0.3894  0.0647 -0.0248
    7TCq1    C5  105   3.694   2.411  12.671 -0.0093  0.5631  0.1170
    7TCq1    C6  106   3.766   2.469  12.775 -0.2125 -0.3705 -0.3835
    7TCq1    C7  107   3.730   2.589  12.832 -0.9810 -0.1280  0.1574
    7TCq1    C8  108   3.852   2.376  12.858  0.0257 -0.0552  0.7391
    7TCq1    O4  109   3.820   2.257  12.852 -0.2489  0.0062 -0.0448
    7TCq1    C9  110   3.526   2.435  12.492 -0.0524 -0.7174 -0.5916
    7TCq1    O5  111   3.485   2.521  12.405  0.2891 -0.2118 -0.4128
    7TCq1    O6  112   3.531   2.311  12.479  0.7387 -0.1954  0.2345
    7TCq1    H1  113   3.617   2.866  12.635 -1.1265 -1.1082  0.2743
    7TCq1    H2  114   3.513   2.683  12.586  0.3950  1.1084  0.9714
    7TCq1    H3  115   3.714   2.314  12.628 -1.3373  0.9401 -1.3759
    7TCq1    H4  116   3.780   2.633  12.918 -1.0400  2.8270 -1.3082
    8MPD2     C  117   4.233   2.264  13.175  0.3370 -0.2214 -0.7260
    8MPD2    C1  118   4.128   2.183  13.137  0.2539 -0.6026 -0.3124
    8MPD2    C2  119   4.039   2.235  13.047  0.3660 -0.2714 -0.5392
    8MPD2    C3  120   4.056   2.370  13.005 -0.8342  0.5655 -0.1757
    8MPD2    C4  121   4.170   2.439  13.028 -0.2579  0.5866 -0.3741
    8MPD2    C5  122   4.255   2.394  13.126  0.5890 -0.3894  0.3576
    8MPD2     H  123   3.945   2.185  13.026 -0.0426  0.7380 -1.1180
    8MPD2    H1  124   4.176   2.542  12.996  2.0772 -0.1861 -2.3533
    8MPD2    H2  125   4.304   2.236  13.252  1.0290 -0.3731 -1.4107
    8MPD2    H3  126   4.332   2.458  13.166  0.7930  1.1880 -2.5395
    8MPD2     N  127   3.958   2.441  12.927 -0.3033  0.0614 -0.4461
    8MPD2    H5  128   3.983   2.535  12.900  2.0497 -0.5123 -0.2796
    8MPD2    N1  129   4.118   2.054  13.188  0.4491 -0.4226 -0.6447
    8MPD2    H7  130   4.176   2.041  13.270  0.0474  0.6311 -0.1874
    9TMC1    C1  131   2.282   1.654  11.386 -0.4173  0.9519  0.0191
    9TMC1    C2  132   2.380   1.565  11.435  0.2188  0.5407  0.1899
    9TMC1    C3  133   2.513   1.585  11.398  0.6158  0.8393  0.6500
    9TMC1    C4  134   2.328   1.767  11.316  0.0024  0.5145 -0.8605
    9TMC1    C5  135   2.457   1.771  11.270 -0.0073  0.4241 -0.0852
    9TMC1    C6  136   2.552   1.682  11.304 -0.0937  0.1690  0.1767
    9TMC1     C  137   2.172   1.671  11.463 -0.8725 -0.4827 -0.7023
    9TMC1     O  138   2.142   1.785  11.501  0.2270 -0.0498  0.5503
    9TMC1     H  139   2.365   1.486  11.508 -0.0962  0.0091 -0.4444
    9TMC1    H1  140   2.259   1.848  11.293 -0.9660  0.2370  0.9742
    9TMC1    H2  141   2.659   1.695  11.297 -0.2113  1.0082  0.0482
    9TMC1    C7  142   2.505   1.902  11.221  0.1664 -0.1275 -0.6282
    9TMC1    C8  143   2.611   1.478  11.402  0.5505 -0.0191  0.1018
    9TMC1    O1  144   2.464   2.016  11.240  0.1166  0.2224 -0.1894
    9TMC1    O2  145   2.691   1.461  11.311  0.1527  0.3055 -0.4270
    9TMC1    O3  146   2.570   1.873  11.107  0.1263 -0.3720 -0.3961
    9TMC1    H3  147   2.567   1.780  11.078  1.9492  0.1962 -2.3785
    9TMC1    O5  148   2.642   1.445  11.534  0.6214 -0.6492  0.3446
    9TMC1    H5  149   2.572   1.484  11.590  0.9062 -1.3377  1.1927
   10MPD2     C  150   1.970   1.624  11.668  0.4373 -0.1203 -0.7575
   10MPD2    C1  151   2.036   1.523  11.608  0.2814  0.4416  0.3145
   10MPD2    C2  152   2.017   1.391  11.640 -0.2577 -0.2526 -0.0146
   10MPD2    C3  153   1.916   1.362  11.733  0.7787  0.1977  0.4484
   10MPD2    C4  154   1.854   1.461  11.799  0.2593  0.7306 -0.5641
   10MPD2    C5  155   1.879   1.591  11.762 -0.5839  0.4930 -0.2719
   10MPD2     H  156   2.071   1.318  11.581  2.1908  1.2326  0.3782
   10MPD2    H1  157   1.779   1.436  11.873  1.8634 -1.2838  0.3727
   10MPD2    H2  158   1.988   1.730  11.657  3.0794 -0.5809 -0.9086
   10MPD2    H3  159   1.833   1.672  11.817 -0.8372 -0.1654  0.5000
   10MPD2     N  160   1.888   1.231  11.781  0.4541 -0.2788  1.2601
   10MPD2    H5  161   1.823   1.226  11.859  0.9946 -0.2313  1.7104
   10MPD2    N1  162   2.120   1.548  11.497  0.7943  0.5561 -0.5095
   10MPD2    H7  163   2.145   1.463  11.446  0.0108  0.2906 -0.4429
   11TCq1    O1  164   2.479   1.394  14.118  0.1859  0.2029 -0.0561
   11TCq1    C1  165   2.346   1.389  14.142 -0.7152 -0.2979  0.3789
   11TCq1    O2  166   2.255   1.415  14.061 -0.1572  0.0810 -0.1158
   11TCq1    C2  167   2.333   1.315  14.269  0.2968 -0.2289  0.0452
   11TCq1    C3  168   2.447   1.302  14.350  0.4122  0.3212  0.3792
   11TCq1    C4  169   2.446   1.202  14.447 -0.3821 -0.6617  0.2757
   11TCq1    C5  170   2.334   1.116  14.450  0.2511  0.1322 -0.5464
   11TCq1    C6  171   2.231   1.133  14.360 -1.1064 -0.2426  1.1202
   11TCq1    C7  172   2.226   1.238  14.270  0.1904 -0.3024 -0.2712
   11TCq1    C8  173   2.143   1.014  14.328  0.0304  0.1002  0.1407
   11TCq1    O4  174   2.037   1.030  14.268  0.1330  0.4673  0.2447
   11TCq1    C9  175   2.554   1.178  14.543 -0.3163 -0.0247 -0.6225
   11TCq1    O5  176   2.650   1.258  14.563 -0.4335 -0.1696  0.1583
   11TCq1    O6  177   2.541   1.071  14.612  0.4608  0.3060 -0.4821
   11TCq1    H1  178   2.533   1.341  14.182  0.6916  1.0095  0.1818
   11TCq1    H2  179   2.521   1.381  14.343  0.3111  0.4126  0.3351
   11TCq1    H3  180   2.333   1.049  14.535 -3.1316  0.3174 -0.4420
   11TCq1    H4  181   2.147   1.234  14.196  0.4739 -2.8082 -0.4511
   12MPD2     C  182   2.083   0.742  14.193  0.5206  0.1894  0.3980
   12MPD2    C1  183   2.193   0.766  14.273  0.4704  0.4392 -0.1817
   12MPD2    C2  184   2.283   0.666  14.290  0.3632  0.1394 -0.2281
   12MPD2    C3  185   2.268   0.551  14.222  0.2970  0.5711 -0.4048
   12MPD2    C4  186   2.152   0.532  14.142  0.1299 -0.1788 -0.2763
   12MPD2    C5  187   2.061   0.629  14.127  0.5056  0.5243 -0.1189
   12MPD2     H  188   2.371   0.691  14.348  0.4929  0.8191 -0.7184
   12MPD2    H1  189   2.143   0.437  14.091  0.5659 -0.3060 -0.1148
   12MPD2    H2  190   2.005   0.817  14.180  0.0837 -0.6737 -1.9991
   12MPD2    H3  191   1.975   0.614  14.063  0.6377  1.1512 -0.4402
   12MPD2     N  192   2.361   0.448  14.202  0.5849  0.2303 -0.3233
   12MPD2    H5  193   2.340   0.390  14.122  0.3970 -1.1498  0.7382
   12MPD2    N1  194   2.221   0.895  14.328 -0.4306  0.0749  0.1715
   12MPD2    H7  195   2.312   0.916  14.367  0.1876 -1.7465 -0.2905
   13TCq1    O1  196   2.364   1.344  10.520 -0.6069  0.3173 -0.1339
   13TCq1    C1  197   2.262   1.376  10.610 -0.8527 -0.4684 -0.4548
   13TCq1    O2  198   2.154   1.430  10.584 -0.3926  0.6597  0.1537
   13TCq1    C2  199   2.307   1.326  10.738  0.1740 -0.1017 -0.6372
   13TCq1    C3  200   2.433   1.341  10.787 -0.1550 -0.7022 -0.1098
   13TCq1    C4  201   2.455   1.273  10.903  0.1505  0.0292 -0.5957
   13TCq1    C5  202   2.366   1.188  10.970  0.1940  0.1943  0.2827
   13TCq1    C6  203   2.244   1.177  10.917  0.2787 -0.3442  0.0686
   13TCq1    C7  204   2.216   1.244  10.800 -0.1874 -0.0053 -0.1297
   13TCq1    C8  205   2.159   1.072  10.976  0.4339 -1.0931  0.2785
   13TCq1    O4  206   2.185   1.049  11.094  0.2137 -0.5041  0.1451
   13TCq1    C9  207   2.583   1.281  10.969 -0.6407  0.2377  0.0645
   13TCq1    O5  208   2.645   1.389  10.950 -0.1664  0.9719  0.5429
   13TCq1    O6  209   2.617   1.207  11.065  0.2065  0.2007  0.9235
   13TCq1    H1  210   2.446   1.315  10.565 -1.3204  0.2427  1.1160
   13TCq1    H2  211   2.511   1.406  10.748 -0.2727  0.3844  1.4565
   13TCq1    H3  212   2.394   1.132  11.058 -1.2356 -1.0213 -0.0466
   13TCq1    H4  213   2.120   1.230  10.752 -0.6318  0.7410  0.5321
   14MPD2     C  214   1.870   0.872  10.862 -0.5850 -0.6884 -0.3714
   14MPD2    C1  215   1.946   0.953  10.951 -0.1985  0.4487 -0.3263
   14MPD2    C2  216   1.899   0.974  11.079 -0.4733 -0.3513 -0.2051
   14MPD2    C3  217   1.778   0.913  11.120 -0.8152 -0.5356  0.1416
   14MPD2    C4  218   1.708   0.840  11.025 -0.1202  0.7405 -0.5491
   14MPD2    C5  219   1.752   0.819  10.900  0.4159 -0.4627 -0.1839
   14MPD2     H  220   1.962   1.029  11.148  0.1627 -0.4369 -0.7195
   14MPD2    H1  221   1.606   0.810  11.042  0.8827 -1.8085  1.0511
   14MPD2    H2  222   1.898   0.879  10.757 -0.1485 -1.1732 -0.2857
   14MPD2    H3  223   1.693   0.763  10.828 -0.5520  1.8867 -1.2113
   14MPD2     N  224   1.724   0.946  11.248  0.1992 -0.3318 -0.0779
   14MPD2    H5  225   1.772   1.012  11.308 -2.1641  2.0335 -0.7786
   14MPD2    N1  226   2.064   1.018  10.897  0.1082  0.1592  0.6740
   14MPD2    H7  227   2.071   1.021  10.796 -1.6780  1.2752  0.5924
   15TCq1    O1  228   4.090   0.816   0.942 -0.1282  0.4904  0.0295
   15TCq1    C1  229   4.166   0.712   0.978 -0.1247  0.0120 -0.1829
   15TCq1    O2  230   4.224   0.704   1.082  0.2017  0.3927  0.4825
   15TCq1    C2  231   4.140   0.592   0.903  0.0346  0.5656  0.1192
   15TCq1    C3  232   4.026   0.577   0.825  0.1574  0.2244 -0.0860
   15TCq1    C4  233   4.011   0.461   0.752 -0.4016  0.2588 -0.6485
   15TCq1    C5  234   4.108   0.368   0.746  0.0557  0.1671  1.4133
   15TCq1    C6  235   4.224   0.388   0.822 -0.6164  0.0843  0.1777
   15TCq1    C7  236   4.237   0.503   0.904 -0.4930 -0.5196  0.0369
   15TCq1    C8  237   4.327   0.291   0.849 -0.1514 -0.2377  0.1193
   15TCq1    O4  238   4.424   0.312   0.924 -0.2381  0.4555 -0.3026
   15TCq1    C9  239   3.882   0.434   0.702 -0.4820 -0.0055  0.7422
   15TCq1    O5  240   3.873   0.314   0.654  0.6654  0.3401  0.0318
   15TCq1    O6  241   3.789   0.508   0.739 -0.4615  0.1748 -0.0510
   15TCq1    H1  242   4.041   0.804   0.858  1.2319 -0.4568 -0.6129
   15TCq1    H2  243   3.936   0.637   0.831  0.9983  1.6528 -1.8785
   15TCq1    H3  244   4.092   0.283   0.681  3.2952  0.6992 -0.0321
   15TCq1    H4  245   4.331   0.536   0.946 -0.5501  1.0582 -1.0523
   16MPD2     C  246   4.270   4.683   0.767  0.4767 -0.8403  0.2786
   16MPD2    C1  247   4.346   0.049   0.813  1.4111 -0.0273  0.1962
   16MPD2    C2  248   4.458   0.032   0.887 -0.6591  0.3988 -0.2522
   16MPD2    C3  249   4.498   4.640   0.921  0.0647  0.0990 -0.2427
   16MPD2    C4  250   4.421   4.534   0.888  0.1789  0.4216  0.0895
   16MPD2    C5  251   4.308   4.559   0.813 -0.4256  0.3643 -0.6224
   16MPD2     H  252   4.521   0.112   0.922  1.9326 -1.6696 -0.1568
   16MPD2    H1  253   4.431   4.439   0.939  0.8511 -0.1491 -1.1111
   16MPD2    H2  254   4.181   4.695   0.706 -0.5165  0.8584  2.0294
   16MPD2    H3  255   4.245   4.473   0.790  0.6565 -0.6903  0.3406
   16MPD2     N  256   4.631   4.637   0.982 -0.3742 -0.0641  0.4373
   16MPD2    H5  257   4.671   4.719   1.027  3.1575 -1.4179 -0.2208
   16MPD2    N1  258   4.282   0.173   0.797  0.1900  0.7372 -0.1980
   16MPD2    H7  259   4.196   0.171   0.743  0.6861  0.8226 -0.9945
   17TMC1    C1  260   1.759   0.428  11.178 -0.1939  0.1142  0.5402
   17TMC1    C2  261   1.755   0.336  11.279 -0.4129  0.0142  0.0577
   17TMC1    C3  262   1.682   0.224  11.253  0.3253  0.2682  0.3444
   17TMC1    C4  263   1.695   0.420  11.055  0.4297  0.0763 -0.8313
   17TMC1    C5  264   1.623   0.310  11.041  0.0776 -0.5236 -0.0330
   17TMC1    C6  265   1.626   0.204  11.133  0.4903 -0.2523 -0.6825
   17TMC1     C  266   1.878   0.516  11.170  0.0218 -0.1292 -0.1256
   17TMC1     O  267   1.941   0.545  11.272  0.0467 -0.1668 -0.5182
   17TMC1     H  268   1.831   0.337  11.357 -0.3036 -1.3321 -0.0390
   17TMC1    H1  269   1.688   0.500  10.983 -0.7878 -1.4814 -2.4305
   17TMC1    H2  270   1.571   0.113  11.108  0.1272 -0.3558  0.4835
   17TMC1    C7  271   1.544   0.297  10.914  0.0682  0.2741 -0.0051
   17TMC1    C8  272   1.754   0.102  11.288 -0.2338 -0.1182 -0.4262
   17TMC1    O1  273   1.540   0.204  10.835  0.5002 -0.3660 -0.4260
   17TMC1    O2  274   1.878   0.102  11.284  0.0677  0.4459 -0.1260
   17TMC1    O3  275   1.472   0.412  10.900  0.3841 -1.0487 -0.0438
   17TMC1    H3  276   1.481   0.463  10.983 -3.3863 -1.0944  0.4017
   17TMC1    O5  277   1.674   4.734  11.317  0.8637  0.5838 -0.1981
   17TMC1    H5  278   1.586   0.037  11.303 -0.0833 -1.1727  0.6352
   18MPD2     C  279   2.112   0.680  11.084 -0.3763 -0.3207  0.3126
   18MPD2    C1  280   2.041   0.592  10.998  1.1092  0.1208 -0.5846
   18MPD2    C2  281   2.084   0.567  10.871  1.5383  0.4980 -0.5125
   18MPD2    C3  282   2.200   0.634  10.828 -0.5141  0.0016 -0.3491
   18MPD2    C4  283   2.273   0.710  10.910 -0.5704 -0.8787  0.5300
   18MPD2    C5  284   2.233   0.725  11.035 -0.6906  0.2953  0.0244
   18MPD2     H  285   2.026   0.504  10.806 -0.8566  1.8582  0.2869
   18MPD2    H1  286   2.352   0.776  10.875  0.5716 -2.6029 -0.1708
   18MPD2    H2  287   2.088   0.703  11.187 -1.7392 -2.3337  0.4374
   18MPD2    H3  288   2.296   0.792  11.092  1.6950 -0.8417 -1.3024
   18MPD2     N  289   2.255   0.607  10.704  0.3245  0.0511 -0.4581
   18MPD2    H5  290   2.340   0.659  10.683  0.7625 -0.4369  0.0657
   18MPD2    N1  291   1.923   0.528  11.035 -0.0852  0.4373  0.2789
   18MPD2    H7  292   1.877   0.474  10.962  1.1130 -0.1326 -0.0574
   19TMC2    C1  293   3.983   0.640  13.804 -0.2002  0.1635  0.0820
   19TMC2    C2  294   3.933   0.708  13.699 -0.6030 -0.4708  0.2726
   19TMC2    C3  295   3.798   0.742  13.709 -0.0518 -0.6642 -0.6753
   19TMC2    C4  296   3.912   0.620  13.924 -0.6133 -0.8601  0.6723
   19TMC2    C5  297   3.782   0.665  13.931  0.4594  0.3066  0.1622
   19TMC2    C6  298   3.720   0.723  13.824  0.1351 -0.4937  0.1677
   19TMC2     C  299   4.126   0.644  13.822 -0.2637  0.7868  0.0403
   19TMC2     O  300   4.185   0.697  13.729  0.5848  0.1528 -0.3990
   19TMC2     H  301   3.989   0.734  13.610  0.1069  1.6072  1.3221
   19TMC2    H1  302   3.962   0.559  13.999 -0.9255 -2.3617 -0.3406
   19TMC2    H2  303   3.613   0.742  13.818  0.3501  0.9180  1.1121
   19TMC2    C7  304   3.710   0.629  14.055  0.9929 -0.3225  0.6406
   19TMC2    C8  305   3.730   0.776  13.586  0.2755  0.1392  0.1186
   19TMC2    O1  306   3.769   0.572  14.142 -0.2587 -0.2454 -0.3775
   19TMC2    O2  307   3.709   0.688  13.500 -0.1524  0.2912  0.2938
   19TMC2    O5  308   3.648   0.876  13.620  0.1937 -0.3599 -0.3509
   19TMC2    H5  309   3.683   0.916  13.703 -0.3127  2.3065 -1.4249
   20MPD2     C  310   4.406   0.642  13.898 -0.4986  0.0532  0.3052
   20MPD2    C1  311   4.306   0.613  13.986 -0.3163  0.1795  0.0630
   20MPD2    C2  312   4.337   0.579  14.117 -0.3661 -0.4894 -0.0526
   20MPD2    C3  313   4.465   0.571  14.163 -0.3938  0.3767  0.0109
   20MPD2    C4  314   4.563   0.605  14.068 -0.4469 -0.4880 -1.0363
   20MPD2    C5  315   4.533   0.636  13.940 -0.8863  0.1693  0.1134
   20MPD2     H  316   4.255   0.559  14.186  1.2213 -1.1393  1.6429
   20MPD2    H1  317   4.669   0.609  14.092 -0.7426 -0.4597  0.2904
   20MPD2    H2  318   4.399   0.679  13.796  0.0964  0.8103  0.5359
   20MPD2    H3  319   4.609   0.643  13.864 -0.8766 -0.5578  0.0567
   20MPD2     N  320   4.500   0.546  14.298  0.4983  0.6306  0.3884
   20MPD2    H5  321   4.590   0.575  14.333 -0.2792  1.6780  1.5061
   20MPD2    N1  322   4.175   0.618  13.948 -0.1763 -0.1893  0.5635
   20MPD2    H7  323   4.115   0.611  14.029  0.6352  0.9520  1.2653
   21TMC2    C1  324   1.198   0.819  14.084  0.0735 -0.0364 -0.8204
   21TMC2    C2  325   1.285   0.714  14.105 -0.6785  0.3123  0.0048
   21TMC2    C3  326   1.289   0.654  14.222 -0.3237  0.2480 -0.3778
   21TMC2    C4  327   1.123   0.874  14.183 -0.3947  0.8958  0.2068
   21TMC2    C5  328   1.151   0.828  14.306 -0.6215  0.2511  0.2544
   21TMC2    C6  329   1.224   0.712  14.328 -0.5919  0.0705  0.2133
   21TMC2     C  330   1.226   0.892  13.965 -1.0217  0.0580  0.1741
   21TMC2     O  331   1.232   0.828  13.857 -0.6224 -0.0245 -0.0746
   21TMC2     H  332   1.328   0.664  14.019  2.5239  0.3366  1.5662
   21TMC2    H1  333   1.067   0.966  14.168  0.2131  1.0864 -0.8582
   21TMC2    H2  334   1.217   0.661  14.423  0.4549  1.5402  1.0846
   21TMC2    C7  335   1.128   0.905  14.432  0.2243  1.0708  0.9044
   21TMC2    C8  336   1.374   0.533  14.240  0.1004 -0.1356 -0.3420
   21TMC2    O1  337   1.149   0.853  14.541 -0.5084 -0.7479  0.6391
   21TMC2    O2  338   1.410   0.467  14.140  0.4647  0.4975 -0.1829
   21TMC2    O5  339   1.461   0.590  14.317 -0.1165  0.4391 -0.5071
   21TMC2    H5  340   1.413   0.617  14.398  0.6805  1.0622 -0.2367
   22MPD2     C  341   1.325   1.277  14.282  0.2243 -0.4613  0.3287
   22MPD2    C1  342   1.374   1.152  14.274  0.0568 -0.7125  0.3524
   22MPD2    C2  343   1.346   1.076  14.159 -0.7306  0.9288 -0.8434
   22MPD2    C3  344   1.254   1.121  14.068 -0.7007  0.0535  0.6572
   22MPD2    C4  345   1.203   1.250  14.073  0.5943  0.5856  1.1773
   22MPD2    C5  346   1.234   1.319  14.191 -0.2515 -0.6800  0.2464
   22MPD2     H  347   1.386   0.976  14.156  0.3392  1.3214  0.1428
   22MPD2    H1  348   1.127   1.289  14.006 -0.2924 -0.4365  1.5925
   22MPD2    H2  349   1.346   1.348  14.361  1.3686 -1.6470  1.0905
   22MPD2    H3  350   1.185   1.416  14.200 -1.2877 -1.4325  2.5611
   22MPD2     N  351   1.210   1.027  13.969 -0.3709 -0.1316 -0.2066
   22MPD2    H5  352   1.162   1.060  13.885 -0.5452 -0.5615 -0.2795
   22MPD2    N1  353   1.449   1.081  14.367 -0.2156  0.4772 -0.4646
   22MPD2    H7  354   1.483   0.990  14.337 -1.2000 -0.0462  0.0168
   23TMC2    C1  355   2.895   2.203  14.788 -0.0428 -0.4336 -0.7383
   23TMC2    C2  356   2.906   2.281  14.677  0.0931  0.3264  0.0648
   23TMC2    C3  357   2.813   2.272  14.573  0.8449  0.5015 -0.1043
   23TMC2    C4  358   2.792   2.116  14.801  0.1256 -0.5252  0.7235
   23TMC2    C5  359   2.700   2.115  14.699  0.5252  0.5076 -0.6633
   23TMC2    C6  360   2.704   2.193  14.595  0.5553 -0.5723  0.5707
   23TMC2     C  361   3.012   2.194  14.882  0.1449  0.3226 -0.4726
   23TMC2     O  362   2.995   2.122  14.982  1.0511 -0.1332 -0.7243
   23TMC2     H  363   2.979   2.361  14.674 -0.4202  0.6389 -3.6286
   23TMC2    H1  364   2.781   2.059  14.893 -2.1854  1.1699  1.4962
   23TMC2    H2  365   2.632   2.176  14.516  0.9643 -0.0089  0.0721
   23TMC2    C7  366   2.594   2.012  14.694 -0.6266  0.4399 -0.5231
   23TMC2    C8  367   2.827   2.351  14.454  0.5853 -0.5253 -0.1776
   23TMC2    O1  368   2.621   1.909  14.747  0.1572  0.1039 -0.5055
   23TMC2    O2  369   2.870   2.468  14.459  0.0894  0.8253 -0.2659
   23TMC2    O5  370   2.852   2.257  14.357 -0.0421 -0.2430 -0.2683
   23TMC2    H5  371   2.815   2.172  14.388  0.1622 -0.8703 -1.7446
   24MPD2     C  372   3.463   2.350  15.080 -0.7553 -0.2441  0.5371
   24MPD2    C1  373   3.399   2.230  15.092  0.3907  0.5895  0.6932
   24MPD2    C2  374   3.280   2.211  15.022 -0.2976  0.2359  0.8011
   24MPD2    C3  375   3.224   2.304  14.936 -0.0384 -0.2721  0.5453
   24MPD2    C4  376   3.290   2.421  14.924  0.6888 -0.0326  0.0156
   24MPD2    C5  377   3.405   2.444  15.003  0.3571 -0.0271  0.0158
   24MPD2     H  378   3.232   2.115  15.031 -0.5448  0.3534  0.7383
   24MPD2    H1  379   3.264   2.502  14.857 -1.2219 -1.6817 -1.2441
   24MPD2    H2  380   3.552   2.364  15.141 -0.7048 -0.6211  0.5458
   24MPD2    H3  381   3.456   2.540  15.000 -2.7441  1.6535  0.7776
   24MPD2     N  382   3.111   2.282  14.854  0.1853 -0.1943 -0.1492
   24MPD2    H5  383   3.095   2.344  14.775  0.3336  0.0767  0.0327
   24MPD2    N1  384   3.438   2.134  15.197 -0.0786  0.8877  0.6394
   24MPD2    H7  385   3.407   2.038  15.193 -1.8670  1.5941 -2.1651
   25TMC2    C1  386   1.275   4.633  11.752 -0.2819 -0.4711  0.2092
   25TMC2    C2  387   1.245   0.029  11.760  0.0920 -0.1690  0.7034
   25TMC2    C3  388   1.264   0.093  11.878 -0.1076  0.5147 -0.1209
   25TMC2    C4  389   1.317   4.554  11.859 -0.7181 -0.0544 -0.3613
   25TMC2    C5  390   1.316   4.624  11.982  0.3923 -0.6799  0.2583
   25TMC2    C6  391   1.298   0.023  11.994 -0.4043  0.1891  0.0663
   25TMC2     C  392   1.321   4.584  11.622  0.3158  0.2545 -0.0987
   25TMC2     O  393   1.336   4.667  11.533  0.4165  0.2651  0.3431
   25TMC2     H  394   1.215   0.077  11.667  0.2456 -0.4003  0.5335
   25TMC2    H1  395   1.353   4.452  11.850  0.4156  0.3009  0.1070
   25TMC2    H2  396   1.283   0.074  12.088 -2.3930  0.4702 -0.3978
   25TMC2    C7  397   1.367   4.551  12.096 -0.2877 -0.0371 -0.1878
   25TMC2    C8  398   1.235   0.234  11.881 -0.1419  0.0381  0.0761
   25TMC2    O1  399   1.341   4.430  12.098  0.2954 -0.2399  0.0126
   25TMC2    O2  400   1.141   0.288  11.819  0.2418  0.3336  0.0154
   25TMC2    O5  401   1.324   0.294  11.963  0.0575  0.5063  0.1345
   25TMC2    H5  402   1.393   0.231  11.994 -0.2669 -0.6072 -1.4545
   26MPD2     C  403   1.444   4.230  11.287 -0.4109  0.3515  0.2527
   26MPD2    C1  404   1.369   4.163  11.382 -0.0443 -0.2798  0.1873
   26MPD2    C2  405   1.321   4.236  11.495  0.5165 -0.5269 -0.2578
   26MPD2    C3  406   1.362   4.373  11.500 -0.2445  0.1057 -0.5458
   26MPD2    C4  407   1.434   4.435  11.407  0.3493  0.7673 -0.2274
   26MPD2    C5  408   1.477   4.360  11.301  0.0843 -0.5805 -0.5815
   26MPD2     H  409   1.259   4.195  11.573 -1.1401  1.4205 -0.5646
   26MPD2    H1  410   1.465   4.539  11.404  1.5284  0.4405  0.5656
   26MPD2    H2  411   1.472   4.183  11.194 -2.2574  0.3772 -0.3183
   26MPD2    H3  412   1.545   4.404  11.230 -0.0313  0.9248  0.2394
   26MPD2     N  413   1.308   4.448  11.610 -0.1242  0.1255  0.3674
   26MPD2    H5  414   1.254   4.396  11.678  0.8852 -0.1750  0.9329
   26MPD2    N1  415   1.335   4.030  11.352  0.2085  0.0213  0.0903
   26MPD2    H7  416   1.369   4.000  11.261  0.9402 -1.0134  0.7010
   27TMC2    C1  417   0.509   1.673  12.321  1.0981 -0.4361 -0.0161
   27TMC2    C2  418   0.466   1.793  12.271 -0.1914 -0.1307  0.2747
   27TMC2    C3  419   0.554   1.899  12.273 -0.3097 -0.3986  0.3221
   27TMC2    C4  420   0.623   1.663  12.395 -0.3750  0.8822  0.1387
   27TMC2    C5  421   0.701   1.774  12.418 -0.0538 -0.9228  0.4789
   27TMC2    C6  422   0.668   1.889  12.349  0.4300  0.1773 -0.0839
   27TMC2     C  423   0.409   1.590  12.374 -0.8507 -0.0837  1.0278
   27TMC2     O  424   0.447   1.476  12.399 -0.1951  0.2434  0.3261
   27TMC2     H  425   0.376   1.793  12.210 -0.5711 -0.3702  0.8350
   27TMC2    H1  426   0.653   1.568  12.437  1.6725  1.4449 -0.0348
   27TMC2    H2  427   0.740   1.970  12.341  1.4510 -0.7939 -0.7725
   27TMC2    C7  428   0.710   1.783  12.561 -0.3315 -0.3733 -0.5830
   27TMC2    C8  429   0.502   2.027  12.232 -0.0461 -0.3986  0.0427
   27TMC2    O1  430   0.721   1.678  12.622 -0.1470  0.5302 -0.0124
   27TMC2    O2  431   0.389   2.047  12.192 -0.5348  0.1632 -0.0232
   27TMC2    O5  432   0.577   2.130  12.285  0.1411 -0.0830  0.1374
   27TMC2    H5  433   0.653   2.104  12.341 -0.4976 -0.8327  0.6585
   28MPD2     C  434   4.659   1.468  12.462 -0.4547  0.3546  0.1606
   28MPD2    C1  435   4.664   1.602  12.428  0.5869  0.2934  0.2175
   28MPD2    C2  436   0.047   1.660  12.396  0.5719 -0.3585 -0.3393
   28MPD2    C3  437   0.162   1.585  12.406  1.0228 -0.2850 -0.6227
   28MPD2    C4  438   0.152   1.448  12.446 -0.4242  0.1402 -0.1436
   28MPD2    C5  439   0.029   1.392  12.473 -0.4032 -0.7059  0.0918
   28MPD2     H  440   0.059   1.765  12.372  3.3464 -0.7967 -0.9003
   28MPD2    H1  441   0.243   1.392  12.463  0.7359  1.7870 -0.8928
   28MPD2    H2  442   4.561   1.429  12.487 -0.1914  1.8222  3.4802
   28MPD2    H3  443   0.023   1.288  12.504 -0.6471 -0.1079  2.0682
   28MPD2     N  444   0.283   1.651  12.376  0.4742 -0.0878  0.3095
   28MPD2    H5  445   0.268   1.750  12.356  0.2996  0.0599  1.1899
   28MPD2    N1  446   4.536   1.664  12.419 -0.1127 -0.1510  0.3179
   28MPD2    H7  447   4.455   1.615  12.456 -1.6068  1.7338 -0.3844
   29TMC2    C1  448   4.730   4.185  14.475  0.3521  0.3997  0.6346
   29TMC2    C2  449   0.077   4.201  14.577  0.4515  0.7128 -0.3918
   29TMC2    C3  450   0.052   4.303  14.667 -0.2952  0.5129 -0.5801
   29TMC2    C4  451   4.632   4.281  14.449  0.3259  0.2498 -0.0777
   29TMC2    C5  452   4.614   4.384  14.534 -0.0714 -0.6414  0.5361
   29TMC2    C6  453   4.695   4.399  14.644 -0.7011  0.1835 -0.5549
   29TMC2     C  454   0.043   4.106  14.363  0.0372  0.5016 -0.1379
   29TMC2     O  455   0.146   4.042  14.376 -0.2910 -0.1703 -0.0504
   29TMC2     H  456   0.145   4.123  14.611 -1.4353 -0.5999  0.3683
   29TMC2    H1  457   4.584   4.296  14.354 -0.5389  0.6638  0.4320
   29TMC2    H2  458   4.672   4.486  14.705  2.4328  0.5823  0.0910
   29TMC2    C7  459   4.579   4.504  14.459 -0.2581 -0.3655  0.6000
   29TMC2    C8  460   0.098   4.263  14.805  0.8255  0.7166  0.4183
   29TMC2    O1  461   4.472   4.501  14.395 -0.2005  0.2164  0.3070
   29TMC2    O2  462   0.132   4.147  14.825 -0.3739  0.2427 -0.5199
   29TMC2    O5  463   0.062   4.359  14.892  0.1556  0.0856  0.3723
   29TMC2    H5  464   0.077   4.447  14.850 -1.3505  0.3627  0.3900
   30MPD2     C  465   4.736   3.947  13.865  0.1330  0.0184 -0.1989
   30MPD2    C1  466   0.054   3.886  13.974 -0.5196  0.4287 -0.1247
   30MPD2    C2  467   0.059   3.947  14.104  0.1598  0.2474 -0.3096
   30MPD2    C3  468   4.727   4.067  14.120  0.0468  0.3414  0.4877
   30MPD2    C4  469   4.670   4.125  14.009  0.1474  0.0402 -0.0848
   30MPD2    C5  470   4.677   4.068  13.887  0.0815 -0.4366 -0.3593
   30MPD2     H  471   0.099   3.891  14.188 -1.6949  0.4806  0.7266
   30MPD2    H1  472   4.620   4.221  14.014 -0.8220 -0.4720  0.0375
   30MPD2    H2  473   4.731   3.901  13.767  1.1811  0.9384 -0.6736
   30MPD2    H3  474   4.633   4.117  13.801  0.1074 -3.0388 -1.8434
   30MPD2     N  475   4.703   4.122  14.247  0.3603  0.2966 -0.2610
   30MPD2    H5  476   4.621   4.180  14.260 -1.9072 -2.6372 -1.2409
   30MPD2    N1  477   0.121   3.760  13.963 -0.3933 -0.6850 -0.0468
   30MPD2    H7  478   0.166   3.731  14.049  0.6284 -0.3643 -0.4662
   31TMC2    C1  479   3.091   2.783  15.085  0.1635 -0.1992 -0.4979
   31TMC2    C2  480   3.214   2.835  15.103  0.7299 -0.7550  0.1880
   31TMC2    C3  481   3.319   2.760  15.156 -0.6785  0.3014 -0.1838
   31TMC2    C4  482   3.050   2.665  15.132  0.2404  0.0064  0.1387
   31TMC2    C5  483   3.145   2.597  15.204 -0.1589 -0.9367  0.0251
   31TMC2    C6  484   3.275   2.641  15.212 -0.5185  0.2186 -0.5007
   31TMC2     C  485   3.005   2.874  15.005  0.1158  0.2856  0.2184
   31TMC2     O  486   3.065   2.953  14.933 -0.0924 -0.0795  0.7488
   31TMC2     H  487   3.234   2.938  15.075 -2.8761 -0.5428 -1.5055
   31TMC2    H1  488   2.958   2.615  15.107 -0.2884  0.8969  0.3039
   31TMC2    H2  489   3.352   2.579  15.255  0.1333  0.5306 -1.2118
   31TMC2    C7  490   3.098   2.506  15.304  0.3977  0.6933  0.3008
   31TMC2    C8  491   3.440   2.806  15.213  0.8231  0.6227 -0.4949
   31TMC2    O1  492   3.183   2.444  15.366  0.2011 -0.3547 -0.3159
   31TMC2    O2  493   3.520   2.872  15.141 -0.0728  0.2489 -0.1561
   31TMC2    O5  494   3.411   2.849  15.341  0.0997 -0.0038 -0.1513
   31TMC2    H5  495   3.345   2.795  15.389  0.5351 -0.7358 -0.3858
   32MPD2     C  496   2.536   3.041  14.819 -0.2097  0.0624 -0.0574
   32MPD2    C1  497   2.662   3.086  14.791 -0.2404  0.2182  0.1943
   32MPD2    C2  498   2.771   3.021  14.850 -0.2928 -0.3730  0.1249
   32MPD2    C3  499   2.757   2.913  14.937  0.4241 -0.0049 -0.1804
   32MPD2    C4  500   2.630   2.883  14.972  0.5967 -0.1774  0.1940
   32MPD2    C5  501   2.517   2.951  14.923  0.1162  0.3760  0.8643
   32MPD2     H  502   2.873   3.051  14.827 -0.3950 -1.9133 -2.3327
   32MPD2    H1  503   2.605   2.810  15.048  1.3814  1.7015  2.2606
   32MPD2    H2  504   2.448   3.094  14.784 -1.3954 -2.4539 -0.8623
   32MPD2    H3  505   2.415   2.927  14.951 -0.6689  1.5515 -0.9367
   32MPD2     N  506   2.867   2.848  15.007  0.1830 -0.3179  0.3349
   32MPD2    H5  507   2.844   2.767  15.063 -0.8849 -0.0247  0.3103
   32MPD2    N1  508   2.671   3.176  14.677 -0.2827  0.2612 -0.4827
   32MPD2    H7  509   2.584   3.207  14.635 -1.8476 -1.3422  1.5411
   33TMC2    C1  510   2.862   1.282  10.138  0.4065  0.4708 -0.1715
   33TMC2    C2  511   2.988   1.340  10.151  0.0122 -0.2051  0.0694
   33TMC2    C3  512   3.017   1.441  10.057  0.4427  0.1359  0.1715
   33TMC2    C4  513   2.773   1.322  10.043 -0.8082  0.9106  0.3237
   33TMC2    C5  514   2.809   1.429   9.961 -0.3321  0.2302 -0.1109
   33TMC2    C6  515   2.932   1.487   9.961  0.6228  0.4108 -0.4674
   33TMC2     C  516   2.818   1.173  10.219 -0.3102 -0.0050  0.4196
   33TMC2     O  517   2.700   1.141  10.214 -0.2527 -0.0932 -0.8214
   33TMC2     H  518   3.050   1.325  10.239  1.4360  2.1997 -0.5318
   33TMC2    H1  519   2.684   1.264  10.025 -1.7436  1.8008  2.0047
   33TMC2    H2  520   2.951   1.578   9.905 -1.0331 -0.0658 -1.7987
   33TMC2    C7  521   2.707   1.501   9.886  0.6324 -0.4260  0.4771
   33TMC2    C8  522   3.146   1.503  10.082  0.0082  0.3161 -0.5198
   33TMC2    O1  523   2.753   1.565   9.790 -0.6031  0.2111  0.7957
   33TMC2    O2  524   3.220   1.484  10.178 -0.2671  0.2569 -0.3311
   33TMC2    O5  525   3.168   1.601   9.992  0.1642  0.0425  0.3268
   33TMC2    H5  526   3.138   1.583   9.900 -0.7184  0.0856  0.6092
   34MPD2     C  527   2.932   0.763  10.491 -0.0383 -0.4891  0.4312
   34MPD2    C1  528   2.821   0.792  10.435 -0.5160 -0.5113 -0.8279
   34MPD2    C2  529   2.806   0.913  10.370 -0.2314  0.4061 -0.0901
   34MPD2    C3  530   2.914   1.004  10.363  0.3428 -0.5251 -0.3325
   34MPD2    C4  531   3.029   0.964  10.428  0.1199 -0.6249  0.6152
   34MPD2    C5  532   3.038   0.843  10.486 -0.4609 -0.8268 -0.8530
   34MPD2     H  533   2.713   0.943  10.324 -0.8407 -0.4737  0.5742
   34MPD2    H1  534   3.120   1.022  10.424 -0.2046 -0.2312 -1.2588
   34MPD2    H2  535   2.943   0.665  10.538  1.0554 -0.0885  1.0040
   34MPD2    H3  536   3.133   0.810  10.529 -1.1396  2.1815  2.9529
   34MPD2     N  537   2.921   1.128  10.292 -0.4832  0.5953 -0.1967
   34MPD2    H5  538   3.010   1.176  10.297 -0.0289 -0.1194 -1.5075
   34MPD2    N1  539   2.715   0.707  10.443  0.4691  0.3511  0.6193
   34MPD2    H7  540   2.734   0.631  10.508  1.1781 -1.2741 -1.4827
   35TMC2    C1  541   3.241   1.768  11.097 -0.3214  0.0165  0.4674
   35TMC2    C2  542   3.194   1.759  10.965  0.2868  0.4892 -0.6159
   35TMC2    C3  543   3.056   1.760  10.955 -0.3031 -0.2558 -0.0062
   35TMC2    C4  544   3.161   1.800  11.199  0.1796  0.2652 -0.1585
   35TMC2    C5  545   3.031   1.830  11.179 -0.4073  0.4727 -0.5896
   35TMC2    C6  546   2.975   1.812  11.052 -0.2337  0.3721 -0.1727
   35TMC2     C  547   3.383   1.795  11.100 -0.5880  0.6754 -0.2315
   35TMC2     O  548   3.435   1.827  10.994  0.5565 -0.3625  0.5457
   35TMC2     H  549   3.261   1.719  10.890  0.3757  1.3358 -0.9784
   35TMC2    H1  550   3.206   1.819  11.296 -1.6585  0.4444  0.6455
   35TMC2    H2  551   2.867   1.802  11.049 -0.1088 -1.0583  0.5774
   35TMC2    C7  552   2.940   1.826  11.296  0.6073  0.0527 -0.6738
   35TMC2    C8  553   2.983   1.747  10.829 -0.0841  0.1611 -0.7085
   35TMC2    O1  554   2.826   1.877  11.290  0.3428 -0.0639 -0.2274
   35TMC2    O2  555   3.034   1.793  10.725 -0.4170 -0.2728 -0.8111
   35TMC2    O5  556   2.927   1.627  10.825 -0.4072 -0.5398 -0.2861
   35TMC2    H5  557   2.898   1.601  10.915 -1.9852  0.7116 -0.4246
   36MPD2     C  558   3.784   2.003  11.337 -0.2519 -0.3910 -0.3063
   36MPD2    C1  559   3.736   1.904  11.419  0.2548 -0.2649 -0.4822
   36MPD2    C2  560   3.621   1.830  11.380  0.4129 -0.6266  0.2552
   36MPD2    C3  561   3.557   1.858  11.259  0.0361  0.2690  0.0217
   36MPD2    C4  562   3.613   1.960  11.178  0.5945 -0.5526  1.1416
   36MPD2    C5  563   3.727   2.029  11.218 -0.6942 -0.1588  0.3615
   36MPD2     H  564   3.582   1.754  11.447  3.5952 -1.0040  1.6675
   36MPD2    H1  565   3.569   1.996  11.086 -0.1024 -0.0159  1.6880
   36MPD2    H2  566   3.872   2.059  11.368  0.3886 -0.1994 -2.4958
   36MPD2    H3  567   3.777   2.102  11.155  3.6928 -2.0331  1.6398
   36MPD2     N  568   3.439   1.787  11.227  0.3189 -0.3657  0.2044
   36MPD2    H5  569   3.387   1.734  11.295  2.8319 -1.0814  1.5558
   36MPD2    N1  570   3.803   1.888  11.540  0.3316 -0.1199 -0.0545
   36MPD2    H7  571   3.880   1.951  11.561 -1.3355  2.7352 -2.5307
   37TMC2    C1  572   1.161   1.898  12.252 -0.1650 -0.0633  0.5840
   37TMC2    C2  573   1.084   1.974  12.161  1.0518 -0.3338  1.1686
   37TMC2    C3  574   1.136   2.007  12.041  0.3518 -0.1908  0.0452
   37TMC2    C4  575   1.291   1.864  12.224 -0.0838 -0.0474 -0.0255
   37TMC2    C5  576   1.338   1.909  12.099  0.2077  0.6792  0.0499
   37TMC2    C6  577   1.266   1.974  11.999 -0.0473  0.4437 -0.0735
   37TMC2     C  578   1.124   1.916  12.390  0.7510 -0.3613 -0.3665
   37TMC2     O  579   1.006   1.926  12.420 -0.0759 -0.2747 -0.5969
   37TMC2     H  580   0.982   2.000  12.189  1.9620  4.4021  0.1032
   37TMC2    H1  581   1.348   1.804  12.294 -1.1928 -1.3956 -0.2739
   37TMC2    H2  582   1.320   2.009  11.912 -0.7439  0.9071 -0.3205
   37TMC2    C7  583   1.481   1.908  12.098 -0.3070 -0.5068 -0.5847
   37TMC2    C8  584   1.042   2.059  11.940 -0.1799  1.0466  0.1398
   37TMC2    O1  585   1.533   1.928  12.209 -0.0825  0.9131 -0.2155
   37TMC2    O2  586   0.939   1.996  11.916  0.2506  0.1176  0.2900
   37TMC2    O5  587   1.114   2.124  11.841  0.3083  0.5382 -0.2877
   37TMC2    H5  588   1.203   2.163  11.859 -0.6312  2.9482 -0.9141
   38MPD2     C  589   1.196   1.926  12.898  0.8820  0.0383 -0.6212
   38MPD2    C1  590   1.320   1.912  12.832  0.9717 -0.2200  0.2225
   38MPD2    C2  591   1.327   1.913  12.698  0.2198 -0.0288  0.1556
   38MPD2    C3  592   1.213   1.924  12.616 -0.0762  0.1834  0.0290
   38MPD2    C4  593   1.093   1.936  12.682 -0.4565  0.7852 -0.2193
   38MPD2    C5  594   1.091   1.944  12.818  0.5750 -0.1176  0.4572
   38MPD2     H  595   1.425   1.906  12.654 -0.3656 -1.0434 -0.9831
   38MPD2    H1  596   0.996   1.954  12.637 -0.2492  0.3628 -0.8320
   38MPD2    H2  597   1.177   1.919  13.005  0.8773 -1.2953 -0.7094
   38MPD2    H3  598   0.995   1.959  12.865  0.6238  3.1025 -0.5048
   38MPD2     N  599   1.232   1.919  12.474 -0.5046 -0.0942 -0.1296
   38MPD2    H5  600   1.329   1.911  12.446 -0.5544 -0.2884 -0.2419
   38MPD2    N1  601   1.438   1.896  12.897  0.1651 -0.5362 -0.0392
   38MPD2    H7  602   1.520   1.884  12.839 -0.6647  0.2857 -1.3522
   39TMC2    C1  603   0.864   4.117   1.924  0.2253 -0.1485 -0.1657
   39TMC2    C2  604   0.897   4.013   2.001 -0.4573 -0.6204 -0.2448
   39TMC2    C3  605   0.899   4.034   2.140  0.4379 -0.4803 -0.5374
   39TMC2    C4  606   0.861   4.247   1.964  0.5957  0.0541 -0.4796
   39TMC2    C5  607   0.871   4.268   2.102  0.7452 -0.0672 -0.2870
   39TMC2    C6  608   0.898   4.162   2.187  0.1064 -0.1886 -0.1079
   39TMC2     C  609   0.802   4.088   1.791 -0.3993  0.5025  0.4391
   39TMC2     O  610   0.734   4.176   1.746  0.1698 -0.7739 -0.2599
   39TMC2     H  611   0.902   3.913   1.958  0.8527  0.2974 -2.2127
   39TMC2    H1  612   0.826   4.326   1.898 -1.0380  1.6456  2.3156
   39TMC2    H2  613   0.907   4.171   2.295  1.2439  1.4613 -0.3342
   39TMC2    C7  614   0.832   4.388   2.180 -0.3203  0.2439 -0.4058
   39TMC2    C8  615   0.927   3.917   2.216  0.3257  0.6563 -0.0179
   39TMC2    O1  616   0.771   4.354   2.279  0.2875 -0.0017 -0.2698
   39TMC2    O2  617   0.987   3.921   2.321  0.0635 -0.2115  0.5315
   39TMC2    O5  618   0.830   3.827   2.180  0.1335 -0.2853  0.3045
   39TMC2    H5  619   0.775   3.854   2.103 -1.0709 -0.9746  0.9370
   40MPD2     C  620   0.964   3.906   1.518  0.1630  0.3739  0.0390
   40MPD2    C1  621   0.853   3.958   1.579 -0.1361 -0.5561  0.4952
   40MPD2    C2  622   0.736   3.994   1.514  0.8833  0.2165 -0.4061
   40MPD2    C3  623   0.727   3.981   1.372  0.1158  0.1645  0.1414
   40MPD2    C4  624   0.832   3.919   1.309 -0.3658  0.5725  0.1326
   40MPD2    C5  625   0.949   3.889   1.383 -0.0598 -1.3391 -0.0457
   40MPD2     H  626   0.648   4.014   1.574  2.6439  2.2041  1.5451
   40MPD2    H1  627   0.836   3.919   1.201 -3.0210 -2.9382  0.0468
   40MPD2    H2  628   1.060   3.883   1.562  0.6964  1.9984 -0.2805
   40MPD2    H3  629   1.041   3.876   1.326  0.6462  3.0654  0.0969
   40MPD2     N  630   0.604   3.999   1.297 -0.5575  0.3659  0.4222
   40MPD2    H5  631   0.604   3.967   1.201 -1.9353  0.2159  0.4731
   40MPD2    N1  632   0.877   3.992   1.721  0.4714  0.4904 -0.2758
   40MPD2    H7  633   0.955   3.948   1.769 -0.6006  1.2912  2.1769
   41TMC2    C1  634   3.725   2.161  13.890  0.3031  0.0990 -0.5342
   41TMC2    C2  635   3.761   2.265  13.977  0.1010 -0.2877 -0.0848
   41TMC2    C3  636   3.722   2.393  13.939 -0.1547  0.0759  0.4500
   41TMC2    C4  637   3.678   2.183  13.758  1.2616 -0.0178 -0.2600
   41TMC2    C5  638   3.645   2.319  13.731 -0.0463  0.1273 -0.1724
   41TMC2    C6  639   3.665   2.417  13.819  0.0449  0.2005 -0.6092
   41TMC2     C  640   3.736   2.023  13.921  0.0448  0.0275 -0.2814
   41TMC2     O  641   3.717   1.941  13.830 -0.0295  0.3932  0.5113
   41TMC2     H  642   3.817   2.259  14.070 -0.3039 -0.8227  0.1258
   41TMC2    H1  643   3.651   2.107  13.686 -1.1776 -0.5635  1.2422
   41TMC2    H2  644   3.658   2.519  13.784  1.8533  1.0906  1.6164
   41TMC2    C7  645   3.615   2.365  13.597 -1.1195 -0.9367 -0.2003
   41TMC2    C8  646   3.827   2.492  13.983 -0.9449 -0.2966  0.8544
   41TMC2    O1  647   3.575   2.480  13.590 -0.2368  0.1635 -0.4583
   41TMC2    O2  648   3.936   2.456  14.014  0.2918 -0.0835 -0.1985
   41TMC2    O5  649   3.751   2.593  14.034 -0.3948  0.3250 -0.4722
   41TMC2    H5  650   3.666   2.597  13.985 -1.0554  0.3851  0.6676
   42MPD2     C  651   3.755   1.766  14.055 -0.2220  0.0003 -0.1786
   42MPD2    C1  652   3.777   1.886  14.119 -0.2624  0.0411  0.4766
   42MPD2    C2  653   3.782   1.890  14.252 -0.0708 -0.3292 -0.3385
   42MPD2    C3  654   3.785   1.771  14.321  0.2877 -0.1914 -0.0265
   42MPD2    C4  655   3.789   1.650  14.260 -0.4530 -0.3360 -0.0672
   42MPD2    C5  656   3.774   1.650  14.126  0.1458  0.4980  0.4882
   42MPD2     H  657   3.771   1.983  14.306  1.7379 -1.4567  1.9887
   42MPD2    H1  658   3.798   1.556  14.312 -0.5111 -0.5997 -0.5365
   42MPD2    H2  659   3.740   1.752  13.949  1.1280  0.2193 -0.3929
   42MPD2    H3  660   3.760   1.551  14.083  0.4272 -0.1017  1.7755
   42MPD2     N  661   3.798   1.772  14.456  0.1415  0.2743 -0.2583
   42MPD2    H5  662   3.812   1.679  14.494  1.2380 -0.3240 -2.1270
   42MPD2    N1  663   3.766   2.012  14.056 -0.0802 -0.0282  0.2610
   42MPD2    H7  664   3.788   2.099  14.103  0.2495  1.1515 -2.1227
   43TMC2    C1  665   0.714   0.623   0.994  0.3848 -0.4919 -0.2683
   43TMC2    C2  666   0.622   0.721   0.952 -0.1644  0.1876 -0.4104
   43TMC2    C3  667   0.600   0.831   1.033  0.0481  0.7988  0.1780
   43TMC2    C4  668   0.777   0.630   1.119 -0.4942 -0.3473 -0.4788
   43TMC2    C5  669   0.738   0.733   1.201 -0.0920  0.2435 -0.0134
   43TMC2    C6  670   0.649   0.837   1.163  0.1421  0.2392  0.0394
   43TMC2     C  671   0.748   0.505   0.917  0.9357  0.4472 -1.3852
   43TMC2     O  672   0.855   0.452   0.951  0.6171  0.1321 -0.7236
   43TMC2     H  673   0.584   0.718   0.851 -0.0789 -0.2806 -0.4271
   43TMC2    H1  674   0.830   0.539   1.146  0.9622  0.4100 -0.7641
   43TMC2    H2  675   0.608   0.902   1.239 -0.6631  0.1760 -0.3437
   43TMC2    C7  676   0.828   0.752   1.315 -0.3381  0.0708  0.1093
   43TMC2    C8  677   0.479   0.906   1.008 -0.4021 -0.3759 -0.2629
   43TMC2    O1  678   0.923   0.675   1.317 -0.1103  0.2702  0.3640
   43TMC2    O2  679   0.403   0.872   0.918 -0.1596  0.1052 -0.0910
   43TMC2    O5  680   0.514   1.032   1.028 -0.2752  0.5704  0.0495
   43TMC2    H5  681   0.583   1.060   1.093 -1.1071 -0.3136  1.2987
   44MPD2     C  682   0.667   0.104   0.600  0.0510  1.2560  0.5008
   44MPD2    C1  683   0.780   0.142   0.670  0.0106 -0.1856 -0.5476
   44MPD2    C2  684   0.771   0.254   0.748 -0.2472 -0.0650 -0.2105
   44MPD2    C3  685   0.660   0.339   0.752 -0.5335  0.7219  0.6482
   44MPD2    C4  686   0.555   0.304   0.662  0.7829  0.2639  0.5140
   44MPD2    C5  687   0.559   0.184   0.596 -0.2940  0.1885  0.8197
   44MPD2     H  688   0.860   0.273   0.807  0.0806 -1.3109 -0.3034
   44MPD2    H1  689   0.478   0.379   0.643 -0.5853 -0.1752  4.2452
   44MPD2    H2  690   0.665   0.024   0.527 -0.3283  4.2747 -2.7881
   44MPD2    H3  691   0.477   0.161   0.530 -0.0625 -1.1992  1.0292
   44MPD2     N  692   0.649   0.462   0.827 -0.2985  0.1795  0.0786
   44MPD2    H5  693   0.573   0.527   0.809  0.2209  1.1474  1.3641
   44MPD2    N1  694   0.905   0.065   0.671  0.4134 -0.0077  0.6147
   44MPD2    H7  695   0.988   0.116   0.700  0.1955  0.7596 -0.1115
   45TMC2    C1  696   1.050   1.731  10.044  0.0189 -0.1150  0.4311
   45TMC2    C2  697   1.159   1.643  10.039 -0.3609  0.6787  0.0439
   45TMC2    C3  698   1.275   1.687  10.102 -0.0986 -0.0909  0.0336
   45TMC2    C4  699   1.047   1.854  10.104  0.3218  0.0080 -0.3627
   45TMC2    C5  700   1.166   1.894  10.162 -0.3791 -0.1057  0.3357
   45TMC2    C6  701   1.282   1.817  10.154  0.9350  0.7181  1.0847
   45TMC2     C  702   0.931   1.662  10.000  0.0379 -0.5375 -0.7635
   45TMC2     O  703   0.922   1.546  10.041  0.4318 -0.4923  0.4402
   45TMC2     H  704   1.149   1.546   9.991 -0.9016 -0.1608  1.8518
   45TMC2    H1  705   0.958   1.917  10.106 -0.0326 -0.5334  1.1316
   45TMC2    H2  706   1.374   1.846  10.203  1.7469 -0.3624  0.2029
   45TMC2    C7  707   1.171   2.032  10.212  0.3281  0.3341 -0.2295
   45TMC2    C8  708   1.354   1.587  10.171 -1.3152  0.2291 -0.2753
   45TMC2    O1  709   1.061   2.078  10.245  0.1505 -0.3547 -0.2626
   45TMC2    O2  710   1.313   1.551  10.279  0.1746 -0.6601  0.3016
   45TMC2    O5  711   1.377   1.498  10.070 -0.5888 -0.0115 -0.5254
   45TMC2    H5  712   1.415   1.544   9.992 -1.1458 -0.4353 -1.0519
   46MPD2     C  713   0.683   1.583   9.876  1.1424 -0.1078 -0.1489
   46MPD2    C1  714   0.728   1.708   9.866 -0.5878 -0.4453  0.1620
   46MPD2    C2  715   0.650   1.798   9.797 -0.0034  0.4139 -0.3170
   46MPD2    C3  716   0.528   1.763   9.741  0.1192 -0.4928 -0.4109
   46MPD2    C4  717   0.481   1.632   9.753 -0.2184  0.8370 -0.2229
   46MPD2    C5  718   0.561   1.550   9.832  0.2968 -0.0206 -0.5935
   46MPD2     H  719   0.682   1.901   9.788 -0.8064  0.7323  0.4645
   46MPD2    H1  720   0.390   1.593   9.708  0.9895 -1.4425 -0.7023
   46MPD2    H2  721   0.733   1.506   9.933  2.8282  1.4015  0.4284
   46MPD2    H3  722   0.514   1.454   9.851  1.8239 -0.3071  1.7678
   46MPD2     N  723   0.461   1.863   9.670  0.0603  0.0579 -0.3041
   46MPD2    H5  724   0.505   1.953   9.655 -1.2936  0.3912 -2.3041
   46MPD2    N1  725   0.854   1.748   9.929 -0.6489 -0.2127 -0.3884
   46MPD2    H7  726   0.882   1.845   9.920  2.0529 -1.1829 -2.3816
   47TMC2    C1  727   1.436   3.406   9.991 -0.1240 -0.1418  0.4155
   47TMC2    C2  728   1.375   3.360  10.095 -0.3620  0.3416  0.8318
   47TMC2    C3  729   1.364   3.440  10.205  0.1309  0.4692 -0.6792
   47TMC2    C4  730   1.466   3.536   9.977 -0.1467 -0.2587  0.4033
   47TMC2    C5  731   1.457   3.618  10.094  0.5521  0.7826  0.1275
   47TMC2    C6  732   1.411   3.568  10.210 -0.6461 -0.4562 -0.3834
   47TMC2     C  733   1.447   3.324   9.876 -0.3549 -0.2957  0.3449
   47TMC2     O  734   1.346   3.287   9.817  0.1464  0.7107 -0.0280
   47TMC2     H  735   1.338   3.259  10.106  0.7129  0.0980  2.1677
   47TMC2    H1  736   1.507   3.571   9.883 -0.3385  0.3577  0.5459
   47TMC2    H2  737   1.414   3.634  10.295 -0.1393 -1.3477  0.2919
   47TMC2    C7  738   1.493   3.762  10.082 -0.0856 -0.0647 -1.0528
   47TMC2    C8  739   1.316   3.372  10.324 -0.1402  0.2632  0.5877
   47TMC2    O1  740   1.552   3.787   9.977  0.6088  0.5883  0.3546
   47TMC2    O2  741   1.282   3.256  10.325 -0.2809  0.5182  0.1665
   47TMC2    O5  742   1.311   3.451  10.431  0.2763  0.1219 -0.5817
   47TMC2    H5  743   1.316   3.548  10.419  0.9414  0.0804 -0.6169
   48MPD2     C  744   1.556   3.207   9.622  0.0779 -0.5426 -0.2415
   48MPD2    C1  745   1.632   3.244   9.727  0.2666  0.0553  0.4782
   48MPD2    C2  746   1.771   3.226   9.719  0.2642  0.0778 -0.1012
   48MPD2    C3  747   1.830   3.176   9.604 -0.3897  0.2536 -0.8226
   48MPD2    C4  748   1.749   3.140   9.500  0.0041  0.1514 -0.1642
   48MPD2    C5  749   1.617   3.159   9.510 -0.3735  0.0301  0.3101
   48MPD2     H  750   1.834   3.260   9.801  0.3157  0.6999 -0.4060
   48MPD2    H1  751   1.784   3.097   9.407 -0.8184 -0.4150 -0.2074
   48MPD2    H2  752   1.451   3.232   9.629 -0.0226 -0.3960 -2.2396
   48MPD2    H3  753   1.562   3.139   9.419  1.0854  0.1874 -0.6111
   48MPD2     N  754   1.968   3.145   9.599 -1.1718  0.3768  0.0994
   48MPD2    H5  755   2.022   3.134   9.684  0.4928  0.1170 -0.9904
   48MPD2    N1  756   1.579   3.299   9.842  0.1633 -0.2393 -0.7045
   48MPD2    H7  757   1.649   3.330   9.907  1.3965  1.4970 -2.8686
   49TMC2    C1  758   1.439   0.976   9.681  0.0529 -0.4265 -0.4134
   49TMC2    C2  759   1.303   0.963   9.658 -0.2731  0.0173 -0.5816
   49TMC2    C3  760   1.248   1.025   9.549  0.3985  0.4189 -0.1483
   49TMC2    C4  761   1.519   1.047   9.589 -0.3202  0.4770  0.1086
   49TMC2    C5  762   1.454   1.108   9.482  0.1031  0.6040  0.1451
   49TMC2    C6  763   1.321   1.093   9.453  0.6351 -0.0631 -0.9196
   49TMC2     C  764   1.503   0.943   9.815 -0.0471 -0.5425  0.7034
   49TMC2     O  765   1.618   0.985   9.838  0.5855  0.1982  0.3375
   49TMC2     H  766   1.230   0.923   9.728  0.0634 -0.1374 -0.3252
   49TMC2    H1  767   1.626   1.063   9.601  0.0636  0.9995 -3.8440
   49TMC2    H2  768   1.272   1.121   9.361 -0.4882 -2.1164 -0.9455
   49TMC2    C7  769   1.542   1.189   9.403 -0.0650 -1.0311  0.3825
   49TMC2    C8  770   1.101   1.009   9.524 -0.6162  0.0634 -0.3838
   49TMC2    O1  771   1.660   1.155   9.390 -0.0551 -0.1246  0.3337
   49TMC2    O2  772   1.030   0.923   9.574 -0.0957  0.2632  0.1541
   49TMC2    O5  773   1.044   1.123   9.475 -0.0728  0.2804 -0.2441
   49TMC2    H5  774   1.107   1.197   9.461  1.1320 -0.7737 -0.4049
   50MPD2     C  775   1.524   0.912  10.117  0.9419 -0.3604 -0.6131
   50MPD2    C1  776   1.460   0.826  10.025 -0.1928  0.1157 -0.2434
   50MPD2    C2  777   1.401   0.707  10.078 -0.8158 -0.4504 -0.0119
   50MPD2    C3  778   1.409   0.679  10.212 -0.1406 -0.4312 -0.2694
   50MPD2    C4  779   1.474   0.766  10.300  0.0457  0.5600  0.5630
   50MPD2    C5  780   1.533   0.878  10.250 -0.1293 -0.5861  0.4725
   50MPD2     H  781   1.352   0.642  10.007  0.5256 -0.9785 -0.4428
   50MPD2    H1  782   1.500   0.738  10.402  0.4851 -5.1229 -1.1189
   50MPD2    H2  783   1.562   1.010  10.089 -0.5864  0.1252 -1.0115
   50MPD2    H3  784   1.585   0.944  10.319 -0.6856 -1.9393  2.1723
   50MPD2     N  785   1.352   0.562  10.264  1.3075 -0.5472  0.7563
   50MPD2    H5  786   1.354   0.554  10.365  0.7948 -0.4841  0.7681
   50MPD2    N1  787   1.437   0.849   9.885  0.2010 -0.7364  0.2096
   50MPD2    H7  788   1.383   0.778   9.837 -1.7677 -0.2024  1.5948
   51TMC2    C1  789   2.228   4.055   1.548  0.4732 -0.0285 -0.1018
   51TMC2    C2  790   2.132   4.157   1.547  0.0768  0.2274  0.3846
   51TMC2    C3  791   2.103   4.224   1.432  0.3613  0.1459 -0.2020
   51TMC2    C4  792   2.309   4.039   1.438  0.2248  0.1863 -0.7940
   51TMC2    C5  793   2.293   4.117   1.327 -0.5448  0.9381  0.3028
   51TMC2    C6  794   2.187   4.203   1.317 -0.4339 -0.0327 -0.0752
   51TMC2     C  795   2.205   3.932   1.618  0.5330 -0.2740  0.1103
   51TMC2     O  796   2.282   3.839   1.616  0.6364  0.1704 -0.1571
   51TMC2     H  797   2.080   4.186   1.638 -3.2825  0.1084 -1.4898
   51TMC2    H1  798   2.385   3.962   1.438 -0.1911 -0.2360 -2.6978
   51TMC2    H2  799   2.167   4.271   1.236  1.9045  0.8582  0.0802
   51TMC2    C7  800   2.376   4.096   1.213 -0.1464  0.1372 -0.2278
   51TMC2    C8  801   1.971   4.296   1.436  1.0230 -0.2238 -0.1325
   51TMC2    O1  802   2.475   4.027   1.226 -0.2249  0.4736  0.7359
   51TMC2    O2  803   1.903   4.311   1.538 -0.2978  0.0688  0.3187
   51TMC2    O5  804   1.918   4.296   1.315 -0.0020  0.7594 -0.4314
   51TMC2    H5  805   1.980   4.264   1.246 -0.3758  1.5970 -1.1602
   52MPD2     C  806   1.797   3.635   1.722 -0.0678  0.0046 -0.2559
   52MPD2    C1  807   1.931   3.592   1.698 -0.0670 -0.5485 -0.4247
   52MPD2    C2  808   2.026   3.686   1.675  0.0685 -0.0680 -0.6874
   52MPD2    C3  809   1.994   3.826   1.688 -0.1445 -0.3503 -0.1154
   52MPD2    C4  810   1.865   3.859   1.717  0.0362 -0.3438 -0.8103
   52MPD2    C5  811   1.765   3.765   1.725  0.1209  0.0085 -0.0080
   52MPD2     H  812   2.127   3.655   1.653 -0.8913 -2.6369 -1.4119
   52MPD2    H1  813   1.840   3.964   1.715 -0.3708 -0.4275 -0.2323
   52MPD2    H2  814   1.710   3.570   1.713 -0.1618  0.0678  0.2012
   52MPD2    H3  815   1.660   3.788   1.739  0.4138  0.9979  0.5946
   52MPD2     N  816   2.076   3.938   1.660  0.0860  0.3517 -0.9124
   52MPD2    H5  817   2.028   4.027   1.667  1.3027  0.8880  0.6432
   52MPD2    N1  818   1.969   3.455   1.691 -0.7122 -0.3112 -0.4442
   52MPD2    H7  819   2.061   3.431   1.657 -0.0318  0.2945  0.9758
   53TMC2    C1  820   2.156   1.893  12.258  0.4100 -0.0878  0.3325
   53TMC2    C2  821   2.297   1.904  12.277 -0.5269  0.4643 -0.2447
   53TMC2    C3  822   2.340   1.938  12.403  0.2394  0.3752  0.0990
   53TMC2    C4  823   2.065   1.929  12.354  0.0463 -0.0430  0.5551
   53TMC2    C5  824   2.115   1.978  12.471 -0.6594 -0.3788 -0.3458
   53TMC2    C6  825   2.247   1.983  12.499  0.3236 -0.3484 -0.2581
   53TMC2     C  826   2.113   1.900  12.121 -0.0921  0.1182 -0.6262
   53TMC2     O  827   2.192   1.896  12.027  0.0317 -0.0512  0.3296
   53TMC2     H  828   2.372   1.883  12.202 -0.6597 -3.2707  0.6693
   53TMC2    H1  829   1.958   1.924  12.338 -0.3586  0.1605  3.1686
   53TMC2    H2  830   2.283   2.040  12.584 -2.0287 -1.3442  1.4136
   53TMC2    C7  831   2.016   2.030  12.574 -0.0728 -0.0563 -0.1562
   53TMC2    C8  832   2.481   1.950  12.429 -0.2616 -0.8243 -0.1430
   53TMC2    O1  833   1.900   2.009  12.537  0.0063  0.6526 -0.1586
   53TMC2    O2  834   2.563   1.958  12.341 -0.7972  0.0291  0.2464
   53TMC2    O5  835   2.504   1.921  12.558  0.5649  0.0628 -0.1565
   53TMC2    H5  836   2.421   1.900  12.607  0.0554  2.3011 -0.0836
   54MPD2     C  837   1.939   1.947  11.879 -0.8688  0.3405  0.2724
   54MPD2    C1  838   1.897   1.905  11.999 -0.6787  0.1102 -0.0754
   54MPD2    C2  839   1.766   1.896  12.030 -0.1788  0.0794 -0.9819
   54MPD2    C3  840   1.670   1.925  11.942 -0.1081  0.3161 -0.0379
   54MPD2    C4  841   1.709   1.940  11.812 -0.7064 -0.0560 -0.0356
   54MPD2    C5  842   1.843   1.967  11.781 -0.2474  0.2863 -0.3715
   54MPD2     H  843   1.742   1.874  12.134  0.7718  0.8373 -0.6005
   54MPD2    H1  844   1.632   1.947  11.736 -1.6902  1.1398  1.0739
   54MPD2    H2  845   2.039   1.982  11.858 -1.1228  1.4164  0.8589
   54MPD2    H3  846   1.875   1.980  11.678  0.0902 -0.1549 -0.3221
   54MPD2     N  847   1.529   1.912  11.971 -0.0539 -0.9556  0.2543
   54MPD2    H5  848   1.470   1.908  11.889  0.5654 -0.0844 -0.2364
   54MPD2    N1  849   1.978   1.893  12.111  0.2971 -0.4658  0.3898
   54MPD2    H7  850   1.924   1.889  12.197 -1.0402 -1.2564 -0.4941
   55TMC2    C1  851   3.621   4.562  17.721  0.1057  0.9634  0.3998
   55TMC2    C2  852   3.599   4.486  17.609  0.0637  0.4687 -0.5157
   55TMC2    C3  853   3.610   4.354  17.635 -0.1881 -0.0934  0.4887
   55TMC2    C4  854   3.660   4.514   0.093  1.0250  0.3238 -0.1380
   55TMC2    C5  855   3.681   4.383   0.109  0.6488 -0.4896 -0.1914
   55TMC2    C6  856   3.663   4.300   0.002 -0.1294  0.2959 -0.4731
   55TMC2     C  857   3.560   4.692  17.727 -0.5797 -0.5751  0.2287
   55TMC2     O  858   3.511   4.719   0.086  0.1977  0.5163  0.0888
   55TMC2     H  859   3.584   4.535  17.514 -1.0807  0.5400 -0.2947
   55TMC2    H1  860   3.671   4.586   0.173 -1.1641  1.6417 -1.0308
   55TMC2    H2  861   3.668   4.192   0.010  0.0066  0.5040  2.1977
   55TMC2    C7  862   3.688   4.317   0.237 -0.1431 -0.7856 -0.4140
   55TMC2    C8  863   3.620   4.283  17.510 -0.3102  0.2187  0.5551
   55TMC2    O1  864   3.718   4.201   0.247  0.0150 -0.0358 -0.2732
   55TMC2    O2  865   3.685   4.179  17.495 -0.0115  0.2676  0.2227
   55TMC2    O5  866   3.517   4.328  17.429 -0.4063 -0.5085 -0.1218
   55TMC2    H5  867   3.437   4.373  17.465  1.2869  0.7045  2.1078
   56MPD2     C  868   3.535   0.194  17.447 -0.0961 -0.5344  0.5809
   56MPD2    C1  869   3.511   0.145  17.572  0.7317 -0.3151  0.7481
   56MPD2    C2  870   3.431   0.218  17.658  0.0432  0.2936  0.6942
   56MPD2    C3  871   3.374   0.342  17.621 -0.2725 -0.6201  0.1338
   56MPD2    C4  872   3.402   0.385  17.494  0.2914 -0.1786 -0.4908
   56MPD2    C5  873   3.476   0.311  17.410  0.0543  0.7280 -0.7023
   56MPD2     H  874   3.405   0.178   0.007  0.4590 -0.0218  0.6748
   56MPD2    H1  875   3.367   0.481  17.459  1.4646  0.8548  1.1858
   56MPD2    H2  876   3.599   0.134  17.383 -0.1262 -0.3669  0.3924
   56MPD2    H3  877   3.495   0.350  17.311 -0.6767 -2.0146 -1.9321
   56MPD2     N  878   3.290   0.411  17.712  0.2160  0.1374 -0.4201
   56MPD2    H5  879   3.274   0.378   0.058  2.8679  1.4858  0.5026
   56MPD2    N1  880   3.571   0.023  17.608  0.6242 -0.5693  0.3365
   56MPD2    H7  881   3.632   4.725  17.536  1.4193  1.5587 -0.0531
   57TMC2    C1  882   1.926   0.968  13.912 -0.6651 -0.1167  0.1380
   57TMC2    C2  883   2.051   1.000  13.962 -0.3186  0.4100 -1.0648
   57TMC2    C3  884   2.156   0.919  13.927 -0.1378  0.3288  0.5177
   57TMC2    C4  885   1.906   0.861  13.831 -0.2463 -0.6746 -0.2144
   57TMC2    C5  886   2.012   0.786  13.788  0.1924  0.5245  0.3314
   57TMC2    C6  887   2.141   0.815  13.837 -1.0946 -0.1603  0.5314
   57TMC2     C  888   1.811   1.050  13.945  0.4317 -0.2397  0.9018
   57TMC2     O  889   1.710   1.038  13.877  0.1758  0.7647  0.7818
   57TMC2     H  890   2.071   1.091  14.017 -0.7035 -0.9295  1.2820
   57TMC2    H1  891   1.809   0.846  13.784  0.3864 -1.3353 -1.3099
   57TMC2    H2  892   2.223   0.746  13.819 -1.3979 -0.9113  2.0340
   57TMC2    C7  893   1.982   0.671  13.704 -0.6404 -0.0005 -0.4277
   57TMC2    C8  894   2.280   0.985  13.930 -0.3100 -0.4420  0.3116
   57TMC2    O1  895   1.866   0.636  13.706  0.1437  0.2548 -0.1155
   57TMC2    O2  896   2.330   1.027  14.033  0.8626  0.0676  0.7317
   57TMC2    O5  897   2.343   0.946  13.816 -0.0848  0.2380  0.5324
   57TMC2    H5  898   2.277   0.920  13.749 -1.2597  1.0856  1.3438
   58MPD2     C  899   1.597   1.462  14.160  0.1765 -0.2922  0.4821
   58MPD2    C1  900   1.574   1.399  14.043 -0.3588  0.0986 -0.1905
   58MPD2    C2  901   1.645   1.287  14.006  0.9019 -0.3083  0.7211
   58MPD2    C3  902   1.735   1.236  14.092  0.6390  0.3411  0.2043
   58MPD2    C4  903   1.758   1.296  14.216  0.0552 -0.1557 -0.4171
   58MPD2    C5  904   1.694   1.417  14.247  0.9121  0.5753 -0.0027
   58MPD2     H  905   1.638   1.263  13.901  1.0090  3.5349 -0.1661
   58MPD2    H1  906   1.831   1.247  14.279 -0.3971 -1.6139 -1.0321
   58MPD2    H2  907   1.554   1.556  14.192 -0.1205 -1.1786  2.6839
   58MPD2    H3  908   1.720   1.482  14.330 -1.3558  1.7138 -0.1717
   58MPD2     N  909   1.822   1.122  14.057 -0.0269 -0.0392  0.4671
   58MPD2    H5  910   1.898   1.096  14.119  0.9224 -2.6541 -1.7658
   58MPD2    N1  911   1.488   1.454  13.950  0.2910 -0.0738 -0.8224
   58MPD2    H7  912   1.474   1.398  13.867 -1.1408 -0.3408 -0.4024
   59TMC2    C1  913   4.153   1.294  12.853 -0.3131 -0.3155  0.1435
   59TMC2    C2  914   4.181   1.173  12.909 -0.4334 -1.1971  0.0958
   59TMC2    C3  915   4.176   1.061  12.831 -0.1324 -0.5996 -0.3803
   59TMC2    C4  916   4.121   1.299  12.716 -0.2067  0.4989 -0.3390
   59TMC2    C5  917   4.122   1.188  12.641  1.1348  0.4286  0.3842
   59TMC2    C6  918   4.142   1.061  12.695  0.5789 -0.4989 -0.4048
   59TMC2     C  919   4.207   1.422  12.912 -0.0959  0.2237  0.9705
   59TMC2     O  920   4.182   1.533  12.858  0.1703 -0.1544 -0.5159
   59TMC2     H  921   4.181   1.150  13.015 -1.0707  2.4956  0.9015
   59TMC2    H1  922   4.105   1.399  12.677  2.7042 -0.3443 -3.6628
   59TMC2    H2  923   4.163   0.968  12.645  1.7832 -0.1455 -0.5752
   59TMC2    C7  924   4.176   1.188  12.505 -0.8193  0.0698 -0.1008
   59TMC2    C8  925   4.181   0.927  12.893 -0.3870 -0.5978 -1.2826
   59TMC2    O1  926   4.248   1.096  12.475  0.4046 -0.0551 -0.5538
   59TMC2    O2  927   4.128   0.827  12.852  0.4566 -0.1253 -0.0071
   59TMC2    O5  928   4.294   0.929  12.968 -0.1024  0.2179 -0.1418
   59TMC2    H5  929   4.349   1.009  12.950  0.6999 -0.0477  1.1121
   60MPD2     C  930   4.344   1.628  13.080  0.3727 -0.2594 -0.6433
   60MPD2    C1  931   4.324   1.496  13.110  0.2710  0.4413  0.0776
   60MPD2    C2  932   4.359   1.451  13.239  0.1435  0.0928 -0.2369
   60MPD2    C3  933   4.410   1.543  13.330  0.2394 -0.0615  0.2040
   60MPD2    C4  934   4.432   1.672  13.294 -0.1119  0.3228  0.0250
   60MPD2    C5  935   4.404   1.717  13.167  0.7347  0.4294  0.2933
   60MPD2     H  936   4.351   1.343  13.246  1.8501  0.1193  2.0688
   60MPD2    H1  937   4.492   1.736  13.358 -0.4369  0.9823 -0.3254
   60MPD2    H2  938   4.315   1.677  12.988  0.4482  2.1937  0.6470
   60MPD2    H3  939   4.417   1.822  13.144  1.5061  0.4696  0.8729
   60MPD2     N  940   4.460   1.502  13.458 -0.2290 -0.1492 -0.2060
   60MPD2    H5  941   4.525   1.570  13.496  0.8034 -0.5726 -1.2211
   60MPD2    N1  942   4.275   1.398  13.028  0.1158 -0.3132 -0.1679
   60MPD2    H7  943   4.261   1.308  13.073 -0.7297 -0.6034 -1.0182
   61TMC2    C1  944   3.986   2.030  15.279 -0.1498  0.4149 -0.1892
   61TMC2    C2  945   3.989   1.954  15.386  0.0629 -0.0540 -0.6429
   61TMC2    C3  946   3.985   2.019  15.507  0.1959  0.5613 -0.0594
   61TMC2    C4  947   3.974   2.163  15.291  0.4744 -0.1227 -0.5938
   61TMC2    C5  948   3.945   2.213  15.413 -0.7867  0.1010  0.4721
   61TMC2    C6  949   3.954   2.144  15.528  0.2325  0.0196  0.8433
   61TMC2     C  950   4.060   1.982  15.167 -0.2480  0.7777 -0.0712
   61TMC2     O  951   4.079   1.864  15.166 -0.0912  0.3575 -0.2288
   61TMC2     H  952   3.997   1.846  15.383 -0.7675 -0.1928  2.0437
   61TMC2    H1  953   3.946   2.222  15.205  0.1994 -0.3202 -0.6401
   61TMC2    H2  954   3.935   2.179  15.629 -1.8001 -0.0013  0.4740
   61TMC2    C7  955   3.940   2.356  15.415 -0.6738 -0.6322  0.4713
   61TMC2    C8  956   4.012   1.931  15.616 -0.3874  0.2541  0.0755
   61TMC2    O1  957   3.930   2.411  15.302  0.2358  0.2912  0.2277
   61TMC2    O2  958   3.933   1.842  15.650 -0.8510  0.5402  0.4588
   61TMC2    O5  959   4.117   1.982  15.685 -0.4784 -0.1851  0.0098
   61TMC2    H5  960   4.159   2.056  15.636 -4.1126  1.2661 -0.9151
   62MPD2     C  961   4.242   1.962  14.939 -0.2738  0.6803  0.5413
   62MPD2    C1  962   4.194   2.083  14.982 -0.4927 -0.6688 -0.2951
   62MPD2    C2  963   4.233   2.195  14.920 -0.3854  0.0751 -0.2577
   62MPD2    C3  964   4.324   2.192  14.817  0.8832  0.5529  0.2413
   62MPD2    C4  965   4.374   2.074  14.775 -0.1915 -0.9561 -0.1220
   62MPD2    C5  966   4.327   1.958  14.836  0.1719 -0.3065  0.6782
   62MPD2     H  967   4.188   2.289  14.953  0.5019 -0.4093  2.3153
   62MPD2    H1  968   4.431   2.067  14.683 -1.1410  1.2893 -0.8809
   62MPD2    H2  969   4.209   1.868  14.981  0.7920  0.5977  1.1940
   62MPD2    H3  970   4.358   1.868  14.784  2.0785  1.9568 -2.1423
   62MPD2     N  971   4.356   2.314  14.752 -0.1713  0.1684  0.3928
   62MPD2    H5  972   4.297   2.393  14.775  1.3007  2.0956 -2.4993
   62MPD2    N1  973   4.110   2.090  15.095 -0.3912  0.1055  0.7210
   62MPD2    H7  974   4.095   2.181  15.137 -0.6959 -0.5366  2.0018
   63TMC2    C1  975   3.347   2.758   9.849 -0.0295 -0.7786  0.5234
   63TMC2    C2  976   3.432   2.814   9.767 -0.4363  0.2575  0.0723
   63TMC2    C3  977   3.403   2.825   9.638  0.8537 -0.2666 -0.0677
   63TMC2    C4  978   3.231   2.695   9.801  0.4931  0.8582  0.1220
   63TMC2    C5  979   3.208   2.697   9.667 -0.4849  0.2108  0.3587
   63TMC2    C6  980   3.297   2.762   9.585  0.5820 -0.5139  0.3589
   63TMC2     C  981   3.346   2.805   9.980 -0.2180  0.2188  0.9309
   63TMC2     O  982   3.366   2.924   9.996  0.4013 -0.3562  0.1573
   63TMC2     H  983   3.518   2.863   9.812 -1.4417  0.3186  1.9331
   63TMC2    H1  984   3.167   2.643   9.871  0.1429  0.3558 -0.5862
   63TMC2    H2  985   3.288   2.786   9.479 -1.4272 -0.4811  0.5352
   63TMC2    C7  986   3.063   2.726   9.653 -0.9774  0.7025 -0.3429
   63TMC2    C8  987   3.485   2.897   9.539 -0.0266  0.4168 -0.3839
   63TMC2    O1  988   2.991   2.682   9.740  0.3602  0.4645  0.1960
   63TMC2    O2  989   3.537   2.855   9.438  0.0159 -0.7128 -0.5531
   63TMC2    O5  990   3.534   3.006   9.602  0.1065 -0.1694 -0.0530
   63TMC2    H5  991   3.487   3.028   9.685 -0.6937 -0.3329 -0.4569
   64MPD2     C  992   3.080   2.751  10.408 -0.7946 -0.7502  0.4491
   64MPD2    C1  993   3.135   2.625  10.380 -0.0247  0.1244 -0.7043
   64MPD2    C2  994   3.209   2.621  10.272  0.7205  0.4600 -0.0694
   64MPD2    C3  995   3.236   2.731  10.191 -0.3660 -0.1467 -0.0281
   64MPD2    C4  996   3.194   2.855  10.228 -0.0582  0.4906  1.0586
   64MPD2    C5  997   3.109   2.861  10.334  0.3316  0.2164 -0.2627
   64MPD2     H  998   3.256   2.524  10.254 -1.9534 -0.7847 -0.3662
   64MPD2    H1  999   3.200   2.935  10.156  2.0012  1.3123  2.1649
   64MPD2    H2 1000   3.003   2.767  10.483  0.6431  0.6971  1.6213
   64MPD2    H3 1001   3.064   2.954  10.368  1.7515  0.1590  1.7853
   64MPD2     N 1002   3.304   2.700  10.061 -0.4365  0.4822  0.2616
   64MPD2    H5 1003   3.309   2.606  10.025 -1.1920  0.4571  0.2302
   64MPD2    N1 1004   3.104   2.515  10.459 -0.3537  0.0750 -0.9670
   64MPD2    H7 1005   3.149   2.427  10.434  1.3459 -0.1961  2.9790
   65TMC2    C1 1006   4.545   2.110  15.830 -0.2107 -0.3507 -1.0437
   65TMC2    C2 1007   4.611   2.079  15.715 -0.3491 -0.3342 -0.5241
   65TMC2    C3 1008   0.004   2.107  15.709 -0.2372  0.4633  0.2939
   65TMC2    C4 1009   4.605   2.180  15.927 -0.5471 -0.2409 -0.3033
   65TMC2    C5 1010   0.002   2.198  15.922  0.0154 -1.1244 -0.3096
   65TMC2    C6 1011   0.075   2.165  15.812 -0.5892  0.3187 -0.6878
   65TMC2     C 1012   4.446   2.014  15.885  0.3552 -0.1722  0.2127
   65TMC2     O 1013   4.390   2.040  15.993  0.4761  0.5410  0.1442
   65TMC2     H 1014   4.551   2.046  15.630  1.7933 -1.9852 -1.3939
   65TMC2    H1 1015   4.561   2.170  16.026  0.6627 -0.6324  0.1953
   65TMC2    H2 1016   0.180   2.178  15.790 -0.5419  0.6325 -0.2795
   65TMC2    C7 1017   0.065   2.207  16.047 -0.6949 -0.0838  0.0965
   65TMC2    C8 1018   0.063   2.063  15.585  0.5204  0.0620  0.1632
   65TMC2    O1 1019   0.165   2.138  16.067 -0.1968 -0.8091  0.0229
   65TMC2    O2 1020   0.169   2.003  15.583  0.1821 -0.4191  0.3586
   65TMC2    O5 1021   0.012   2.136  15.484  0.5606 -0.1139 -0.2740
   65TMC2    H5 1022   4.675   2.192  15.515  1.9193  1.9186 -0.6692
   66MPD2     C 1023   4.353   1.755  15.993 -0.7582 -0.2287  0.2989
   66MPD2    C1 1024   4.384   1.780  15.861 -0.2595  0.1881  0.0559
   66MPD2    C2 1025   4.389   1.666  15.780 -0.3942  0.2337 -0.8214
   66MPD2    C3 1026   4.375   1.538  15.826 -0.4507 -0.0616  1.0895
   66MPD2    C4 1027   4.328   1.515  15.955  0.1404 -0.1661 -0.0256
   66MPD2    C5 1028   4.322   1.628  16.031  0.8204  0.1289  0.1916
   66MPD2     H 1029   4.427   1.676  15.679  0.1532 -1.5184 -0.7981
   66MPD2    H1 1030   4.324   1.417  16.000  1.8472 -1.1898 -2.1044
   66MPD2    H2 1031   4.371   1.830  16.068 -0.5633 -0.7999  0.8241
   66MPD2    H3 1032   4.327   1.620  16.139 -3.6513  1.2788  0.4898
   66MPD2     N 1033   4.402   1.424  15.747  0.1753  0.2050  0.1318
   66MPD2    H5 1034   4.396   1.338  15.801  0.1093  0.5390  0.6483
   66MPD2    N1 1035   4.441   1.898  15.811 -0.0525 -0.2274  0.0751
   66MPD2    H7 1036   4.490   1.895  15.723 -0.1480 -2.0049  0.0798
   67TMC2    C1 1037   0.190   1.380  14.287  0.3883 -0.2469 -0.1315
   67TMC2    C2 1038   0.128   1.496  14.262  0.4270  0.9154 -0.4844
   67TMC2    C3 1039   0.141   1.603  14.349 -0.7214  0.4608  0.5886
   67TMC2    C4 1040   0.262   1.358  14.403  0.2501  0.8184  0.4241
   67TMC2    C5 1041   0.253   1.460  14.498  1.3245 -0.2932  0.4266
   67TMC2    C6 1042   0.195   1.581  14.473 -0.5154 -0.0088  0.3997
   67TMC2     C 1043   0.145   1.262  14.206  0.4007 -0.1760 -0.0511
   67TMC2     O 1044   0.190   1.156  14.241 -0.7019 -0.1882 -0.1504
   67TMC2     H 1045   0.100   1.513  14.158 -0.6363 -0.4659 -0.4297
   67TMC2    H1 1046   0.321   1.268  14.418  0.7593  0.9861 -0.5961
   67TMC2    H2 1047   0.185   1.647  14.559  3.7539 -0.9244  1.5949
   67TMC2    C7 1048   0.345   1.463  14.602  0.7221  0.2454  0.0024
   67TMC2    C8 1049   0.066   1.725  14.326 -0.6207  0.3010 -0.0390
   67TMC2    O1 1050   0.462   1.437  14.569 -0.4709 -0.3650  0.2036
   67TMC2    O2 1051   4.726   1.733  14.233 -0.1825  0.4321 -0.5794
   67TMC2    O5 1052   0.159   1.819  14.359 -0.4013 -0.0471  0.0844
   67TMC2    H5 1053   0.216   1.808  14.438  0.2397  1.2596 -0.2007
   68MPD2     C 1054   4.731   1.045  14.060 -0.0075  0.1039 -0.0910
   68MPD2    C1 1055   4.688   1.176  14.079 -0.3803  0.7199  0.5667
   68MPD2    C2 1056   4.561   1.207  14.035  0.5472 -0.2226  0.3346
   68MPD2    C3 1057   4.474   1.114  13.995 -0.4252 -0.3032 -0.1090
   68MPD2    C4 1058   4.512   0.977  13.987  0.4590 -0.2533 -0.0341
   68MPD2    C5 1059   4.638   0.951  14.023  0.2675  0.5654  0.2497
   68MPD2     H 1060   4.525   1.309  14.042 -2.4681 -1.2268 -0.4743
   68MPD2    H1 1061   4.451   0.895  13.949 -0.6448  1.2492 -1.5296
   68MPD2    H2 1062   0.092   1.008  14.087 -0.2182 -0.5613 -0.2395
   68MPD2    H3 1063   4.673   0.849  14.013 -0.7911  0.1305  1.0161
   68MPD2     N 1064   4.348   1.142  13.946  0.5389  0.1982  0.4092
   68MPD2    H5 1065   4.295   1.059  13.919 -0.8592  0.5865  1.9737
   68MPD2    N1 1066   0.025   1.280  14.142 -0.5678 -0.0422  0.1364
   68MPD2    H7 1067   4.720   1.371  14.154  0.6311  0.2568  2.1321
   69TMC2    C1 1068   1.795   2.553  12.806  0.8588 -0.0973 -0.6929
   69TMC2    C2 1069   1.675   2.560  12.740 -0.0939 -0.0759 -0.0579
   69TMC2    C3 1070   1.694   2.559  12.602 -0.5030  0.0449  0.1006
   69TMC2    C4 1071   1.920   2.547  12.741  0.1673 -0.2424  0.5413
   69TMC2    C5 1072   1.927   2.539  12.610 -0.0761  0.7918  0.0305
   69TMC2    C6 1073   1.808   2.547  12.536 -0.5147 -0.1301 -0.7907
   69TMC2     C 1074   1.786   2.582  12.953 -0.5353 -0.4114  0.5909
   69TMC2     O 1075   1.672   2.584  12.993 -0.2423 -0.7950 -0.3354
   69TMC2     H 1076   1.578   2.563  12.789  0.0391 -0.7739  0.2445
   69TMC2    H1 1077   2.013   2.536  12.796 -0.2793 -1.0860  1.1272
   69TMC2    H2 1078   1.813   2.518  12.432  2.0750 -2.2236 -0.0889
   69TMC2    C7 1079   2.029   2.456  12.545 -0.2082  0.0249 -1.2386
   69TMC2    C8 1080   1.576   2.577  12.519  0.3631  0.6089 -0.6177
   69TMC2    O1 1081   2.000   2.415  12.434  0.1563  1.0425 -0.0353
   69TMC2    O2 1082   1.464   2.560  12.564 -0.1609  0.1320  0.1122
   69TMC2    O5 1083   1.608   2.676  12.433  0.5511 -0.3785 -0.0267
   69TMC2    H5 1084   1.704   2.699  12.435  0.4205  0.0596  2.1718
   70MPD2     C 1085   2.046   2.691  13.188  0.3636 -0.1140 -0.6194
   70MPD2    C1 1086   1.932   2.622  13.151  0.0101  0.6010  0.0723
   70MPD2    C2 1087   1.838   2.577  13.246 -0.0737 -0.0506  0.2166
   70MPD2    C3 1088   1.864   2.586  13.381  1.1002  0.5244 -0.0630
   70MPD2    C4 1089   1.987   2.645  13.421 -0.0313  0.0619  0.6766
   70MPD2    C5 1090   2.077   2.683  13.326  0.6144  0.2549  0.0336
   70MPD2     H 1091   1.749   2.522  13.217  0.2698 -0.5393  0.1023
   70MPD2    H1 1092   2.021   2.657  13.523  1.5169 -1.6892  0.3562
   70MPD2    H2 1093   2.120   2.737  13.122  0.5090  2.2982  1.2144
   70MPD2    H3 1094   2.174   2.723  13.355  0.8150 -1.5393  1.8595
   70MPD2     N 1095   1.791   2.507  13.477 -0.4000  0.1457 -0.4246
   70MPD2    H5 1096   1.832   2.491  13.568 -0.8565  1.4822  0.0154
   70MPD2    N1 1097   1.908   2.614  13.008 -0.2895 -0.4215  0.1151
   70MPD2    H7 1098   1.988   2.636  12.949 -2.5921  1.2582 -2.3918
   71TMC2    C1 1099   0.889   3.546   1.809 -0.1837  0.7590  0.2928
   71TMC2    C2 1100   0.979   3.555   1.903 -0.2625 -0.2680 -0.8894
   71TMC2    C3 1101   0.944   3.540   2.035  0.1439  0.0104  0.3892
   71TMC2    C4 1102   0.762   3.533   1.836 -0.3225  0.0036 -0.0007
   71TMC2    C5 1103   0.723   3.508   1.971  0.4372 -0.4715 -0.3589
   71TMC2    C6 1104   0.811   3.517   2.071  0.1680  0.5291  0.3508
   71TMC2     C 1105   0.926   3.573   1.672  0.9024  0.1130 -0.3619
   71TMC2     O 1106   0.833   3.602   1.601 -0.3510 -0.6397  0.5082
   71TMC2     H 1107   1.081   3.587   1.884  0.0877 -1.3351 -0.8479
   71TMC2    H1 1108   0.691   3.529   1.754 -2.3362  1.2509  1.6919
   71TMC2    H2 1109   0.783   3.513   2.176 -0.7289 -1.8801  0.0377
   71TMC2    C7 1110   0.576   3.498   2.019 -0.5730  0.2995 -0.3722
   71TMC2    C8 1111   1.030   3.587   2.134  0.2057 -0.2815  0.0412
   71TMC2    O1 1112   0.555   3.508   2.139  0.7536  0.4412 -0.0764
   71TMC2    O2 1113   1.121   3.663   2.109 -0.3133 -0.1749  0.3762
   71TMC2    O5 1114   1.010   3.531   2.252  0.0323 -0.2107 -0.4295
   71TMC2    H5 1115   0.964   3.445   2.245 -1.5803  0.6489 -0.3236
   72MPD2     C 1116   1.223   3.543   1.267 -0.6614 -0.1656  0.1941
   72MPD2    C1 1117   1.091   3.571   1.277  0.0905  0.4481 -0.5516
   72MPD2    C2 1118   1.036   3.568   1.403 -0.3135 -0.2784 -0.4620
   72MPD2    C3 1119   1.111   3.534   1.514 -0.3058  0.4575  0.0169
   72MPD2    C4 1120   1.240   3.490   1.498  0.0848  0.6632  0.2778
   72MPD2    C5 1121   1.292   3.496   1.379  0.3855 -0.3953  0.1004
   72MPD2     H 1122   0.935   3.608   1.407  0.5925  1.8830  0.6923
   72MPD2    H1 1123   1.308   3.476   1.581 -0.0087  1.3303  0.4654
   72MPD2    H2 1124   1.270   3.540   1.170 -3.5257 -1.9246 -1.1265
   72MPD2    H3 1125   1.399   3.486   1.364  0.3898  1.4477 -1.0659
   72MPD2     N 1126   1.053   3.530   1.641 -0.5065 -0.2803 -0.0331
   72MPD2    H5 1127   1.114   3.506   1.719 -0.0315  1.3658  0.1139
   72MPD2    N1 1128   1.001   3.604   1.169 -0.2998 -0.1393  0.1184
   72MPD2    H7 1129   0.907   3.635   1.191  0.1143  0.8973  0.4027
   73TMC2    C1 1130   3.682   4.733  14.057  0.1268 -0.6366 -0.2632
   73TMC2    C2 1131   3.639   0.043  14.176 -0.4913 -0.4061 -0.4524
   73TMC2    C3 1132   3.724   0.036  14.280 -0.1312 -0.4787  0.8960
   73TMC2    C4 1133   3.815   4.685  14.046 -0.1897  0.7530  0.2507
   73TMC2    C5 1134   3.896   4.689  14.155 -0.7516  0.1800  0.4205
   73TMC2    C6 1135   3.850   4.725  14.274 -1.0542 -0.0943  0.2148
   73TMC2     C 1136   3.652   0.067  13.942 -0.4642 -0.2355  0.0994
   73TMC2     O 1137   3.707   0.036  13.835 -0.2003 -0.4058  0.4626
   73TMC2     H 1138   3.537   0.070  14.202 -0.3767  0.0909 -0.5051
   73TMC2    H1 1139   3.846   4.644  13.951  0.4533  0.9521  0.3750
   73TMC2    H2 1140   3.922   4.733  14.354  0.0661  1.0694 -0.9196
   73TMC2    C7 1141   4.015   0.028  14.122 -0.1671 -0.2049 -0.2578
   73TMC2    C8 1142   3.675   0.035  14.416 -0.1223 -0.4724  0.3527
   73TMC2    O1 1143   4.101   0.050  14.208  0.0465 -0.1804 -0.0337
   73TMC2    O2 1144   3.716   4.696  14.504 -0.5288  0.0568  0.2762
   73TMC2    O5 1145   3.603   0.148  14.434 -0.3280 -0.0780 -0.2433
   73TMC2    H5 1146   3.615   0.206  14.356 -1.2182  4.5687  3.0562
   74MPD2     C 1147   3.491   0.494  13.712  0.4898 -0.4782 -0.4527
   74MPD2    C1 1148   3.565   0.396  13.666 -0.7927 -0.4472 -0.4124
   74MPD2    C2 1149   3.602   0.293  13.752  0.8464  0.1530 -0.9768
   74MPD2    C3 1150   3.551   0.283  13.880  0.7390 -0.2042 -0.3150
   74MPD2    C4 1151   3.477   0.390  13.923 -0.0642  0.2309 -0.1173
   74MPD2    C5 1152   3.451   0.494  13.841  0.0210 -0.2023 -0.1137
   74MPD2     H 1153   3.670   0.217  13.714 -0.2944 -1.5520  0.3706
   74MPD2    H1 1154   3.432   0.401  14.021 -0.3673  1.0642 -0.3488
   74MPD2    H2 1155   3.464   0.572  13.643 -0.9511 -0.5052  0.0805
   74MPD2    H3 1156   3.387   0.574  13.878  0.0890 -0.5226  0.6939
   74MPD2     N 1157   3.586   0.185  13.972 -0.2104  0.7936 -0.2757
   74MPD2    H5 1158   3.563   0.206  14.068 -1.7886 -1.0723 -0.2711
   74MPD2    N1 1159   3.626   0.414  13.541  1.0225  0.3085 -0.3443
   74MPD2    H7 1160   3.621   0.508  13.503  0.8066  0.1498 -0.7083
   75TMC2    C1 1161   4.144   1.243  13.966  0.4517  0.2950 -0.6860
   75TMC2    C2 1162   4.094   1.133  14.037 -0.4936 -0.8051 -0.1233
   75TMC2    C3 1163   3.962   1.143  14.071 -0.2089  0.0478  0.2390
   75TMC2    C4 1164   4.062   1.342  13.913  0.0176  0.2045 -0.0859
   75TMC2    C5 1165   3.930   1.349  13.946  0.2099  0.3066  0.0245
   75TMC2    C6 1166   3.879   1.246  14.029 -0.2122 -0.3194  0.3586
   75TMC2     C 1167   4.288   1.262  13.952  0.6009 -0.0266 -0.1541
   75TMC2     O 1168   4.334   1.378  13.961 -0.0463  0.5335 -0.0550
   75TMC2     H 1169   4.153   1.052  14.078  0.0089 -0.9127 -1.0525
   75TMC2    H1 1170   4.108   1.425  13.861  1.6251 -0.7250 -0.1638
   75TMC2    H2 1171   3.779   1.251  14.071  0.4793  1.7418  1.7738
   75TMC2    C7 1172   3.830   1.392  13.845 -0.0561  0.0245 -0.0186
   75TMC2    C8 1173   3.898   1.052  14.160  0.3003 -0.0110  0.6485
   75TMC2    O1 1174   3.734   1.316  13.825 -0.0068  0.0377  0.3556
   75TMC2    O2 1175   3.782   1.032  14.157 -0.2222  0.4250  0.4395
   75TMC2    O5 1176   3.966   1.069  14.284 -0.6125 -0.1829 -0.1173
   75TMC2    H5 1177   4.057   1.104  14.278 -0.3785 -0.1683  3.4490
   76TMC2    C1 1178   2.911   1.408  12.276  0.5125 -0.8898 -0.4503
   76TMC2    C2 1179   2.803   1.330  12.303  0.1740 -0.1134  0.2575
   76TMC2    C3 1180   2.810   1.261  12.419  0.3748  0.7563  0.8755
   76TMC2    C4 1181   3.024   1.410  12.356 -0.6402  0.0961 -0.0577
   76TMC2    C5 1182   3.020   1.327  12.466 -0.8302 -0.4513 -0.5621
   76TMC2    C6 1183   2.918   1.251  12.495 -0.8901 -0.8237  0.0944
   76TMC2     C 1184   2.888   1.519  12.185 -0.2400  0.4401  0.8761
   76TMC2     O 1185   2.770   1.558  12.178  0.0133 -0.3233 -0.2573
   76TMC2     H 1186   2.712   1.341  12.244  0.3706  4.0695  0.6954
   76TMC2    H1 1187   3.105   1.482  12.346  1.4195 -1.9487  1.8720
   76TMC2    H2 1188   2.924   1.182  12.579 -1.0208  0.0902  0.8496
   76TMC2    C7 1189   3.127   1.342  12.568  0.7409 -0.6517  0.9349
   76TMC2    C8 1190   2.705   1.170  12.443  0.4970 -0.0115 -0.0919
   76TMC2    O1 1191   3.233   1.394  12.532 -0.1719 -0.3494  0.5354
   76TMC2    O2 1192   2.616   1.136  12.365  0.7889 -0.7735  0.0688
   76TMC2    O5 1193   2.672   1.187  12.569 -0.3152 -0.5834 -0.5641
   76TMC2    H5 1194   2.734   1.254  12.605  1.1241 -0.8152 -2.6156
   77MPD2     C 1195   3.002   1.966  11.954  0.4518  0.3126  0.8492
   77MPD2    C1 1196   2.882   1.918  11.997 -0.3436 -0.2714  0.5243
   77MPD2    C2 1197   2.875   1.792  12.062  0.5366 -0.4994 -0.1097
   77MPD2    C3 1198   2.996   1.719  12.082  0.0481 -0.0154  0.2184
   77MPD2    C4 1199   3.110   1.771  12.029  0.2625 -0.0041  0.2986
   77MPD2    C5 1200   3.115   1.889  11.965  1.5043  0.7900 -0.3576
   77MPD2     H 1201   2.776   1.758  12.092  0.6410 -1.1648 -0.5176
   77MPD2    H1 1202   3.205   1.718  12.032  0.1683 -0.1656  0.4600
   77MPD2    H2 1203   3.004   2.063  11.905  2.3349 -0.8168 -1.3386
   77MPD2    H3 1204   3.212   1.912  11.923  3.1888  2.1114  4.1740
   77MPD2     N 1205   3.003   1.584  12.138  0.3294  0.4900 -0.1138
   77MPD2    H5 1206   3.095   1.544  12.147  0.0220 -0.1223  0.2929
   77MPD2    N1 1207   2.765   1.984  11.984  0.0304 -0.4753 -0.8466
   77MPD2    H7 1208   2.679   1.946  12.022 -0.2413  2.2114  1.2533
   78TMC2    C1 1209   1.216   4.275   1.781  0.0652  0.5395 -0.3032
   78TMC2    C2 1210   1.168   4.395   1.729  0.7377 -0.2798 -0.0595
   78TMC2    C3 1211   1.141   4.399   1.594  0.2983  0.2276 -0.2038
   78TMC2    C4 1212   1.247   4.171   1.701  1.1835  0.7212 -0.2391
   78TMC2    C5 1213   1.218   4.176   1.569  0.1003 -0.1361 -0.0506
   78TMC2    C6 1214   1.178   4.295   1.508  0.3744 -0.1207 -0.3679
   78TMC2     C 1215   1.224   4.252   1.926  0.0029 -0.7409  0.2787
   78TMC2     O 1216   1.247   4.140   1.967 -0.2364  0.2401 -0.0258
   78TMC2     H 1217   1.149   4.479   1.795  1.6922 -1.5970  1.8792
   78TMC2    H1 1218   1.276   4.075   1.743  0.6169  0.8583  0.4622
   78TMC2    H2 1219   1.159   4.295   1.401  0.5250  2.5755 -0.3718
   78TMC2    C7 1220   1.290   4.079   1.487  0.3433  0.0094  0.2907
   78TMC2    C8 1221   1.089   4.521   1.544 -0.1862 -0.0327  0.6129
   78TMC2    O1 1222   1.389   4.027   1.534 -0.0286 -0.3581 -0.2697
   78TMC2    O2 1223   1.037   4.601   1.620  0.1261 -0.3519  0.4317
   78TMC2    O5 1224   1.152   4.552   1.431 -0.0205  0.4791 -0.2192
   78TMC2    H5 1225   1.214   4.486   1.393  0.0987  1.8498 -2.4186
   79MPD1     C 1226   1.171   4.401   2.410  0.1354  0.4807 -0.5986
   79MPD1    C1 1227   1.173   4.273   2.361 -0.1539 -0.0484  0.0901
   79MPD1    C2 1228   1.197   4.257   2.222  0.1000 -0.5384 -0.3102
   79MPD1    C3 1229   1.198   4.368   2.136  0.1580 -0.5520 -0.1416
   79MPD1    C4 1230   1.213   4.490   2.194  0.0519  0.4703  0.5261
   79MPD1    C5 1231   1.182   4.511   2.328  0.1790 -0.3887  0.9768
   79MPD1     H 1232   1.197   4.156   2.182 -3.3584 -0.6051 -0.1676
   79MPD1    H1 1233   1.233   4.570   2.125  1.2147  0.5443  0.9462
   79MPD1    H2 1234   1.150   4.417   2.515  0.3232  0.5105 -0.5641
   79MPD1    H3 1235   1.178   4.608   2.376 -0.4614 -0.3813  0.9100
   79MPD1     N 1236   1.192   4.363   1.997 -0.0303  0.1591  0.0390
   79MPD1    H5 1237   1.192   4.447   1.940  1.5650  0.1732  0.0601
   79MPD1    N1 1238   1.182   4.157   2.445 -0.4223 -0.0176  0.1072
   79MPD1    H6 1239   1.160   4.073   2.393 -1.0733 -0.8939  1.7774
   79MPD1    H7 1240   1.115   4.151   2.522  1.2503  1.6618  1.6954
   80TMC2    C1 1241   1.634   1.401  12.158 -0.3835  0.1461  0.4907
   80TMC2    C2 1242   1.538   1.485  12.103  0.0587 -0.0217  0.0983
   80TMC2    C3 1243   1.441   1.423  12.023  0.0388 -0.2739 -0.4180
   80TMC2    C4 1244   1.649   1.270  12.118  0.4738 -0.0374 -0.2126
   80TMC2    C5 1245   1.539   1.219  12.052  0.5139  0.1394 -0.1929
   80TMC2    C6 1246   1.438   1.291  12.003  0.2303 -0.5677  0.0436
   80TMC2     C 1247   1.763   1.453  12.198 -0.2866 -0.8006  0.1526
   80TMC2     O 1248   1.858   1.413  12.137 -0.0586  0.0345  0.5351
   80TMC2     H 1249   1.526   1.586  12.140  2.6383 -0.4545  2.1282
   80TMC2    H1 1250   1.725   1.212  12.168  0.8189  0.0625 -0.6215
   80TMC2    H2 1251   1.360   1.241  11.946  1.5710  0.5615 -2.7494
   80TMC2    C7 1252   1.507   1.077  12.068 -0.4978  0.1915  0.3629
   80TMC2    C8 1253   1.333   1.511  11.978 -0.1912  0.1153 -0.0431
   80TMC2    O1 1254   1.440   1.019  11.981 -0.4121 -0.1695  0.0154
   80TMC2    O2 1255   1.307   1.611  12.045  0.6977 -0.2458 -0.5056
   80TMC2    O5 1256   1.302   1.481  11.850  0.2375 -0.0665 -0.2280
   80TMC2    H5 1257   1.368   1.420  11.809 -0.6807  0.7878 -2.9613
   81MPD2     C 1258   1.984   1.573  12.360 -0.0924 -0.3593  0.7488
   81MPD2    C1 1259   1.855   1.590  12.387  0.1826 -0.4748  0.2928
   81MPD2    C2 1260   1.814   1.643  12.507 -0.9488 -0.2768 -0.4131
   81MPD2    C3 1261   1.902   1.676  12.603  0.0253  0.2826 -0.6216
   81MPD2    C4 1262   2.042   1.647  12.577  0.4260 -0.0173 -0.2215
   81MPD2    C5 1263   2.077   1.597  12.455 -0.3569 -0.0998 -0.4400
   81MPD2     H 1264   1.710   1.660  12.531 -0.6746 -1.8020  1.8684
   81MPD2    H1 1265   2.116   1.664  12.653 -2.9366 -1.4851  3.3867
   81MPD2    H2 1266   2.019   1.527  12.269  1.4404  0.8376  0.7381
   81MPD2    H3 1267   2.181   1.577  12.429 -0.4095 -0.6938 -0.1867
   81MPD2     N 1268   1.875   1.718  12.734  0.0518  0.2095 -0.2205
   81MPD2    H5 1269   1.954   1.732  12.797 -0.6335  0.7119  0.5370
   81MPD2    N1 1270   1.751   1.540  12.301  0.3671  0.0788 -0.6902
   81MPD2    H7 1271   1.655   1.560  12.327  0.3696 -0.9806  0.1290
   82TMC2    C1 1272   4.240   1.452  11.272  0.3152  0.1961 -0.6199
   82TMC2    C2 1273   4.343   1.548  11.262  0.2637 -0.0692  0.5188
   82TMC2    C3 1274   4.388   1.577  11.387  0.3691  0.1025 -0.1576
   82TMC2    C4 1275   4.216   1.386  11.390  0.7000 -0.0476 -0.4481
   82TMC2    C5 1276   4.284   1.412  11.501  0.0347  0.0526 -0.0267
   82TMC2    C6 1277   4.364   1.522  11.507  0.1491  0.1492 -0.8499
   82TMC2     C 1278   4.196   1.402  11.147  0.6685 -0.4675 -0.1172
   82TMC2     O 1279   4.252   1.459  11.049  0.1905  0.4369  0.6332
   82TMC2     H 1280   4.373   1.605  11.175 -1.9031 -1.7150 -1.2905
   82TMC2    H1 1281   4.173   1.287  11.382 -0.3892  0.3524  0.3457
   82TMC2    H2 1282   4.413   1.560  11.595  0.4406 -0.7592 -0.6256
   82TMC2    C7 1283   4.273   1.329  11.610 -0.0852 -0.2165  0.7197
   82TMC2    C8 1284   4.507   1.654  11.390 -0.0479  0.8025  0.1151
   82TMC2    O1 1285   4.179   1.257  11.615  0.9794  0.6978 -0.2006
   82TMC2    O2 1286   4.551   1.714  11.488  0.6788 -0.1542  0.7250
   82TMC2    O5 1287   4.585   1.593  11.295 -0.0260  0.0110 -0.2285
   82TMC2    H5 1288   4.541   1.540  11.225 -0.9311  0.9817 -0.3972
   83MPD2     C 1289   3.828   1.226  10.822  0.8512 -0.5870 -0.0826
   83MPD2    C1 1290   3.945   1.298  10.802  0.0025 -1.0782 -0.2001
   83MPD2    C2 1291   4.022   1.331  10.913 -0.7434  0.0288  0.0404
   83MPD2    C3 1292   3.995   1.299  11.037 -0.1663 -0.1039 -0.0399
   83MPD2    C4 1293   3.880   1.223  11.056  0.9020 -0.0112 -0.5855
   83MPD2    C5 1294   3.793   1.193  10.954 -0.2291  0.2397  0.0859
   83MPD2     H 1295   4.109   1.395  10.898 -0.9472  0.6315  1.4456
   83MPD2    H1 1296   3.855   1.186  11.155  2.1649  5.9846  1.9896
   83MPD2    H2 1297   3.760   1.222  10.739  0.3398 -1.1506  0.3644
   83MPD2    H3 1298   3.695   1.147  10.962  0.5550 -1.4567  0.0793
   83MPD2     N 1299   4.076   1.333  11.149  0.1362 -0.6939 -0.1917
   83MPD2    H5 1300   4.040   1.312  11.241  1.2437 -0.7707  0.2155
   83MPD2    N1 1301   3.972   1.331  10.670 -0.4308 -0.3602 -0.5200
   83MPD2    H7 1302   3.909   1.293  10.600 -0.8261 -0.7581  0.0489
   84TMC2    C1 1303   1.117   0.270  10.444  0.3070  0.0579  0.1637
   84TMC2    C2 1304   1.103   0.147  10.391  0.6118 -0.1042  0.6760
   84TMC2    C3 1305   1.159   0.130  10.262 -1.3033  0.1511  0.0412
   84TMC2    C4 1306   1.183   0.376  10.384 -1.3595 -0.1772  0.0828
   84TMC2    C5 1307   1.248   0.349  10.264 -0.4012  0.2901  0.4688
   84TMC2    C6 1308   1.238   0.224  10.207 -0.1282  0.0999 -0.4226
   84TMC2     C 1309   1.067   0.307  10.571 -0.4500  0.2607  0.2399
   84TMC2     O 1310   1.134   0.383  10.642  0.1064 -0.7835  0.2202
   84TMC2     H 1311   1.042   0.079  10.448 -0.4039  1.1549  1.0689
   84TMC2    H1 1312   1.170   0.477  10.420  2.1662 -0.0591  1.0348
   84TMC2    H2 1313   1.298   0.202  10.120 -1.2354 -1.0622 -0.8993
   84TMC2    C7 1314   1.317   0.454  10.193 -0.3780  0.6944  0.2353
   84TMC2    C8 1315   1.116   0.021  10.177  0.6305 -0.3795 -1.1934
   84TMC2    O1 1316   1.342   0.423  10.078 -0.3621  0.3122  0.2840
   84TMC2    O2 1317   1.173   0.007  10.067  0.5781  0.2603  0.0182
   84TMC2    O5 1318   0.985   4.737  10.196  0.0011  0.3603 -0.5130
   84TMC2    H5 1319   0.952   0.047  10.276  0.6983  1.8199 -1.1011
   85TMC2    C1 1320   2.118   3.150  15.945  0.6681  0.5212  0.1228
   85TMC2    C2 1321   2.022   3.093  15.866  0.0295  0.3791 -0.0271
   85TMC2    C3 1322   1.995   3.149  15.748 -0.0490 -0.3086  0.4493
   85TMC2    C4 1323   2.182   3.270  15.911 -0.5841  0.4905 -0.0954
   85TMC2    C5 1324   2.136   3.331  15.799 -0.4202 -0.0782 -0.7081
   85TMC2    C6 1325   2.044   3.269  15.716  0.4787  0.6171 -0.0264
   85TMC2     C 1326   2.189   3.059  16.030  0.5261  0.9495 -0.1899
   85TMC2     O 1327   2.287   3.097  16.098  0.1086 -0.5723 -0.3451
   85TMC2     H 1328   1.981   2.993  15.879  0.3991  0.2160 -0.1281
   85TMC2    H1 1329   2.263   3.318  15.964 -0.1673 -0.3369  0.0256
   85TMC2    H2 1330   2.022   3.306  15.616  1.4828  0.3608 -0.3369
   85TMC2    C7 1331   2.234   3.407  15.722 -0.5662  0.0520 -0.5586
   85TMC2    C8 1332   1.903   3.087  15.658 -0.4445  0.1612 -0.1682
   85TMC2    O1 1333   2.267   3.360  15.612 -0.0162  0.2492 -0.4036
   85TMC2    O2 1334   1.884   2.967  15.644  0.2307 -0.5207 -0.0444
   85TMC2    O5 1335   1.827   3.183  15.604 -0.0055  0.7601  0.0823
   85TMC2    H5 1336   1.846   3.272  15.640 -1.6048  1.7177 -1.4576
   86MPD2     C 1337   2.188   2.640  16.335 -0.1653  0.1770 -0.7357
   86MPD2    C1 1338   2.086   2.624  16.239  0.2696  0.6375  0.3188
   86MPD2    C2 1339   2.074   2.720  16.142  0.5764 -0.5468  0.0334
   86MPD2    C3 1340   2.167   2.827  16.133  0.1301  0.3906 -0.3426
   86MPD2    C4 1341   2.272   2.835  16.223  0.1866 -0.1100 -0.0869
   86MPD2    C5 1342   2.281   2.739  16.321  0.0850  0.7942  0.1370
   86MPD2     H 1343   1.992   2.719  16.072  0.5287 -0.8195  0.0893
   86MPD2    H1 1344   2.346   2.913  16.216 -0.7269  0.7949  0.2827
   86MPD2    H2 1345   2.200   2.582  16.426  0.4844  1.1715 -0.1806
   86MPD2    H3 1346   2.359   2.742  16.396 -0.5204 -2.7812  0.8907
   86MPD2     N 1347   2.132   2.935  16.048 -0.5713  0.4782  0.1612
   86MPD2    H5 1348   2.044   2.920  16.000  0.6331 -0.6840 -1.6390
   86MPD2    N1 1349   2.004   2.509  16.245 -0.6532 -0.1168  0.5129
   86MPD2    H7 1350   1.946   2.506  16.162  3.7679 -0.1080 -2.6014
   87TMC2    C1 1351   4.214   1.297  17.734  0.2835  0.0242 -0.0843
   87TMC2    C2 1352   4.131   1.257  17.634 -0.4223 -0.3306  0.3149
   87TMC2    C3 1353   3.999   1.305  17.633 -0.0451 -0.5453 -0.1617
   87TMC2    C4 1354   4.161   1.359   0.094  0.1395 -0.0955  0.3338
   87TMC2    C5 1355   4.035   1.412   0.085 -0.3032 -0.0801  1.2605
   87TMC2    C6 1356   3.956   1.400  17.720  0.4127  0.1923 -0.3878
   87TMC2     C 1357   4.347   1.247  17.745  0.0589 -0.3313 -0.4733
   87TMC2     O 1358   4.366   1.142  17.684 -0.3525  0.0971 -0.3690
   87TMC2     H 1359   4.180   1.204  17.553 -1.2772 -0.9792  0.2226
   87TMC2    H1 1360   4.214   1.358   0.188  0.9333  0.1002 -0.1125
   87TMC2    H2 1361   3.862   1.453  17.709  0.7340  0.4063 -2.0583
   87TMC2    C7 1362   3.990   1.511   0.185  0.0518  0.1651  0.4763
   87TMC2    C8 1363   3.937   1.303  17.505  0.2631 -0.3002  0.3948
   87TMC2    O1 1364   3.917   1.604   0.153 -0.3373  0.3942  0.6351
   87TMC2    O2 1365   3.853   1.386  17.483 -0.3401 -0.0572  0.3062
   87TMC2    O5 1366   3.971   1.202  17.427  0.3486 -0.3762  0.5556
   87TMC2    H5 1367   4.028   1.132  17.466 -0.1081 -0.3654  1.2395
   88MPD2     C 1368   4.126   1.523   0.528 -0.0274 -0.0015  0.5604
   88MPD2    C1 1369   4.061   1.574   0.418  0.1364  0.7281  0.9767
   88MPD2    C2 1370   4.016   1.703   0.410 -0.7713 -0.2683  0.5529
   88MPD2    C3 1371   4.038   1.786   0.519 -0.1867 -0.2367  0.0630
   88MPD2    C4 1372   4.094   1.734   0.636 -0.2025 -0.8673  0.6450
   88MPD2    C5 1373   4.138   1.608   0.634  0.4757 -0.2540 -0.0037
   88MPD2     H 1374   3.970   1.745   0.322  1.6424  1.2054 -0.0086
   88MPD2    H1 1375   4.101   1.782   0.733  1.4020  0.2730 -0.0162
   88MPD2    H2 1376   4.152   1.420   0.548 -2.5808 -0.2957  2.3247
   88MPD2    H3 1377   4.182   1.576   0.727 -1.0896 -1.6159  0.2761
   88MPD2     N 1378   3.978   1.913   0.537  0.2260 -0.0844 -0.5311
   88MPD2    H5 1379   4.029   1.968   0.606 -0.4561 -1.2566  0.8934
   88MPD2    N1 1380   4.051   1.488   0.302 -0.0581  0.9553  0.6662
   88MPD2    H7 1381   4.086   1.393   0.307  1.1349  1.4742  2.2027
   89TMC2    C1 1382   0.628   0.447   1.964 -0.3718 -0.0698 -0.2613
   89TMC2    C2 1383   0.530   0.515   1.904  0.2778 -0.8176  0.2840
   89TMC2    C3 1384   0.569   0.604   1.804  0.8060  0.7621 -0.4331
   89TMC2    C4 1385   0.752   0.441   1.914  0.3949  0.1823 -0.7091
   89TMC2    C5 1386   0.784   0.531   1.812 -0.1299 -0.8285  0.6003
   89TMC2    C6 1387   0.692   0.608   1.747  0.3296 -0.2409  0.1355
   89TMC2     C 1388   0.598   0.343   2.060  0.4311  0.0937 -0.7424
   89TMC2     O 1389   0.497   0.360   2.131  0.1936 -0.3937  0.0530
   89TMC2     H 1390   0.428   0.501   1.939 -0.4698  4.1033 -0.0093
   89TMC2    H1 1391   0.831   0.402   1.977 -0.4080  1.8819  1.3637
   89TMC2    H2 1392   0.723   0.689   1.682  0.5785  0.4904  1.1851
   89TMC2    C7 1393   0.917   0.588   1.826 -0.1273  0.9976 -0.2450
   89TMC2    C8 1394   0.483   0.709   1.766  0.4301 -0.8815 -0.7863
   89TMC2    O1 1395   0.958   0.608   1.939  0.4270 -0.2654 -0.0191
   89TMC2    O2 1396   0.482   0.762   1.655  0.2346 -0.2980 -0.1102
   89TMC2    O5 1397   0.409   0.753   1.874  0.1946 -0.3929 -0.2374
   89TMC2    H5 1398   0.449   0.712   1.953 -0.1908 -0.3674 -0.0291
   90MPD2     C 1399   0.691   4.630   2.292 -1.2164  0.0338  0.6601
   90MPD2    C1 1400   0.756   4.626   2.169  0.3048  0.1889 -0.7122
   90MPD2    C2 1401   0.755   0.007   2.092 -0.2661 -0.1709 -0.2172
   90MPD2    C3 1402   0.684   0.120   2.135  0.1192  0.2765 -0.6007
   90MPD2    C4 1403   0.624   0.120   2.261 -0.3756 -1.1800  0.1110
   90MPD2    C5 1404   0.628   0.005   2.337  0.4679 -0.3409  0.1634
   90MPD2     H 1405   0.801   0.007   1.994  4.3223  2.8265  1.8808
   90MPD2    H1 1406   0.574   0.210   2.294  3.2394  0.7137  0.4271
   90MPD2    H2 1407   0.701   4.547   2.360  1.0774 -0.4957 -0.3259
   90MPD2    H3 1408   0.584   4.732   2.436  0.8254 -0.1787  0.3387
   90MPD2     N 1409   0.678   0.230   2.047 -0.9188 -0.3462  0.1050
   90MPD2    H5 1410   0.736   0.222   1.965 -2.1546 -3.2643 -0.4784
   90MPD2    N1 1411   0.820   4.508   2.118 -0.1007  0.0617 -0.6894
   90MPD2    H7 1412   0.875   4.524   2.034 -2.1012  0.5585 -1.8911
   91TMC2    C1 1413   1.986   3.641  16.525 -0.0045 -0.0570 -0.3336
   91TMC2    C2 1414   1.981   3.657  16.663  0.3852  0.3659 -0.3620
   91TMC2    C3 1415   1.871   3.610  16.728  1.2364  0.4089  0.6005
   91TMC2    C4 1416   1.875   3.601  16.451 -0.8609  0.6900  0.8770
   91TMC2    C5 1417   1.773   3.547  16.523 -0.2248 -0.5095 -0.2068
   91TMC2    C6 1418   1.771   3.542  16.660 -0.1835  1.0096 -0.0288
   91TMC2     C 1419   2.080   3.738  16.464 -0.0188 -0.7343 -0.6510
   91TMC2     O 1420   2.032   3.806  16.373 -0.4339  0.0725 -0.9438
   91TMC2     H 1421   2.060   3.701  16.722 -1.2191 -1.7575  3.3767
   91TMC2    H1 1422   1.881   3.580  16.345 -2.1535  3.3485  0.2659
   91TMC2    H2 1423   1.686   3.504  16.715  0.4969  1.3508  1.2532
   91TMC2    C7 1424   1.666   3.476  16.454  0.1360 -0.1550 -0.2953
   91TMC2    C8 1425   1.858   3.644  16.868  0.4755  0.0258  0.4357
   91TMC2    O1 1426   1.599   3.404  16.527 -0.2363 -0.2944 -0.0222
   91TMC2    O2 1427   1.954   3.676  16.939 -0.3185 -0.1398 -0.5514
   91TMC2    O5 1428   1.749   3.715  16.869 -0.5258 -0.6078 -0.3317
   91TMC2    H5 1429   1.702   3.715  16.783 -0.4419  2.1797 -0.3653
   92MPD2     C 1430   2.335   3.887  16.380 -0.1637 -0.1142  0.6515
   92MPD2    C1 1431   2.327   3.789  16.478  0.4482 -0.2479  0.4909
   92MPD2    C2 1432   2.445   3.747  16.541  0.2372 -0.3927 -0.3479
   92MPD2    C3 1433   2.565   3.809  16.507  0.3079 -0.2751  0.3207
   92MPD2    C4 1434   2.566   3.914  16.421  0.2344  0.6977  0.4383
   92MPD2    C5 1435   2.457   3.942  16.354  0.2928 -0.2930  0.2433
   92MPD2     H 1436   2.438   3.677  16.623  0.9152 -0.3970 -0.2944
   92MPD2    H1 1437   2.660   3.961  16.396  1.3653 -0.9079  1.6343
   92MPD2    H2 1438   2.258   3.921  16.312  1.8166 -0.7439 -1.8929
   92MPD2    H3 1439   2.447   4.018  16.277  1.1341  2.1462  2.5333
   92MPD2     N 1440   2.684   3.760  16.577  0.2465  0.1400 -0.2360
   92MPD2    H5 1441   2.676   3.684  16.645 -2.6047  1.3779  0.8022
   92MPD2    N1 1442   2.207   3.723  16.511  0.0601  0.2721  0.6246
   92MPD2    H7 1443   2.227   3.662  16.590  0.3581  0.0263  0.3598
   93TMC2    C1 1444   3.987   4.265  14.078 -0.6859 -0.1831  0.4713
   93TMC2    C2 1445   3.953   4.241  14.211  0.5077  0.3564  0.2744
   93TMC2    C3 1446   4.057   4.260  14.304  0.3502 -0.2414  0.7233
   93TMC2    C4 1447   4.115   4.305  14.042 -0.4288 -0.5567  0.6398
   93TMC2    C5 1448   4.203   4.334  14.142 -0.0037 -0.0381  0.4058
   93TMC2    C6 1449   4.185   4.296  14.271 -0.2240 -0.2231 -0.3301
   93TMC2     C 1450   3.933   4.178  13.978 -0.4320  0.0355  0.1331
   93TMC2     O 1451   4.019   4.116  13.908  0.5070  0.8658 -0.2205
   93TMC2     H 1452   3.858   4.195  14.236 -0.1709  2.8630  2.3163
   93TMC2    H1 1453   4.150   4.323  13.941 -1.0769 -1.0610  0.3323
   93TMC2    H2 1454   4.267   4.302  14.343 -2.0146 -1.7817  1.8576
   93TMC2    C7 1455   4.347   4.354  14.107  0.1950 -0.1756 -0.3681
   93TMC2    C8 1456   4.026   4.267  14.445  0.2526 -0.0234 -0.4235
   93TMC2    O1 1457   4.430   4.293  14.173 -0.2146 -0.3678 -0.1632
   93TMC2    O2 1458   3.931   4.202  14.477  0.0784 -0.7174  0.6362
   93TMC2    O5 1459   4.071   4.372  14.506 -0.5900  0.1932  0.1007
   93TMC2    H5 1460   4.117   4.437  14.449 -0.6337 -0.6534 -0.9202
   94MPD2     C 1461   3.761   4.049  13.784  0.1922 -1.2941 -0.2967
   94MPD2    C1 1462   3.712   4.090  13.907  0.7047 -0.1243  0.4485
   94MPD2    C2 1463   3.575   4.079  13.933  0.4534  0.3446  0.5838
   94MPD2    C3 1464   3.486   4.018  13.841 -0.2422 -0.2257 -0.2686
   94MPD2    C4 1465   3.534   3.968  13.724 -0.0461  0.1626  0.2841
   94MPD2    C5 1466   3.671   3.990  13.697  0.0845  0.1288  1.0498
   94MPD2     H 1467   3.536   4.119  14.025  2.3756  1.5802  0.8713
   94MPD2    H1 1468   3.470   3.923  13.649  2.1663 -0.6946 -1.0623
   94MPD2    H2 1469   3.860   4.069  13.743 -0.1408 -0.3983 -0.6807
   94MPD2    H3 1470   3.702   3.974  13.594 -1.4338 -1.8595  0.8959
   94MPD2     N 1471   3.347   3.992  13.866  0.4367 -0.0890  0.6791
   94MPD2    H5 1472   3.303   3.916  13.816 -3.1477  0.3403  3.2226
   94MPD2    N1 1473   3.798   4.160  13.995 -0.1103  0.2255  0.5744
   94MPD2    H7 1474   3.758   4.215  14.071  0.8951  2.5357 -0.5658
   95TMC2    C1 1475   3.938   0.383  15.611  0.3993 -0.9204 -0.1528
   95TMC2    C2 1476   3.995   0.303  15.514 -0.1501  0.6606  0.4319
   95TMC2    C3 1477   3.975   0.168  15.525 -0.1377  0.9633  0.6354
   95TMC2    C4 1478   3.851   0.333  15.707 -0.1840  0.2582 -0.3324
   95TMC2    C5 1479   3.833   0.199  15.710  0.2666  0.2987 -0.5342
   95TMC2    C6 1480   3.889   0.116  15.614 -0.0146  0.0615  0.5592
   95TMC2     C 1481   3.971   0.526  15.596  0.5147  0.3840  0.4305
   95TMC2     O 1482   4.073   0.552  15.529  0.0321  0.1037 -0.6075
   95TMC2     H 1483   4.069   0.338  15.443 -1.2029 -0.2371 -1.1053
   95TMC2    H1 1484   3.797   0.396  15.776 -1.7583 -0.4218 -0.9438
   95TMC2    H2 1485   3.889   0.009  15.628 -0.9453 -0.1809 -1.2354
   95TMC2    C7 1486   3.744   0.149  15.817  0.3899  0.5417  0.3048
   95TMC2    C8 1487   4.039   0.077  15.431 -0.3936 -0.0453 -0.1422
   95TMC2    O1 1488   3.680   0.232  15.880 -0.0986 -0.0095 -0.5041
   95TMC2    O2 1489   4.014   4.696  15.433  0.2712  0.1697  0.1562
   95TMC2    O5 1490   4.040   0.145  15.318 -0.2636 -0.4834 -0.1466
   95TMC2    H5 1491   4.021   0.241  15.315 -0.9485 -0.6194 -0.0209
   96MPD2     C 1492   3.939   1.023  15.739 -0.1146 -0.5630  0.1324
   96MPD2    C1 1493   4.045   0.950  15.677 -0.3097  0.1887  0.3021
   96MPD2    C2 1494   4.028   0.815  15.645 -0.0887 -0.1492  0.5068
   96MPD2    C3 1495   3.918   0.750  15.693 -0.0555  0.5250 -0.6296
   96MPD2    C4 1496   3.818   0.817  15.757 -0.2772  0.1837 -0.8159
   96MPD2    C5 1497   3.829   0.951  15.788  0.0102  0.1793  0.4536
   96MPD2     H 1498   4.106   0.763  15.590 -0.0122  0.0259  0.4479
   96MPD2    H1 1499   3.730   0.769  15.799  1.0911 -2.2357 -0.7459
   96MPD2    H2 1500   3.952   1.127  15.766  1.6254 -0.2693 -1.7870
   96MPD2    H3 1501   3.752   1.007  15.840 -1.1388  0.4108 -1.4551
   96MPD2     N 1502   3.893   0.612  15.672  0.1366 -0.1604 -0.1602
   96MPD2    H5 1503   3.814   0.568  15.719 -0.9840  1.0101 -0.9554
   96MPD2    N1 1504   4.154   1.028  15.634  0.0200  0.7852 -0.2949
   96MPD2    H7 1505   4.148   1.128  15.652  2.9359  0.7437  1.0326
   97TMC2    C1 1506   2.289   3.826   0.783 -0.4551  0.4560  0.1559
   97TMC2    C2 1507   2.408   3.803   0.841  0.5393 -0.5454  0.0339
   97TMC2    C3 1508   2.509   3.761   0.762  0.0964  0.0235 -0.0526
   97TMC2    C4 1509   2.268   3.817   0.652 -0.2595 -0.9962  0.4092
   97TMC2    C5 1510   2.369   3.755   0.580 -0.9195  0.1057 -0.2648
   97TMC2    C6 1511   2.493   3.732   0.627  1.5990 -0.0135  0.3322
   97TMC2     C 1512   2.187   3.888   0.861 -0.5357 -0.4042 -0.1851
   97TMC2     O 1513   2.116   3.968   0.806 -0.3253 -0.1002 -0.5687
   97TMC2     H 1514   2.430   3.837   0.941 -0.3895  0.3082 -0.0412
   97TMC2    H1 1515   2.175   3.836   0.600  0.2533 -0.3546 -0.2848
   97TMC2    H2 1516   2.563   3.678   0.565  0.5439 -0.3677 -0.5584
   97TMC2    C7 1517   2.336   3.722   0.445 -0.5530  0.5251 -0.6877
   97TMC2    C8 1518   2.645   3.762   0.819 -0.2139 -0.2578 -0.2312
   97TMC2    O1 1519   2.404   3.633   0.389  0.7000  0.6272  0.4163
   97TMC2    O2 1520   2.684   3.749   0.933  0.3050 -0.3041  0.4553
   97TMC2    O5 1521   2.723   3.787   0.717 -0.0342 -0.1326  0.2442
   97TMC2    H5 1522   2.676   3.830   0.643 -1.1845  1.2604  1.7909
   98MPD2     C 1523   1.952   3.892   1.325  0.1570 -0.2227 -0.1323
   98MPD2    C1 1524   1.912   3.947   1.204  0.2301  0.2398  0.8545
   98MPD2    C2 1525   1.989   3.924   1.095 -0.0672  0.1866  0.4882
   98MPD2    C3 1526   2.098   3.847   1.091  0.1246  0.2311  0.5856
   98MPD2    C4 1527   2.122   3.779   1.204 -0.1132 -0.5836  0.0223
   98MPD2    C5 1528   2.048   3.792   1.315  0.4473 -0.2798 -0.6767
   98MPD2     H 1529   1.972   3.978   1.002  0.1358  0.2985  0.5153
   98MPD2    H1 1530   2.212   3.719   1.204  0.3460  0.1106 -0.8811
   98MPD2    H2 1531   1.886   3.899   1.411  1.6640 -0.4494  1.0374
   98MPD2    H3 1532   2.064   3.721   1.395 -3.5965 -0.7218 -0.2536
   98MPD2     N 1533   2.189   3.838   0.987  0.2606 -0.8101  0.1239
   98MPD2    H5 1534   2.268   3.779   1.008  1.5517  1.1155  0.6481
   98MPD2    N1 1535   1.802   4.040   1.201  0.7883 -0.3677 -0.5726
   98MPD2    H7 1536   1.737   4.030   1.278 -0.1977 -1.0363 -1.5050
   99TMC2    C1 1537   0.803   1.376   1.892  0.8674  0.2995 -0.0962
   99TMC2    C2 1538   0.831   1.437   2.013  0.0394 -0.6300  0.0083
   99TMC2    C3 1539   0.764   1.548   2.041 -0.5332 -0.2882 -0.5283
   99TMC2    C4 1540   0.710   1.420   1.804  0.0370 -0.2137 -0.1543
   99TMC2    C5 1541   0.641   1.532   1.837 -0.4897  0.3946 -0.1370
   99TMC2    C6 1542   0.675   1.601   1.949 -0.9572 -0.2324  0.3658
   99TMC2     C 1543   0.879   1.254   1.859 -0.5265 -0.0748 -0.6777
   99TMC2     O 1544   0.970   1.215   1.933 -0.0745  0.1351  0.4234
   99TMC2     H 1545   0.906   1.401   2.083  0.5716  2.0633  0.8504
   99TMC2    H1 1546   0.684   1.378   1.708 -0.4435 -1.0134  0.3186
   99TMC2    H2 1547   0.620   1.692   1.971  2.2652  2.1061 -1.4079
   99TMC2    C7 1548   0.517   1.582   1.775  0.1196  0.1790 -0.0421
   99TMC2    C8 1549   0.813   1.629   2.151 -0.1802 -0.5564 -0.0840
   99TMC2    O1 1550   0.460   1.676   1.822 -0.0588 -0.5650  0.2847
   99TMC2    O2 1551   0.915   1.600   2.209  1.0574 -0.1734 -0.3620
   99TMC2    O5 1552   0.714   1.711   2.197  0.5990  0.2016  0.3436
   99TMC2    H5 1553   0.622   1.688   2.174  0.5466  0.4242  0.3255
  100MPD2     C 1554   1.020   1.046   1.703 -0.5667  0.4071  0.0092
  100MPD2    C1 1555   0.894   1.092   1.675  0.3852  0.5674 -0.4532
  100MPD2    C2 1556   0.826   1.034   1.567 -0.3638  0.4742 -0.6577
  100MPD2    C3 1557   0.884   0.926   1.490  0.5574 -0.5429 -0.4021
  100MPD2    C4 1558   1.006   0.873   1.525 -0.0361  0.2268 -0.3599
  100MPD2    C5 1559   1.067   0.939   1.628 -0.1526  0.0719  0.2620
  100MPD2     H 1560   0.729   1.073   1.539 -0.5704 -0.3444 -1.0668
  100MPD2    H1 1561   1.065   0.800   1.471  0.3561 -0.0321  0.4184
  100MPD2    H2 1562   1.091   1.093   1.770 -1.1074  2.7144 -1.0518
  100MPD2    H3 1563   1.171   0.911   1.636  0.1850  1.9349  2.5413
  100MPD2     N 1564   0.789   0.857   1.403 -0.0833 -0.0129 -0.4611
  100MPD2    H5 1565   0.693   0.883   1.422 -0.4311 -0.4147 -1.6267
  100MPD2    N1 1566   0.832   1.195   1.747 -0.7622  0.6227 -0.4778
  100MPD2    H7 1567   0.750   1.237   1.704 -1.0594 -0.2948 -0.8174
  101TMC2    C1 1568   0.762   1.567  13.642  0.3166 -0.1444  0.0885
  101TMC2    C2 1569   0.821   1.544  13.762 -0.3659 -0.2570  0.5251
  101TMC2    C3 1570   0.915   1.630  13.811 -0.2962  0.9123  1.1945
  101TMC2    C4 1571   0.793   1.673  13.569  0.2670 -0.1010  1.2653
  101TMC2    C5 1572   0.891   1.753  13.615  1.0198 -0.0855  0.2714
  101TMC2    C6 1573   0.956   1.737  13.734  0.1401 -0.4313  0.1617
  101TMC2     C 1574   0.633   1.510  13.630 -0.5844 -0.5194  0.2795
  101TMC2     O 1575   0.589   1.483  13.741 -0.0559  0.7186  0.0310
  101TMC2     H 1576   0.791   1.461  13.826  2.3014 -1.2448  0.4847
  101TMC2    H1 1577   0.730   1.688  13.481  1.6573  3.8065  0.9506
  101TMC2    H2 1578   1.037   1.803  13.762 -1.5657  1.3414  0.8830
  101TMC2    C7 1579   0.928   1.860  13.534  0.2300 -0.1584 -0.1281
  101TMC2    C8 1580   0.973   1.591  13.935 -0.0428 -0.3043 -0.0790
  101TMC2    O1 1581   1.044   1.881  13.504 -0.0006  0.4113  0.1054
  101TMC2    O2 1582   1.093   1.606  13.963  0.5085 -0.3244  0.0690
  101TMC2    O5 1583   0.877   1.583  14.027  0.1849  0.1355 -0.8726
  101TMC2    H5 1584   0.786   1.599  13.992 -0.2122  0.8920  0.4880
  102MPD2     C 1585   0.483   1.330  13.355 -0.1456 -0.0122 -0.3122
  102MPD2    C1 1586   0.497   1.375  13.486 -1.2094 -0.2802 -0.0709
  102MPD2    C2 1587   0.396   1.349  13.571 -0.2489 -0.2871  0.0163
  102MPD2    C3 1588   0.288   1.267  13.535 -0.4150 -0.3630  0.4502
  102MPD2    C4 1589   0.281   1.212  13.408  0.9669 -0.7601 -0.7363
  102MPD2    C5 1590   0.376   1.245  13.313  0.2527 -1.0636  0.0790
  102MPD2     H 1591   0.406   1.382  13.674 -1.3641 -1.6484  0.5528
  102MPD2    H1 1592   0.202   1.145  13.375  1.0040 -2.3553  2.4644
  102MPD2    H2 1593   0.561   1.353  13.283 -0.5755 -1.0104 -1.1071
  102MPD2    H3 1594   0.353   1.205  13.215  0.5882  0.1302 -0.4827
  102MPD2     N 1595   0.192   1.242  13.630 -0.4682  0.5086 -0.4256
  102MPD2    H5 1596   0.191   1.294  13.717 -1.0589 -0.0518 -0.1005
  102MPD2    N1 1597   0.611   1.454  13.509 -0.3764 -0.4014  0.2188
  102MPD2    H7 1598   0.687   1.453  13.441  2.3143  2.4461  3.1535
  103TMC2    C1 1599   3.587   1.733  12.827 -0.7625  1.1046  0.1734
  103TMC2    C2 1600   3.638   1.786  12.712  0.8606  0.3790 -0.2980
  103TMC2    C3 1601   3.726   1.899  12.727  0.4549 -0.0721  0.6084
  103TMC2    C4 1602   3.611   1.775  12.950 -0.4373  0.3243  0.0530
  103TMC2    C5 1603   3.693   1.884  12.958 -0.0090  0.0916 -0.6926
  103TMC2    C6 1604   3.750   1.948  12.856 -1.1663 -0.1739 -0.9008
  103TMC2     C 1605   3.482   1.639  12.798 -0.3589  0.2843 -0.4572
  103TMC2     O 1606   3.437   1.639  12.685  0.2024  0.2547  0.5486
  103TMC2     H 1607   3.621   1.759  12.608 -2.7168 -0.0891  0.4257
  103TMC2    H1 1608   3.550   1.752  13.037 -0.6490 -0.5579 -0.3282
  103TMC2    H2 1609   3.812   2.037  12.867  1.3545 -1.9017 -1.0856
  103TMC2    C7 1610   3.695   1.968  13.079 -0.1535  0.5023  0.5702
  103TMC2    C8 1611   3.775   1.961  12.604 -0.6988 -0.4571  0.4227
  103TMC2    O1 1612   3.713   1.913  13.187  0.4691  0.0771  0.1417
  103TMC2    O2 1613   3.772   1.909  12.492 -0.0558  0.0371  0.0885
  103TMC2    O5 1614   3.833   2.081  12.633  0.8021 -0.2269  0.0175
  103TMC2    H5 1615   3.806   2.115  12.721  0.1543 -0.5908 -0.0408
  104MPD2     C 1616   3.250   1.481  13.046 -0.2124 -0.1953 -0.2410
  104MPD2    C1 1617   3.314   1.502  12.926  0.1878  0.1716 -0.0710
  104MPD2    C2 1618   3.263   1.443  12.815 -0.9873  0.6488 -0.6265
  104MPD2    C3 1619   3.145   1.368  12.808 -0.1096  0.4207 -0.2571
  104MPD2    C4 1620   3.079   1.359  12.925  0.1089  0.3819 -1.0372
  104MPD2    C5 1621   3.131   1.415  13.039  0.3520  0.2539  0.2793
  104MPD2     H 1622   3.312   1.462  12.720  1.9078  1.5615  1.0813
  104MPD2    H1 1623   2.987   1.302  12.927 -1.0528  2.2838 -0.4121
  104MPD2    H2 1624   3.279   1.545  13.129 -1.2273 -0.1584  0.0952
  104MPD2    H3 1625   3.076   1.404  13.132 -0.5220 -2.8170 -0.6184
  104MPD2     N 1626   3.076   1.324  12.695  0.3651 -0.4035  0.3703
  104MPD2    H5 1627   2.985   1.289  12.721 -0.4976  0.9346 -0.8477
  104MPD2    N1 1628   3.432   1.585  12.916  0.0428  0.2393 -0.5413
  104MPD2    H7 1629   3.481   1.606  13.003 -1.8163 -0.4914  0.6751
  105TMC2    C1 1630   0.427   0.748  17.675 -0.1670 -0.6914  0.1763
  105TMC2    C2 1631   0.328   0.669  17.623  0.5066  1.0405 -0.0139
  105TMC2    C3 1632   0.199   0.700  17.639  0.2702  0.6642 -0.1848
  105TMC2    C4 1633   0.396   0.874  17.719  0.0997 -0.7407  0.5461
  105TMC2    C5 1634   0.263   0.896  17.741 -0.1210 -1.0632  0.3201
  105TMC2    C6 1635   0.158   0.820  17.690  0.1640 -0.2301  0.0841
  105TMC2     C 1636   0.557   0.708  17.615  0.5633  0.2929 -0.0102
  105TMC2     O 1637   0.588   0.593  17.598 -0.6577  0.2087 -0.3310
  105TMC2     H 1638   0.361   0.580  17.570 -1.3044  0.6756 -0.5240
  105TMC2    H1 1639   0.476   0.934   0.014  0.5441 -1.7049  1.0579
  105TMC2    H2 1640   0.057   0.838  17.725  1.2323 -0.2334  3.1322
  105TMC2    C7 1641   0.230   1.028   0.039  0.0581  1.0947  0.3809
  105TMC2    C8 1642   0.104   0.597  17.606  0.1348  0.6611 -0.0097
  105TMC2    O1 1643   0.316   1.081   0.111 -0.0508 -0.6180 -0.1749
  105TMC2    O2 1644   0.124   0.502  17.532  0.2194  0.7821 -0.2628
  105TMC2    O5 1645   4.735   0.613  17.687 -0.0365 -0.3756  0.1864
  105TMC2    H5 1646   0.008   0.668   0.019  0.8161 -0.9710  0.4761
  106MPD2     C 1647   0.989   0.873  17.390 -0.3634 -0.8194 -0.7094
  106MPD2    C1 1648   0.884   0.960  17.361 -0.8352  0.6139 -0.7655
  106MPD2    C2 1649   0.764   0.943  17.423  0.7468  0.1841 -0.2181
  106MPD2    C3 1650   0.743   0.844  17.514 -1.1740  0.1057  0.1234
  106MPD2    C4 1651   0.847   0.765  17.538  0.4057 -0.1007 -0.3888
  106MPD2    C5 1652   0.972   0.788  17.497  0.1272 -0.2920 -0.3691
  106MPD2     H 1653   0.689   1.018  17.400  0.7449  0.1871 -0.2023
  106MPD2    H1 1654   0.836   0.683  17.609 -1.8412  1.7319  1.3532
  106MPD2    H2 1655   1.086   0.892  17.347 -0.3280 -2.1597 -1.2329
  106MPD2    H3 1656   1.053   0.721  17.521  0.4882  0.6980  1.1490
  106MPD2     N 1657   0.613   0.824  17.571 -0.0064 -0.2797  0.1048
  106MPD2    H5 1658   0.555   0.905  17.554 -0.2544 -0.9364 -2.1654
  106MPD2    N1 1659   0.890   1.069  17.266  0.0565 -0.2273  0.2635
  106MPD2    H7 1660   0.804   1.121  17.255  0.4266  0.5289  0.9420
  107TMC2    C1 1661   0.884   0.536  11.520  0.5013  1.4081  0.1528
  107TMC2    C2 1662   0.994   0.619  11.499 -0.1733 -0.3819  0.0666
  107TMC2    C3 1663   1.035   0.639  11.372  0.3660 -0.0383  0.0810
  107TMC2    C4 1664   0.836   0.460  11.416  0.0636  0.2623  0.2995
  107TMC2    C5 1665   0.905   0.463  11.293 -0.1063 -0.2127 -0.0060
  107TMC2    C6 1666   0.994   0.562  11.267 -0.6932 -0.1882  0.1338
  107TMC2     C 1667   0.802   0.544  11.640  0.0223 -0.2444  0.4934
  107TMC2     O 1668   0.758   0.438  11.690 -0.0652  0.0209  0.0406
  107TMC2     H 1669   1.041   0.663  11.587 -0.7737 -1.8060  1.0964
  107TMC2    H1 1670   0.744   0.404  11.426  1.3508 -2.0308 -0.8042
  107TMC2    H2 1671   1.044   0.577  11.172 -0.1317 -3.5466 -0.1098
  107TMC2    C7 1672   0.864   0.365  11.197  0.0788 -0.0282 -0.6040
  107TMC2    C8 1673   1.169   0.698  11.349 -0.1981  0.2216  0.0071
  107TMC2    O1 1674   0.801   0.266  11.247  0.0173 -0.0858  0.7312
  107TMC2    O2 1675   1.229   0.659  11.249 -0.1380 -0.0909  0.1145
  107TMC2    O5 1676   1.165   0.825  11.395  0.5259 -0.1962  0.0530
  107TMC2    H5 1677   1.085   0.839  11.451 -0.5931 -2.0598 -1.0714
  108MPD2     C 1678   0.670   0.852  11.788  0.3144 -0.5167  1.2358
  108MPD2    C1 1679   0.689   0.717  11.785  0.4191 -0.0408  0.0940
  108MPD2    C2 1680   0.621   0.630  11.874 -0.7168 -0.2890  0.5351
  108MPD2    C3 1681   0.527   0.688  11.957  0.0061  0.8235 -0.4617
  108MPD2    C4 1682   0.510   0.823  11.964  0.2168  0.2713  0.2092
  108MPD2    C5 1683   0.579   0.909  11.878 -0.2638 -0.2726 -0.2608
  108MPD2     H 1684   0.632   0.523  11.867 -1.8293 -0.1951 -2.5258
  108MPD2    H1 1685   0.434   0.870  12.026 -0.9786  0.1373 -1.1403
  108MPD2    H2 1686   0.729   0.917  11.725 -0.4836 -3.3418 -2.4293
  108MPD2    H3 1687   0.555   1.015  11.878 -1.2360 -0.4879  4.0504
  108MPD2     N 1688   0.435   0.615  12.038  0.4321 -0.0971  0.1193
  108MPD2    H5 1689   0.386   0.664  12.112 -0.6999  0.2239 -0.8447
  108MPD2    N1 1690   0.783   0.676  11.683  0.0473  0.0224 -0.6127
  108MPD2    H7 1691   0.827   0.748  11.627 -0.1208  0.3270 -0.3544
  109TMC2    C1 1692   1.273   3.572   0.399  0.0431  0.8388 -0.1165
  109TMC2    C2 1693   1.232   3.610   0.272 -0.0391 -0.2048 -0.4416
  109TMC2    C3 1694   1.165   3.729   0.262 -0.2032 -0.1546 -0.6761
  109TMC2    C4 1695   1.238   3.636   0.516 -0.3642 -0.6104 -0.1003
  109TMC2    C5 1696   1.162   3.756   0.492 -0.3341 -0.0730 -1.2204
  109TMC2    C6 1697   1.112   3.794   0.367 -0.9040  0.1747  0.7614
  109TMC2     C 1698   1.396   3.491   0.399  0.5136  0.1853  0.1737
  109TMC2     O 1699   1.432   3.433   0.300 -0.4928  0.4915  0.3385
  109TMC2     H 1700   1.268   3.568   0.179  2.5755  1.9933 -0.4458
  109TMC2    H1 1701   1.252   3.605   0.619  2.2436 -1.1746 -0.6264
  109TMC2    H2 1702   1.051   3.883   0.351  0.1492  0.9078  0.7967
  109TMC2    C7 1703   1.153   3.839   0.599 -0.1577  0.0562 -0.2249
  109TMC2    C8 1704   1.104   3.763   0.132  0.3439  0.3718  0.2469
  109TMC2    O1 1705   1.231   3.824   0.689  0.2402 -0.0417 -0.0843
  109TMC2    O2 1706   1.004   3.831   0.113 -0.3539  0.3111 -0.0892
  109TMC2    O5 1707   1.205   3.765   0.043 -0.1383  0.0266 -0.3328
  109TMC2    H5 1708   1.281   3.709   0.068 -0.7102 -0.6511 -0.1265
  110MPD2     C 1709   1.746   3.247   0.678  0.0813  0.0362 -0.7416
  110MPD2    C1 1710   1.704   3.355   0.750 -0.1928  1.2003 -0.5099
  110MPD2    C2 1711   1.613   3.439   0.687 -0.1524 -0.6152 -0.0131
  110MPD2    C3 1712   1.558   3.405   0.566  0.0392  0.1990 -0.0075
  110MPD2    C4 1713   1.595   3.292   0.499  0.5408 -0.4706  0.2475
  110MPD2    C5 1714   1.699   3.222   0.551  0.0266 -0.0919  0.0008
  110MPD2     H 1715   1.565   3.519   0.742 -0.6572 -2.8746  2.8199
  110MPD2    H1 1716   1.560   3.266   0.400 -0.8898  0.1839  0.5922
  110MPD2    H2 1717   1.822   3.181   0.720 -3.5846 -2.5355  1.7894
  110MPD2    H3 1718   1.738   3.142   0.488  1.1297  1.3330 -1.1248
  110MPD2     N 1719   1.464   3.495   0.518  0.1593  0.0172 -0.0343
  110MPD2    H5 1720   1.452   3.571   0.583 -0.9342  0.3986 -0.6782
  110MPD2    N1 1721   1.760   3.383   0.874 -0.4970 -0.3749 -0.2743
  110MPD2    H7 1722   1.836   3.324   0.906  0.1129  0.7179  0.3217
  111TMC2    C1 1723   0.637   2.587  12.058  0.0413  0.0233 -0.0764
  111TMC2    C2 1724   0.587   2.684  12.140  0.4488  0.4144  0.0817
  111TMC2    C3 1725   0.660   2.706  12.258 -0.8085  0.5397  0.8874
  111TMC2    C4 1726   0.752   2.518  12.089  0.2277 -0.0902  0.6967
  111TMC2    C5 1727   0.814   2.543  12.204 -0.4003 -0.4327  0.3393
  111TMC2    C6 1728   0.770   2.638  12.296 -0.2399  0.1989  0.4773
  111TMC2     C 1729   0.553   2.540  11.945  0.1660  0.5616 -0.2266
  111TMC2     O 1730   0.602   2.546  11.833 -0.3975  0.9080 -0.1873
  111TMC2     H 1731   0.494   2.738  12.135  0.3128  0.2571  0.8936
  111TMC2    H1 1732   0.783   2.433  12.029  0.2931 -0.9718  1.9663
  111TMC2    H2 1733   0.820   2.658  12.390  0.1606 -1.5484  0.6457
  111TMC2    C7 1734   0.891   2.446  12.271 -0.0180 -0.0080 -0.7174
  111TMC2    C8 1735   0.652   2.835  12.318 -0.0330  0.2867 -0.9626
  111TMC2    O1 1736   0.863   2.408  12.382 -0.0315  0.0978 -0.0127
  111TMC2    O2 1737   0.753   2.904  12.325 -0.0682 -0.4339 -0.8899
  111TMC2    O5 1738   0.528   2.883  12.310 -0.2488  0.0606  0.7635
  111TMC2    H5 1739   0.460   2.814  12.327  1.8424 -1.8030  1.4600
  112MPD2     C 1740   0.063   2.572  11.783  0.4921  0.3853  0.8060
  112MPD2    C1 1741   0.182   2.592  11.712 -0.1593 -0.1271 -0.4994
  112MPD2    C2 1742   0.300   2.587  11.785  0.4967 -0.2012 -0.5495
  112MPD2    C3 1743   0.303   2.557  11.916  0.2629  0.1088  0.0317
  112MPD2    C4 1744   0.186   2.540  11.988  0.0351  0.3846 -0.4215
  112MPD2    C5 1745   0.066   2.548  11.922 -0.9374 -0.5540 -0.6649
  112MPD2     H 1746   0.391   2.589  11.726  0.6651 -0.6681 -0.3055
  112MPD2    H1 1747   0.194   2.509  12.092  3.2704  1.4014 -0.3835
  112MPD2    H2 1748   4.711   2.569  11.721  0.8376  1.5403  0.2530
  112MPD2    H3 1749   4.710   2.540  11.975 -0.8994 -1.0287 -0.6668
  112MPD2     N 1750   0.419   2.538  11.986  0.0784  0.1480  0.2760
  112MPD2    H5 1751   0.409   2.529  12.087 -1.9333 -0.1967  0.0316
  112MPD2    N1 1752   0.193   2.619  11.573  0.3212  0.2683 -0.0522
  112MPD2    H7 1753   0.276   2.670  11.544  0.0387 -0.6669 -2.5432
  113TMC2    C1 1754   3.914   0.513   0.350 -0.4654 -0.5571 -0.3229
  113TMC2    C2 1755   3.816   0.571   0.270 -0.7361  0.1480 -0.4297
  113TMC2    C3 1756   3.740   0.479   0.199 -0.1225  0.1296  0.5740
  113TMC2    C4 1757   3.930   0.384   0.362  0.4708 -0.3107  0.9084
  113TMC2    C5 1758   3.845   0.297   0.295  0.7146  0.5203 -0.0283
  113TMC2    C6 1759   3.753   0.348   0.207 -0.0203 -0.2700  0.6267
  113TMC2     C 1760   4.004   0.602   0.418  0.3634  0.4899  0.1840
  113TMC2     O 1761   3.969   0.717   0.436 -0.3909 -0.2952  0.4624
  113TMC2     H 1762   3.803   0.679   0.265  0.0250  0.2742  0.2788
  113TMC2    H1 1763   3.994   0.345   0.440  1.2056  1.8363  1.3805
  113TMC2    H2 1764   3.689   0.284   0.146 -1.1349  0.5131  0.9680
  113TMC2    C7 1765   3.849   0.155   0.310 -0.5520  0.2536 -0.1042
  113TMC2    C8 1766   3.626   0.535   0.138  0.6377 -0.0337 -0.4349
  113TMC2    O1 1767   3.815   0.090   0.211  0.5413  0.2002 -0.1065
  113TMC2    O2 1768   3.537   0.593   0.194  0.0751 -0.1357  0.3370
  113TMC2    O5 1769   3.653   0.537   0.005  0.5370 -0.1988 -0.0125
  113TMC2    H5 1770   3.749   0.529  17.736  0.5892  2.0017 -0.7043
  114MPD2     C 1771   4.448   0.717   0.621 -0.7905 -0.2376 -0.3641
  114MPD2    C1 1772   4.332   0.790   0.615 -0.1659 -0.1121 -0.2717
  114MPD2    C2 1773   4.225   0.742   0.545 -0.1795  0.1315 -0.3921
  114MPD2    C3 1774   4.235   0.616   0.488  0.2218 -0.7687  0.3315
  114MPD2    C4 1775   4.349   0.541   0.501 -0.3093 -0.2172 -0.0956
  114MPD2    C5 1776   4.454   0.587   0.577 -0.3977 -0.4801 -0.5714
  114MPD2     H 1777   4.136   0.804   0.545 -0.2038  0.0976 -0.6666
  114MPD2    H1 1778   4.355   0.444   0.452 -1.9793 -1.0893  1.3920
  114MPD2    H2 1779   4.537   0.758   0.666 -0.0995 -1.6631 -0.4277
  114MPD2    H3 1780   4.545   0.528   0.581 -0.5856 -0.7507 -0.2228
  114MPD2     N 1781   4.128   0.540   0.438 -0.0819  0.2114 -0.1989
  114MPD2    H5 1782   4.145   0.450   0.395  0.4524  0.6264 -0.8546
  114MPD2    N1 1783   4.325   0.924   0.676  0.0074 -0.5609 -0.3122
  114MPD2    H7 1784   4.234   0.965   0.659  0.7445  1.3561  0.4480
  115TMC2    C1 1785   0.341   2.729  17.605  0.1571  0.1939  0.3157
  115TMC2    C2 1786   0.427   2.824  17.646 -0.2324  0.2950  0.1245
  115TMC2    C3 1787   0.407   2.955  17.618 -0.3709  0.2624 -0.2069
  115TMC2    C4 1788   0.226   2.762  17.539  0.2026 -0.0732 -0.5176
  115TMC2    C5 1789   0.209   2.898  17.507  0.0887  0.8030 -0.3932
  115TMC2    C6 1790   0.293   2.996  17.555  0.1494 -0.2753  0.0256
  115TMC2     C 1791   0.345   2.602  17.667 -0.3071  0.3819 -0.1827
  115TMC2     O 1792   0.270   2.523  17.605 -0.6670  0.4418  0.1428
  115TMC2     H 1793   0.515   2.789  17.699  0.2885  0.7977 -0.4145
  115TMC2    H1 1794   0.149   2.693  17.508  0.4844 -1.0035  0.8537
  115TMC2    H2 1795   0.277   3.102  17.538  1.5275  0.2941  2.4157
  115TMC2    C7 1796   0.095   2.941  17.424  0.3028 -0.3302 -0.2486
  115TMC2    C8 1797   0.501   3.045  17.680 -0.1724 -0.0041 -0.0116
  115TMC2    O1 1798   0.001   2.864  17.408 -0.1632  0.2553 -0.3973
  115TMC2    O2 1799   0.570   3.018   0.028 -0.4481 -0.0041 -0.5202
  115TMC2    O5 1800   0.524   3.150  17.603  0.1046  0.1356 -0.4261
  115TMC2    H5 1801   0.463   3.154  17.527  0.5896 -2.3530 -0.9411
  116MPD2     C 1802   0.449   2.269   0.280 -0.1427  0.0257 -0.0542
  116MPD2    C1 1803   0.450   2.256   0.143 -0.3941  0.2741 -0.0632
  116MPD2    C2 1804   0.423   2.361   0.066  0.2833 -0.6524 -0.0902
  116MPD2    C3 1805   0.411   2.486   0.122  0.0887  0.3302 -0.1617
  116MPD2    C4 1806   0.429   2.502   0.260  0.4225  0.4722  0.3093
  116MPD2    C5 1807   0.458   2.391   0.329  0.0448  0.7755  0.1285
  116MPD2     H 1808   0.415   2.340  17.708 -0.9036 -0.5071 -0.0349
  116MPD2    H1 1809   0.436   2.602   0.302 -2.1292  0.1472  1.4834
  116MPD2    H2 1810   0.443   2.188   0.351  1.7204  0.9119  1.1195
  116MPD2    H3 1811   0.474   2.408   0.435 -1.7403 -0.0530  0.5407
  116MPD2     N 1812   0.390   2.600   0.049 -0.8900  0.4171  0.1813
  116MPD2    H5 1813   0.421   2.684   0.096 -0.1533 -1.2162  2.6029
  116MPD2    N1 1814   0.480   2.122   0.096 -0.3281  0.0534 -0.0604
  116MPD2    H7 1815   0.503   2.048   0.161 -0.3919 -2.3237 -2.7106
  117TMC2    C1 1816   3.426   0.263  14.764 -0.0614  0.3256  0.0834
  117TMC2    C2 1817   3.537   0.231  14.838 -0.5075  0.6354 -0.2689
  117TMC2    C3 1818   3.653   0.293  14.818 -0.5932 -0.1379 -0.3010
  117TMC2    C4 1819   3.428   0.367  14.681 -0.3173  0.6956  0.2510
  117TMC2    C5 1820   3.541   0.444  14.683 -0.6475  0.0624  0.5468
  117TMC2    C6 1821   3.657   0.409  14.745  0.3420  0.2356 -0.3659
  117TMC2     C 1822   3.359   0.147  14.709  0.3472  0.3803 -0.2339
  117TMC2     O 1823   3.361   0.047  14.779  0.2117  0.7073 -0.2498
  117TMC2     H 1824   3.541   0.141  14.898  0.8726 -0.3574 -1.8594
  117TMC2    H1 1825   3.348   0.394  14.613 -1.4540  0.6482  1.5681
  117TMC2    H2 1826   3.755   0.444  14.713 -0.1429 -0.1730 -2.2437
  117TMC2    C7 1827   3.564   0.502  14.553 -0.3423 -0.0767  0.0256
  117TMC2    C8 1828   3.771   0.266  14.894 -0.1436  0.0619  0.4334
  117TMC2    O1 1829   3.671   0.478  14.503 -0.5405 -0.3251 -0.3677
  117TMC2    O2 1830   3.784   0.160  14.955  0.2133 -0.2065 -0.0269
  117TMC2    O5 1831   3.838   0.380  14.919  0.0764 -0.0440 -0.5258
  117TMC2    H5 1832   3.794   0.464  14.893  0.3555  1.3372  3.4230
  118MPD2     C 1833   3.326   0.752  14.376  0.0649 -0.1616  0.3162
  118MPD2    C1 1834   3.441   0.668  14.396 -0.2635 -0.4540  0.1395
  118MPD2    C2 1835   3.527   0.647  14.288  0.6561 -0.1516  0.9730
  118MPD2    C3 1836   3.501   0.715  14.166  0.1160 -0.2885 -0.0221
  118MPD2    C4 1837   3.386   0.791  14.153  0.6622 -0.0758  0.3307
  118MPD2    C5 1838   3.302   0.812  14.254  0.1276  0.6999 -0.2074
  118MPD2     H 1839   3.603   0.570  14.297 -0.2120 -1.1061  0.0512
  118MPD2    H1 1840   3.351   0.841  14.063  0.1815  0.3049  0.7317
  118MPD2    H2 1841   3.256   0.769  14.457 -1.1768  0.2720 -0.8683
  118MPD2    H3 1842   3.207   0.863  14.255 -0.1364  0.2057  0.4501
  118MPD2     N 1843   3.587   0.694  14.056  0.1163 -0.0263 -0.1523
  118MPD2    H5 1844   3.564   0.733  13.965  1.5646  0.3531 -0.3597
  118MPD2    N1 1845   3.454   0.593  14.521  0.3736  0.4597 -0.1855
  118MPD2    H7 1846   3.377   0.599  14.587  0.6175 -0.2204  0.1578
  119TMC2    C1 1847   1.454   1.172  13.406 -0.4315 -0.0557  0.3232
  119TMC2    C2 1848   1.556   1.083  13.438  0.4908 -0.6879 -0.1779
  119TMC2    C3 1849   1.514   0.959  13.476  0.3565  0.1909  0.4910
  119TMC2    C4 1850   1.320   1.132  13.405  0.6528 -0.0620 -0.1284
  119TMC2    C5 1851   1.284   1.010  13.461  0.1868  0.6004  0.5195
  119TMC2    C6 1852   1.382   0.930  13.506 -0.7096 -0.2044 -0.4982
  119TMC2     C 1853   1.482   1.319  13.392 -0.2986 -0.1405 -0.0581
  119TMC2     O 1854   1.398   1.393  13.340  0.2961  0.4881  0.8714
  119TMC2     H 1855   1.660   1.111  13.443  0.5886 -1.7278  3.5492
  119TMC2    H1 1856   1.238   1.200  13.383  0.7849  0.4081  0.8423
  119TMC2    H2 1857   1.355   0.843  13.565 -1.5644  0.2657 -0.1938
  119TMC2    C7 1858   1.151   0.964  13.430  0.2152 -0.0393 -0.3159
  119TMC2    C8 1859   1.618   0.875  13.527 -0.2941 -0.3833  0.2223
  119TMC2    O1 1860   1.127   0.931  13.314  0.4422 -0.1066  0.0339
  119TMC2    O2 1861   1.730   0.920  13.552 -0.0419 -0.4634  0.3501
  119TMC2    O5 1862   1.589   0.750  13.479 -0.0488  0.0942 -0.1831
  119TMC2    H5 1863   1.500   0.755  13.439  1.8616  1.3892 -4.2837
  120MPD2     C 1864   1.765   1.729  13.522  0.0975  0.2982 -0.7088
  120MPD2    C1 1865   1.629   1.719  13.486  0.4191 -0.0939 -0.3410
  120MPD2    C2 1866   1.577   1.592  13.463 -0.3429 -1.2476  0.0003
  120MPD2    C3 1867   1.653   1.480  13.480  0.2955 -0.3394 -0.8911
  120MPD2    C4 1868   1.783   1.491  13.524  0.4161 -0.5959 -0.4342
  120MPD2    C5 1869   1.838   1.611  13.540 -0.3071  0.3495  0.6582
  120MPD2     H 1870   1.471   1.587  13.439  0.1154  0.4632 -2.3497
  120MPD2    H1 1871   1.847   1.406  13.549 -0.1976 -1.1464 -0.7337
  120MPD2    H2 1872   1.817   1.823  13.533  2.5869 -0.7173 -3.5251
  120MPD2    H3 1873   1.941   1.622  13.571 -0.0103 -0.0920 -0.1647
  120MPD2     N 1874   1.601   1.352  13.458  0.0852 -0.1553 -0.3372
  120MPD2    H5 1875   1.657   1.277  13.497 -0.8783 -0.6175  0.1366
  120MPD2    N1 1876   1.554   1.838  13.482  0.8234 -0.2205 -0.4833
  120MPD2    H7 1877   1.591   1.920  13.435  1.4134 -0.4848 -0.4863
  121TMC2    C1 1878   2.693   2.756  14.564 -0.3887  0.1528  0.1448
  121TMC2    C2 1879   2.724   2.688  14.684 -0.2227  0.0356 -0.0038
  121TMC2    C3 1880   2.625   2.626  14.754 -0.0569 -0.7128 -0.2435
  121TMC2    C4 1881   2.559   2.765  14.516 -0.0440 -0.4418 -0.6859
  121TMC2    C5 1882   2.462   2.716  14.605 -0.2447 -0.1827 -0.2474
  121TMC2    C6 1883   2.491   2.640  14.719 -0.0707 -0.8252 -0.4023
  121TMC2     C 1884   2.788   2.845  14.519  0.1683  0.1907  0.4267
  121TMC2     O 1885   2.887   2.851  14.589  0.0476  0.0058 -0.2160
  121TMC2     H 1886   2.825   2.673  14.719 -0.2145  1.1393  0.4652
  121TMC2    H1 1887   2.534   2.830  14.434  1.3481 -1.3480 -1.8294
  121TMC2    H2 1888   2.413   2.608  14.787  0.1325 -0.1770  0.1295
  121TMC2    C7 1889   2.326   2.697  14.564  0.2179 -0.1665  0.2511
  121TMC2    C8 1890   2.669   2.539  14.856 -0.0129 -0.0801  0.2964
  121TMC2    O1 1891   2.271   2.600  14.613  0.1060  0.2709 -0.7359
  121TMC2    O2 1892   2.781   2.540  14.897 -0.3688  0.8380 -0.6371
  121TMC2    O5 1893   2.609   2.416  14.818  0.4464  0.0012  0.3249
  121TMC2    H5 1894   2.539   2.425  14.751  0.7611 -1.7903 -0.2508
  122MPD2     C 1895   2.949   3.036  14.359  0.0498 -0.3746 -0.1334
  122MPD2    C1 1896   2.853   2.959  14.303  0.2666  1.7508 -0.2119
  122MPD2    C2 1897   2.818   2.971  14.163  0.6573 -0.5060 -0.2094
  122MPD2    C3 1898   2.899   3.052  14.087 -0.3063  0.0878 -0.2792
  122MPD2    C4 1899   3.008   3.121  14.145  0.9358  0.6325  0.2598
  122MPD2    C5 1900   3.030   3.118  14.281 -0.1666 -0.4595  0.3960
  122MPD2     H 1901   2.732   2.916  14.128  0.5228 -0.2956 -0.2062
  122MPD2    H1 1902   3.062   3.195  14.087  0.8526  2.1584  2.1342
  122MPD2    H2 1903   2.973   3.036  14.464 -2.0215 -0.1028  0.3355
  122MPD2    H3 1904   3.107   3.175  14.332  0.5878 -0.6332 -0.5415
  122MPD2     N 1905   2.878   3.084  13.949  0.3776 -0.6486  0.6688
  122MPD2    H5 1906   2.939   3.152  13.905 -0.2237  0.8175  2.0781
  122MPD2    N1 1907   2.765   2.882  14.389  0.2585 -0.0420 -0.0882
  122MPD2    H7 1908   2.685   2.841  14.341 -0.5858  1.3728  0.1230
  123TMC2    C1 1909   1.033   1.186  11.241 -1.2214  0.1817 -0.0066
  123TMC2    C2 1910   1.014   1.314  11.289  0.3822  0.3148  0.9314
  123TMC2    C3 1911   1.024   1.420  11.201 -0.2983  0.1844  0.3489
  123TMC2    C4 1912   1.091   1.158  11.121  0.2768  0.2522 -0.0476
  123TMC2    C5 1913   1.118   1.272  11.054 -0.1367  0.0644 -0.0607
  123TMC2    C6 1914   1.081   1.402  11.078  0.1039 -0.5987 -0.2153
  123TMC2     C 1915   0.944   1.086  11.296  0.2686  0.5362  0.3929
  123TMC2     O 1916   0.891   1.091  11.404  0.0983  0.1892 -0.6926
  123TMC2     H 1917   0.964   1.327  11.384  0.2803  0.1659  0.8985
  123TMC2    H1 1918   1.126   1.060  11.090  3.3651  1.6170 -0.8876
  123TMC2    H2 1919   1.098   1.480  11.004  1.3110  0.2123  0.9120
  123TMC2    C7 1920   1.160   1.243  10.917  0.6783  0.0576  0.9015
  123TMC2    C8 1921   1.028   1.561  11.244 -0.5019  0.2710 -0.1844
  123TMC2    O1 1922   1.129   1.140  10.860  0.0588 -0.0543  0.1242
  123TMC2    O2 1923   1.108   1.638  11.192 -0.2992  0.5447  0.2158
  123TMC2    O5 1924   0.936   1.584  11.339  0.5872  0.0814 -0.5605
  123TMC2    H5 1925   0.874   1.511  11.359 -1.1094  0.7552 -3.3448
  124MPD2     C 1926   0.624   0.705  11.165 -0.1837 -0.6245  0.2548
  124MPD2    C1 1927   0.692   0.747  11.057  0.1384  0.6727  0.5634
  124MPD2    C2 1928   0.801   0.828  11.079  0.0006 -0.1031 -0.0031
  124MPD2    C3 1929   0.822   0.884  11.200 -0.1447  0.4671  0.1643
  124MPD2    C4 1930   0.762   0.832  11.315 -0.9126  0.4702 -0.8666
  124MPD2    C5 1931   0.665   0.741  11.293 -0.6230  0.0714  0.3586
  124MPD2     H 1932   0.856   0.865  10.993 -1.7352 -1.4791 -1.6962
  124MPD2    H1 1933   0.773   0.861  11.419  0.5019 -0.0079 -0.8748
  124MPD2    H2 1934   0.545   0.631  11.162  0.5887 -1.3707 -2.0667
  124MPD2    H3 1935   0.625   0.692  11.381 -0.5986 -0.4284  0.0955
  124MPD2     N 1936   0.913   0.995  11.201  0.8831 -0.4265 -0.2061
  124MPD2    H5 1937   0.952   1.016  11.109  0.4061 -2.6668 -0.9375
  124MPD2    N1 1938   0.661   0.695  10.932  0.8255  0.1287 -0.0105
  124MPD2    H7 1939   0.576   0.640  10.924  0.3041  0.6648  1.8932
  125TMC2    C1 1940   2.071   4.226   9.849 -0.8415 -0.6051 -0.5878
  125TMC2    C2 1941   2.141   4.340   9.819  0.4724  0.0242  0.4070
  125TMC2    C3 1942   2.086   4.461   9.850  0.2304  0.6541  0.3877
  125TMC2    C4 1943   1.963   4.225   9.930  0.4547 -0.4023 -0.3502
  125TMC2    C5 1944   1.903   4.344   9.949 -0.1409 -0.0598 -0.4494
  125TMC2    C6 1945   1.964   4.461   9.919 -0.3856 -0.1501  0.1153
  125TMC2     C 1946   2.109   4.107   9.776 -0.7128 -0.3069  0.2391
  125TMC2     O 1947   2.073   4.006   9.835  0.6656 -0.1206  0.6279
  125TMC2     H 1948   2.240   4.335   9.774  0.3266  0.7875  0.0021
  125TMC2    H1 1949   1.916   4.128   9.946 -0.6297 -0.1612 -2.0504
  125TMC2    H2 1950   1.937   4.560   9.955  1.4726  0.8052 -1.0658
  125TMC2    C7 1951   1.786   4.353  10.032  0.0112  0.1895 -0.1723
  125TMC2    C8 1952   2.163   4.583   9.855  0.2745 -0.0420 -0.0920
  125TMC2    O1 1953   1.755   4.461  10.076 -0.1932 -0.3568 -0.3347
  125TMC2    O2 1954   2.141   4.685   9.920 -0.1347  0.2269 -0.9329
  125TMC2    O5 1955   2.237   4.585   9.744  0.4241 -0.0214  0.0800
  125TMC2    H5 1956   2.215   4.512   9.682 -1.4345  2.0396 -1.6937
  126MPD1     C 1957   2.124   3.885   9.314 -0.2470 -0.0001  0.1982
  126MPD1    C1 1958   2.080   4.012   9.299  0.8135 -0.5146  0.3624
  126MPD1    C2 1959   2.092   4.093   9.412  0.8347 -0.3482  0.1460
  126MPD1    C3 1960   2.121   4.040   9.536  1.0928  0.1743 -0.4183
  126MPD1    C4 1961   2.151   3.899   9.551  0.2024 -0.2514  0.4749
  126MPD1    C5 1962   2.152   3.823   9.438 -0.1165  0.1756 -0.1324
  126MPD1     H 1963   2.083   4.200   9.400  2.2388 -0.3563 -0.9505
  126MPD1    H1 1964   2.195   3.854   9.640 -0.3729  1.3827  1.5919
  126MPD1    H2 1965   2.149   3.822   9.229  2.1649  1.4787 -0.1761
  126MPD1    H3 1966   2.184   3.719   9.438 -0.6829 -0.0018  2.2110
  126MPD1     N 1967   2.135   4.129   9.643  0.0600  0.1201  0.1281
  126MPD1    H5 1968   2.136   4.228   9.619 -1.1179  0.3610  1.0662
  126MPD1    N1 1969   2.086   4.070   9.176  0.7774  0.2012  0.8134
  126MPD1    H6 1970   2.026   4.152   9.180  0.6502  0.1146  0.6478
  126MPD1    H7 1971   2.057   4.011   9.099  1.3303  0.7650  0.1718
  127TMC2    C1 1972   2.330   2.021   9.330 -0.1041 -0.0697  0.0690
  127TMC2    C2 1973   2.310   1.989   9.198  0.4083  0.0456 -0.1384
  127TMC2    C3 1974   2.253   1.875   9.159  0.5622 -0.1760  0.4655
  127TMC2    C4 1975   2.301   1.924   9.427 -0.3520  0.6051  0.0193
  127TMC2    C5 1976   2.260   1.800   9.376  0.0100  0.3840 -0.1450
  127TMC2    C6 1977   2.243   1.770   9.244  0.4290 -0.6138  0.1741
  127TMC2     C 1978   2.313   2.158   9.373  0.6995 -0.1949  0.7495
  127TMC2     O 1979   2.252   2.236   9.300  0.3342 -0.8749  0.9938
  127TMC2     H 1980   2.335   2.049   9.111  0.0264 -1.1042 -1.0299
  127TMC2    H1 1981   2.294   1.954   9.531  1.5826  0.4853  0.1956
  127TMC2    H2 1982   2.202   1.674   9.216 -0.2720 -0.4637  0.6998
  127TMC2    C7 1983   2.232   1.694   9.467  0.1702  0.3273 -0.9789
  127TMC2    C8 1984   2.230   1.841   9.018 -0.7052  0.5164  0.6215
  127TMC2    O1 1985   2.150   1.611   9.436  0.1883  0.3559  0.4156
  127TMC2    O2 1986   2.131   1.887   8.958  0.1531 -0.7132 -0.0987
  127TMC2    O5 1987   2.355   1.841   8.965  0.7099  0.2398  0.4510
  127TMC2    H5 1988   2.428   1.843   9.030  1.4509 -0.5160 -0.3614
  128MPD2     C 1989   2.463   2.289   9.676  0.1530 -0.0824 -0.1941
  128MPD2    C1 1990   2.401   2.302   9.557  0.4222  0.2675  0.4258
  128MPD2    C2 1991   2.358   2.426   9.518 -0.3740 -0.3566 -0.4495
  128MPD2    C3 1992   2.362   2.537   9.595 -0.3271  0.0145  0.2163
  128MPD2    C4 1993   2.411   2.522   9.725 -0.5737  0.5092  0.0805
  128MPD2    C5 1994   2.474   2.400   9.758  0.2818  0.2228  0.2770
  128MPD2     H 1995   2.305   2.430   9.424 -0.6761  0.4299 -0.2461
  128MPD2    H1 1996   2.425   2.599   9.801  1.4270 -0.2369  0.4634
  128MPD2    H2 1997   2.502   2.196   9.716 -1.9818  0.0131  2.0414
  128MPD2    H3 1998   2.514   2.391   9.858 -4.6738 -0.4692  2.1799
  128MPD2     N 1999   2.325   2.668   9.548 -0.4026  0.5220  0.2832
  128MPD2    H5 2000   2.304   2.679   9.450  0.5002 -1.1953 -0.1082
  128MPD2    N1 2001   2.389   2.179   9.485  0.0613  0.2670  0.0957
  128MPD2    H7 2002   2.424   2.093   9.527  2.1592  1.0877  0.0081
  129TMC2    C1 2003   1.908   2.080   1.887  0.5578 -0.2228 -1.5319
  129TMC2    C2 2004   2.036   2.096   1.841 -0.5609 -0.5244  0.0147
  129TMC2    C3 2005   2.086   2.007   1.751 -0.0605 -0.1271  0.5143
  129TMC2    C4 2006   1.844   1.963   1.863 -0.2376  0.6348  0.2270
  129TMC2    C5 2007   1.905   1.873   1.784 -0.2340  0.1820  0.6853
  129TMC2    C6 2008   2.022   1.894   1.714 -0.2328 -0.2681 -0.3568
  129TMC2     C 2009   1.840   2.185   1.961 -0.1910  0.4119 -0.3559
  129TMC2     O 2010   1.738   2.145   2.019 -0.1912 -0.5388  0.3109
  129TMC2     H 2011   2.085   2.188   1.871 -0.2208 -0.0609 -1.9910
  129TMC2    H1 2012   1.745   1.939   1.900  0.9279  0.6685  3.3404
  129TMC2    H2 2013   2.051   1.827   1.635  1.5931  0.3149 -0.1999
  129TMC2    C7 2014   1.853   1.733   1.780  0.3142 -0.0471 -0.2099
  129TMC2    C8 2015   2.200   2.052   1.667 -0.4731 -0.2387  0.9789
  129TMC2    O1 2016   1.744   1.709   1.826 -0.6008 -0.0648 -0.3260
  129TMC2    O2 2017   2.244   2.166   1.686  0.5272  0.4182 -0.4458
  129TMC2    O5 2018   2.267   1.951   1.607 -0.4098  0.0295  0.2969
  129TMC2    H5 2019   2.232   1.866   1.641  1.6614 -0.9189  0.0393
  130MPD2     C 2020   1.693   2.435   2.040  0.5970  0.4393 -0.3263
  130MPD2    C1 2021   1.801   2.432   1.949  0.5093 -0.5046  0.9232
  130MPD2    C2 2022   1.842   2.547   1.887  0.5404 -0.0866 -0.1655
  130MPD2    C3 2023   1.781   2.665   1.913 -0.0683 -0.0805 -0.1168
  130MPD2    C4 2024   1.682   2.667   2.007 -1.0137  0.1034 -0.3876
  130MPD2    C5 2025   1.639   2.553   2.072  0.3855  0.7486 -0.6406
  130MPD2     H 2026   1.931   2.540   1.825  1.1247 -0.9240  0.7669
  130MPD2    H1 2027   1.640   2.761   2.040 -0.0978  1.4041 -2.9241
  130MPD2    H2 2028   1.644   2.349   2.085  0.3476  0.6441 -0.2044
  130MPD2    H3 2029   1.558   2.556   2.144 -0.7385 -0.4755 -1.8458
  130MPD2     N 2030   1.838   2.777   1.853 -0.4423 -1.4093 -0.0570
  130MPD2    H5 2031   1.922   2.754   1.800 -0.1062  0.4939 -0.3729
  130MPD2    N1 2032   1.873   2.312   1.920 -0.5635 -0.1649  0.9078
  130MPD2    H7 2033   1.938   2.320   1.843 -0.7992  0.3592  0.7659
  131TMC2    C1 2034   0.960   1.528  10.337  0.6472 -0.1238  0.0093
  131TMC2    C2 2035   0.841   1.583  10.304 -0.2607  0.3276 -0.2361
  131TMC2    C3 2036   0.805   1.695  10.365  0.1229  0.1869  0.1057
  131TMC2    C4 2037   1.045   1.590  10.428 -0.0018 -0.4751  0.7149
  131TMC2    C5 2038   1.013   1.714  10.466 -0.3805 -0.6022  0.0223
  131TMC2    C6 2039   0.895   1.771  10.431 -0.1516  0.1384  0.3777
  131TMC2     C 2040   0.945   1.382  10.342 -0.6886 -0.5708  0.2282
  131TMC2     O 2041   0.963   1.330  10.448  0.0870  0.2232  0.2240
  131TMC2     H 2042   0.766   1.522  10.255 -0.4962 -0.1895  0.7704
  131TMC2    H1 2043   1.139   1.542  10.455  1.1657  1.3474 -0.0694
  131TMC2    H2 2044   0.873   1.873  10.462  0.6064 -0.1267  1.7642
  131TMC2    C7 2045   1.108   1.808  10.529 -0.5152 -0.4579  0.5972
  131TMC2    C8 2046   0.672   1.749  10.328  0.0522  0.6747 -0.0551
  131TMC2    O1 2047   1.068   1.913  10.581  0.0299 -0.6175  0.2846
  131TMC2    O2 2048   0.606   1.708  10.236  0.2945 -0.1588  0.0593
  131TMC2    O5 2049   0.639   1.841  10.427  0.0267 -0.6149  0.1276
  131TMC2    H5 2050   0.694   1.828  10.508 -0.0937 -1.0641  0.1350
  132MPD2     C 2051   0.820   1.173  10.073 -0.3002 -0.1598  0.4256
  132MPD2    C1 2052   0.848   1.203  10.206 -0.2470  0.1085 -0.0924
  132MPD2    C2 2053   0.818   1.108  10.304  0.3657 -0.2874 -0.4757
  132MPD2    C3 2054   0.744   0.994  10.275  0.2699 -0.4537 -0.1559
  132MPD2    C4 2055   0.716   0.965  10.138 -0.2921 -0.1617  0.0168
  132MPD2    C5 2056   0.765   1.050  10.041  0.2679 -0.1029  0.3552
  132MPD2     H 2057   0.842   1.130  10.407  1.4869 -2.1728 -0.3420
  132MPD2    H1 2058   0.672   0.872  10.105  1.2232 -0.5976 -0.7846
  132MPD2    H2 2059   0.835   1.244   9.992  3.0909 -0.9502  0.3682
  132MPD2    H3 2060   0.742   1.039   9.935  1.7068 -0.3629  0.0704
  132MPD2     N 2061   0.718   0.898  10.377  0.2946  0.1230 -0.1546
  132MPD2    H5 2062   0.783   0.894  10.455  0.0282  0.1539  0.0709
  132MPD2    N1 2063   0.909   1.330  10.223  0.5308 -0.3573  0.0478
  132MPD2    H7 2064   0.905   1.393  10.144  0.0012 -1.2149 -0.6106
  133TMC2    C1 2065   1.056   2.648   9.887 -0.5815  0.4792  0.5142
  133TMC2    C2 2066   1.067   2.770   9.944 -0.0342  0.1862  0.3466
  133TMC2    C3 2067   1.186   2.813   9.981 -0.2818  0.4033 -0.2133
  133TMC2    C4 2068   1.162   2.568   9.859  0.8678 -0.1177  0.1141
  133TMC2    C5 2069   1.282   2.621   9.886  0.2147 -0.0948  0.0587
  133TMC2    C6 2070   1.299   2.742   9.953 -0.9287 -0.5295  0.0397
  133TMC2     C 2071   0.921   2.587   9.864  0.1771  0.1575 -0.2412
  133TMC2     O 2072   0.913   2.479   9.804  0.0867 -0.3394  0.2677
  133TMC2     H 2073   0.986   2.839   9.966 -2.0857 -1.4728 -2.1444
  133TMC2    H1 2074   1.156   2.475   9.803 -0.7771  0.3111 -0.3999
  133TMC2    H2 2075   1.394   2.769   9.998 -0.2378 -0.5608 -1.4232
  133TMC2    C7 2076   1.407   2.547   9.862 -0.1457 -0.0604 -0.0963
  133TMC2    C8 2077   1.199   2.945  10.033  0.3697  0.0114  0.4056
  133TMC2    O1 2078   1.510   2.612   9.848  0.2979 -0.0747 -0.4240
  133TMC2    O2 2079   1.115   3.034  10.016  0.1925  0.0942 -0.9300
  133TMC2    O5 2080   1.301   2.952  10.118 -0.0150  0.8502 -0.8786
  133TMC2    H5 2081   1.347   2.869  10.145 -0.7921  1.1718  1.4340
  134MPD2     C 2082   0.607   2.768   9.936 -0.2265 -0.2283  0.2204
  134MPD2    C1 2083   0.680   2.656   9.892 -0.1048 -0.0854  0.3260
  134MPD2    C2 2084   0.615   2.545   9.849 -0.9248 -0.0365 -0.1037
  134MPD2    C3 2085   0.475   2.542   9.846  0.9578 -0.0371  0.1152
  134MPD2    C4 2086   0.410   2.656   9.886 -0.5806 -0.6106 -0.1410
  134MPD2    C5 2087   0.469   2.769   9.931 -0.1004  0.3306 -0.1698
  134MPD2     H 2088   0.665   2.457   9.813 -0.3123  0.3358 -0.1600
  134MPD2    H1 2089   0.301   2.654   9.890 -0.5541  1.0809  1.0650
  134MPD2    H2 2090   0.667   2.852   9.970  0.5586 -0.3245 -0.9510
  134MPD2    H3 2091   0.402   2.853   9.946 -0.5469 -0.1279  0.4128
  134MPD2     N 2092   0.396   2.435   9.791  0.2289 -0.2503 -0.6957
  134MPD2    H5 2093   0.298   2.459   9.779  0.2265  0.4253  0.6908
  134MPD2    N1 2094   0.822   2.667   9.910  0.1961  0.3919 -0.4842
  134MPD2    H7 2095   0.853   2.754   9.953 -1.4847  0.8081 -0.0853
  135TMC2    C1 2096   2.029   3.476   9.858 -0.0183 -0.1897 -0.0454
  135TMC2    C2 2097   1.940   3.526   9.954  0.1184  0.2888  0.2084
  135TMC2    C3 2098   1.914   3.448  10.061  0.1454 -0.4689 -0.1324
  135TMC2    C4 2099   2.078   3.347   9.875 -0.5659 -0.2294  1.2094
  135TMC2    C5 2100   2.052   3.276   9.984 -0.0355  0.6519 -0.7278
  135TMC2    C6 2101   1.971   3.325  10.077 -0.4128  0.0322  0.0259
  135TMC2     C 2102   2.009   3.517   9.717 -0.2990  0.2098 -0.1543
  135TMC2     O 2103   1.901   3.564   9.684 -0.3472 -0.5376 -0.3964
  135TMC2     H 2104   1.861   3.593   9.921  0.5479  1.0440  0.7135
  135TMC2    H1 2105   2.152   3.317   9.802 -0.9454 -1.4199  1.3248
  135TMC2    H2 2106   1.927   3.273  10.161 -0.0503 -0.4266 -0.0648
  135TMC2    C7 2107   2.093   3.138   9.978 -0.1702 -0.2657  0.2002
  135TMC2    C8 2108   1.781   3.453  10.115  0.3650  0.5460  0.1506
  135TMC2    O1 2109   2.143   3.107   9.869 -0.2754 -0.0603 -0.2700
  135TMC2    O2 2110   1.697   3.364  10.101  0.2060  0.1540  0.5568
  135TMC2    O5 2111   1.746   3.584  10.118 -0.0791  0.1701  0.2584
  135TMC2    H5 2112   1.825   3.640  10.134  0.4107 -0.1605 -1.0590
  136MPD2     C 2113   2.003   3.520   9.412 -0.1425 -0.0196 -0.7724
  136MPD2    C1 2114   2.109   3.481   9.491  0.5133  0.3445 -0.1810
  136MPD2    C2 2115   2.232   3.445   9.429  0.0285 -0.8842  0.1682
  136MPD2    C3 2116   2.247   3.452   9.298  0.3975 -0.1861  0.8329
  136MPD2    C4 2117   2.145   3.500   9.220 -0.3660  0.0678 -0.1819
  136MPD2    C5 2118   2.021   3.531   9.273  0.2223  0.3121  0.2605
  136MPD2     H 2119   2.317   3.418   9.490 -0.0495  0.2563  0.7892
  136MPD2    H1 2120   2.155   3.511   9.113 -0.8281  3.8242  0.1558
  136MPD2    H2 2121   1.908   3.553   9.453  0.6469  2.3976 -0.9415
  136MPD2    H3 2122   1.935   3.569   9.220 -1.2511  0.0508  2.4470
  136MPD2     N 2123   2.368   3.407   9.240 -0.4026 -0.1129 -0.1036
  136MPD2    H5 2124   2.375   3.406   9.138 -0.8201  2.3790 -0.1385
  136MPD2    N1 2125   2.111   3.472   9.634 -0.2295 -0.1120 -0.6453
  136MPD2    H7 2126   2.192   3.439   9.685 -1.3139 -1.5732  0.1385
  137TMC2    C1 2127   1.986   2.542   9.701 -0.0185 -0.2882 -0.2830
  137TMC2    C2 2128   1.978   2.575   9.573  0.9507  0.6266 -0.3714
  137TMC2    C3 2129   1.906   2.692   9.539 -0.1204 -0.1111  0.2858
  137TMC2    C4 2130   1.926   2.624   9.797  0.1412  0.0610 -0.3240
  137TMC2    C5 2131   1.861   2.740   9.763  0.7680  0.2261 -0.0070
  137TMC2    C6 2132   1.839   2.773   9.630  0.6044 -0.5613 -0.0559
  137TMC2     C 2133   2.038   2.416   9.739 -1.3197 -0.0337  0.3081
  137TMC2     O 2134   2.086   2.406   9.852  0.0354 -0.5077 -0.3753
  137TMC2     H 2135   2.024   2.517   9.493 -0.3858  1.0147 -1.4409
  137TMC2    H1 2136   1.949   2.615   9.903  1.5573 -0.1023 -0.6470
  137TMC2    H2 2137   1.775   2.855   9.600  0.1259 -0.6915  0.5876
  137TMC2    C7 2138   1.792   2.825   9.861  0.1270  1.0861 -0.2492
  137TMC2    C8 2139   1.960   2.749   9.417 -0.1296  0.1785 -0.6106
  137TMC2    O1 2140   1.739   2.926   9.812  0.1386 -0.0493  0.4351
  137TMC2    O2 2141   2.079   2.745   9.390 -0.2687 -0.0081  0.2014
  137TMC2    O5 2142   1.887   2.856   9.384  0.2501  0.4585 -0.0722
  137TMC2    H5 2143   1.797   2.854   9.423  0.0497  0.9463 -0.5143
  138MPD2     C 2144   1.966   2.097   9.587 -0.2331  0.6697  0.3002
  138MPD2    C1 2145   2.031   2.183   9.670 -0.0276 -0.2660  0.0189
  138MPD2    C2 2146   2.127   2.136   9.762 -0.3549  0.3421  0.1116
  138MPD2    C3 2147   2.138   1.998   9.787 -0.6213  0.6516  0.1082
  138MPD2    C4 2148   2.068   1.913   9.708 -0.2136  0.0208  0.4847
  138MPD2    C5 2149   1.983   1.959   9.609 -0.2672  0.0931 -0.2780
  138MPD2     H 2150   2.177   2.212   9.821  0.7988 -1.7661  1.8397
  138MPD2    H1 2151   2.076   1.806   9.719 -1.8154 -0.2973 -1.3922
  138MPD2    H2 2152   1.908   2.115   9.497 -1.3290  1.1810  1.1231
  138MPD2    H3 2153   1.927   1.896   9.541 -1.3069 -1.0211  1.5914
  138MPD2     N 2154   2.227   1.937   9.883  0.9174 -0.2131 -0.1835
  138MPD2    H5 2155   2.224   1.836   9.891  1.8018 -0.4013 -2.3769
  138MPD2    N1 2156   2.003   2.318   9.650 -0.6756 -0.0074  0.4224
  138MPD2    H7 2157   1.947   2.336   9.568 -0.6328  1.5375  0.7360
  139TMC2    C1 2158   2.792   0.541  13.943  0.2167 -0.1364 -0.1907
  139TMC2    C2 2159   2.668   0.521  13.893 -0.8263  0.3617  0.0900
  139TMC2    C3 2160   2.572   0.614  13.925  0.3311 -0.3141 -0.2134
  139TMC2    C4 2161   2.832   0.662  13.994 -0.2238 -0.4805 -0.0690
  139TMC2    C5 2162   2.734   0.755  14.023 -0.7369 -0.4354 -0.2620
  139TMC2    C6 2163   2.602   0.728  13.990 -0.0109 -0.4600 -0.3215
  139TMC2     C 2164   2.893   0.454  13.888  0.1117 -0.7998 -0.2152
  139TMC2     O 2165   2.858   0.371  13.801 -0.3592 -0.4688 -0.2469
  139TMC2     H 2166   2.642   0.440  13.826 -3.2897  0.1402  1.3121
  139TMC2    H1 2167   2.930   0.673  14.039 -1.4841 -0.5837  2.6998
  139TMC2    H2 2168   2.525   0.804  13.983 -0.9054 -1.2716  0.6327
  139TMC2    C7 2169   2.770   0.898  14.036 -0.8601 -0.0622 -0.7908
  139TMC2    C8 2170   2.453   0.609  13.849  0.1860  0.3169  0.3606
  139TMC2    O1 2171   2.681   0.978  14.057 -0.2137 -0.2105  0.0714
  139TMC2    O2 2172   2.343   0.565  13.890 -0.6944  0.1380  0.5893
  139TMC2    O5 2173   2.479   0.664  13.728 -0.1957 -0.0789  0.5495
  139TMC2    H5 2174   2.576   0.671  13.721 -0.2836  0.5327 -0.0480
  140MPD2     C 2175   3.156   0.292  14.080  0.1492  0.2416  0.3519
  140MPD2    C1 2176   3.088   0.332  13.966 -0.9556  0.1929 -0.1324
  140MPD2    C2 2177   3.114   0.262  13.854  0.6491  0.3916 -0.3532
  140MPD2    C3 2178   3.202   0.156  13.857  0.5014  0.1314  0.5780
  140MPD2    C4 2179   3.273   0.116  13.970 -0.0861  0.2357 -0.0272
  140MPD2    C5 2180   3.247   0.186  14.083  0.4180  0.3424 -0.2548
  140MPD2     H 2181   3.068   0.282  13.758  0.0092 -1.1965 -0.3726
  140MPD2    H1 2182   3.332   0.026  13.972 -0.8940 -0.2791  0.7251
  140MPD2    H2 2183   3.148   0.355  14.168  0.7384 -0.9696  1.2757
  140MPD2    H3 2184   3.300   0.171  14.176  0.2015 -1.1044 -0.3619
  140MPD2     N 2185   3.232   0.099  13.728  0.0341 -0.5149 -0.2467
  140MPD2    H5 2186   3.179   0.129  13.647  0.9045  2.1385  0.1862
  140MPD2    N1 2187   2.996   0.433  13.978  0.5815 -0.9518  0.3592
  140MPD2    H7 2188   2.987   0.477  14.069  2.9029  0.6234 -0.1576
  141TMC2    C1 2189   3.792   1.852  14.685  0.0886 -0.3575 -0.4275
  141TMC2    C2 2190   3.881   1.762  14.738 -0.4441 -0.4596 -0.1515
  141TMC2    C3 2191   3.897   1.752  14.871  0.0507 -0.4738 -0.3213
  141TMC2    C4 2192   3.727   1.936  14.765  0.1053 -0.3719 -0.2560
  141TMC2    C5 2193   3.740   1.925  14.901 -0.2176 -0.4070 -0.3497
  141TMC2    C6 2194   3.836   1.838  14.958 -0.0407  0.2600  0.5138
  141TMC2     C 2195   3.784   1.880  14.546 -0.4810  0.4545  0.0924
  141TMC2     O 2196   3.768   2.001  14.524 -0.1635  0.4949  0.1385
  141TMC2     H 2197   3.953   1.727  14.664  1.8819  1.1501  1.3283
  141TMC2    H1 2198   3.648   2.000  14.728  1.4636  1.0892 -0.6411
  141TMC2    H2 2199   3.849   1.836  15.066  1.8703 -0.5803  0.2622
  141TMC2    C7 2200   3.749   2.053  14.972 -0.0900  0.0178  0.2454
  141TMC2    C8 2201   3.984   1.641  14.923  0.1409  0.5455  0.3617
  141TMC2    O1 2202   3.751   2.057  15.095  0.4033  0.6630  0.2331
  141TMC2    O2 2203   4.005   1.618  15.040  0.1407  0.1633  0.3386
  141TMC2    O5 2204   3.977   1.542  14.830  0.1131 -0.0375 -0.0160
  141TMC2    H5 2205   3.963   1.579  14.740 -0.0169 -0.3527 -0.1265
  142TMC2    C1 2206   1.107   0.953  10.085  0.0251  0.5052  0.0635
  142TMC2    C2 2207   1.139   1.025   9.974  0.7978  0.2605  0.9351
  142TMC2    C3 2208   1.217   1.139  10.002  0.1821  0.1922  0.7767
  142TMC2    C4 2209   1.158   0.973  10.208 -0.7447  0.4032  0.7599
  142TMC2    C5 2210   1.232   1.079  10.230 -0.5441 -0.1892  0.0227
  142TMC2    C6 2211   1.260   1.166  10.125  0.1195 -0.1863 -0.5373
  142TMC2     C 2212   1.059   0.822  10.056 -0.1842 -0.3834 -0.9816
  142TMC2     O 2213   1.059   0.791   9.936  0.2825  0.1753 -0.7312
  142TMC2     H 2214   1.088   1.020   9.878  1.1390 -0.3937  0.7839
  142TMC2    H1 2215   1.146   0.896  10.284 -1.7285 -0.0236  0.1741
  142TMC2    H2 2216   1.332   1.247  10.136 -0.9863  0.6804  0.3474
  142TMC2    C7 2217   1.230   1.125  10.371 -0.1958 -0.7057  0.2283
  142TMC2    C8 2218   1.215   1.232   9.882 -0.5810 -0.1318  0.4320
  142TMC2    O1 2219   1.186   1.046  10.455 -1.0566 -0.7141  0.3656
  142TMC2    O2 2220   1.126   1.244   9.798  0.0781 -0.4541 -0.0520
  142TMC2    O5 2221   1.336   1.290   9.871  0.5596  0.4369 -0.8445
  142TMC2    H5 2222   1.399   1.278   9.944  0.7998  0.1997 -1.0912
  143MPD2     C 2223   0.891   0.343  10.156 -0.5660  0.5381 -0.3497
  143MPD2    C1 2224   0.965   0.392  10.050 -0.1038 -0.0750  0.2898
  143MPD2    C2 2225   1.011   0.526  10.057 -0.3573  0.1335  0.4282
  143MPD2    C3 2226   0.969   0.611  10.160  0.1445 -0.6209  0.6015
  143MPD2    C4 2227   0.888   0.555  10.260  0.0434 -0.3721  0.3130
  143MPD2    C5 2228   0.858   0.422  10.259 -0.5945 -0.2150  0.8153
  143MPD2     H 2229   1.070   0.568   9.977  0.1115 -0.5084  0.4374
  143MPD2    H1 2230   0.864   0.611  10.350 -0.5753  0.0094 -0.0884
  143MPD2    H2 2231   0.840   0.248  10.167 -0.5909  0.5510 -0.3516
  143MPD2    H3 2232   0.801   0.377  10.339  1.5743 -0.9933  1.9287
  143MPD2     N 2233   1.005   0.748  10.163  0.2986  0.6800  0.4646
  143MPD2    H5 2234   1.003   0.795  10.253 -0.4973 -0.6004  1.1039
  143MPD2    N1 2235   1.006   0.303   9.944 -0.5282 -0.2480 -0.4392
  143MPD2    H7 2236   0.974   0.207   9.942  0.5533 -0.7147  3.0698
  144TMC2    C1 2237   0.374   4.700   0.848  0.0583 -0.3917  0.5834
  144TMC2    C2 2238   0.480   4.621   0.814  0.0054 -0.3741  0.0319
  144TMC2    C3 2239   0.605   4.664   0.857 -0.1699 -0.4114 -0.1431
  144TMC2    C4 2240   0.374   0.075   0.921 -0.2184  0.1913 -0.8988
  144TMC2    C5 2241   0.502   0.107   0.957 -0.3328 -0.4809  0.4974
  144TMC2    C6 2242   0.620   0.045   0.930  0.5118 -0.5001  0.0172
  144TMC2     C 2243   0.244   4.667   0.799  0.2870 -0.1351 -0.5526
  144TMC2     O 2244   0.231   4.547   0.791  0.2670  0.1907 -0.0099
  144TMC2     H 2245   0.458   4.522   0.776 -1.8538  1.2198 -3.0427
  144TMC2    H1 2246   0.282   0.115   0.961  1.0993  0.0384  2.2622
  144TMC2    H2 2247   0.719   0.073   0.965  0.5929 -1.9960  0.9837
  144TMC2    C7 2248   0.512   0.191   1.076 -0.3979  0.3377 -1.2337
  144TMC2    C8 2249   0.712   4.572   0.881 -0.1728 -0.6332  0.1597
  144TMC2    O1 2250   0.594   0.160   1.158  0.2183  0.6843 -0.3002
  144TMC2    O2 2251   0.810   4.598   0.949 -0.3211 -0.3550 -0.5536
  144TMC2    O5 2252   0.660   4.451   0.873  0.0218 -0.0475  0.4266
  144TMC2    H5 2253   0.594   4.450   0.801 -1.8379 -0.5283  2.1340
  145MPD2     C 2254   4.553   4.723   0.528 -0.1889 -0.4561 -0.5117
  145MPD2    C1 2255   4.617   4.605   0.573  0.5198  0.1990  0.1130
  145MPD2    C2 2256   4.732   4.620   0.648 -0.0118  0.0120  0.5264
  145MPD2    C3 2257   0.047   0.010   0.681 -0.0430 -0.1563  0.1194
  145MPD2    C4 2258   4.719   0.119   0.645 -0.0305 -0.5972 -0.2249
  145MPD2    C5 2259   4.602   0.110   0.569  0.2713 -0.0828  0.2105
  145MPD2     H 2260   0.052   4.528   0.646 -1.4919 -0.9217  0.8769
  145MPD2    H1 2261   0.019   0.217   0.672  1.4902 -1.4419  0.6711
  145MPD2    H2 2262   4.472   4.730   0.456 -1.3127  0.9643  0.8901
  145MPD2    H3 2263   4.545   0.197   0.538  0.9411 -0.5804 -2.3611
  145MPD2     N 2264   0.179   0.029   0.738  0.2393 -0.4354  0.3503
  145MPD2    H5 2265   0.210   0.124   0.756 -3.1013  0.4076  1.6937
  145MPD2    N1 2266   4.574   4.470   0.540 -0.2344  0.1410  0.1067
  145MPD2    H7 2267   4.635   4.397   0.574 -0.5470 -0.8138 -1.3790
  146TMC2    C1 2268   0.643   3.152  12.097 -0.0697  0.5861 -0.5309
  146TMC2    C2 2269   0.578   3.158  11.982  1.1130  0.4253 -0.2594
  146TMC2    C3 2270   0.636   3.088  11.881 -0.1511 -1.0929  0.5008
  146TMC2    C4 2271   0.761   3.083  12.119 -0.0615  1.3351 -0.7051
  146TMC2    C5 2272   0.819   3.019  12.009  0.1639  0.4531 -0.5949
  146TMC2    C6 2273   0.752   3.019  11.891  0.8004  0.6430 -0.4786
  146TMC2     C 2274   0.592   3.232  12.211 -0.1695  0.5221  0.1556
  146TMC2     O 2275   0.539   3.343  12.191  0.1779  0.0626  0.7347
  146TMC2     H 2276   0.490   3.221  11.972  0.0088 -0.9812  0.5627
  146TMC2    H1 2277   0.826   3.112  12.201  0.8933  0.0421 -0.9961
  146TMC2    H2 2278   0.794   2.964  11.807  0.9148  1.3197 -0.8641
  146TMC2    C7 2279   0.939   2.937  12.014 -0.4449 -0.2956  0.0728
  146TMC2    C8 2280   0.551   3.107  11.761 -0.0530  0.1293 -0.2289
  146TMC2    O1 2281   0.980   2.902  11.904  0.0892 -0.5259  0.1515
  146TMC2    O2 2282   0.509   3.215  11.728 -0.1914  0.0420 -0.2810
  146TMC2    O5 2283   0.618   3.035  11.668 -0.2898 -0.0485  0.8827
  146TMC2    H5 2284   0.643   2.944  11.695 -0.3776  0.1388  1.5894
  147MPD2     C 2285   1.289   2.643  12.256  0.1541  0.1684 -0.1438
  147MPD2    C1 2286   1.196   2.688  12.351 -0.5218 -0.0373  0.1014
  147MPD2    C2 2287   1.091   2.772  12.317 -0.1970  0.1964  0.6138
  147MPD2    C3 2288   1.068   2.800  12.180 -0.0991  0.4225  0.8439
  147MPD2    C4 2289   1.158   2.749  12.084 -0.2810 -0.1577 -0.3719
  147MPD2    C5 2290   1.269   2.683  12.123 -0.2965  0.4819 -0.4670
  147MPD2     H 2291   1.023   2.808  12.394  0.1411  1.6329  0.2464
  147MPD2    H1 2292   1.145   2.758  11.977  0.4880  1.1209 -0.3518
  147MPD2    H2 2293   1.365   2.569  12.278  0.3580  0.8566  1.4863
  147MPD2    H3 2294   1.341   2.651  12.049  0.8969  0.3804  0.7381
  147MPD2     N 2295   0.968   2.890  12.143 -0.4092 -0.4619 -0.1482
  147MPD2    H5 2296   0.916   2.930  12.221  1.0709  0.2328  0.4832
  147MPD2    N1 2297   1.217   2.659  12.482 -0.5566 -0.2366 -0.0313
  147MPD2    H7 2298   1.302   2.620  12.520 -0.7285 -0.2162  0.3710
  148TMC2    C1 2299   0.443   1.968  11.083  0.1329  0.4271 -0.1012
  148TMC2    C2 2300   0.509   2.057  11.161  0.1764 -0.3624  0.0622
  148TMC2    C3 2301   0.627   2.016  11.228 -0.4381  0.0126  0.2409
  148TMC2    C4 2302   0.486   1.840  11.059  0.1381  0.1056 -0.2728
  148TMC2    C5 2303   0.601   1.804  11.125  0.1939  0.1623  0.1103
  148TMC2    C6 2304   0.675   1.889  11.209 -0.1506 -0.4879 -0.4072
  148TMC2     C 2305   0.364   2.037  10.989  0.0070 -0.6553  0.5826
  148TMC2     O 2306   0.288   2.129  11.022 -0.1866 -0.9568 -0.2766
  148TMC2     H 2307   0.477   2.160  11.167  2.0400  0.1333  1.6537
  148TMC2    H1 2308   0.432   1.766  11.000 -0.3812  1.0606 -1.0090
  148TMC2    H2 2309   0.759   1.850  11.266  0.6723  2.0115  0.0938
  148TMC2    C7 2310   0.661   1.684  11.076 -0.5772 -0.6112 -0.3120
  148TMC2    C8 2311   0.711   2.112  11.289  0.0347 -0.4366  0.0364
  148TMC2    O1 2312   0.588   1.607  11.013  0.0274  0.5581  0.3072
  148TMC2    O2 2313   0.832   2.126  11.266 -0.5436 -0.3285 -0.0262
  148TMC2    O5 2314   0.631   2.212  11.330 -0.2471  0.2375 -0.3742
  148TMC2    H5 2315   0.542   2.176  11.347 -0.4425  0.6739 -0.4731
  149MPD2     C 2316   0.189   2.105  10.739 -0.2608 -0.3058 -0.6162
  149MPD2    C1 2317   0.265   1.987  10.758 -0.7147  0.1697 -0.3714
  149MPD2    C2 2318   0.251   1.884  10.664 -0.1156  0.2049  0.6087
  149MPD2    C3 2319   0.178   1.909  10.549 -0.3440 -0.6481  0.8421
  149MPD2    C4 2320   0.103   2.025  10.530  0.3078  0.1333  0.8183
  149MPD2    C5 2321   0.117   2.120  10.625  0.0904 -0.4216  0.5345
  149MPD2     H 2322   0.306   1.792  10.675  0.5628  0.7672  1.9373
  149MPD2    H1 2323   0.049   2.046  10.438 -0.7606  0.2534  1.4734
  149MPD2    H2 2324   0.190   2.188  10.810 -1.0968  0.8566 -1.9595
  149MPD2    H3 2325   0.066   2.214  10.608 -1.3076 -0.7906  2.6762
  149MPD2     N 2326   0.147   1.815  10.452  0.0690  0.2990 -0.3049
  149MPD2    H5 2327   0.064   1.820  10.394  1.1328  1.3011 -1.7375
  149MPD2    N1 2328   0.354   1.967  10.871 -0.1481  0.2417  0.0897
  149MPD2    H7 2329   0.418   1.890  10.853 -0.4565  0.3361 -1.3421
  150TMC2    C1 2330   2.002   0.991  12.842 -0.0133 -0.3627 -0.5194
  150TMC2    C2 2331   1.967   1.111  12.801 -0.0011  0.6729 -0.1806
  150TMC2    C3 2332   2.040   1.215  12.846 -0.4607 -0.1226 -0.4141
  150TMC2    C4 2333   2.118   0.960  12.910 -0.1893  0.0611 -0.1203
  150TMC2    C5 2334   2.198   1.067  12.940  0.2603 -0.1734 -0.2736
  150TMC2    C6 2335   2.150   1.192  12.917 -0.0418  0.0267  0.6125
  150TMC2     C 2336   1.948   0.879  12.769 -0.6944 -0.3196 -0.2462
  150TMC2     O 2337   1.938   0.782  12.840 -0.1138 -0.2229 -0.4006
  150TMC2     H 2338   1.876   1.123  12.742 -1.7504 -1.9846  1.9530
  150TMC2    H1 2339   2.149   0.856  12.916  0.0223  0.2291  1.4948
  150TMC2    H2 2340   2.216   1.274  12.944  1.4379 -0.8489 -0.3598
  150TMC2    C7 2341   2.338   1.059  12.913  0.1398  0.0988 -0.0426
  150TMC2    C8 2342   2.000   1.345  12.799 -0.2294 -0.3006  0.3725
  150TMC2    O1 2343   2.394   1.158  12.867 -0.4981 -0.2218  0.5436
  150TMC2    O2 2344   1.900   1.357  12.728  0.1511  0.0161  0.1414
  150TMC2    O5 2345   2.035   1.434  12.889 -0.2489 -0.0912  0.3728
  150TMC2    H5 2346   2.105   1.405  12.951 -0.2599 -2.4067 -0.6990
  151MPD2     C 2347   1.837   0.595  12.363 -0.0857  0.6795 -0.5100
  151MPD2    C1 2348   1.858   0.723  12.315 -0.1415 -0.4154  0.0325
  151MPD2    C2 2349   1.867   0.824  12.415 -0.2051  0.8462 -0.4406
  151MPD2    C3 2350   1.895   0.789  12.545  0.1000 -0.2236  0.2546
  151MPD2    C4 2351   1.881   0.660  12.587  0.4593 -0.4912 -0.2285
  151MPD2    C5 2352   1.850   0.564  12.501 -0.3474 -0.3359  0.0025
  151MPD2     H 2353   1.856   0.930  12.396 -1.8325  0.3189 -2.3702
  151MPD2    H1 2354   1.900   0.632  12.690 -0.7594  2.4018  0.7814
  151MPD2    H2 2355   1.813   0.513  12.297  2.7654 -1.2544  0.8644
  151MPD2    H3 2356   1.849   0.463  12.541  0.3568 -0.2891  0.1351
  151MPD2     N 2357   1.924   0.898  12.637 -0.4440  0.2951 -0.0452
  151MPD2    H5 2358   1.930   0.991  12.598 -2.3989  0.0551 -0.9300
  151MPD2    N1 2359   1.845   0.755  12.177  0.0851  0.0614 -0.1833
  151MPD2    H7 2360   1.832   0.682  12.107  1.6194  1.1747 -1.6338
  152TMC2    C1 2361   2.431   0.716  13.306 -0.4000  0.2033 -0.4150
  152TMC2    C2 2362   2.480   0.620  13.388  0.1005  0.0689 -0.1337
  152TMC2    C3 2363   2.611   0.643  13.418  0.9628 -0.3647  0.2037
  152TMC2    C4 2364   2.504   0.826  13.266  0.8331  0.2439  0.2376
  152TMC2    C5 2365   2.638   0.833  13.291 -0.0973 -0.5079  0.4334
  152TMC2    C6 2366   2.693   0.736  13.367 -0.6412 -0.7767  0.0378
  152TMC2     C 2367   2.314   0.691  13.225  0.5051  0.1892 -0.5575
  152TMC2     O 2368   2.261   0.784  13.166  0.3646 -0.1643  0.0042
  152TMC2     H 2369   2.420   0.533  13.412  2.1410 -0.4684  3.0347
  152TMC2    H1 2370   2.448   0.909  13.223  0.6487  0.6483  1.2633
  152TMC2    H2 2371   2.799   0.736  13.388 -0.6796 -1.7809  0.2432
  152TMC2    C7 2372   2.711   0.933  13.208  0.0763 -0.2632  0.1513
  152TMC2    C8 2373   2.683   0.520  13.442 -0.3285  0.5735  0.1892
  152TMC2    O1 2374   2.639   0.999  13.129 -0.2408 -0.2008  0.2717
  152TMC2    O2 2375   2.656   0.410  13.398  0.9512 -0.2119  0.1670
  152TMC2    O5 2376   2.763   0.533  13.558 -0.6237  0.1350  0.0429
  152TMC2    H5 2377   2.746   0.619  13.602 -1.4826 -0.8896  1.7662
  153MPD2     C 2378   2.190   0.351  13.156 -0.8646 -0.0945  0.7920
  153MPD2    C1 2379   2.182   0.490  13.153 -0.3236 -0.4239 -0.2590
  153MPD2    C2 2380   2.077   0.557  13.103 -0.2414  0.2628  0.5815
  153MPD2    C3 2381   1.975   0.487  13.041  0.0780  0.0803  0.4909
  153MPD2    C4 2382   1.983   0.350  13.037 -0.1449  0.3126  0.0830
  153MPD2    C5 2383   2.089   0.282  13.091 -0.6435  0.3077  0.0975
  153MPD2     H 2384   2.088   0.665  13.105  1.6115  0.0984 -1.1287
  153MPD2    H1 2385   1.904   0.295  12.986  0.0012 -1.1802  1.4616
  153MPD2    H2 2386   2.275   0.301  13.201  1.4303  2.9247 -0.1670
  153MPD2    H3 2387   2.094   0.174  13.082 -0.0939  0.4055 -0.7937
  153MPD2     N 2388   1.864   0.558  12.996  0.7065  0.1562 -0.5532
  153MPD2    H5 2389   1.866   0.658  13.015 -1.6255  0.7350 -3.3673
  153MPD2    N1 2390   2.296   0.554  13.212  0.2234 -0.5087  0.2572
  153MPD2    H7 2391   2.356   0.492  13.266  1.8111  1.3735  0.6138
  154TMC2    C1 2392   4.424   1.002   0.330 -0.6586 -0.8358  1.5744
  154TMC2    C2 2393   4.462   1.115   0.403  0.2250  0.0801  0.5974
  154TMC2    C3 2394   4.591   1.118   0.445 -0.2630 -0.3116  0.0814
  154TMC2    C4 2395   4.495   0.886   0.311 -0.6610  0.8552 -0.4242
  154TMC2    C5 2396   4.627   0.901   0.352  0.1757 -0.2189 -0.2116
  154TMC2    C6 2397   4.671   1.009   0.424  0.8391 -0.7986 -0.1979
  154TMC2     C 2398   4.292   1.011   0.282 -0.2347  0.1029  0.8207
  154TMC2     O 2399   4.214   1.092   0.330  0.7117 -0.0712 -0.2195
  154TMC2     H 2400   4.393   1.198   0.412 -1.8566 -1.4306 -1.5396
  154TMC2    H1 2401   4.471   0.801   0.247  2.9357 -1.0077  0.6900
  154TMC2    H2 2402   0.036   1.016   0.459  1.0403 -0.1939 -0.9117
  154TMC2    C7 2403   4.724   0.819   0.279  0.0987 -0.3332 -0.5169
  154TMC2    C8 2404   4.621   1.220   0.546 -0.0290  0.3418  0.1639
  154TMC2    O1 2405   4.699   0.758   0.176  0.5147  0.2031 -0.2882
  154TMC2    O2 2406   4.531   1.300   0.584 -0.3520 -0.7729  0.2158
  154TMC2    O5 2407   4.732   1.194   0.619 -0.0755  0.1119  0.4671
  154TMC2    H5 2408   0.067   1.145   0.573 -0.8357  1.3017 -1.9802
  155MPD2     C 2409   4.127   0.804   0.036  0.4702 -0.1267  0.0870
  155MPD2    C1 2410   4.135   0.895   0.132  0.2620  0.1668  0.3637
  155MPD2    C2 2411   4.035   0.984   0.143 -0.4255 -0.7623  0.1003
  155MPD2    C3 2412   3.931   0.984   0.056  0.5307 -0.1857 -0.1048
  155MPD2    C4 2413   3.923   0.887  17.708 -0.0090 -0.1001 -0.5061
  155MPD2    C5 2414   4.017   0.794  17.703 -0.0756  0.4409 -0.3614
  155MPD2     H 2415   4.033   1.055   0.225 -0.7000 -1.3444  0.5969
  155MPD2    H1 2416   3.841   0.884  17.638 -0.7345  0.7539  0.3061
  155MPD2    H2 2417   4.211   0.742   0.006  1.0086 -0.0305  1.3745
  155MPD2    H3 2418   4.026   0.721  17.623  1.8690  0.7906 -0.4728
  155MPD2     N 2419   3.823   1.077   0.074 -0.9226  0.2112 -0.6841
  155MPD2    H5 2420   3.817   1.143   0.151 -0.0793  0.0345 -0.4719
  155MPD2    N1 2421   4.261   0.905   0.198 -0.0626 -0.3008 -0.2229
  155MPD2    H7 2422   4.330   0.833   0.180  1.5604  1.1178  0.2705
  156TMC2    C1 2423   2.573   3.807  11.228  0.0202 -1.0679 -0.4102
  156TMC2    C2 2424   2.627   3.729  11.130 -0.4832 -0.1833  0.1949
  156TMC2    C3 2425   2.541   3.665  11.045  1.0455  0.1094  0.6461
  156TMC2    C4 2426   2.438   3.814  11.241  0.1454 -0.0708 -0.3293
  156TMC2    C5 2427   2.359   3.758  11.147 -0.8279  0.8579 -0.1582
  156TMC2    C6 2428   2.407   3.684  11.049  0.2686 -0.0525  0.4175
  156TMC2     C 2429   2.642   3.813  11.358  0.2537 -0.0641 -0.5620
  156TMC2     O 2430   2.575   3.763  11.446  0.8553 -0.4589  0.5003
  156TMC2     H 2431   2.733   3.706  11.124 -0.3565  0.7712 -1.4174
  156TMC2    H1 2432   2.393   3.852  11.333  0.9744 -2.8850  1.2465
  156TMC2    H2 2433   2.340   3.632  10.982  0.9959 -0.2972 -0.1116
  156TMC2    C7 2434   2.229   3.802  11.117  0.4561  0.0711  0.7104
  156TMC2    C8 2435   2.604   3.605  10.927  0.6501 -0.4750 -0.0913
  156TMC2    O1 2436   2.155   3.729  11.053 -0.0965  0.5361  0.4365
  156TMC2    O2 2437   2.712   3.628  10.878 -0.5450 -0.3865 -0.2305
  156TMC2    O5 2438   2.527   3.499  10.895  0.8541 -0.2035  0.1764
  156TMC2    H5 2439   2.450   3.497  10.956 -0.0740  2.4698 -0.8779
  157MPD2     C 2440   3.013   3.794  11.378  0.3277  0.2195  0.5841
  157MPD2    C1 2441   2.884   3.775  11.423  0.3039  0.5758  0.0425
  157MPD2    C2 2442   2.862   3.712  11.537 -0.3102 -0.3065 -0.3475
  157MPD2    C3 2443   2.959   3.663  11.618 -0.7885  0.1801  0.5447
  157MPD2    C4 2444   3.090   3.686  11.577  0.2319  0.0866  0.2872
  157MPD2    C5 2445   3.117   3.750  11.455 -0.0851 -0.8059 -0.5109
  157MPD2     H 2446   2.760   3.708  11.573 -1.0764  1.8132 -2.3442
  157MPD2    H1 2447   3.170   3.643  11.635  1.1098 -1.6032 -2.1528
  157MPD2    H2 2448   3.044   3.847  11.288 -1.1096  2.8372  1.6464
  157MPD2    H3 2449   3.219   3.752  11.417  0.6765  2.5753  1.7924
  157MPD2     N 2450   2.916   3.601  11.738 -0.4573  0.1905  0.8965
  157MPD2    H5 2451   2.817   3.589  11.755 -0.7166  0.4960 -0.3835
  157MPD2    N1 2452   2.782   3.818  11.335  0.1689  0.1155  0.1657
  157MPD2    H7 2453   2.815   3.856  11.247  0.9109  1.7155  1.1430
  158TMC2    C1 2454   3.120   2.338  13.292 -0.5782 -0.0650  0.0789
  158TMC2    C2 2455   3.105   2.363  13.161  0.3271  0.0451  0.1850
  158TMC2    C3 2456   2.984   2.406  13.118  0.0696  0.4848 -0.5551
  158TMC2    C4 2457   3.012   2.325  13.376  0.5279 -0.6158  0.1803
  158TMC2    C5 2458   2.894   2.385  13.329  0.2092 -0.0708 -0.1185
  158TMC2    C6 2459   2.876   2.423  13.198  0.4097  0.1457 -0.3849
  158TMC2     C 2460   3.233   2.255  13.315  0.3266  0.2443  0.1541
  158TMC2     O 2461   3.286   2.207  13.218 -0.1934 -0.5713 -0.1662
  158TMC2     H 2462   3.184   2.362  13.088 -1.9611 -1.3865 -2.2506
  158TMC2    H1 2463   3.032   2.307  13.481 -3.3050 -1.9289  0.6982
  158TMC2    H2 2464   2.782   2.461  13.162 -0.5557 -0.8349  1.0886
  158TMC2    C7 2465   2.772   2.317  13.386 -0.4333 -0.5172  0.9257
  158TMC2    C8 2466   2.967   2.405  12.972  0.8897  0.0879 -0.7339
  158TMC2    O1 2467   2.674   2.323  13.315  0.1290 -0.2855 -0.4101
  158TMC2    O2 2468   2.944   2.507  12.912 -0.0176  0.3637 -0.2261
  158TMC2    O5 2469   2.885   2.300  12.961  0.2119  0.0826  0.5895
  158TMC2    H5 2470   2.910   2.226  13.020 -3.7791 -0.8502  1.0473
  159MPD2     C 2471   3.477   1.902  13.607 -0.2643  0.5062  0.5646
  159MPD2    C1 2472   3.403   1.985  13.689  0.1401  0.0359  0.1930
  159MPD2    C2 2473   3.329   2.085  13.639 -0.2088  1.1933 -0.6603
  159MPD2    C3 2474   3.326   2.109  13.498 -0.0405 -0.0962  0.0428
  159MPD2    C4 2475   3.403   2.027  13.417  0.9011 -0.4836  0.3841
  159MPD2    C5 2476   3.476   1.931  13.472  0.3756 -0.2739 -0.3040
  159MPD2     H 2477   3.270   2.148  13.705 -2.0616 -0.4414 -0.7736
  159MPD2    H1 2478   3.403   2.033  13.308 -3.0693 -2.4984  0.2394
  159MPD2    H2 2479   3.537   1.822  13.650  2.0206  1.3822 -1.0228
  159MPD2    H3 2480   3.543   1.874  13.409 -0.5376 -0.9362 -0.6675
  159MPD2     N 2481   3.249   2.218  13.446  0.4958  0.0882 -0.3394
  159MPD2    H5 2482   3.208   2.278  13.518  0.2103  1.0005 -1.2658
  159MPD2    N1 2483   3.393   1.945  13.822  0.0489 -0.1035 -0.8224
  159MPD2    H7 2484   3.436   1.854  13.834 -2.2940 -0.9950  0.7190
  160TMC2    C1 2485   3.377   4.422   1.400  0.1122 -0.9572 -0.2688
  160TMC2    C2 2486   3.393   4.323   1.492 -0.1199  0.4164  0.7958
  160TMC2    C3 2487   3.510   4.323   1.551 -0.6484  0.1027  0.1097
  160TMC2    C4 2488   3.471   4.512   1.365 -0.1927  0.6489 -0.3741
  160TMC2    C5 2489   3.592   4.503   1.431 -0.0949  0.3364 -1.1158
  160TMC2    C6 2490   3.612   4.414   1.534 -0.6439 -0.4831 -0.2553
  160TMC2     C 2491   3.254   4.416   1.327 -0.1851 -0.0170 -0.1584
  160TMC2     O 2492   3.208   4.303   1.309 -0.2647  0.9087  0.2451
  160TMC2     H 2493   3.312   4.262   1.528 -0.2646  1.7192  2.6955
  160TMC2    H1 2494   3.462   4.580   1.280  0.4880  1.2627  0.0413
  160TMC2    H2 2495   3.704   4.425   1.591  0.0658 -0.4510 -1.4060
  160TMC2    C7 2496   3.707   4.584   1.382  0.9987 -0.1267 -0.1776
  160TMC2    C8 2497   3.540   4.226   1.650  0.3669  0.4319 -0.0696
  160TMC2    O1 2498   3.824   4.540   1.396 -0.7009 -0.3339 -0.6295
  160TMC2    O2 2499   3.658   4.195   1.669  0.5287  0.0706  0.3778
  160TMC2    O5 2500   3.435   4.173   1.709 -0.1963 -0.5835  0.5011
  160TMC2    H5 2501   3.359   4.233   1.724  0.7531  0.4078  1.2734
  161MPD2     C 2502   3.022   4.454   1.159 -0.0537  0.3222  0.1330
  161MPD2    C1 2503   3.100   4.561   1.211 -0.2905 -0.1347  0.1432
  161MPD2    C2 2504   3.059   4.688   1.191  0.2857 -0.1167 -0.1085
  161MPD2    C3 2505   2.929   4.709   1.138  0.6812  0.5017  0.0952
  161MPD2    C4 2506   2.852   4.608   1.098  0.9332 -0.3062  0.5907
  161MPD2    C5 2507   2.900   4.481   1.094  0.1677  0.6215  0.2320
  161MPD2     H 2508   3.108   0.037   1.234 -0.4829  0.4937 -0.4642
  161MPD2    H1 2509   2.758   4.623   1.046  1.5905 -1.2069 -0.8687
  161MPD2    H2 2510   3.054   4.351   1.168 -0.9172  0.2953  2.9522
  161MPD2    H3 2511   2.840   4.400   1.053 -2.0241  1.7750  1.1678
  161MPD2     N 2512   2.880   0.106   1.109  0.0498 -0.5965 -0.2596
  161MPD2    H5 2513   2.807   0.096   1.038 -1.9221  0.8000  1.5660
  161MPD2    N1 2514   3.206   4.541   1.296  0.4636  0.6044 -0.2552
  161MPD2    H7 2515   3.258   4.624   1.321  0.9519  0.3746 -0.5138
  162TMC2    C1 2516   0.594   1.817   1.275 -0.3721 -0.2593 -0.6649
  162TMC2    C2 2517   0.469   1.882   1.305 -0.3854  0.0810 -0.3093
  162TMC2    C3 2518   0.443   1.912   1.435 -0.1031  0.6094  0.6616
  162TMC2    C4 2519   0.690   1.789   1.373  0.5355  0.4429 -0.4401
  162TMC2    C5 2520   0.642   1.807   1.499  0.1852  0.3348 -0.3454
  162TMC2    C6 2521   0.528   1.870   1.535 -0.1900 -0.3629  0.5347
  162TMC2     C 2522   0.612   1.756   1.143 -0.3599 -0.0907  0.1688
  162TMC2     O 2523   0.706   1.671   1.141  0.6831  0.2654 -0.5887
  162TMC2     H 2524   0.391   1.901   1.232 -0.3175  0.8676 -0.1723
  162TMC2    H1 2525   0.789   1.751   1.348  0.6789 -0.0715  0.9406
  162TMC2    H2 2526   0.496   1.882   1.638 -1.7108 -0.1007  0.0335
  162TMC2    C7 2527   0.750   1.798   1.596 -0.0163 -0.6453  0.1340
  162TMC2    C8 2528   0.301   1.924   1.455  0.2843 -0.1589  0.2767
  162TMC2    O1 2529   0.742   1.883   1.681  0.0122 -0.7363 -0.5551
  162TMC2    O2 2530   0.225   1.901   1.364 -0.8977  0.1342  0.2926
  162TMC2    O5 2531   0.272   2.010   1.562  0.4583  0.0347  0.1008
  162TMC2    H5 2532   0.349   2.038   1.615  0.1492  1.5818 -0.2859
  163MPD2     C 2533   0.558   1.680   0.640  0.1657 -0.2858  0.1918
  163MPD2    C1 2534   0.661   1.660   0.728  0.3304 -0.0204 -0.3866
  163MPD2    C2 2535   0.665   1.700   0.861 -1.0333  0.4137 -0.1229
  163MPD2    C3 2536   0.543   1.750   0.914 -0.2887  0.1875 -0.5494
  163MPD2    C4 2537   0.435   1.766   0.828  0.6763  0.0857  0.1569
  163MPD2    C5 2538   0.445   1.732   0.694 -0.5257 -0.4404  0.6104
  163MPD2     H 2539   0.754   1.685   0.920 -0.0341 -0.4637 -1.8512
  163MPD2    H1 2540   0.336   1.795   0.861  0.5787 -1.6591  1.3714
  163MPD2    H2 2541   0.559   1.641   0.539  1.1884 -2.6764  1.1227
  163MPD2    H3 2542   0.364   1.753   0.626  0.4120  0.6587 -0.1450
  163MPD2     N 2543   0.520   1.771   1.050 -0.8497  0.5129 -0.1669
  163MPD2    H5 2544   0.430   1.808   1.079 -1.5267 -0.3002 -1.2331
  163MPD2    N1 2545   0.780   1.612   0.668 -0.5821  0.2162  0.0309
  163MPD2    H7 2546   0.774   1.603   0.567 -0.3170  0.2703  0.0106
  164TMC2    C1 2547   1.031   1.666  11.639  0.0138 -0.7463 -0.2025
  164TMC2    C2 2548   1.143   1.744  11.663  0.0007 -1.3289 -0.3900
  164TMC2    C3 2549   1.138   1.874  11.640  0.4506 -0.3106  0.4955
  164TMC2    C4 2550   0.908   1.727  11.605 -0.4009  0.2663 -0.3712
  164TMC2    C5 2551   0.910   1.862  11.577  0.4580 -0.8403 -0.0800
  164TMC2    C6 2552   1.023   1.933  11.598  0.4368  0.4046  0.8783
  164TMC2     C 2553   1.050   1.524  11.611 -0.4820  0.2192 -0.3625
  164TMC2     O 2554   0.949   1.455  11.615  0.9202  0.2822 -0.2155
  164TMC2     H 2555   1.232   1.694  11.697 -0.1784 -0.6331  1.0907
  164TMC2    H1 2556   0.818   1.668  11.597  0.3350 -0.7646 -1.1022
  164TMC2    H2 2557   1.015   2.039  11.578  0.9294  0.1346 -0.7327
  164TMC2    C7 2558   0.784   1.921  11.578  0.4786 -0.7760  0.6282
  164TMC2    C8 2559   1.263   1.946  11.635 -0.4135  0.4690 -0.0817
  164TMC2    O1 2560   0.702   1.872  11.501 -0.9548 -0.1726  0.1332
  164TMC2    O2 2561   1.356   1.918  11.708 -0.0731  0.3120 -0.0927
  164TMC2    O5 2562   1.256   2.054  11.548  0.2462 -0.3201 -0.6459
  164TMC2    H5 2563   1.187   2.042  11.479 -0.3394 -1.4430  0.1360
  165TMC2    C1 2564   2.943   4.021   0.827 -0.4614  0.0061  0.3538
  165TMC2    C2 2565   2.951   3.991   0.695  0.3594 -0.1572 -0.0983
  165TMC2    C3 2566   3.073   3.971   0.646  0.5821 -0.4153 -0.2058
  165TMC2    C4 2567   3.057   4.029   0.904  0.4331  0.6103 -0.4254
  165TMC2    C5 2568   3.174   4.000   0.845  0.4064  0.7720  0.0181
  165TMC2    C6 2569   3.186   3.974   0.716 -0.1415  0.2042  0.1463
  165TMC2     C 2570   2.825   4.065   0.895  0.3626 -0.2768  0.7859
  165TMC2     O 2571   2.835   4.084   1.016 -0.8791  0.1959 -0.4189
  165TMC2     H 2572   2.863   3.991   0.631  1.2056  0.5865 -1.2486
  165TMC2    H1 2573   3.055   4.077   1.002  1.0565 -0.2258 -0.0032
  165TMC2    H2 2574   3.280   3.958   0.664 -0.0284 -0.2879  0.5024
  165TMC2    C7 2575   3.298   4.032   0.908  0.7246  0.3535  0.9445
  165TMC2    C8 2576   3.090   3.950   0.503  0.2413 -0.0127 -0.1621
  165TMC2    O1 2577   3.397   4.051   0.836 -0.4159 -0.1382  0.4675
  165TMC2    O2 2578   3.011   3.872   0.451 -0.3487 -0.6814  0.2424
  165TMC2    O5 2579   3.181   4.034   0.452 -0.0605 -0.4328 -0.0234
  165TMC2    H5 2580   3.228   4.079   0.525  0.5799 -1.6834  0.3467
  166MPD2     C 2581   2.333   4.215   0.866  0.3536  0.2291 -0.1994
  166MPD2    C1 2582   2.401   4.171   0.975  0.4379 -0.2578 -0.0966
  166MPD2    C2 2583   2.531   4.138   0.962  0.6124 -0.4924  0.2122
  166MPD2    C3 2584   2.596   4.145   0.834  0.6594  0.5144 -0.3782
  166MPD2    C4 2585   2.532   4.208   0.730 -0.1359 -0.0047 -0.7074
  166MPD2    C5 2586   2.395   4.234   0.745  0.0028  0.4118 -0.1383
  166MPD2     H 2587   2.592   4.112   1.049  1.0450 -3.1914 -0.9118
  166MPD2    H1 2588   2.585   4.227   0.637  0.8825  0.7062  0.0191
  166MPD2    H2 2589   2.225   4.219   0.872  0.2313 -3.5172  0.2099
  166MPD2    H3 2590   2.347   4.278   0.658  0.4314  2.7070  0.7705
  166MPD2     N 2591   2.727   4.098   0.805 -0.5413  0.5557 -0.0528
  166MPD2    H5 2592   2.745   4.107   0.705 -0.5143  2.9060  0.1508
  166MPD2    N1 2593   2.323   4.146   1.094  0.8305 -0.0556 -0.1955
  166MPD2    H7 2594   2.230   4.186   1.103  1.0628  0.4487 -0.0905
  167TMC2    C1 2595   0.379   1.685  13.192  0.2612 -0.4535  0.3371
  167TMC2    C2 2596   0.339   1.676  13.320 -0.6163  0.2569 -0.9344
  167TMC2    C3 2597   0.244   1.585  13.354  0.4256 -0.2464  0.2830
  167TMC2    C4 2598   0.339   1.596  13.096 -0.5807  0.4143  0.2025
  167TMC2    C5 2599   0.250   1.497  13.141 -0.1105  0.4416  0.0959
  167TMC2    C6 2600   0.191   1.499  13.265  0.6228  0.6786  0.2658
  167TMC2     C 2601   0.474   1.789  13.163 -0.1735 -0.0759  0.9924
  167TMC2     O 2602   0.472   1.895  13.226 -0.5138 -0.0860 -0.8120
  167TMC2     H 2603   0.370   1.748  13.395 -0.3296 -1.7236  0.8442
  167TMC2    H1 2604   0.351   1.617  12.990 -1.1252  2.3508  0.5326
  167TMC2    H2 2605   0.119   1.424  13.296  1.1741  0.7562  1.7364
  167TMC2    C7 2606   0.202   1.399  13.042 -0.0454  0.6537  0.0318
  167TMC2    C8 2607   0.161   1.621  13.468  0.1911 -0.6364 -0.2510
  167TMC2    O1 2608   0.109   1.324  13.069  0.0647 -0.0373  0.3740
  167TMC2    O2 2609   0.202   1.673  13.571 -0.0189 -0.5734 -0.4128
  167TMC2    O5 2610   0.030   1.626  13.436 -0.0660 -0.2743  0.2274
  167TMC2    H5 2611   0.024   1.648  13.341 -0.3525  0.6580  0.4625
  168MPD2     C 2612   0.670   1.973  13.025 -0.0964  0.4593  0.8502
  168MPD2    C1 2613   0.612   1.863  12.971 -0.3565  0.0546  0.0787
  168MPD2    C2 2614   0.632   1.850  12.836  0.3932  0.4875 -1.0963
  168MPD2    C3 2615   0.704   1.937  12.751  0.2177 -0.5936  0.4312
  168MPD2    C4 2616   0.760   2.045  12.812  0.5178  0.6663  0.4203
  168MPD2    C5 2617   0.744   2.057  12.947  0.0731 -0.0012  0.1118
  168MPD2     H 2618   0.576   1.767  12.796  0.2620 -0.7129  1.5833
  168MPD2    H1 2619   0.815   2.113  12.747  1.8784 -1.2323 -0.4015
  168MPD2    H2 2620   0.659   1.994  13.131  0.0479 -1.4031  1.2376
  168MPD2    H3 2621   0.780   2.149  12.991  0.7510  0.5921 -1.6805
  168MPD2     N 2622   0.724   1.909  12.615  0.6151  0.0500  0.0040
  168MPD2    H5 2623   0.751   1.983  12.551 -0.3626  1.0233  0.7069
  168MPD2    N1 2624   0.532   1.770  13.036  0.3697  0.3903  0.3697
  168MPD2    H7 2625   0.511   1.682  12.990 -0.0510 -0.0162  1.3501
  169MPD1     C 2626   2.919   0.976   9.933 -0.0245 -0.6644  0.0653
  169MPD1    C1 2627   2.991   1.035   9.835 -0.3529  0.7797  0.0651
  169MPD1    C2 2628   2.924   1.120   9.746  0.0030 -0.3643 -0.0026
  169MPD1    C3 2629   2.787   1.123   9.742 -0.3276 -0.1595  0.2910
  169MPD1    C4 2630   2.714   1.060   9.842  0.9807  0.0536 -0.2325
  169MPD1    C5 2631   2.784   0.982   9.930 -0.6496 -0.2135  0.1271
  169MPD1     H 2632   2.984   1.180   9.679  1.3689  0.0974  1.6419
  169MPD1    H1 2633   2.607   1.073   9.848  1.1511 -0.2761  3.7158
  169MPD1    H2 2634   2.968   0.923  10.013 -0.1967  1.4959  1.5717
  169MPD1    H3 2635   2.725   0.936  10.008 -0.1132 -0.9502  0.1031
  169MPD1     N 2636   2.730   1.210   9.647 -0.1064  0.1200  0.4590
  169MPD1    H5 2637   2.800   1.248   9.583  0.6737 -2.8221 -0.4431
  169MPD1    N1 2638   3.128   1.028   9.849 -0.1239  0.8241  0.4956
  169MPD1    H6 2639   3.150   0.943   9.900  1.2005  1.7676  1.5166
  169MPD1    H7 2640   3.171   1.027   9.757 -3.8763  2.7248 -1.2813
  170MPD1     C 2641   2.232   4.048  13.577 -0.4943  0.7429  0.6752
  170MPD1    C1 2642   2.188   4.148  13.662  0.0602 -0.5967  0.0108
  170MPD1    C2 2643   2.053   4.177  13.670 -0.4465  0.0379 -1.0431
  170MPD1    C3 2644   1.959   4.109  13.596 -0.0460 -0.5254  0.4877
  170MPD1    C4 2645   2.000   4.012  13.510  0.0224 -0.0707 -0.2849
  170MPD1    C5 2646   2.131   3.989  13.496  0.4647  0.6676  0.3469
  170MPD1     H 2647   2.016   4.260  13.729  0.3659 -2.1691  2.5723
  170MPD1    H1 2648   1.933   3.952  13.449 -0.1191 -0.4214  0.2157
  170MPD1    H2 2649   2.338   4.030  13.557 -0.8564 -1.3409  0.5996
  170MPD1    H3 2650   2.158   3.928  13.411  0.3592 -0.6897  1.2853
  170MPD1     N 2651   1.823   4.154  13.607  0.4223 -0.4088 -0.8853
  170MPD1    H5 2652   1.819   4.219  13.685  2.6389 -1.9969  0.5424
  170MPD1    N1 2653   2.274   4.203  13.754 -0.4043 -0.5614 -0.1332
  170MPD1    H6 2654   2.268   4.302  13.778 -0.2874 -0.4628 -0.5028
  170MPD1    H7 2655   2.373   4.200  13.731 -0.5952  1.4641 -1.2246
  171MPD1     C 2656   4.730   0.414  15.583  0.1317  0.5302  0.2643
  171MPD1    C1 2657   0.097   0.333  15.546  0.0875 -0.2013  0.8501
  171MPD1    C2 2658   0.106   0.211  15.607 -0.6311 -0.2022 -0.4479
  171MPD1    C3 2659   0.042   0.186  15.733 -0.0245 -0.4851 -0.3377
  171MPD1    C4 2660   4.675   0.274  15.763 -0.5074  0.1143 -0.0533
  171MPD1    C5 2661   4.648   0.385  15.692  0.2095  0.4852 -0.1710
  171MPD1     H 2662   0.184   0.140  15.583  1.3608  1.7112  0.3243
  171MPD1    H1 2663   4.614   0.244  15.848  0.5819 -3.9097 -0.6766
  171MPD1    H2 2664   4.707   0.503  15.524  0.1966  0.1664 -0.3168
  171MPD1    H3 2665   4.568   0.445  15.733 -0.1686  1.5842 -2.5457
  171MPD1     N 2666   0.063   0.069  15.817  0.1275 -0.5211 -0.3625
  171MPD1    H5 2667   4.735   0.060  15.893 -2.1524  2.2550 -2.0019
  171MPD1    N1 2668   0.159   0.355  15.421 -0.0941  0.1005  0.4416
  171MPD1    H6 2669   0.253   0.316  15.423 -0.1054  0.0848  0.6291
  171MPD1    H7 2670   0.169   0.456  15.413 -0.2478 -0.0911 -2.3795
  172MPD1     C 2671   0.268   3.864   0.234  0.1967 -0.3863  0.2639
  172MPD1    C1 2672   0.168   3.958   0.207 -0.5329  0.4669 -0.3912
  172MPD1    C2 2673   0.187   4.086   0.248 -0.2196  0.0994 -0.3694
  172MPD1    C3 2674   0.320   4.127   0.289  0.3774 -0.6315 -0.1836
  172MPD1    C4 2675   0.422   4.035   0.296  0.0894 -0.4067 -1.1984
  172MPD1    C5 2676   0.386   3.905   0.269 -0.3339 -0.2140  0.3212
  172MPD1     H 2677   0.110   4.162   0.245  0.6997  1.0022 -0.9357
  172MPD1    H1 2678   0.524   4.061   0.323 -0.8894  0.4327  1.6694
  172MPD1    H2 2679   0.247   3.759   0.216 -4.4852  0.1010  2.8685
  172MPD1    H3 2680   0.467   3.834   0.282 -1.5225 -1.5068  0.6320
  172MPD1     N 2681   0.344   4.262   0.327  0.4829  0.0262 -0.1772
  172MPD1    H5 2682   0.440   4.281   0.354  1.2550 -1.3623 -1.8839
  172MPD1    N1 2683   0.067   3.930   0.106 -0.6133  0.4349 -0.3898
  172MPD1    H6 2684   0.023   3.838   0.111  2.4941 -1.0047 -0.0784
  172MPD1    H7 2685   4.737   4.004   0.125  0.5837  1.7286 -1.1484
  173MPD1     C 2686   1.000   4.593  14.122  0.0657 -0.5239  0.0794
  173MPD1    C1 2687   0.954   4.636  14.245  0.3917  0.0081  0.6928
  173MPD1    C2 2688   0.966   4.549  14.354 -0.2760 -0.1895 -0.5193
  173MPD1    C3 2689   1.039   4.434  14.347  0.5250 -0.3380 -0.2505
  173MPD1    C4 2690   1.090   4.392  14.219 -0.0146  0.0648  0.3433
  173MPD1    C5 2691   1.067   4.480  14.112  1.1519  0.5591 -0.4904
  173MPD1     H 2692   0.930   4.584  14.450  2.8702 -0.2960  0.7213
  173MPD1    H1 2693   1.143   4.299  14.204  0.0994 -0.0643  1.5678
  173MPD1    H2 2694   0.977   4.651  14.033 -0.3685 -0.6746  0.0943
  173MPD1    H3 2695   1.094   4.443  14.014 -1.1514  1.9362 -1.6380
  173MPD1     N 2696   1.034   4.350  14.462  0.7254  0.4209 -0.3024
  173MPD1    H5 2697   0.976   4.383  14.539  1.8059  3.5291 -0.8153
  173MPD1    N1 2698   0.874   0.010  14.259  0.3431  0.0971  0.0553
  173MPD1    H6 2699   0.893   0.080  14.187  0.0755 -0.2001 -0.3003
  173MPD1    H7 2700   0.894   0.051  14.350  2.6571 -1.0667  0.0857
  174MPD1     C 2701   1.339   3.566  15.144  0.1038  1.2886  0.1540
  174MPD1    C1 2702   1.411   3.659  15.069 -0.2450  0.3223  0.2036
  174MPD1    C2 2703   1.342   3.722  14.960  1.0345  0.6051  1.0052
  174MPD1    C3 2704   1.201   3.726  14.960 -0.3223 -0.5249  0.1558
  174MPD1    C4 2705   1.133   3.636  15.042  0.0217  0.4049  0.2995
  174MPD1    C5 2706   1.202   3.559  15.133 -0.8812  0.2110 -0.2342
  174MPD1     H 2707   1.403   3.777  14.888 -1.2850  2.3104  0.3491
  174MPD1    H1 2708   1.025   3.624  15.035  0.0286  0.3891  0.2265
  174MPD1    H2 2709   1.382   3.502  15.219  0.2072  1.7794  0.5136
  174MPD1    H3 2710   1.137   3.508  15.202  2.2986 -1.4911  1.4949
  174MPD1     N 2711   1.121   3.787  14.858  0.1752  0.3113  0.2175
  174MPD1    H5 2712   1.021   3.771  14.863  0.2539 -0.6123 -1.0880
  174MPD1    N1 2713   1.552   3.648  15.067 -0.3214 -0.3045 -0.5573
  174MPD1    H6 2714   1.601   3.732  15.039 -2.0492  1.7291  2.5696
  174MPD1    H7 2715   1.590   3.608  15.152 -1.9375  1.5773  1.0385
  175MPD1     C 2716   4.235   4.529  16.056  0.4514  0.7645 -0.0679
  175MPD1    C1 2717   4.126   4.461  16.124  0.2286  0.2989 -0.1356
  175MPD1    C2 2718   4.159   4.374  16.227  0.2306 -0.0544 -0.4454
  175MPD1    C3 2719   4.291   4.357  16.261  0.2378 -1.0122  0.5581
  175MPD1    C4 2720   4.393   4.422  16.191  0.5405 -0.4406  0.3311
  175MPD1    C5 2721   4.359   4.496  16.084 -0.6625  0.1306  0.0429
  175MPD1     H 2722   4.072   4.334  16.279 -1.5046  3.3741 -0.6827
  175MPD1    H1 2723   4.498   4.410  16.215  0.5163 -0.9445  0.1722
  175MPD1    H2 2724   4.217   4.594  15.971 -1.1778  0.7555  0.2745
  175MPD1    H3 2725   4.438   4.550  16.033 -0.7844  0.7359  0.4837
  175MPD1     N 2726   4.331   4.271  16.371  0.7555 -1.0998 -0.2179
  175MPD1    H5 2727   4.425   4.271  16.408  0.7567  1.7946 -0.2017
  175MPD1    N1 2728   3.990   4.495  16.100 -0.1947 -0.3939  0.0628
  175MPD1    H6 2729   3.967   4.530  16.007 -2.7615 -3.6978 -0.5335
  175MPD1    H7 2730   3.928   4.418  16.125 -1.3466  0.4404 -0.2281
  176MPD1     C 2731   1.457   2.114   0.346  0.3143 -0.3415  0.4465
  176MPD1    C1 2732   1.425   2.206   0.442 -0.0521  0.2930 -0.4731
  176MPD1    C2 2733   1.441   2.347   0.419  0.1528  0.5238 -0.3687
  176MPD1    C3 2734   1.442   2.390   0.290  0.5832  0.9604  0.3901
  176MPD1    C4 2735   1.476   2.295   0.190 -0.5186  0.3550  0.0243
  176MPD1    C5 2736   1.484   2.159   0.219 -0.2126  0.1149  0.0591
  176MPD1     H 2737   1.425   2.418   0.500 -2.9633  1.0251 -1.4349
  176MPD1    H1 2738   1.498   2.315   0.085  0.1022 -0.8796 -0.0843
  176MPD1    H2 2739   1.458   2.008   0.366 -2.4566 -0.2630  0.9621
  176MPD1    H3 2740   1.514   2.089   0.142 -1.5371 -0.3247 -0.0498
  176MPD1     N 2741   1.422   2.530   0.266 -0.0101  0.0903 -0.3628
  176MPD1    H5 2742   1.408   2.596   0.341  2.5282  2.0082 -1.5975
  176MPD1    N1 2743   1.434   2.157   0.572  0.5312 -0.5091  0.1638
  176MPD1    H6 2744   1.392   2.065   0.581 -1.4737  0.6214  2.3568
  176MPD1    H7 2745   1.388   2.228   0.629  2.2499  0.0547  0.8812
  177MPD1     C 2746   2.465   3.085   8.714  0.8520 -0.2092  0.0489
  177MPD1    C1 2747   2.340   3.134   8.757  0.5841  0.7825 -0.4451
  177MPD1    C2 2748   2.307   3.103   8.890 -0.5229  0.0001 -0.2433
  177MPD1    C3 2749   2.393   3.041   8.981  0.1080  0.2389 -0.3499
  177MPD1    C4 2750   2.521   2.999   8.931 -0.6932 -0.4040  0.0294
  177MPD1    C5 2751   2.552   3.020   8.799  0.5021  0.3305  0.5145
  177MPD1     H 2752   2.209   3.120   8.933 -0.6274  0.1529 -0.5406
  177MPD1    H1 2753   2.592   2.956   9.001 -1.8127 -1.5626  0.4555
  177MPD1    H2 2754   2.492   3.086   8.609 -0.7414  1.1924 -0.3516
  177MPD1    H3 2755   2.651   2.997   8.763 -0.2494  0.0794 -1.3916
  177MPD1     N 2756   2.347   3.032   9.112 -0.1274  0.4031  0.1878
  177MPD1    H5 2757   2.250   3.060   9.128 -1.1024 -2.4297 -0.6779
  177MPD1    N1 2758   2.248   3.183   8.666 -0.2125 -0.2616  0.5965
  177MPD1    H6 2759   2.286   3.224   8.581 -4.1037  0.5242 -0.7434
  177MPD1    H7 2760   2.178   3.241   8.711 -1.0817  0.3891 -1.6225
  178MPD1     C 2761   1.751   2.773   0.567 -0.1804 -0.0825 -0.3685
  178MPD1    C1 2762   1.710   2.666   0.492 -0.0980  0.2349  0.3608
  178MPD1    C2 2763   1.755   2.660   0.360 -0.5380 -0.2844  0.1685
  178MPD1    C3 2764   1.835   2.757   0.303 -0.5830 -0.8850  0.0861
  178MPD1    C4 2765   1.878   2.857   0.386  0.3223  0.1422 -0.2669
  178MPD1    C5 2766   1.841   2.863   0.518 -0.1475 -0.0276 -0.2445
  178MPD1     H 2767   1.727   2.573   0.302  0.1795 -0.8171  0.6282
  178MPD1    H1 2768   1.936   2.941   0.350 -0.9255  1.6242  1.1889
  178MPD1    H2 2769   1.725   2.780   0.672  0.2289  3.0953 -0.4977
  178MPD1    H3 2770   1.868   2.949   0.577  1.1921 -1.3800  1.1020
  178MPD1     N 2771   1.881   2.764   0.168 -0.4680  0.2203  0.7921
  178MPD1    H5 2772   1.944   2.840   0.145 -1.4950  1.4680  1.9998
  178MPD1    N1 2773   1.624   2.568   0.538  0.1144 -0.0645  0.0405
  178MPD1    H6 2774   1.634   2.475   0.497 -1.2594 -0.8918  1.5562
  178MPD1    H7 2775   1.596   2.558   0.636  0.1573 -0.9007 -0.0312
  179MPD1     C 2776   1.667   1.847  15.957  0.4348 -0.7787 -0.5328
  179MPD1    C1 2777   1.533   1.817  15.991 -0.1666 -0.7322  0.1789
  179MPD1    C2 2778   1.490   1.692  16.024 -0.4970  0.4010 -0.1596
  179MPD1    C3 2779   1.591   1.593  16.042 -0.1726 -0.6364  0.1159
  179MPD1    C4 2780   1.723   1.624  16.043  0.4904  0.7918 -0.4928
  179MPD1    C5 2781   1.755   1.750  15.991  0.5898 -0.2226 -0.0315
  179MPD1     H 2782   1.382   1.680  16.029 -0.3410 -0.3918  1.5838
  179MPD1    H1 2783   1.804   1.552  16.056 -0.8167 -0.6431 -0.3397
  179MPD1    H2 2784   1.704   1.946  15.930  0.8002 -0.8126 -0.1521
  179MPD1    H3 2785   1.862   1.765  15.993  0.4287  1.2473 -2.2848
  179MPD1     N 2786   1.552   1.458  16.071  0.5576  0.2629 -0.3220
  179MPD1    H5 2787   1.622   1.401  16.118 -0.3729 -0.3983  0.2389
  179MPD1    N1 2788   1.441   1.925  15.963 -0.4950  0.2017 -0.5073
  179MPD1    H6 2789   1.490   2.009  15.994 -2.3095  0.5443  1.4718
  179MPD1    H7 2790   1.357   1.902  16.016  1.3324 -2.3236  1.2508
  180MPD1     C 2791   0.340   2.189  15.355 -0.2438  0.2403  0.2011
  180MPD1    C1 2792   0.287   2.153  15.233  0.0879 -0.2149 -0.9849
  180MPD1    C2 2793   0.359   2.184  15.121  0.1677 -0.2541  0.2179
  180MPD1    C3 2794   0.472   2.261  15.137  0.8500 -0.4313 -0.8853
  180MPD1    C4 2795   0.517   2.303  15.258 -0.1642  0.6729 -1.4351
  180MPD1    C5 2796   0.447   2.277  15.371  0.2654 -0.0383  0.2480
  180MPD1     H 2797   0.333   2.143  15.024 -1.2869 -1.7973  1.2529
  180MPD1    H1 2798   0.599   2.372  15.274  0.0902 -0.5765  2.6210
  180MPD1    H2 2799   0.292   2.161  15.448 -1.2012 -0.9063 -0.6412
  180MPD1    H3 2800   0.484   2.300  15.470  0.1696 -0.2924  0.3456
  180MPD1     N 2801   0.540   2.292  15.014 -0.3699  0.0328 -0.6072
  180MPD1    H5 2802   0.497   2.272  14.924 -0.4049 -0.0712 -0.5663
  180MPD1    N1 2803   0.182   2.058  15.236  0.2191  0.0305  0.7944
  180MPD1    H6 2804   0.149   2.063  15.140 -1.5919  3.0815  1.5782
  180MPD1    H7 2805   0.101   2.086  15.289 -0.8274  1.2490 -1.4520
  181MPD1     C 2806   1.657   0.290  10.076 -0.7058  0.9425 -0.1077
  181MPD1    C1 2807   1.738   0.392  10.110  0.3311  0.3289  0.9640
  181MPD1    C2 2808   1.870   0.374  10.109 -0.4002  0.6755 -0.2449
  181MPD1    C3 2809   1.923   0.244  10.088  0.3242  0.0770  0.4263
  181MPD1    C4 2810   1.838   0.142  10.059  0.5501  0.9442  0.5441
  181MPD1    C5 2811   1.708   0.163  10.063  0.5819  0.1493  0.0437
  181MPD1     H 2812   1.937   0.458  10.118  0.0303  0.2351  0.7248
  181MPD1    H1 2813   1.876   0.040  10.050  0.2719  0.8121  0.8619
  181MPD1    H2 2814   1.551   0.309  10.068 -0.3316  1.9806 -2.7905
  181MPD1    H3 2815   1.642   0.078  10.050  0.1270  0.8067 -1.9702
  181MPD1     N 2816   2.064   0.226  10.084 -0.2863 -0.4484  0.0139
  181MPD1    H5 2817   2.091   0.132  10.058  2.2823  0.5621 -0.9966
  181MPD1    N1 2818   1.691   0.525  10.127 -0.2689  0.2844  0.3956
  181MPD1    H6 2819   1.733   0.585  10.198  0.4093  0.1447  0.1158
  181MPD1    H7 2820   1.590   0.533  10.135 -0.3684 -0.4429 -0.2084
  182MPD1     C 2821   0.205   3.699   1.451 -0.3873  0.0125  0.4908
  182MPD1    C1 2822   0.264   3.625   1.353  0.4212 -0.1456  0.6066
  182MPD1    C2 2823   0.188   3.576   1.248 -0.9002  0.0765  0.4373
  182MPD1    C3 2824   0.059   3.625   1.226  0.2461 -0.0204 -0.4669
  182MPD1    C4 2825   4.731   3.693   1.327  0.4626  0.0948  0.6862
  182MPD1    C5 2826   0.071   3.728   1.441 -0.2894 -0.5326 -0.5468
  182MPD1     H 2827   0.236   3.510   1.177  0.3136  1.2440  0.1753
  182MPD1    H1 2828   4.630   3.732   1.323 -0.1979 -1.7609 -1.0568
  182MPD1    H2 2829   0.263   3.728   1.538  2.9842 -0.6214 -1.5621
  182MPD1    H3 2830   0.029   3.785   1.524  2.3425  1.1890 -0.4023
  182MPD1     N 2831   4.717   3.588   1.118 -0.6388 -0.0656 -0.3359
  182MPD1    H5 2832   4.626   3.634   1.114 -0.5275  0.2152  0.4098
  182MPD1    N1 2833   0.396   3.572   1.369 -0.4272  0.3188  0.0934
  182MPD1    H6 2834   0.440   3.566   1.278  0.8774  2.9059  0.5410
  182MPD1    H7 2835   0.452   3.625   1.436  0.0154 -0.2341  0.1532
  183MPD1     C 2836   2.716   4.189   9.379  0.4853 -0.2893 -0.0069
  183MPD1    C1 2837   2.697   4.289   9.472  0.0781  0.2416  0.0395
  183MPD1    C2 2838   2.810   4.324   9.545 -0.3407 -0.2163 -0.0267
  183MPD1    C3 2839   2.926   4.257   9.541 -0.2301 -0.5769  0.1873
  183MPD1    C4 2840   2.939   4.154   9.455 -0.4793  0.3191 -0.6299
  183MPD1    C5 2841   2.836   4.129   9.366 -0.4197  0.5658  0.0143
  183MPD1     H 2842   2.804   4.403   9.618 -0.4553  2.4361 -2.9020
  183MPD1    H1 2843   3.028   4.093   9.451 -2.5764 -2.9308  2.7795
  183MPD1    H2 2844   2.629   4.165   9.320  0.6981 -1.9154  0.3389
  183MPD1    H3 2845   2.837   4.048   9.293  0.2560  0.5773  0.0146
  183MPD1     N 2846   3.030   4.307   9.617 -0.2677 -0.0524  0.1629
  183MPD1    H5 2847   3.002   4.383   9.678 -0.1638  1.7773 -2.0471
  183MPD1    N1 2848   2.578   4.367   9.476  0.0385 -0.8803 -0.3468
  183MPD1    H6 2849   2.555   4.422   9.559  0.0270  0.2890 -1.1339
  183MPD1    H7 2850   2.496   4.312   9.450 -0.7455 -0.0698  0.4290
  184MPD1     C 2851   2.939   1.823   9.003 -0.0324  0.1498  0.7846
  184MPD1    C1 2852   2.951   1.966   9.013 -0.2186  0.6913  0.7783
  184MPD1    C2 2853   3.059   2.017   9.084 -0.8278 -0.4201 -0.7613
  184MPD1    C3 2854   3.159   1.938   9.145  0.0299  0.1087 -0.1510
  184MPD1    C4 2855   3.129   1.799   9.143 -0.1359 -0.2007  0.1837
  184MPD1    C5 2856   3.031   1.739   9.069 -0.4536  0.0996 -0.1125
  184MPD1     H 2857   3.075   2.123   9.098 -0.3994 -0.2211 -2.7600
  184MPD1    H1 2858   3.185   1.729   9.203  0.0554 -0.7089 -0.5959
  184MPD1    H2 2859   2.853   1.786   8.948  0.4120 -0.1280  0.2745
  184MPD1    H3 2860   3.024   1.631   9.061  1.9707 -0.0878  0.0016
  184MPD1     N 2861   3.270   1.990   9.221  0.0128 -0.7943  0.2759
  184MPD1    H5 2862   3.334   1.922   9.260 -2.0806 -3.5645 -1.1589
  184MPD1    N1 2863   2.839   2.040   8.972  1.3890  0.3689 -0.1752
  184MPD1    H6 2864   2.782   1.991   8.903 -1.1492  0.8777  1.5577
  184MPD1    H7 2865   2.780   2.075   9.047 -1.3430 -0.8677 -1.7322
  185MPD1     C 2866   3.543   1.472   9.828 -0.6279  0.8716 -0.5754
  185MPD1    C1 2867   3.501   1.586   9.888  0.4772  0.4499  0.1404
  185MPD1    C2 2868   3.490   1.706   9.814 -0.4358  0.4561 -0.3504
  185MPD1    C3 2869   3.499   1.702   9.681  0.8254 -0.0236  0.1442
  185MPD1    C4 2870   3.539   1.588   9.618  0.7816 -0.4603  0.6483
  185MPD1    C5 2871   3.557   1.476   9.693  0.4881  0.4517  0.1826
  185MPD1     H 2872   3.462   1.790   9.877 -2.4534  0.3605 -1.1003
  185MPD1    H1 2873   3.541   1.585   9.510  1.1766 -0.0819  0.6462
  185MPD1    H2 2874   3.555   1.385   9.891  1.7901  0.8596 -1.0470
  185MPD1    H3 2875   3.576   1.383   9.640 -1.7013  0.1339 -0.0527
  185MPD1     N 2876   3.497   1.819   9.602 -0.2981  0.0155  0.1508
  185MPD1    H5 2877   3.507   1.797   9.503 -1.6445  1.8157 -0.3782
  185MPD1    N1 2878   3.490   1.591  10.028 -0.9205 -0.2476 -0.3465
  185MPD1    H6 2879   3.420   1.660  10.056  0.4717  0.8378  0.4659
  185MPD1    H7 2880   3.452   1.504  10.065  1.0785 -0.9100  0.1280
  186MPD1     C 2881   1.986   0.752  16.009  0.3951  0.2171 -0.1866
  186MPD1    C1 2882   1.977   0.873  15.944 -0.3279  0.4856  0.3670
  186MPD1    C2 2883   1.987   0.991  16.020  0.2678  0.1351 -0.0267
  186MPD1    C3 2884   1.975   1.001  16.152  0.5308 -0.2991  0.1730
  186MPD1    C4 2885   1.941   0.881  16.210 -0.1944 -0.7137 -0.0561
  186MPD1    C5 2886   1.946   0.760  16.143 -0.1980  0.4594  0.4574
  186MPD1     H 2887   1.986   1.079  15.957 -0.9189  0.4145  0.3818
  186MPD1    H1 2888   1.925   0.878  16.318  0.9880 -1.2725  0.1010
  186MPD1    H2 2889   1.993   0.659  15.954 -0.9917 -0.1220  0.1981
  186MPD1    H3 2890   1.938   0.668  16.200  2.2268 -0.5367 -0.8133
  186MPD1     N 2891   1.960   1.125  16.227 -0.1849  0.2910  0.7817
  186MPD1    H5 2892   1.953   1.110  16.327  1.6037 -1.1513  0.6937
  186MPD1    N1 2893   1.999   0.872  15.807 -0.5192  0.4347 -0.1763
  186MPD1    H6 2894   1.973   0.787  15.758  0.1170 -0.6245  1.3243
  186MPD1    H7 2895   1.973   0.957  15.757 -0.1238 -0.7616 -2.4182
  187MPD1     C 2896   0.538   4.281  17.031 -0.2252 -0.4971 -0.4829
  187MPD1    C1 2897   0.453   4.179  17.057 -0.5289  0.5410  0.0985
  187MPD1    C2 2898   0.498   4.047  17.054 -0.0824 -0.1233 -0.2748
  187MPD1    C3 2899   0.626   4.013  17.015 -0.2932  0.2957  0.7725
  187MPD1    C4 2900   0.708   4.116  16.979 -0.0316 -0.7889  0.2767
  187MPD1    C5 2901   0.662   4.247  16.982  0.3468  0.4245  0.5956
  187MPD1     H 2902   0.427   3.974  17.093  0.7344 -0.8023 -0.0596
  187MPD1    H1 2903   0.803   4.098  16.931 -0.1950 -0.4167 -0.1887
  187MPD1    H2 2904   0.515   4.386  17.049  0.8727  0.2420 -3.5116
  187MPD1    H3 2905   0.731   4.331  16.974  0.2077  0.6507  1.7962
  187MPD1     N 2906   0.689   3.891  17.034  0.3717  0.2011  0.0645
  187MPD1    H5 2907   0.785   3.895  17.002  0.0477  1.1306 -0.8017
  187MPD1    N1 2908   0.331   4.209  17.117 -0.3267  0.1706  0.4684
  187MPD1    H6 2909   0.264   4.134  17.102 -0.2427  0.1223  0.3396
  187MPD1    H7 2910   0.297   4.291  17.067 -0.4401 -0.1015  0.1073
  188MPD1     C 2911   1.009   3.500  10.739 -0.0067  0.0944  0.1896
  188MPD1    C1 2912   0.876   3.487  10.762 -0.3880 -0.9870  0.0171
  188MPD1    C2 2913   0.818   3.395  10.676 -0.0837  0.1110  0.7747
  188MPD1    C3 2914   0.883   3.327  10.574 -0.3717  0.6432  0.6950
  188MPD1    C4 2915   1.014   3.353  10.551  0.0442  0.5360  0.4107
  188MPD1    C5 2916   1.075   3.439  10.639  0.0384  0.2565  0.5001
  188MPD1     H 2917   0.716   3.367  10.700 -0.5022  1.7679  0.9311
  188MPD1    H1 2918   1.071   3.295  10.479  1.4736  0.0650  1.9252
  188MPD1    H2 2919   1.073   3.543  10.815 -0.3885  0.7191  0.1571
  188MPD1    H3 2920   1.183   3.447  10.635 -0.0260 -0.0307 -1.9915
  188MPD1     N 2921   0.826   3.218  10.501  0.2026  0.6893 -0.1099
  188MPD1    H5 2922   0.880   3.161  10.436 -0.4732  1.5922 -1.4697
  188MPD1    N1 2923   0.817   3.527  10.881  0.3437  0.6036 -0.1316
  188MPD1    H6 2924   0.863   3.610  10.919 -0.6400  1.0571  0.0866
  188MPD1    H7 2925   0.720   3.559  10.871  0.1878  0.2644  0.3358
  189MPD1     C 2926   3.001   3.874   0.011  0.7019  0.4871  0.1024
  189MPD1    C1 2927   2.912   3.874  17.647 -1.0155 -0.0664 -0.3348
  189MPD1    C2 2928   2.821   3.976  17.627  0.3036 -0.1262  0.5703
  189MPD1    C3 2929   2.826   4.088  17.711  0.2692 -0.5127 -0.6570
  189MPD1    C4 2930   2.913   4.091   0.066  0.0290  0.1136  0.2985
  189MPD1    C5 2931   2.997   3.984   0.095 -0.3460  0.9351 -0.5598
  189MPD1     H 2932   2.747   3.976  17.548  2.7395 -1.1479 -1.7147
  189MPD1    H1 2933   2.917   4.164   0.145  3.5109 -1.0325  1.1903
  189MPD1    H2 2934   3.067   3.791   0.034 -0.4455 -0.1345  1.1533
  189MPD1    H3 2935   3.071   3.995   0.173 -1.3237  0.0869  0.4810
  189MPD1     N 2936   2.733   4.183  17.685 -0.4624  0.0719  0.0227
  189MPD1    H5 2937   2.670   4.165  17.607 -0.0957 -2.8529  0.4074
  189MPD1    N1 2938   2.899   3.755  17.566 -0.9893 -0.0903  0.2339
  189MPD1    H6 2939   2.872   3.775  17.470 -1.1673 -0.5926  0.1824
  189MPD1    H7 2940   2.979   3.692  17.566  0.6268  1.9361  0.6654
  190MPD1     C 2941   1.102   2.421  15.204 -0.2452  0.2351 -0.4351
  190MPD1    C1 2942   1.041   2.434  15.325  0.4245 -0.0707 -0.2808
  190MPD1    C2 2943   1.122   2.431  15.439  0.6351  0.4701 -0.6416
  190MPD1    C3 2944   1.263   2.413  15.423  0.3268  0.6025 -0.0487
  190MPD1    C4 2945   1.317   2.395  15.301  0.0546 -0.0223 -0.3110
  190MPD1    C5 2946   1.234   2.392  15.186 -0.1684 -0.4174 -0.6890
  190MPD1     H 2947   1.078   2.451  15.536  0.7377  1.3357 -0.7683
  190MPD1    H1 2948   1.425   2.383  15.292 -0.1539 -1.2260 -1.1968
  190MPD1    H2 2949   1.039   2.435  15.116  0.3123 -2.6109 -1.2954
  190MPD1    H3 2950   1.273   2.376  15.086 -0.2742  0.0238 -0.7977
  190MPD1     N 2951   1.351   2.420  15.532  0.3114  0.0116 -0.3864
  190MPD1    H5 2952   1.451   2.418  15.515 -0.0064  0.3831 -2.2862
  190MPD1    N1 2953   0.902   2.460  15.330 -0.0340 -0.3502 -0.0005
  190MPD1    H6 2954   0.854   2.402  15.262  1.6305  0.8202 -2.1545
  190MPD1    H7 2955   0.858   2.450  15.421 -0.1342 -3.2798 -0.3791
  191MPD1     C 2956   0.625   4.122  12.150  0.7114  0.0310  0.3443
  191MPD1    C1 2957   0.568   4.227  12.208  0.7738  0.0994 -0.2069
  191MPD1    C2 2958   0.609   4.349  12.153  0.4578 -0.3452  0.0047
  191MPD1    C3 2959   0.682   4.362  12.039 -0.1405  0.1076 -0.6161
  191MPD1    C4 2960   0.716   4.249  11.977 -0.1052 -0.7646 -0.1386
  191MPD1    C5 2961   0.711   4.127  12.044  0.5388  0.2079 -0.2943
  191MPD1     H 2962   0.570   4.439  12.201  0.4807  0.0084 -0.6352
  191MPD1    H1 2963   0.777   4.245  11.888 -1.3207 -0.7386 -0.9690
  191MPD1    H2 2964   0.603   4.027  12.198  0.7386  0.7794  1.8398
  191MPD1    H3 2965   0.754   4.042  11.992  1.1901  0.7319 -0.6128
  191MPD1     N 2966   0.707   4.487  11.983 -1.0399 -0.8449  0.6277
  191MPD1    H5 2967   0.651   4.558  12.029 -0.9656  0.7691 -1.7910
  191MPD1    N1 2968   0.502   4.217  12.330 -0.3231  0.0107 -0.3859
  191MPD1    H6 2969   0.443   4.134  12.334 -0.4542  0.3300  4.0541
  191MPD1    H7 2970   0.437   4.293  12.347  1.6838  1.5592  0.2951
  192MPD1     C 2971   1.312   0.348  11.294  0.8730  0.4431  0.5935
  192MPD1    C1 2972   1.222   0.257  11.246 -0.1194 -0.0826 -0.3070
  192MPD1    C2 2973   1.137   0.197  11.339 -0.5482 -0.5196  0.6142
  192MPD1    C3 2974   1.119   0.249  11.462  0.3289  0.6430 -0.2042
  192MPD1    C4 2975   1.197   0.357  11.500 -0.3738 -0.3408 -0.0618
  192MPD1    C5 2976   1.305   0.386  11.425  0.5456 -0.3146 -0.5209
  192MPD1     H 2977   1.068   0.120  11.307 -1.2133 -0.1344  1.1198
  192MPD1    H1 2978   1.190   0.393  11.602  0.3887  1.2012 -0.5670
  192MPD1    H2 2979   1.394   0.392  11.238  2.6417 -1.4901  1.6587
  192MPD1    H3 2980   1.375   0.458  11.464 -1.9104  0.4379  2.4561
  192MPD1     N 2981   1.021   0.205  11.554 -0.1315  0.6656 -0.1742
  192MPD1    H5 2982   1.026   0.265  11.636  2.5133  1.2543 -0.7467
  192MPD1    N1 2983   1.244   0.198  11.118  0.4639 -0.2089 -0.1377
  192MPD1    H6 2984   1.158   0.153  11.088  0.2062  0.5372 -0.4992
  192MPD1    H7 2985   1.264   0.274  11.054  0.1900 -1.3818 -1.6094
  193MPD1     C 2986   0.278   4.330  16.560  0.7936 -0.0946  0.6715
  193MPD1    C1 2987   0.353   4.342  16.442 -0.6070 -0.0790 -0.6405
  193MPD1    C2 2988   0.433   4.459  16.433 -0.1162  0.5264 -0.4366
  193MPD1    C3 2989   0.424   4.562  16.523 -0.1058  0.0586  0.1256
  193MPD1    C4 2990   0.344   4.544  16.633  0.3297  0.5504  0.6258
  193MPD1    C5 2991   0.265   4.428  16.653  1.0966 -0.1686  0.0583
  193MPD1     H 2992   0.501   4.459  16.349  0.2494 -0.0079 -0.1359
  193MPD1    H1 2993   0.324   4.624  16.704  1.4538  0.3366  1.1660
  193MPD1    H2 2994   0.216   4.243  16.575 -0.1904  0.5176  0.1302
  193MPD1    H3 2995   0.202   4.416  16.741  2.1478 -0.3919  0.7901
  193MPD1     N 2996   0.500   4.680  16.518  0.2117 -0.4269  0.7163
  193MPD1    H5 2997   0.477   0.011  16.589  0.6028 -0.5716  0.9808
  193MPD1    N1 2998   0.369   4.229  16.357  0.0231  0.1636 -0.8132
  193MPD1    H6 2999   0.281   4.179  16.344 -0.1338 -0.2068  1.7461
  193MPD1    H7 3000   0.401   4.266  16.267  0.7085  3.0302  0.6077
  194MPD1     C 3001   3.286   1.801  16.513 -0.1551  0.1801 -0.2512
  194MPD1    C1 3002   3.259   1.692  16.437  0.0503  0.1579  0.5715
  194MPD1    C2 3003   3.220   1.574  16.499  0.2395  0.4459  0.5600
  194MPD1    C3 3004   3.235   1.564  16.643  0.1220  0.4532 -0.2584
  194MPD1    C4 3005   3.288   1.667  16.712 -0.4491  0.5174 -0.2020
  194MPD1    C5 3006   3.306   1.784  16.650  0.2343  0.4899  0.8472
  194MPD1     H 3007   3.197   1.482  16.447  1.9666  1.8637 -2.7310
  194MPD1    H1 3008   3.293   1.664  16.820  0.6406 -0.4136 -0.2675
  194MPD1    H2 3009   3.309   1.902  16.483 -1.3864  0.3200 -0.7055
  194MPD1    H3 3010   3.319   1.870  16.714 -2.5953 -0.1243  2.2271
  194MPD1     N 3011   3.189   1.450  16.718  0.2966 -0.2943 -0.4552
  194MPD1    H5 3012   3.229   1.430  16.809 -1.9908 -0.4281  0.5207
  194MPD1    N1 3013   3.225   1.706  16.302 -0.2126 -0.2173 -0.1540
  194MPD1    H6 3014   3.123   1.703  16.291 -0.1214 -2.7450 -0.3693
  194MPD1    H7 3015   3.256   1.621  16.255  1.6838  0.9513 -1.0029
  195MPD1     C 3016   0.906   3.967  17.363 -0.6888  0.4027  0.9266
  195MPD1    C1 3017   0.774   3.983  17.410  0.4716  0.0014 -0.1853
  195MPD1    C2 3018   0.746   3.923  17.527  0.5510  0.5662 -0.0675
  195MPD1    C3 3019   0.830   3.832  17.586 -0.2887 -0.2269  0.3497
  195MPD1    C4 3020   0.955   3.812  17.537  0.5025 -0.1780  0.4189
  195MPD1    C5 3021   0.990   3.885  17.428 -0.5863 -0.0490  0.6881
  195MPD1     H 3022   0.654   3.951  17.578  0.8540 -0.0056  0.7681
  195MPD1    H1 3023   1.020   3.734  17.577 -0.8830 -0.1359  2.7920
  195MPD1    H2 3024   0.939   4.017  17.272 -2.0178 -0.1719  0.1371
  195MPD1    H3 3025   1.087   3.872  17.383 -0.7263  0.0774  0.3477
  195MPD1     N 3026   0.785   3.760  17.697 -0.6516 -0.7171  0.3546
  195MPD1    H5 3027   0.860   3.707  17.741 -0.5997  0.2910  1.4748
  195MPD1    N1 3028   0.692   4.083  17.354  0.1231 -0.2507  0.5826
  195MPD1    H6 3029   0.593   4.067  17.372  0.0769 -0.7173 -0.0697
  195MPD1    H7 3030   0.712   4.088  17.254 -1.4631 -2.9996  0.1239
  196MPD1     C 3031   0.627   2.962   0.620 -0.6030  0.1048  0.3594
  196MPD1    C1 3032   0.631   3.069   0.530  0.3779  0.0053 -0.6609
  196MPD1    C2 3033   0.690   3.183   0.583  0.4744  0.4460 -0.7339
  196MPD1    C3 3034   0.721   3.188   0.717 -0.8621  0.5450  0.6622
  196MPD1    C4 3035   0.724   3.083   0.801  0.2721  0.3970  0.0395
  196MPD1    C5 3036   0.676   2.969   0.747 -0.2642  0.4026 -0.1243
  196MPD1     H 3037   0.711   3.269   0.520  0.8102  1.1599  0.3437
  196MPD1    H1 3038   0.755   3.078   0.905 -1.6501 -1.5400  0.5255
  196MPD1    H2 3039   0.602   2.859   0.599 -2.2440  0.4494  0.6274
  196MPD1    H3 3040   0.676   2.877   0.804  1.0528 -0.6766 -1.8810
  196MPD1     N 3041   0.760   3.308   0.776 -0.0563 -0.2635  0.3191
  196MPD1    H5 3042   0.789   3.314   0.873  1.1862  0.3745 -0.0846
  196MPD1    N1 3043   0.609   3.048   0.392 -0.0908 -0.0539  0.6517
  196MPD1    H6 3044   0.589   3.139   0.351 -0.9487 -0.9515 -0.9228
  196MPD1    H7 3045   0.521   2.996   0.383  0.7039 -0.6591 -3.2317
  197MPD1     C 3046   4.462   0.427  17.631 -0.2718 -0.0252  0.1043
  197MPD1    C1 3047   4.411   0.558  17.619 -0.3539 -0.2899 -0.0276
  197MPD1    C2 3048   4.319   0.595  17.523  0.2611 -0.0240  0.5570
  197MPD1    C3 3049   4.269   0.496  17.432 -0.2001  0.0107 -0.3000
  197MPD1    C4 3050   4.320   0.361  17.450 -0.1700 -0.1409  0.6107
  197MPD1    C5 3051   4.411   0.331  17.547  0.3728  1.3538  0.1265
  197MPD1     H 3052   4.284   0.697  17.518  0.0562 -0.0574  1.2332
  197MPD1    H1 3053   4.289   0.290  17.375  0.9766 -0.4144  0.3986
  197MPD1    H2 3054   4.537   0.390  17.700  1.4317  0.7482 -1.3219
  197MPD1    H3 3055   4.463   0.236  17.554 -1.1238  0.4412 -1.0635
  197MPD1     N 3056   4.177   0.516  17.328  0.6214  0.1767 -0.5690
  197MPD1    H5 3057   4.146   0.440  17.268 -2.1050 -0.1862  1.2788
  197MPD1    N1 3058   4.442   0.641  17.725 -0.7399 -0.4182  0.1799
  197MPD1    H6 3059   4.532   0.621   0.021 -1.0065 -0.5271  0.6716
  197MPD1    H7 3060   4.432   0.734  17.686  1.4609  0.0593  0.7615
  198MPD1     C 3061   0.504   3.496  15.517 -0.1998  0.7496 -0.3351
  198MPD1    C1 3062   0.601   3.398  15.493  0.3168 -1.2052 -0.0094
  198MPD1    C2 3063   0.725   3.438  15.472  0.0218 -0.1638 -0.9340
  198MPD1    C3 3064   0.764   3.566  15.500 -0.3908 -0.1050 -0.2342
  198MPD1    C4 3065   0.671   3.665  15.523 -0.3839  0.1637 -0.2557
  198MPD1    C5 3066   0.542   3.628  15.527  0.1120 -0.7173 -0.3750
  198MPD1     H 3067   0.809   3.374  15.446 -0.7949 -1.8560  0.6158
  198MPD1    H1 3068   0.694   3.769  15.544 -0.0188 -0.4491  2.4515
  198MPD1    H2 3069   0.402   3.462  15.530 -0.6388  2.0873 -0.2801
  198MPD1    H3 3070   0.472   3.711  15.522  0.2116 -0.6875 -1.2393
  198MPD1     N 3071   0.905   3.583  15.494 -0.4573 -0.5588 -0.3647
  198MPD1    H5 3072   0.960   3.498  15.490  0.9906  0.4285 -1.5756
  198MPD1    N1 3073   0.547   3.279  15.440  0.2667  0.0680  0.3542
  198MPD1    H6 3074   0.455   3.256  15.479 -0.7753 -1.2975 -2.9396
  198MPD1    H7 3075   0.613   3.210  15.475  0.5635  0.6765  0.9989
  199MPD1     C 3076   1.051   0.840   9.163 -0.1293 -0.3118 -0.5192
  199MPD1    C1 3077   1.059   0.774   9.284 -0.1792  0.2002  0.4165
  199MPD1    C2 3078   1.186   0.745   9.332  0.2216 -0.2745 -0.0163
  199MPD1    C3 3079   1.305   0.796   9.266 -0.1692 -0.4773 -0.2190
  199MPD1    C4 3080   1.290   0.869   9.146 -0.6329 -0.3379  0.4581
  199MPD1    C5 3081   1.161   0.881   9.091 -0.0116  0.2052  0.0142
  199MPD1     H 3082   1.187   0.689   9.424  0.2671  0.0714  0.1915
  199MPD1    H1 3083   1.379   0.898   9.091 -0.1805 -0.5490  1.0819
  199MPD1    H2 3084   0.956   0.862   9.116 -0.2994 -1.9978 -0.9368
  199MPD1    H3 3085   1.143   0.934   8.998  0.1216 -0.0284 -0.1431
  199MPD1     N 3086   1.437   0.782   9.319  0.4122  0.4019 -0.1571
  199MPD1    H5 3087   1.513   0.826   9.269  0.8449 -0.2314 -0.0622
  199MPD1    N1 3088   0.946   0.708   9.333  0.2297 -0.5308 -0.0965
  199MPD1    H6 3089   0.860   0.759   9.316 -0.0912 -0.9054  0.4170
  199MPD1    H7 3090   0.951   0.695   9.434  3.0815  2.2364  0.1210
  200MPD1     C 3091   2.005   0.304  15.397 -0.4740 -0.1522  0.7581
  200MPD1    C1 3092   1.922   0.301  15.287 -0.5282  0.9628  0.2710
  200MPD1    C2 3093   1.981   0.271  15.171  0.2739 -0.2515 -0.0473
  200MPD1    C3 3094   2.111   0.223  15.162  0.0790 -0.4545  0.5784
  200MPD1    C4 3095   2.188   0.219  15.273 -0.8541 -0.5081 -0.2381
  200MPD1    C5 3096   2.136   0.262  15.386 -0.2070  0.1054  0.1989
  200MPD1     H 3097   1.912   0.275  15.087 -0.0558  0.1543  0.2468
  200MPD1    H1 3098   2.288   0.178  15.271 -0.0530  1.5008 -1.3843
  200MPD1    H2 3099   1.977   0.345  15.493  0.3437  3.1645 -0.3978
  200MPD1    H3 3100   2.196   0.262  15.476 -0.7454 -3.2585  0.5282
  200MPD1     N 3101   2.162   0.183  15.035 -0.0720 -0.1802 -0.7788
  200MPD1    H5 3102   2.091   0.169  14.963 -0.4902  0.7958 -0.5579
  200MPD1    N1 3103   1.791   0.352  15.286 -0.6297  0.2638 -0.2216
  200MPD1    H6 3104   1.744   0.334  15.374 -1.1771 -0.1668 -0.6097
  200MPD1    H7 3105   1.745   0.307  15.207  0.8036 -1.2516 -0.1973
  201MPD1     C 3106   0.619   4.335  12.829  0.0595 -0.3260  0.4940
  201MPD1    C1 3107   0.661   4.269  12.947 -0.3319  0.3015  0.2844
  201MPD1    C2 3108   0.560   4.204  13.016 -0.6008  0.5408 -0.2894
  201MPD1    C3 3109   0.432   4.184  12.967 -0.4801 -0.4072 -0.1969
  201MPD1    C4 3110   0.394   4.245  12.851 -0.0476  0.1188 -0.1457
  201MPD1    C5 3111   0.486   4.324  12.788 -0.5459 -0.1873 -0.1640
  201MPD1     H 3112   0.597   4.162  13.108  0.0310 -0.1998 -0.8759
  201MPD1    H1 3113   0.303   4.215  12.800  0.7006  1.4006 -2.2253
  201MPD1    H2 3114   0.679   4.407  12.774  0.5906  0.1884  1.7480
  201MPD1    H3 3115   0.463   4.371  12.693  0.6258 -2.2650 -1.4678
  201MPD1     N 3116   0.360   4.087  13.035  0.2768 -0.0230 -0.4515
  201MPD1    H5 3117   0.415   4.040  13.106  1.6967  1.4408 -0.5752
  201MPD1    N1 3118   0.791   4.284  12.999  0.4606 -0.3877  0.3749
  201MPD1    H6 3119   0.858   4.289  12.923  1.3260  0.8578  1.2085
  201MPD1    H7 3120   0.809   4.195  13.046  0.3024 -0.8747 -0.4987
  202MPD1     C 3121   4.219   3.232   9.161  0.1452  0.0432  0.8330
  202MPD1    C1 3122   4.109   3.310   9.180 -0.1101 -0.8486 -0.2792
  202MPD1    C2 3123   4.087   3.344   9.311 -0.1845  0.2725  0.1382
  202MPD1    C3 3124   4.189   3.349   9.413  0.1752 -0.0984 -0.3817
  202MPD1    C4 3125   4.305   3.288   9.382 -0.1104  0.1709  0.1035
  202MPD1    C5 3126   4.314   3.228   9.260 -0.9199  0.6668  0.0381
  202MPD1     H 3127   3.998   3.405   9.317 -0.3210 -0.1070  1.7758
  202MPD1    H1 3128   4.388   3.269   9.450 -0.5121  2.9864  1.3549
  202MPD1    H2 3129   4.224   3.157   9.082  0.2993 -0.8653  1.7048
  202MPD1    H3 3130   4.403   3.168   9.242 -1.6843 -0.5326  0.2545
  202MPD1     N 3131   4.163   3.395   9.547  0.0828  0.3837  0.3480
  202MPD1    H5 3132   4.234   3.388   9.619  2.3155 -0.8975 -1.9743
  202MPD1    N1 3133   3.997   3.297   9.100 -0.0197 -0.2530  0.4642
  202MPD1    H6 3134   3.927   3.369   9.115  1.1681  1.4327 -2.0414
  202MPD1    H7 3135   4.010   3.279   9.000 -0.6142  0.4548  0.2636
  203MPD1     C 3136   2.558   4.541  12.583  0.3750 -0.1976 -0.9159
  203MPD1    C1 3137   2.608   4.458  12.476 -0.2782 -0.3092  0.4299
  203MPD1    C2 3138   2.667   4.341  12.512 -0.2751  0.0374 -0.0594
  203MPD1    C3 3139   2.700   4.315  12.648  0.3287 -0.2930  0.2054
  203MPD1    C4 3140   2.659   4.409  12.743 -0.0487  0.2282 -0.4740
  203MPD1    C5 3141   2.582   4.514  12.719  0.2710 -0.3765  0.1611
  203MPD1     H 3142   2.679   4.266  12.435  0.1781  1.8813 -1.8062
  203MPD1    H1 3143   2.673   4.380  12.847 -0.0408 -0.9806 -0.8121
  203MPD1    H2 3144   2.485   4.618  12.563  0.2856 -0.3462 -1.1767
  203MPD1    H3 3145   2.534   4.568  12.800  0.8582 -2.1747  1.6962
  203MPD1     N 3146   2.748   4.186  12.684 -0.4082  0.4764  0.1424
  203MPD1    H5 3147   2.755   4.121  12.606  0.7719  1.3381 -0.4752
  203MPD1    N1 3148   2.551   4.476  12.353  0.3648 -0.4507 -0.3799
  203MPD1    H6 3149   2.614   4.437  12.282  1.8857  0.6578  0.3659
  203MPD1    H7 3150   2.545   4.576  12.335  0.4657 -0.6321 -1.4467
  204MPD1     C 3151   2.695   0.653  17.388  0.2685  0.1056 -0.2807
  204MPD1    C1 3152   2.770   0.641  17.273 -0.0630 -0.2113 -0.6126
  204MPD1    C2 3153   2.875   0.558  17.284  0.0905  0.3624  0.3389
  204MPD1    C3 3154   2.889   0.476  17.394  0.6709 -0.2366  0.5293
  204MPD1    C4 3155   2.804   0.483  17.501  0.8672  0.4389  0.4619
  204MPD1    C5 3156   2.705   0.577  17.499  0.6021  0.5890 -0.2396
  204MPD1     H 3157   2.944   0.543  17.201 -1.4609  1.2619 -1.1093
  204MPD1    H1 3158   2.807   0.404  17.576 -0.4247 -0.0849 -0.0388
  204MPD1    H2 3159   2.627   0.737  17.397 -0.4448 -0.4475 -0.5164
  204MPD1    H3 3160   2.636   0.582  17.583  2.7773  1.0940  1.5373
  204MPD1     N 3161   3.000   0.392  17.394 -0.7376  0.4930 -0.5373
  204MPD1    H5 3162   3.054   0.394  17.308  3.5148 -2.0181  2.0505
  204MPD1    N1 3163   2.761   0.729  17.170  0.0216  0.9149 -0.1189
  204MPD1    H6 3164   2.674   0.776  17.146 -0.1845 -0.2945 -1.7408
  204MPD1    H7 3165   2.809   0.698  17.086 -2.2400 -1.5099 -0.4667
  205MPD1     C 3166   2.940   3.871  17.080  0.5248  0.7788  0.8409
  205MPD1    C1 3167   2.948   3.747  17.142  0.3575  0.0306  0.0385
  205MPD1    C2 3168   3.038   3.724  17.251  0.1871 -0.7245  0.0504
  205MPD1    C3 3169   3.124   3.828  17.283 -0.2900 -0.5058 -0.4273
  205MPD1    C4 3170   3.126   3.949  17.213  0.7138 -0.1874  0.7143
  205MPD1    C5 3171   3.029   3.967  17.108 -0.1166 -0.4904  0.1745
  205MPD1     H 3172   3.039   3.633  17.311  1.9353  0.4781  1.8266
  205MPD1    H1 3173   3.203   4.020  17.239 -0.7335  1.6154  0.0304
  205MPD1    H2 3174   2.857   3.905  17.020  0.3507 -2.6785 -0.9284
  205MPD1    H3 3175   3.022   4.068  17.069  0.6004 -0.4135  0.2365
  205MPD1     N 3176   3.219   3.822  17.389 -0.3226  0.3298 -0.1061
  205MPD1    H5 3177   3.292   3.891  17.398 -0.0446  0.0616 -0.3023
  205MPD1    N1 3178   2.843   3.663  17.137 -0.0307  0.2772  0.1723
  205MPD1    H6 3179   2.793   3.670  17.049  1.2078 -0.5479 -0.6032
  205MPD1    H7 3180   2.867   3.569  17.166  2.1710  0.1166 -2.2463
  206MPD1     C 3181   2.799   1.733  16.699  0.2788  0.7509  0.4843
  206MPD1    C1 3182   2.802   1.869  16.679 -0.5261 -0.1071  1.0488
  206MPD1    C2 3183   2.843   1.922  16.559  0.1113  1.4911 -0.2528
  206MPD1    C3 3184   2.899   1.843  16.456 -0.3689  0.7367  0.6104
  206MPD1    C4 3185   2.898   1.710  16.477  0.0430 -0.1730 -0.6940
  206MPD1    C5 3186   2.859   1.654  16.603  0.2668  0.4506 -0.3515
  206MPD1     H 3187   2.842   2.029  16.544 -0.2651  1.8094  1.9660
  206MPD1    H1 3188   2.961   1.645  16.417 -1.2327 -2.1597  0.1206
  206MPD1    H2 3189   2.752   1.693  16.788  0.8956 -1.5844 -0.2466
  206MPD1    H3 3190   2.859   1.547  16.616  0.9360  0.6701  1.4939
  206MPD1     N 3191   2.934   1.884  16.331 -0.3411  0.6609  0.0511
  206MPD1    H5 3192   2.952   1.811  16.263  1.4876  1.9109 -0.8134
  206MPD1    N1 3193   2.721   1.949  16.754 -0.8982 -0.4636  0.1531
  206MPD1    H6 3194   2.723   1.920  16.852  0.1405 -0.5225  0.1134
  206MPD1    H7 3195   2.749   2.047  16.748 -1.3776 -0.2811  0.7686
  207MPD1     C 3196   1.626   0.442   9.136  0.5449  0.7829 -0.1715
  207MPD1    C1 3197   1.670   0.363   9.242 -0.5404  0.8917 -0.1780
  207MPD1    C2 3198   1.575   0.309   9.324  0.2621  0.1106 -0.4432
  207MPD1    C3 3199   1.439   0.341   9.314 -0.8534 -0.2976  0.1741
  207MPD1    C4 3200   1.401   0.434   9.223 -0.0745 -0.2900  0.1665
  207MPD1    C5 3201   1.495   0.482   9.135 -0.0817  0.3040 -0.2181
  207MPD1     H 3202   1.612   0.229   9.387  0.8001 -1.7625 -3.1385
  207MPD1    H1 3203   1.297   0.462   9.216 -0.2710 -1.0645 -0.0421
  207MPD1    H2 3204   1.699   0.486   9.069  0.2007 -0.3336 -1.2750
  207MPD1    H3 3205   1.454   0.560   9.071 -2.9087 -0.9724  0.0521
  207MPD1     N 3206   1.337   0.287   9.392 -0.4745  0.4515 -0.0819
  207MPD1    H5 3207   1.248   0.334   9.383 -0.8978 -0.3550 -0.1548
  207MPD1    N1 3208   1.798   0.309   9.238  0.0400  0.4129 -0.3462
  207MPD1    H6 3209   1.859   0.367   9.180 -0.0656  0.5321 -0.3387
  207MPD1    H7 3210   1.839   0.285   9.328  1.2220 -1.3415 -1.3563
  208MPD1     C 3211   3.757   2.926  17.231  0.0825 -0.4794  0.5845
  208MPD1    C1 3212   3.676   2.857  17.322 -0.1175  0.1678  0.5207
  208MPD1    C2 3213   3.691   2.885  17.455  0.0630 -0.2908  0.3554
  208MPD1    C3 3214   3.803   2.950  17.500  0.3363  0.1562  0.1275
  208MPD1    C4 3215   3.894   2.995  17.407  0.1991 -0.7140 -0.0634
  208MPD1    C5 3216   3.867   2.984  17.275 -0.6626 -0.5417  0.5230
  208MPD1     H 3217   3.618   2.854  17.529  0.7113 -1.0428  0.6783
  208MPD1    H1 3218   3.967   3.070  17.436 -2.1934  0.9838  1.6040
  208MPD1    H2 3219   3.745   2.914  17.124 -1.2828  0.7340  0.6052
  208MPD1    H3 3220   3.921   3.042  17.201  0.0142 -0.4376  1.0884
  208MPD1     N 3221   3.818   2.972  17.641 -0.5868 -0.1159 -0.2132
  208MPD1    H5 3222   3.752   2.926  17.703 -1.4306  1.4226  0.0170
  208MPD1    N1 3223   3.560   2.783  17.286 -0.1351 -0.4963  0.0095
  208MPD1    H6 3224   3.570   2.742  17.193  0.3911 -0.6651  0.1395
  208MPD1    H7 3225   3.543   2.710  17.355 -1.9364  1.3731  1.5417
  209MPD1     C 3226   1.041   3.371  10.061  0.0137 -0.2742  0.3836
  209MPD1    C1 3227   1.028   3.437   9.944 -0.4583  0.5101 -0.3121
  209MPD1    C2 3228   0.945   3.546   9.936  0.0334 -0.4251 -0.2472
  209MPD1    C3 3229   0.885   3.584  10.059  0.3407  0.5778  0.2162
  209MPD1    C4 3230   0.911   3.522  10.175  0.1140  0.3302 -0.2473
  209MPD1    C5 3231   0.978   3.406  10.176 -0.6527 -0.3277 -0.2085
  209MPD1     H 3232   0.937   3.602   9.844 -0.0432 -2.2955 -1.3847
  209MPD1    H1 3233   0.866   3.544  10.272  0.2543 -2.8101  0.5542
  209MPD1    H2 3234   1.101   3.280  10.060  2.0156  1.0456  0.7297
  209MPD1    H3 3235   0.980   3.339  10.262  3.0333 -0.8288 -0.6482
  209MPD1     N 3236   0.820   3.709  10.063 -0.5015 -0.6830  0.4729
  209MPD1    H5 3237   0.812   3.756   9.973  2.0915  2.7737  2.0184
  209MPD1    N1 3238   1.079   3.381   9.820  0.0280 -0.4524 -0.2627
  209MPD1    H6 3239   1.075   3.446   9.742 -3.1339  1.1886  1.2381
  209MPD1    H7 3240   1.169   3.334   9.830 -0.3018 -1.0342 -0.0036
  210MPD1     C 3241   0.507   4.427  10.724 -0.2647  0.5726 -0.1964
  210MPD1    C1 3242   0.435   4.448  10.608 -0.2734  0.4019  0.8476
  210MPD1    C2 3243   0.458   4.371  10.497  0.6970  0.4213  1.1851
  210MPD1    C3 3244   0.566   4.280  10.498  0.2367 -0.0807 -0.0334
  210MPD1    C4 3245   0.641   4.273  10.607 -0.3762 -0.0270 -0.5043
  210MPD1    C5 3246   0.610   4.340  10.725  0.2315  0.8834  0.0442
  210MPD1     H 3247   0.397   4.379  10.408  2.5589  0.7371 -0.0752
  210MPD1    H1 3248   0.724   4.203  10.609  0.2365  0.6863 -0.6362
  210MPD1    H2 3249   0.483   4.479  10.816 -1.4288  1.5194 -1.0330
  210MPD1    H3 3250   0.675   4.326  10.811 -0.8282  0.9366  0.8479
  210MPD1     N 3251   0.602   4.205  10.382  0.1951  0.6799 -0.1185
  210MPD1    H5 3252   0.678   4.139  10.397 -1.3873 -1.1782 -0.4815
  210MPD1    N1 3253   0.323   4.535  10.611  0.4454 -0.3690  0.2435
  210MPD1    H6 3254   0.339   4.610  10.678  1.3990  1.1134 -1.5969
  210MPD1    H7 3255   0.293   4.571  10.520 -3.2696 -1.0788  1.1926
  211MPD1     C 3256   3.214   3.026  16.973 -0.3037  0.1058  0.7679
  211MPD1    C1 3257   3.272   3.133  17.037  0.2571 -0.4397  0.2567
  211MPD1    C2 3258   3.246   3.263  16.982  0.0308 -0.2668  1.2517
  211MPD1    C3 3259   3.155   3.289  16.881 -0.1836  0.4994 -0.1126
  211MPD1    C4 3260   3.091   3.178  16.826  0.1856 -0.6516 -0.2900
  211MPD1    C5 3261   3.121   3.053  16.872 -0.1604  0.0505 -0.4842
  211MPD1     H 3262   3.295   3.347  17.028 -0.8010  0.9843 -0.1468
  211MPD1    H1 3263   3.024   3.183  16.740  0.9118 -0.7636 -0.8623
  211MPD1    H2 3264   3.233   2.921  16.996  2.3492  0.1954 -0.9555
  211MPD1    H3 3265   3.084   2.966  16.818 -1.0236 -0.1637  0.4581
  211MPD1     N 3266   3.135   3.421  16.836  0.9889  0.3666  0.5388
  211MPD1    H5 3267   3.180   3.498  16.884 -0.4412  2.8990 -2.1497
  211MPD1    N1 3268   3.375   3.110  17.131  0.0130 -0.4784  0.5438
  211MPD1    H6 3269   3.375   3.171  17.212 -1.1691 -1.0651  0.9772
  211MPD1    H7 3270   3.370   3.015  17.168 -0.8987 -0.4857  0.4206
  212MPD1     C 3271   2.625   2.416  16.445 -0.0567 -0.6720 -0.4765
  212MPD1    C1 3272   2.552   2.461  16.553 -1.2364  0.4911  0.1384
  212MPD1    C2 3273   2.493   2.365  16.640  0.2223  0.3221 -0.1495
  212MPD1    C3 3274   2.511   2.232  16.602  0.0158 -0.4419  0.3508
  212MPD1    C4 3275   2.584   2.195  16.500 -0.7241  1.1417 -0.1145
  212MPD1    C5 3276   2.644   2.284  16.413 -0.5805 -0.0934  0.4859
  212MPD1     H 3277   2.426   2.393  16.721 -0.6385 -0.6716 -0.5264
  212MPD1    H1 3278   2.593   2.088  16.484 -0.6505  1.2075 -0.5073
  212MPD1    H2 3279   2.659   2.498  16.383 -0.1282  1.5035  2.4102
  212MPD1    H3 3280   2.708   2.245  16.335  1.4786 -0.0709  2.1707
  212MPD1     N 3281   2.453   2.124  16.675  0.1697 -0.5009  0.0074
  212MPD1    H5 3282   2.479   2.029  16.651  2.4066  0.0633  0.1531
  212MPD1    N1 3283   2.558   2.596  16.596 -0.3166 -0.1481  0.0158
  212MPD1    H6 3284   2.478   2.633  16.647 -2.6325 -2.7370 -1.7430
  212MPD1    H7 3285   2.571   2.661  16.519 -1.5461  0.5545  0.3885
  213MPD1     C 3286   0.254   2.784  15.997  0.1049 -0.0604 -0.4395
  213MPD1    C1 3287   0.255   2.669  15.916 -0.2097 -0.2187  0.2719
  213MPD1    C2 3288   0.245   2.703  15.778  0.3958 -0.4818  0.2636
  213MPD1    C3 3289   0.279   2.822  15.725 -0.0536 -0.9244 -0.4489
  213MPD1    C4 3290   0.324   2.922  15.804  0.4788 -0.2014 -0.2929
  213MPD1    C5 3291   0.303   2.900  15.942  0.1374  0.9057 -0.0146
  213MPD1     H 3292   0.203   2.630  15.710  0.5039 -1.7627  1.5681
  213MPD1    H1 3293   0.360   3.021  15.777  0.5225  0.0404  0.6324
  213MPD1    H2 3294   0.243   2.785  16.105  0.7156 -2.1285 -0.3566
  213MPD1    H3 3295   0.312   2.986  16.009 -0.4534 -0.5362  1.9244
  213MPD1     N 3296   0.264   2.844  15.588  0.6866  0.1511  0.3987
  213MPD1    H5 3297   0.203   2.781  15.536  0.0531  1.0617  0.0525
  213MPD1    N1 3298   0.189   2.550  15.961  0.2126  0.5854  0.0926
  213MPD1    H6 3299   0.211   2.530  16.059 -2.3682  1.1756  0.7850
  213MPD1    H7 3300   0.228   2.477  15.902 -0.4382  0.3819 -0.0915
  214MPD1     C 3301   4.294   2.725  15.207  0.3224 -0.7200 -0.7182
  214MPD1    C1 3302   4.369   2.774  15.099  0.0053  0.3568  0.3946
  214MPD1    C2 3303   4.505   2.796  15.112 -0.0029 -0.3717  0.1665
  214MPD1    C3 3304   4.572   2.748  15.224  0.1571  0.5180  0.1458
  214MPD1    C4 3305   4.498   2.694  15.325 -0.2159 -0.0021  0.5556
  214MPD1    C5 3306   4.360   2.682  15.316  0.6110  0.4293 -0.7905
  214MPD1     H 3307   4.551   2.852  15.031 -0.5495 -0.9083 -0.5187
  214MPD1    H1 3308   4.547   2.654  15.413 -1.0810 -0.8725  0.6497
  214MPD1    H2 3309   4.186   2.729  15.201  0.3347 -1.1378 -1.2169
  214MPD1    H3 3310   4.302   2.643  15.399  2.0099  0.3544  0.1624
  214MPD1     N 3311   4.707   2.764  15.246 -0.3202 -0.2804  0.2575
  214MPD1    H5 3312   0.015   2.734  15.332 -2.5566  0.9124  1.8407
  214MPD1    N1 3313   4.306   2.826  14.987 -0.1526  0.0532  0.3721
  214MPD1    H6 3314   4.213   2.802  14.953  0.2959  0.1158 -0.8842
  214MPD1    H7 3315   4.370   2.836  14.909 -0.0370  1.0594  0.5975
  215MPD1     C 3316   0.249   3.891  10.267  0.7570 -0.2230 -0.1426
  215MPD1    C1 3317   0.164   3.988  10.296 -0.2858  0.2645  0.7780
  215MPD1    C2 3318   0.168   4.047  10.422  0.0005 -0.5994  0.0666
  215MPD1    C3 3319   0.266   4.020  10.516  0.1054 -0.6769 -0.5065
  215MPD1    C4 3320   0.350   3.914  10.488 -0.0670  0.9073  0.2399
  215MPD1    C5 3321   0.346   3.859  10.359  0.1705 -0.2718 -0.1455
  215MPD1     H 3322   0.106   4.135  10.437 -0.3074 -0.5330 -1.4975
  215MPD1    H1 3323   0.429   3.886  10.558 -0.5903  2.8208  1.5853
  215MPD1    H2 3324   0.256   3.838  10.173  1.1830 -0.4502  0.0185
  215MPD1    H3 3325   0.416   3.779  10.334  0.7351  0.0617  0.3806
  215MPD1     N 3326   0.275   4.092  10.635  0.0218  0.0532  0.0973
  215MPD1    H5 3327   0.208   4.168  10.647  1.0542  1.0399 -0.4241
  215MPD1    N1 3328   0.064   4.023  10.210  0.0333 -0.0192  0.0033
  215MPD1    H6 3329   0.079   4.037  10.111 -1.5388 -2.1537 -0.5423
  215MPD1    H7 3330   0.009   4.106  10.231  2.5448  1.8357 -0.8521
  216MPD1     C 3331   2.639   1.991  17.137 -0.3464 -0.2859 -0.7509
  216MPD1    C1 3332   2.692   1.865  17.111 -0.4509 -0.1704 -0.8368
  216MPD1    C2 3333   2.620   1.755  17.158 -0.4050 -0.2975 -0.2103
  216MPD1    C3 3334   2.511   1.767  17.233 -0.0758 -0.3155 -0.3404
  216MPD1    C4 3335   2.454   1.894  17.257 -0.5957 -0.1148  0.2311
  216MPD1    C5 3336   2.524   2.004  17.206  0.4710  0.1267  0.1955
  216MPD1     H 3337   2.650   1.655  17.131  2.0137  0.4710 -0.3241
  216MPD1    H1 3338   2.370   1.912  17.322 -1.4514 -1.5221 -0.4808
  216MPD1    H2 3339   2.692   2.082  17.110  2.8534 -1.9957 -0.2714
  216MPD1    H3 3340   2.486   2.103  17.229 -0.3572 -0.3318  0.7761
  216MPD1     N 3341   2.450   1.654  17.290 -1.3478 -0.1848  0.0664
  216MPD1    H5 3342   2.492   1.563  17.272 -2.3204 -0.6548  0.1856
  216MPD1    N1 3343   2.814   1.855  17.029 -0.1412  0.7801 -0.2760
  216MPD1    H6 3344   2.889   1.914  17.065 -0.8197  0.6410  1.3872
  216MPD1    H7 3345   2.846   1.759  17.020  1.1407  1.0873  0.9743
  217MPD1     C 3346   2.807   3.409   8.352 -0.1698  0.4737  0.5721
  217MPD1    C1 3347   2.689   3.448   8.413 -0.5945  0.2515  0.8053
  217MPD1    C2 3348   2.660   3.412   8.543 -0.2084  0.7537  0.5101
  217MPD1    C3 3349   2.757   3.346   8.616  0.1342 -0.3246 -0.9142
  217MPD1    C4 3350   2.874   3.313   8.555 -0.2998 -0.2647 -0.2849
  217MPD1    C5 3351   2.899   3.348   8.425  0.2470  0.3894  1.0866
  217MPD1     H 3352   2.568   3.442   8.591 -0.5179  2.1254 -0.9444
  217MPD1    H1 3353   2.946   3.263   8.618  2.8673  1.4682 -2.5734
  217MPD1    H2 3354   2.826   3.431   8.248  3.0139  2.2214  1.5426
  217MPD1    H3 3355   2.999   3.318   8.397 -0.6018 -3.0795  1.6482
  217MPD1     N 3356   2.752   3.318   8.760  0.4689 -0.4391  0.4020
  217MPD1    H5 3357   2.821   3.259   8.806  1.0057  1.6093  2.2146
  217MPD1    N1 3358   2.595   3.513   8.338 -0.3438  0.0963 -0.5346
  217MPD1    H6 3359   2.622   3.555   8.249  1.9479 -0.0957  0.0567
  217MPD1    H7 3360   2.544   3.584   8.389  0.6985 -1.5209  2.7433
  218MPD1     C 3361   4.401   4.280  13.252 -0.3496  0.6204 -0.6694
  218MPD1    C1 3362   4.361   4.356  13.152 -0.5682  0.4713 -0.0300
  218MPD1    C2 3363   4.440   4.347  13.032  0.2883  0.5169  0.7876
  218MPD1    C3 3364   4.562   4.282  13.034  0.2842 -0.4506 -0.7852
  218MPD1    C4 3365   4.607   4.223  13.148 -0.6255 -0.1013 -0.0864
  218MPD1    C5 3366   4.530   4.223  13.255 -0.1025 -0.5444 -0.3159
  218MPD1     H 3367   4.407   4.395  12.941 -2.0542  2.0258  2.4534
  218MPD1    H1 3368   4.704   4.174  13.147 -0.4352  0.2204  2.2765
  218MPD1    H2 3369   4.350   4.255  13.344  1.3279 -2.4676 -0.5845
  218MPD1    H3 3370   4.577   4.172  13.338  1.1438 -0.5367 -1.0206
  218MPD1     N 3371   4.642   4.267  12.922 -0.2385  0.0138 -0.7432
  218MPD1    H5 3372   4.707   4.191  12.935  2.0580  2.4106  1.8407
  218MPD1    N1 3373   4.236   4.425  13.165 -0.5472 -0.0489 -0.1421
  218MPD1    H6 3374   4.227   4.496  13.093 -1.1739 -1.1174 -1.1318
  218MPD1    H7 3375   4.237   4.467  13.257  0.0719  0.5689 -0.4362
  219MPD1     C 3376   0.118   0.011  12.045 -0.1824 -0.5406  0.0121
  219MPD1    C1 3377   0.239   4.690  12.091 -0.1531  0.1941  0.0154
  219MPD1    C2 3378   0.226   4.602  12.198  0.4916  0.1795 -0.5692
  219MPD1    C3 3379   0.095   4.560  12.241  1.0763 -0.1801 -1.1243
  219MPD1    C4 3380   4.720   4.622  12.189  0.2888 -0.5307 -0.5482
  219MPD1    C5 3381   4.731   4.724  12.098  0.0419  0.0374 -0.5282
  219MPD1     H 3382   0.317   4.568  12.245  0.4387 -2.2602 -2.1910
  219MPD1    H1 3383   4.622   4.586  12.218  0.9419 -2.0862 -0.2920
  219MPD1    H2 3384   0.134   0.078  11.961  3.7838 -0.2727  1.0006
  219MPD1    H3 3385   4.638   0.033  12.071 -0.0278  0.3579  0.2534
  219MPD1     N 3386   0.074   4.477  12.360 -0.0093  0.4201 -0.2011
  219MPD1    H5 3387   4.715   4.458  12.385  0.4565  0.0488  1.3080
  219MPD1    N1 3388   0.361   4.698  12.033  0.2197 -0.3241  0.3899
  219MPD1    H6 3389   0.362   4.614  11.976 -0.5014 -0.0619 -0.0055
  219MPD1    H7 3390   0.430   4.685  12.107  1.9587 -0.4960 -1.2586
  220MPD1     C 3391   4.153   4.652   9.717 -0.1141  0.1980  0.1768
  220MPD1    C1 3392   4.027   4.645   9.765  0.4690  0.5652 -0.0528
  220MPD1    C2 3393   4.009   4.608   9.895 -0.0673  0.4563 -0.0989
  220MPD1    C3 3394   4.109   4.554   9.969  0.1711 -0.4493  0.9463
  220MPD1    C4 3395   4.236   4.548   9.907  0.2010 -0.5902  1.0651
  220MPD1    C5 3396   4.256   4.602   9.785 -0.2147  0.0330 -0.0545
  220MPD1     H 3397   3.913   4.605   9.944 -0.7668 -1.2798 -1.5681
  220MPD1    H1 3398   4.327   4.505   9.948  0.7219 -0.7228 -0.2235
  220MPD1    H2 3399   4.178   4.688   9.618  1.8645 -0.5597  0.4020
  220MPD1    H3 3400   4.351   4.570   9.744 -1.4325 -0.2056 -2.6563
  220MPD1     N 3401   4.082   4.503  10.097  0.6425  0.1271 -1.0377
  220MPD1    H5 3402   3.985   4.518  10.124  1.6375  1.4014  1.9125
  220MPD1    N1 3403   3.915   4.691   9.689 -0.0239  0.3269  0.9266
  220MPD1    H6 3404   3.932   4.688   9.589 -1.2409  1.6995  0.6780
  220MPD1    H7 3405   3.819   4.663   9.709 -0.5707  0.6777 -1.2186
  221MPD1     C 3406   3.064   3.700  16.196 -0.1475  0.7562  0.0621
  221MPD1    C1 3407   3.002   3.652  16.085  0.5584 -0.1607 -0.1111
  221MPD1    C2 3408   2.947   3.523  16.090  0.3692 -0.1545 -0.4217
  221MPD1    C3 3409   2.938   3.452  16.206  0.4808  0.6968 -0.0777
  221MPD1    C4 3410   2.989   3.505  16.321 -0.7080  0.7122 -0.0853
  221MPD1    C5 3411   3.057   3.627  16.316  0.9406  0.1538  0.5766
  221MPD1     H 3412   2.912   3.478  15.997 -1.8714 -0.2996  0.5007
  221MPD1    H1 3413   3.002   3.457  16.417 -0.4141  1.1091  0.0736
  221MPD1    H2 3414   3.128   3.787  16.189  0.9168  0.0943  1.5964
  221MPD1    H3 3415   3.115   3.660  16.402  1.4294  1.9672 -0.4552
  221MPD1     N 3416   2.875   3.320  16.215 -0.4672 -0.8888  0.1756
  221MPD1    H5 3417   2.881   3.279  16.307 -2.6863 -0.8462  0.3391
  221MPD1    N1 3418   3.007   3.718  15.962  0.0281 -0.1280  0.2078
  221MPD1    H6 3419   3.038   3.814  15.973 -1.4954  0.5242 -1.1320
  221MPD1    H7 3420   2.926   3.706  15.902  0.8341  1.3208 -1.1551
  222MPD1     C 3421   1.866   1.482  17.527  0.1505  0.2088 -0.1211
  222MPD1    C1 3422   1.950   1.585  17.488 -0.6842  0.3319 -0.1543
  222MPD1    C2 3423   2.000   1.670  17.585  0.8845 -0.5546 -0.5195
  222MPD1    C3 3424   2.000   1.639  17.720  0.0196  0.3011  0.1935
  222MPD1    C4 3425   1.929   1.526   0.002  0.0982 -0.1297  1.2057
  222MPD1    C5 3426   1.854   1.449  17.660  0.1137  0.2644  0.6735
  222MPD1     H 3427   2.056   1.753  17.544  0.6887  0.0169  0.3564
  222MPD1    H1 3428   1.914   1.502   0.106  0.4076  1.6193  1.6481
  222MPD1    H2 3429   1.822   1.413  17.457 -1.6395  3.2068 -1.9375
  222MPD1    H3 3430   1.803   1.357  17.689 -1.0624  1.1778  1.4816
  222MPD1     N 3431   2.054   1.712   0.084 -0.2186 -0.1908  0.6867
  222MPD1    H5 3432   2.078   1.663   0.170  2.3612 -1.3966 -0.7084
  222MPD1    N1 3433   1.949   1.621  17.353  0.5015 -0.2836  0.2596
  222MPD1    H6 3434   1.968   1.543  17.290 -1.0973  1.5893 -2.5765
  222MPD1    H7 3435   2.018   1.691  17.329  0.5496 -0.3544  0.1913
  223MPD1     C 3436   2.123   1.510   0.896 -0.0927 -0.3108  0.4542
  223MPD1    C1 3437   2.078   1.639   0.904  0.2725 -0.3791  0.3852
  223MPD1    C2 3438   2.080   1.722   0.791 -0.7688 -0.1409  0.3754
  223MPD1    C3 3439   2.139   1.679   0.675 -0.3244  0.1067  0.2550
  223MPD1    C4 3440   2.183   1.555   0.675 -0.4345  0.7767  0.4043
  223MPD1    C5 3441   2.178   1.470   0.781 -0.0006  0.0520  0.5156
  223MPD1     H 3442   2.029   1.817   0.795  0.4788  0.5503 -0.3066
  223MPD1    H1 3443   2.221   1.510   0.584  0.3993  1.3059  0.4956
  223MPD1    H2 3444   2.116   1.440   0.979  1.2063  0.6617  1.3886
  223MPD1    H3 3445   2.216   1.370   0.766  1.5430  0.3696  2.2411
  223MPD1     N 3446   2.166   1.753   0.565 -0.5844  0.1696 -0.4382
  223MPD1    H5 3447   2.209   1.705   0.487 -3.3138  0.9483 -2.4359
  223MPD1    N1 3448   2.032   1.683   1.031  0.3383  0.1394  0.2167
  223MPD1    H6 3449   1.989   1.613   1.092  0.8659 -0.4460 -0.0790
  223MPD1    H7 3450   1.991   1.775   1.036 -0.2987  0.0181 -2.9174
  224MPD1     C 3451   2.579   3.678   9.027  0.3872  0.3449  0.3611
  224MPD1    C1 3452   2.473   3.729   9.099 -0.6656 -0.7689  0.4419
  224MPD1    C2 3453   2.502   3.788   9.221 -0.5781 -0.1039 -0.5393
  224MPD1    C3 3454   2.625   3.780   9.275  0.3841 -0.3307  0.1080
  224MPD1    C4 3455   2.729   3.726   9.206 -0.4035 -0.2802  0.4934
  224MPD1    C5 3456   2.704   3.678   9.079 -0.4663 -0.5924  0.1669
  224MPD1     H 3457   2.426   3.840   9.278  2.0007  1.9114  1.0443
  224MPD1    H1 3458   2.831   3.712   9.241  0.1470 -1.5282 -1.5758
  224MPD1    H2 3459   2.559   3.632   8.931 -0.1257 -0.1934  0.7321
  224MPD1    H3 3460   2.784   3.628   9.024  0.3132  1.5254 -0.6380
  224MPD1     N 3461   2.655   3.822   9.406  0.8675  0.1042 -0.5544
  224MPD1    H5 3462   2.751   3.809   9.437  0.8060  1.6590  0.2655
  224MPD1    N1 3463   2.353   3.733   9.029  0.2889 -0.1728 -0.1060
  224MPD1    H6 3464   2.343   3.659   8.960 -0.0267 -0.7119  0.5090
  224MPD1    H7 3465   2.269   3.741   9.087 -0.2206 -2.2447 -0.5297
  225MPD1     C 3466   0.021   0.226  12.890  0.9377  0.7050 -0.1811
  225MPD1    C1 3467   4.680   0.249  12.999  0.3963  1.1161 -0.2079
  225MPD1    C2 3468   4.544   0.283  12.965 -0.4699 -0.0029 -0.1313
  225MPD1    C3 3469   4.491   0.285  12.839  0.0545  0.4105  0.2003
  225MPD1    C4 3470   4.570   0.253  12.734 -0.1252 -0.0987 -0.4103
  225MPD1    C5 3471   4.703   0.221  12.760  1.0035  0.6361 -0.2992
  225MPD1     H 3472   4.474   0.306  13.045  0.3467 -1.7133  1.0662
  225MPD1    H1 3473   4.530   0.246  12.633 -1.5943 -1.1339  0.2386
  225MPD1    H2 3474   0.123   0.194  12.907  1.3543  1.3673 -1.3673
  225MPD1    H3 3475   0.032   0.196  12.678 -0.3296 -1.4463 -0.7210
  225MPD1     N 3476   4.359   0.327  12.813 -0.8436 -0.1335 -0.0566
  225MPD1    H5 3477   4.327   0.330  12.717  0.2515 -1.0491 -0.4491
  225MPD1    N1 3478   4.733   0.279  13.122  0.1960  0.1841 -0.2113
  225MPD1    H6 3479   0.071   0.214  13.146 -0.1143 -0.4533 -0.9439
  225MPD1    H7 3480   4.676   0.288  13.206 -1.2661  0.6242 -1.2570
  226MPD1     C 3481   2.605   1.154   9.138 -0.4352 -0.2969 -0.1900
  226MPD1    C1 3482   2.518   1.068   9.194  0.3144 -0.0031  0.2944
  226MPD1    C2 3483   2.560   0.984   9.298 -0.1166 -0.1495  0.3559
  226MPD1    C3 3484   2.691   0.989   9.337 -0.1215  0.0114  0.1532
  226MPD1    C4 3485   2.775   1.081   9.281 -0.7475  0.0954  0.4755
  226MPD1    C5 3486   2.734   1.161   9.181 -0.3506  0.4178 -0.3858
  226MPD1     H 3487   2.495   0.907   9.339 -0.1804 -1.3174 -1.9150
  226MPD1    H1 3488   2.877   1.099   9.315 -0.3918  0.9262 -1.0299
  226MPD1    H2 3489   2.576   1.215   9.053  0.8991 -1.9237 -1.8220
  226MPD1    H3 3490   2.796   1.239   9.137  1.0464 -1.4250 -1.6429
  226MPD1     N 3491   2.720   0.898   9.440  0.4451 -0.4876 -0.3843
  226MPD1    H5 3492   2.643   0.840   9.471 -0.8514  0.3801 -1.9482
  226MPD1    N1 3493   2.392   1.062   9.136 -0.5112 -1.0534  0.4737
  226MPD1    H6 3494   2.373   1.129   9.062  2.0086 -2.1528 -1.1662
  226MPD1    H7 3495   2.317   1.050   9.204 -0.3447 -1.5244  0.5732
  227MPD1     C 3496   2.100   0.486   9.764 -0.7015 -0.6328 -0.2611
  227MPD1    C1 3497   2.135   0.617   9.785  0.3340  0.0732  0.2257
  227MPD1    C2 3498   2.264   0.647   9.773 -0.0847  0.0571  0.5337
  227MPD1    C3 3499   2.361   0.552   9.758 -0.8817  0.3768 -0.0375
  227MPD1    C4 3500   2.325   0.419   9.756 -0.6290  0.2245  0.4622
  227MPD1    C5 3501   2.193   0.386   9.759 -0.0883 -0.1788 -0.5105
  227MPD1     H 3502   2.291   0.749   9.797  0.6539 -0.0129  0.0097
  227MPD1    H1 3503   2.393   0.336   9.749  0.1256  0.8784  0.0775
  227MPD1    H2 3504   1.997   0.453   9.777 -0.0248 -2.2259  1.0144
  227MPD1    H3 3505   2.159   0.285   9.743  0.5581 -0.5587  0.5141
  227MPD1     N 3506   2.499   0.593   9.757 -1.0616 -0.4044 -0.3776
  227MPD1    H5 3507   2.517   0.693   9.750  0.1934 -0.6514 -0.6570
  227MPD1    N1 3508   2.042   0.719   9.764  0.0004  0.6249 -0.2142
  227MPD1    H6 3509   1.946   0.690   9.777  0.8306 -1.0408  2.1518
  227MPD1    H7 3510   2.067   0.802   9.818 -0.7284  0.6112  0.1329
  228MPD1     C 3511   1.968   2.929  12.786 -0.3498  0.3056  0.0553
  228MPD1    C1 3512   1.887   2.975  12.680 -0.3672  0.0712 -0.3378
  228MPD1    C2 3513   1.752   2.952  12.682  0.6930  0.3645 -0.4439
  228MPD1    C3 3514   1.689   2.909  12.797 -0.2537  0.3428  0.7680
  228MPD1    C4 3515   1.769   2.888  12.911 -0.1977 -0.2648 -0.2422
  228MPD1    C5 3516   1.903   2.895  12.902 -0.8104 -0.5119 -0.1426
  228MPD1     H 3517   1.692   2.981  12.597  0.9585 -0.1763 -0.8201
  228MPD1    H1 3518   1.732   2.843  13.002 -2.1694  0.8792 -0.4738
  228MPD1    H2 3519   2.076   2.940  12.790 -0.3524  0.8261 -1.3348
  228MPD1    H3 3520   1.960   2.886  12.993 -2.1414 -0.7000  0.6663
  228MPD1     N 3521   1.548   2.878  12.791  0.2096 -0.3925 -0.1523
  228MPD1    H5 3522   1.511   2.866  12.697 -2.1232 -0.2709  0.7535
  228MPD1    N1 3523   1.946   3.002  12.556 -0.5857  0.5569 -0.3801
  228MPD1    H6 3524   1.893   3.069  12.500  1.3257  3.3672  1.1498
  228MPD1    H7 3525   2.034   3.053  12.563 -0.6381  0.2693  2.3674
  229MPD1     C 3526   0.746   0.967  14.880  0.5584  0.4246 -1.2628
  229MPD1    C1 3527   0.797   1.077  14.953 -0.0986 -0.2818  0.8906
  229MPD1    C2 3528   0.925   1.056  15.003  0.0563  0.0080 -0.0012
  229MPD1    C3 3529   1.011   0.952  14.965  0.5436 -0.1798 -0.1804
  229MPD1    C4 3530   0.951   0.862  14.867  0.2318  0.3147 -0.5177
  229MPD1    C5 3531   0.822   0.860  14.835  0.2488 -0.4276  0.0668
  229MPD1     H 3532   0.957   1.134  15.071 -2.6159  1.5809 -0.5742
  229MPD1    H1 3533   1.003   0.771  14.841 -1.1315 -0.2715 -1.1595
  229MPD1    H2 3534   0.639   0.976  14.861  0.2583  0.7024  0.5464
  229MPD1    H3 3535   0.766   0.787  14.777 -0.5606 -1.6532  2.3918
  229MPD1     N 3536   1.145   0.929  15.008 -0.0290  0.0304  0.1864
  229MPD1    H5 3537   1.193   0.868  14.942  0.9693 -0.7576  1.6331
  229MPD1    N1 3538   0.714   1.166  15.012  0.2818  0.4092 -0.0872
  229MPD1    H6 3539   0.643   1.201  14.948  1.1117 -0.4335 -1.4820
  229MPD1    H7 3540   0.774   1.242  15.045 -3.2261  3.4048 -0.5801
  230MPD1     C 3541   1.658   1.472  15.700  0.6881  0.1456 -0.1730
  230MPD1    C1 3542   1.593   1.514  15.582 -0.4127  0.0194  1.4182
  230MPD1    C2 3543   1.556   1.415  15.499  0.9612  0.3447  0.0767
  230MPD1    C3 3544   1.595   1.280  15.505 -0.7153  0.0195  0.7021
  230MPD1    C4 3545   1.665   1.247  15.620  0.1279  0.0960  0.6719
  230MPD1    C5 3546   1.702   1.339  15.713 -0.2136 -0.0691 -0.6464
  230MPD1     H 3547   1.500   1.452  15.413  0.6237  2.8191  1.3647
  230MPD1    H1 3548   1.693   1.145  15.645 -1.6948 -0.4165  0.5982
  230MPD1    H2 3549   1.689   1.537  15.781 -0.0812 -0.2648  0.4470
  230MPD1    H3 3550   1.763   1.312  15.798  0.8035  0.7311 -1.1166
  230MPD1     N 3551   1.552   1.183  15.410 -0.5088 -0.2651  0.7631
  230MPD1    H5 3552   1.486   1.219  15.341  0.0890  0.5324  0.6094
  230MPD1    N1 3553   1.538   1.646  15.572 -0.0790 -0.2948 -0.1801
  230MPD1    H6 3554   1.511   1.684  15.482  0.3636 -3.0565 -1.4992
  230MPD1    H7 3555   1.593   1.720  15.617 -0.8425 -0.0240  0.3103
  231MPD1     C 3556   4.600   3.020  15.683  0.1728 -0.6344 -0.0772
  231MPD1    C1 3557   4.525   3.035  15.561  0.8771 -0.0396 -1.0480
  231MPD1    C2 3558   4.595   3.076  15.453  0.8534 -0.4625 -0.4210
  231MPD1    C3 3559   4.722   3.130  15.468  0.0247 -0.1634  0.4755
  231MPD1    C4 3560   0.058   3.114  15.591  0.2455  0.3387 -0.0347
  231MPD1    C5 3561   4.730   3.062  15.695  0.3131  0.6686  0.2382
  231MPD1     H 3562   4.540   3.088  15.361  2.1791  2.1745 -0.8567
  231MPD1    H1 3563   0.160   3.152  15.593  0.8655 -1.2606 -1.8042
  231MPD1    H2 3564   4.549   2.975  15.767  0.1607  0.5365  0.5288
  231MPD1    H3 3565   0.039   3.059  15.793  0.0792  1.2567  0.3669
  231MPD1     N 3566   0.040   3.206  15.363 -0.4090 -0.1079 -0.2444
  231MPD1    H5 3567   4.735   3.214  15.272 -0.6121  0.1791 -0.1274
  231MPD1    N1 3568   4.404   2.969  15.551 -0.2333  0.1908 -0.3095
  231MPD1    H6 3569   4.348   3.007  15.475 -0.3031  0.3557 -0.1754
  231MPD1    H7 3570   4.345   2.959  15.634  0.4743  2.1923  0.4440
  232MPD1     C 3571   1.812   1.009   0.126  0.1859  0.4936  0.6701
  232MPD1    C1 3572   1.728   0.999   0.236 -0.1155 -0.0634  0.2683
  232MPD1    C2 3573   1.662   0.876   0.238 -0.1542 -0.4432 -0.3666
  232MPD1    C3 3574   1.664   0.782   0.140  0.2696 -0.4958 -0.2136
  232MPD1    C4 3575   1.745   0.803   0.029 -0.0457 -0.6004  0.5449
  232MPD1    C5 3576   1.817   0.918   0.026 -0.0992 -0.4566 -0.2719
  232MPD1     H 3577   1.607   0.845   0.326  0.3263 -1.7041 -0.5142
  232MPD1    H1 3578   1.753   0.736  17.693  0.3977 -0.7961  0.7426
  232MPD1    H2 3579   1.869   1.101   0.117 -0.3045  0.7380  0.0635
  232MPD1    H3 3580   1.883   0.932  17.689  0.8580  0.3149  0.5981
  232MPD1     N 3581   1.587   0.664   0.151  0.3531 -0.0459 -0.0131
  232MPD1    H5 3582   1.545   0.646   0.242 -0.4560  0.4900 -0.2767
  232MPD1    N1 3583   1.744   1.090   0.346  0.0474 -0.9441 -0.0311
  232MPD1    H6 3584   1.660   1.113   0.399  1.6305  0.6588  1.7621
  232MPD1    H7 3585   1.803   1.170   0.324  0.4934 -1.5710 -1.1521
  233MPD1     C 3586   3.058   3.645   0.802  0.6522 -0.0826  0.7691
  233MPD1    C1 3587   3.057   3.650   0.935 -0.4049  0.7196  0.0525
  233MPD1    C2 3588   3.178   3.638   1.001 -0.5485  0.0777 -0.1113
  233MPD1    C3 3589   3.300   3.638   0.928  1.1626  0.7241  0.9427
  233MPD1    C4 3590   3.291   3.632   0.792 -0.0771  0.2079 -0.0579
  233MPD1    C5 3591   3.172   3.636   0.727 -0.3892  1.0403 -0.0197
  233MPD1     H 3592   3.186   3.637   1.109 -1.1407  2.3383 -0.0496
  233MPD1    H1 3593   3.378   3.623   0.728  0.1858  3.3110 -0.1323
  233MPD1    H2 3594   2.964   3.659   0.749  1.6072 -0.1895 -0.9728
  233MPD1    H3 3595   3.171   3.659   0.621  2.0941 -2.5896 -0.8206
  233MPD1     N 3596   3.429   3.635   0.976 -1.0287  0.8826  0.1888
  233MPD1    H5 3597   3.504   3.649   0.909 -1.3000 -1.8594 -0.6998
  233MPD1    N1 3598   2.942   3.668   1.015 -0.2483  0.3536  0.2220
  233MPD1    H6 3599   2.871   3.706   0.953 -0.7209  1.6676  1.5843
  233MPD1    H7 3600   2.967   3.730   1.092 -0.3503  1.4309 -0.6114
  234MPD1     C 3601   4.191   2.905   9.625 -0.4587  0.0262 -0.4739
  234MPD1    C1 3602   4.126   2.932   9.511 -1.2125 -0.2332  0.4845
  234MPD1    C2 3603   4.031   3.028   9.525  0.4193  0.0084  0.2393
  234MPD1    C3 3604   3.987   3.094   9.639  0.0679  0.6362  0.6324
  234MPD1    C4 3605   4.052   3.060   9.759 -0.1724  0.6697 -0.4938
  234MPD1    C5 3606   4.149   2.962   9.745 -0.2456  0.8329  0.0635
  234MPD1     H 3607   3.983   3.046   9.430 -0.2004 -0.9422  0.3721
  234MPD1    H1 3608   4.026   3.095   9.858  0.6940 -1.0143  0.3343
  234MPD1    H2 3609   4.270   2.832   9.636 -0.1132  0.3177 -1.0321
  234MPD1    H3 3610   4.206   2.937   9.834 -0.8417 -0.9325 -0.0542
  234MPD1     N 3611   3.865   3.171   9.636  0.1311  0.1346 -0.0020
  234MPD1    H5 3612   3.828   3.190   9.544 -0.4382 -1.5652 -0.1221
  234MPD1    N1 3613   4.183   2.900   9.392  0.1510  0.0724  0.1496
  234MPD1    H6 3614   4.115   2.905   9.316 -0.7622 -2.0802  0.8307
  234MPD1    H7 3615   4.233   2.812   9.398  2.0402  1.2480  1.4920
  235MPD1     C 3616   0.166   0.038  10.786 -0.2703 -0.3621  0.5610
  235MPD1    C1 3617   0.258   0.086  10.881  0.7562  0.0429  0.3172
  235MPD1    C2 3618   0.331   0.190  10.846  0.0357  0.3611  0.7626
  235MPD1    C3 3619   0.347   0.235  10.716 -0.3666 -0.2577  0.3073
  235MPD1    C4 3620   0.268   0.177  10.620 -0.3211 -0.2319 -0.2882
  235MPD1    C5 3621   0.178   0.082  10.655 -0.4728 -0.3778  0.0258
  235MPD1     H 3622   0.381   0.240  10.928  2.0571  1.1101 -0.8917
  235MPD1    H1 3623   0.274   0.213  10.518  0.0399  3.4348  1.0484
  235MPD1    H2 3624   0.097   4.697  10.815 -2.2991  0.8506 -1.0180
  235MPD1    H3 3625   0.110   0.043  10.580  0.0305 -1.7784  0.2974
  235MPD1     N 3626   0.426   0.344  10.698  0.1174 -0.4145  0.3363
  235MPD1    H5 3627   0.461   0.388  10.782  0.3605 -0.5665  0.3153
  235MPD1    N1 3628   0.230   0.058  11.014 -0.6748  0.2242 -0.2683
  235MPD1    H6 3629   0.318   0.065  11.065  0.1642  0.7385 -1.7734
  235MPD1    H7 3630   0.181   4.707  11.022 -1.1234  0.3742 -1.3478
  236MPD1     C 3631   4.112   1.630   9.944  0.0035 -0.2036 -0.1088
  236MPD1    C1 3632   4.209   1.720   9.933  0.0148 -0.2151  0.2920
  236MPD1    C2 3633   4.330   1.689   9.993 -0.0779  0.3521  0.5633
  236MPD1    C3 3634   4.350   1.565  10.052  0.2050 -0.1584  1.0613
  236MPD1    C4 3635   4.253   1.471  10.044 -0.6351  0.2551 -0.6807
  236MPD1    C5 3636   4.137   1.504   9.988  0.6843  0.2172 -0.5510
  236MPD1     H 3637   4.394   1.776   9.998 -0.0637  0.3007  1.2175
  236MPD1    H1 3638   4.267   1.367  10.071 -0.9338  0.7905  1.5649
  236MPD1    H2 3639   4.014   1.653   9.904  0.0419  0.5145  0.2023
  236MPD1    H3 3640   4.069   1.420   9.989 -0.0899  0.8627  0.3151
  236MPD1     N 3641   4.467   1.531  10.129  0.0591 -0.3404  0.1008
  236MPD1    H5 3642   4.468   1.439  10.171 -1.8892 -0.7299 -0.7365
  236MPD1    N1 3643   4.182   1.846   9.875  0.8644  0.4706 -0.4486
  236MPD1    H6 3644   4.111   1.838   9.802  0.4731 -1.4088  0.1272
  236MPD1    H7 3645   4.266   1.887   9.836  2.0067 -0.7049  0.7584
  237MPD1     C 3646   0.629   4.498  15.040 -0.5406  0.5370  0.0453
  237MPD1    C1 3647   0.611   4.466  15.175 -0.0674  0.1550  0.2421
  237MPD1    C2 3648   0.482   4.445  15.213  0.2440 -0.0638  0.2542
  237MPD1    C3 3649   0.378   4.437  15.118  0.3595  0.0236 -0.1842
  237MPD1    C4 3650   0.406   4.456  14.985  0.2055  0.7579 -1.0692
  237MPD1    C5 3651   0.527   4.495  14.949 -0.0715  0.2667  0.4378
  237MPD1     H 3652   0.454   4.434  15.317  0.8746  0.6220  0.5021
  237MPD1    H1 3653   0.335   4.457  14.903  2.0301 -1.0219 -2.6770
  237MPD1    H2 3654   0.715   4.560  15.015  0.3557 -0.0001  1.7569
  237MPD1    H3 3655   0.545   4.525  14.846 -2.1418 -2.3664 -0.6865
  237MPD1     N 3656   0.242   4.400  15.150  0.0688  0.1513 -0.2888
  237MPD1    H5 3657   0.177   4.376  15.076  0.4861 -0.0006 -0.6041
  237MPD1    N1 3658   0.706   4.508  15.271  0.3591  0.3422 -0.0077
  237MPD1    H6 3659   0.802   4.489  15.242 -0.1187 -1.7502 -0.2900
  237MPD1    H7 3660   0.693   4.449  15.353  1.9750 -0.6336 -0.4409
  238MPD1     C 3661   1.513   2.815  15.554 -0.2525  0.1795  0.1683
  238MPD1    C1 3662   1.568   2.767  15.436  0.0074 -0.7613  0.0848
  238MPD1    C2 3663   1.490   2.766  15.320  0.3089  0.3993 -0.4095
  238MPD1    C3 3664   1.352   2.767  15.330  0.3202  0.3625 -0.0935
  238MPD1    C4 3665   1.298   2.789  15.459  0.3929 -0.1979  0.0797
  238MPD1    C5 3666   1.377   2.818  15.566  0.4299 -0.4806 -0.0191
  238MPD1     H 3667   1.529   2.722  15.229  2.4408 -0.2003  0.7989
  238MPD1    H1 3668   1.190   2.788  15.467  0.7337 -1.9600  4.1778
  238MPD1    H2 3669   1.567   2.842  15.644 -0.2811 -0.6123  0.4208
  238MPD1    H3 3670   1.343   2.843  15.666  1.9288  1.8042 -0.0612
  238MPD1     N 3671   1.254   2.756  15.221 -0.1592 -0.1720  0.5590
  238MPD1    H5 3672   1.155   2.758  15.240 -0.2604  0.4092 -0.0343
  238MPD1    N1 3673   1.707   2.772  15.422 -0.2383  0.0045 -0.0776
  238MPD1    H6 3674   1.752   2.715  15.351 -0.6530  2.0950 -2.0120
  238MPD1    H7 3675   1.761   2.755  15.507 -0.8050  1.7261  0.6273
  239MPD1     C 3676   1.744   3.911  15.317  0.7344  0.5489  0.7405
  239MPD1    C1 3677   1.858   3.983  15.292 -0.3215  0.9610  0.0322
  239MPD1    C2 3678   1.840   4.084  15.195  0.2475 -0.3606 -0.5770
  239MPD1    C3 3679   1.724   4.102  15.119 -0.0463  0.6566 -0.2942
  239MPD1    C4 3680   1.615   4.034  15.160  0.1006  0.4910  0.3818
  239MPD1    C5 3681   1.622   3.938  15.255 -0.3264  0.0944 -0.7200
  239MPD1     H 3682   1.919   4.156  15.176 -2.1911  2.7127  1.0967
  239MPD1    H1 3683   1.521   4.056  15.111 -0.9878  0.1474  2.2812
  239MPD1    H2 3684   1.754   3.826  15.384 -0.3587 -0.0362  0.1681
  239MPD1    H3 3685   1.537   3.883  15.293 -0.5589  0.9122 -0.0603
  239MPD1     N 3686   1.707   4.208  15.020  0.6202 -0.3907 -0.3693
  239MPD1    H5 3687   1.620   4.209  14.967  0.2843 -2.7138  0.1295
  239MPD1    N1 3688   1.984   3.945  15.338  0.6899  0.4179  0.5210
  239MPD1    H6 3689   2.033   4.034  15.335  0.4071  0.4233 -3.3796
  239MPD1    H7 3690   1.982   3.911  15.434 -1.1296 -0.9074  0.0259
  240MPD1     C 3691   1.600   3.798  14.437  0.4647  0.0675  0.4357
  240MPD1    C1 3692   1.607   3.713  14.545  0.1391  0.6054 -0.0438
  240MPD1    C2 3693   1.503   3.637  14.596  0.5887  0.2341 -0.0842
  240MPD1    C3 3694   1.374   3.670  14.548  0.1783 -0.3831  0.0752
  240MPD1    C4 3695   1.370   3.768  14.448 -0.4208  0.8883 -0.4261
  240MPD1    C5 3696   1.477   3.823  14.390  0.7764  0.4705  0.5481
  240MPD1     H 3697   1.513   3.567  14.679  1.2282  0.5215  0.0775
  240MPD1    H1 3698   1.283   3.820  14.410 -0.6982  1.1802  0.5945
  240MPD1    H2 3699   1.677   3.861  14.395 -0.4870  1.1962  0.4119
  240MPD1    H3 3700   1.451   3.900  14.318  0.9606 -0.0934 -0.1237
  240MPD1     N 3701   1.263   3.604  14.604  0.0755 -0.4600 -0.3973
  240MPD1    H5 3702   1.283   3.536  14.676 -0.6443  0.6524  0.8449
  240MPD1    N1 3703   1.734   3.721  14.610 -0.0310 -0.1555 -0.4911
  240MPD1    H6 3704   1.757   3.639  14.665 -1.1265 -1.6076 -2.1882
  240MPD1    H7 3705   1.803   3.728  14.535  0.0016  0.4167 -0.4110
  241MPD1     C 3706   0.973   3.032  15.327  0.8164  0.5708  0.4045
  241MPD1    C1 3707   1.091   3.084  15.283  1.0943 -0.1657  0.5804
  241MPD1    C2 3708   1.094   3.139  15.155 -0.4682 -0.2611  0.0703
  241MPD1    C3 3709   0.974   3.138  15.080  0.0961  0.8769 -0.8923
  241MPD1    C4 3710   0.863   3.078  15.123  0.0885 -0.5496  0.0487
  241MPD1    C5 3711   0.864   3.031  15.249 -0.1202 -0.4514 -0.0929
  241MPD1     H 3712   1.187   3.182  15.120 -0.5747 -1.2724 -1.4833
  241MPD1    H1 3713   0.773   3.076  15.062  0.6831 -0.0200 -0.8392
  241MPD1    H2 3714   0.962   3.002  15.430  2.6409 -2.5417 -0.3096
  241MPD1    H3 3715   0.775   2.981  15.288  0.2295 -1.1566 -0.1909
  241MPD1     N 3716   0.959   3.202  14.953  0.2562 -0.0368 -0.3748
  241MPD1    H5 3717   0.867   3.192  14.911  0.2102 -1.1017  0.0004
  241MPD1    N1 3718   1.198   3.097  15.370  0.6803 -0.1135 -0.7639
  241MPD1    H6 3719   1.209   3.014  15.428  0.5890 -0.4355 -1.2003
  241MPD1    H7 3720   1.285   3.123  15.325 -0.4947  1.5678 -2.0746
  242MPD1     C 3721   0.838   2.325  16.024 -0.4671 -0.4273  0.2842
  242MPD1    C1 3722   0.754   2.335  15.923  0.7116 -0.6378  0.0069
  242MPD1    C2 3723   0.782   2.278  15.797 -0.3420  0.1110 -0.1673
  242MPD1    C3 3724   0.906   2.215  15.771 -0.2083  0.5360  0.3540
  242MPD1    C4 3725   0.999   2.218  15.879 -0.6571 -0.6000 -0.0289
  242MPD1    C5 3726   0.968   2.275  15.999 -0.6321 -0.6390 -0.3622
  242MPD1     H 3727   0.699   2.278  15.728  0.2862 -2.4499 -0.8900
  242MPD1    H1 3728   1.096   2.171  15.862 -0.3314  0.2333 -0.4762
  242MPD1    H2 3729   0.810   2.358  16.123  0.2809 -2.0713  1.0372
  242MPD1    H3 3730   1.046   2.276  16.074 -2.5950 -0.2644  1.6476
  242MPD1     N 3731   0.941   2.153  15.647  0.8085 -0.1098  0.2495
  242MPD1    H5 3732   1.031   2.107  15.641  1.3633  0.9062  0.6805
  242MPD1    N1 3733   0.626   2.385  15.941  0.5624  0.0076 -0.0173
  242MPD1    H6 3734   0.614   2.421  16.035  0.0023 -0.1897 -0.0171
  242MPD1    H7 3735   0.593   2.449  15.869 -0.8909  0.7289  1.2985
  243MPD1     C 3736   2.114   0.686  17.542  0.1013 -0.1474  0.5186
  243MPD1    C1 3737   2.248   0.730  17.539  0.4841  0.2880 -0.0221
  243MPD1    C2 3738   2.341   0.635  17.492  0.2253 -0.6457 -0.7996
  243MPD1    C3 3739   2.311   0.497  17.474  0.1481 -0.5346 -0.3344
  243MPD1    C4 3740   2.184   0.458  17.505 -0.3536  0.3191  0.0422
  243MPD1    C5 3741   2.086   0.553  17.526 -0.7184 -0.1704 -0.4591
  243MPD1     H 3742   2.443   0.665  17.471  0.1176 -0.4676 -1.0654
  243MPD1    H1 3743   2.152   0.355  17.517  2.0604 -0.3216  0.9057
  243MPD1    H2 3744   2.031   0.751  17.566  0.8782  1.0398 -0.0049
  243MPD1    H3 3745   1.981   0.527  17.528 -1.2741  2.1569  0.1589
  243MPD1     N 3746   2.416   0.409  17.436 -0.4906 -0.0813 -0.3749
  243MPD1    H5 3747   2.509   0.451  17.436  0.7303 -2.7962  1.0421
  243MPD1    N1 3748   2.277   0.868  17.553  0.1234  0.5679 -0.1888
  243MPD1    H6 3749   2.218   0.914  17.621 -1.2422 -2.7926  0.9127
  243MPD1    H7 3750   2.374   0.887  17.580  0.4097 -0.0689 -0.7576
  244MPD1     C 3751   3.062   4.287  17.499  0.7208 -0.6798 -0.7211
  244MPD1    C1 3752   3.062   4.331  17.370 -0.9577  0.0932 -0.2140
  244MPD1    C2 3753   2.988   4.447  17.348  0.4290  0.1024 -0.6410
  244MPD1    C3 3754   2.923   4.513  17.448  0.2928  0.3312 -0.1718
  244MPD1    C4 3755   2.923   4.469  17.580  0.1949  0.0307  0.3655
  244MPD1    C5 3756   2.994   4.351  17.604  0.0276 -0.2482  0.5267
  244MPD1     H 3757   2.985   4.478  17.244 -0.9531  0.6875 -0.4180
  244MPD1    H1 3758   2.861   4.518  17.653  0.1538  2.0237 -1.0190
  244MPD1    H2 3759   3.125   4.204  17.531  0.6372 -1.6887 -3.2108
  244MPD1    H3 3760   3.013   4.336  17.709  1.9474 -0.6043  0.1265
  244MPD1     N 3761   2.842   4.626  17.409 -0.1435 -0.2875 -0.2687
  244MPD1    H5 3762   2.826   4.635  17.309  2.0360  1.2028 -0.4837
  244MPD1    N1 3763   3.110   4.254  17.267 -0.8176  0.4807  0.0548
  244MPD1    H6 3764   3.175   4.183  17.299  0.4404  1.6780  0.1380
  244MPD1    H7 3765   3.133   4.300  17.179  0.8139  0.9684  0.7400
  245MPD1     C 3766   3.894   0.978  13.157  0.7932 -0.9241 -0.2997
  245MPD1    C1 3767   3.906   1.021  13.288 -0.3886  0.3348 -0.8098
  245MPD1    C2 3768   3.907   1.160  13.307  0.7961  0.1385  0.2687
  245MPD1    C3 3769   3.908   1.249  13.207 -0.4263 -0.1871 -0.2436
  245MPD1    C4 3770   3.911   1.205  13.079 -0.0484 -0.4027  0.8359
  245MPD1    C5 3771   3.898   1.070  13.053  0.1432 -0.4347 -0.1440
  245MPD1     H 3772   3.898   1.198  13.408 -0.5522 -0.8007  0.5018
  245MPD1    H1 3773   3.914   1.273  12.995  2.2839 -1.1978  0.2805
  245MPD1    H2 3774   3.879   0.872  13.140  0.8955 -1.1227  0.8410
  245MPD1    H3 3775   3.888   1.030  12.953 -2.1031 -3.3606  1.2667
  245MPD1     N 3776   3.928   1.381  13.236  0.1133 -0.1455  0.2238
  245MPD1    H5 3777   3.959   1.398  13.331  2.0386 -0.7778 -0.3014
  245MPD1    N1 3778   3.881   0.932  13.392  0.1852  0.3801  0.3808
  245MPD1    H6 3779   3.909   0.837  13.368 -0.7552  0.3002 -0.3919
  245MPD1    H7 3780   3.916   0.960  13.483  4.2643 -1.0390 -0.7573
  246MPD1     C 3781   1.657   2.105   9.785 -0.2628 -0.1427  0.3745
  246MPD1    C1 3782   1.527   2.080   9.769 -0.1828 -0.1761  0.2551
  246MPD1    C2 3783   1.440   2.184   9.804 -0.5272 -0.3467 -0.5769
  246MPD1    C3 3784   1.481   2.314   9.812  0.3767 -0.0822 -0.2980
  246MPD1    C4 3785   1.617   2.342   9.814  0.2706 -0.1141 -0.3034
  246MPD1    C5 3786   1.700   2.233   9.822  0.4324 -0.1593 -0.0686
  246MPD1     H 3787   1.333   2.170   9.809 -0.6497  1.0572  0.7422
  246MPD1    H1 3788   1.660   2.438   9.843  0.9355 -1.2910  2.6242
  246MPD1    H2 3789   1.734   2.030   9.772 -3.0577 -2.5036 -2.5425
  246MPD1    H3 3790   1.806   2.253   9.822  0.6231 -1.1627  4.5280
  246MPD1     N 3791   1.382   2.418   9.834 -0.2562  0.6200  0.8685
  246MPD1    H5 3792   1.287   2.382   9.835 -0.2421  0.6194  2.2701
  246MPD1    N1 3793   1.480   1.953   9.767 -0.2177 -0.2487  0.3751
  246MPD1    H6 3794   1.547   1.892   9.720  0.3177  1.8619 -1.5819
  246MPD1    H7 3795   1.390   1.942   9.721 -0.7990  2.9994  0.7345
  247MPD1     C 3796   3.511   4.511  16.071  0.4110 -0.2653  0.7890
  247MPD1    C1 3797   3.528   4.643  16.101 -0.0078 -0.4091 -0.3478
  247MPD1    C2 3798   3.613   4.727  16.030  0.8223 -0.4795 -0.9037
  247MPD1    C3 3799   3.670   4.673  15.912 -0.2389  0.1473  0.5452
  247MPD1    C4 3800   3.665   4.538  15.891 -0.6457  0.3831 -0.1732
  247MPD1    C5 3801   3.591   4.457  15.975  0.1501  0.1637  0.3606
  247MPD1     H 3802   3.619   0.096  16.053 -0.5127 -1.3628  3.5956
  247MPD1    H1 3803   3.726   4.490  15.815 -2.6034 -0.4178 -1.2514
  247MPD1    H2 3804   3.444   4.453  16.134  1.8117 -1.7352  0.9262
  247MPD1    H3 3805   3.593   4.349  15.968  0.6328  0.1803  0.2560
  247MPD1     N 3806   3.748   0.015  15.824 -0.5284  0.2930  0.3353
  247MPD1    H5 3807   3.788   4.698  15.748  0.6104 -0.8352  1.7333
  247MPD1    N1 3808   3.451   4.712  16.198  0.1495  0.3006  0.2589
  247MPD1    H6 3809   3.503   0.046  16.249 -0.6181  1.5195 -0.6569
  247MPD1    H7 3810   3.414   4.649  16.269  2.2859 -2.9912 -1.6071
  248MPD1     C 3811   0.443   0.546   0.350 -0.9362  0.5037  0.4733
  248MPD1    C1 3812   0.417   0.649   0.442 -0.6093  0.2855  0.3286
  248MPD1    C2 3813   0.295   0.713   0.451  0.1920  0.1634 -0.4792
  248MPD1    C3 3814   0.197   0.706   0.358 -0.0113  0.3855 -0.5811
  248MPD1    C4 3815   0.223   0.619   0.250 -0.7332 -1.0559 -0.6262
  248MPD1    C5 3816   0.337   0.535   0.257  1.0268 -0.6544  0.5609
  248MPD1     H 3817   0.281   0.782   0.534 -0.2136  1.0834 -1.3038
  248MPD1    H1 3818   0.147   0.605   0.174 -1.0924 -0.9016 -0.2928
  248MPD1    H2 3819   0.535   0.490   0.341 -1.2345 -0.1002  1.2513
  248MPD1    H3 3820   0.353   0.459   0.182 -0.8064 -1.1348  0.6762
  248MPD1     N 3821   0.086   0.795   0.371 -0.0315 -0.8211 -0.0350
  248MPD1    H5 3822   0.062   0.832   0.462  0.0364 -1.3094  0.1791
  248MPD1    N1 3823   0.515   0.663   0.539  0.0290  0.0253  0.1276
  248MPD1    H6 3824   0.609   0.640   0.507  0.0801  1.0979 -0.4915
  248MPD1    H7 3825   0.508   0.755   0.582  0.8295  0.0552  0.1921
  249MPD1     C 3826   1.615   1.548   9.045 -0.0635 -0.2002  0.4981
  249MPD1    C1 3827   1.489   1.563   9.097  0.2450 -0.0472  0.2171
  249MPD1    C2 3828   1.439   1.464   9.186  0.2139  1.6363  0.4460
  249MPD1    C3 3829   1.522   1.355   9.225  0.4580  0.0912 -0.4287
  249MPD1    C4 3830   1.649   1.344   9.174  0.2300  0.4703  0.8851
  249MPD1    C5 3831   1.687   1.439   9.078 -0.1603  0.7019 -0.1350
  249MPD1     H 3832   1.336   1.460   9.220  0.1105 -0.9735 -0.1286
  249MPD1    H1 3833   1.713   1.259   9.197 -1.7710 -0.8373  1.5355
  249MPD1    H2 3834   1.661   1.611   8.970  0.8338 -1.6536 -0.1923
  249MPD1    H3 3835   1.778   1.426   9.020  0.3951  0.1926  0.8439
  249MPD1     N 3836   1.471   1.271   9.328  0.0739 -0.3030 -0.1758
  249MPD1    H5 3837   1.371   1.268   9.345  0.1292  1.2234  0.4687
  249MPD1    N1 3838   1.398   1.658   9.043 -0.5583 -0.1741  0.0452
  249MPD1    H6 3839   1.452   1.737   9.008 -0.5599 -0.3232 -0.2846
  249MPD1    H7 3840   1.332   1.698   9.109 -1.7054  0.3820 -1.4455
  250MPD2     C 3841   2.639   4.202  13.422 -0.3988 -0.5481 -0.4984
  250MPD2    C1 3842   2.595   4.313  13.363 -0.1668  0.6870  0.0544
  250MPD2    C2 3843   2.519   4.306  13.247 -0.7778  0.0163 -0.0339
  250MPD2    C3 3844   2.491   4.179  13.190  0.9775 -0.0319  0.7820
  250MPD2    C4 3845   2.533   4.068  13.258 -0.0471  0.1709  0.2170
  250MPD2    C5 3846   2.609   4.076  13.370  0.5885 -0.3254  0.0030
  250MPD2     H 3847   2.507   4.391  13.181  0.7850 -1.0975 -1.7582
  250MPD2    H1 3848   2.524   3.968  13.217 -2.8294  0.3245  0.4734
  250MPD2    H2 3849   2.698   4.209  13.513 -0.4727 -0.3641 -0.4650
  250MPD2    H3 3850   2.641   3.987  13.423  0.4354 -1.0671 -1.1544
  250MPD2     N 3851   2.439   4.157  13.058  0.2623 -0.1039 -0.5091
  250MPD2    H5 3852   2.427   4.059  13.035 -3.1759  0.4465 -1.0012
  250MPD2    N1 3853   2.631   4.435  13.425 -0.3550  0.4052 -0.2657
  250MPD2    H7 3854   2.680   4.425  13.513 -0.3602 -2.4414 -0.6012
  251TMC3    C1 3855   2.646   4.663  13.471 -0.7349 -0.3676 -0.6310
  251TMC3    C2 3856   2.539   0.001  13.513  0.0519 -0.0386 -0.3648
  251TMC3    C3 3857   2.567   0.120  13.572  0.2322 -0.1120  0.4673
  251TMC3    C4 3858   2.777   4.691  13.494 -0.3238  0.1352 -0.0742
  251TMC3    C5 3859   2.800   0.074  13.557  0.0181 -0.5618  0.6567
  251TMC3    C6 3860   2.700   0.151  13.605  0.2025 -0.1659  0.3828
  251TMC3     C 3861   2.600   4.560  13.377  0.5941  0.5151 -0.0611
  251TMC3     O 3862   2.508   4.588  13.304 -0.4139 -0.0906  0.6512
  251TMC3     H 3863   2.438   4.703  13.497  0.9440 -1.9793 -1.6243
  251TMC3    H1 3864   2.861   4.638  13.452 -1.2646 -1.5235  0.1375
  251TMC3    H2 3865   2.716   0.249  13.649  1.3142 -0.0802 -0.2129
  251TMC3    C7 3866   2.930   0.122  13.530  0.0658  0.0501  0.2795
  251TMC3    C8 3867   2.469   0.227  13.595 -0.1019 -0.2572  0.2677
  251TMC3    O1 3868   3.021   0.042  13.499  0.5780  0.9080 -0.0433
  251TMC3    O2 3869   2.492   0.325  13.665  0.0698 -0.2272 -0.5027
  252TMC3    C1 3870   2.570   1.335   9.530 -0.0581  0.5993  0.0335
  252TMC3    C2 3871   2.662   1.429   9.505  0.3336 -0.3686  0.1214
  252TMC3    C3 3872   2.632   1.517   9.412  0.5502 -0.2669  0.2301
  252TMC3    C4 3873   2.456   1.324   9.452 -0.2290  0.7087  0.2595
  252TMC3    C5 3874   2.433   1.413   9.356  0.2482 -0.2803 -0.1611
  252TMC3    C6 3875   2.523   1.512   9.331 -0.1807  0.2735  0.2687
  252TMC3     C 3876   2.596   1.232   9.626  0.0007 -0.2265 -0.4324
  252TMC3     O 3877   2.508   1.160   9.672 -0.2773  0.0706 -0.1722
  252TMC3     H 3878   2.747   1.425   9.572  0.8527 -0.2947 -0.5256
  252TMC3    H1 3879   2.396   1.234   9.453 -1.3713  1.4584 -0.6716
  252TMC3    H2 3880   2.493   1.591   9.263 -3.3885 -2.4752 -1.5353
  252TMC3    C7 3881   2.317   1.406   9.269 -0.7595 -0.4344  0.1586
  252TMC3    C8 3882   2.725   1.628   9.384 -0.2087 -0.2311 -0.3708
  252TMC3    O1 3883   2.316   1.473   9.166 -0.2881 -0.0174 -0.2863
  252TMC3    O2 3884   2.729   1.667   9.269 -0.6537 -0.5229 -0.2661
  253MPD2     C 3885   4.520   4.642  15.422  0.3699 -0.5254  0.3147
  253MPD2    C1 3886   4.390   4.589  15.411 -0.1913 -0.9277  0.4141
  253MPD2    C2 3887   4.341   4.504  15.506  0.0951 -0.4403  0.6007
  253MPD2    C3 3888   4.421   4.467  15.608 -0.6044  0.1175  0.1150
  253MPD2    C4 3889   4.544   4.520  15.621  0.3664  0.1147 -0.0313
  253MPD2    C5 3890   4.599   4.604  15.527  0.1287  0.1200  0.0119
  253MPD2     H 3891   4.236   4.476  15.498  0.0799 -0.4288  0.7694
  253MPD2    H1 3892   4.612   4.487  15.699  0.7582  1.6262  0.2661
  253MPD2    H2 3893   4.571   4.705  15.350 -1.1088 -0.4219 -0.6312
  253MPD2    H3 3894   4.697   4.650  15.525  0.2685 -0.0961  1.7333
  253MPD2     N 3895   4.378   4.377  15.711 -0.2137 -0.0048  0.2489
  253MPD2    H5 3896   4.447   4.328  15.767 -0.9708 -1.5103 -0.1516
  253MPD2    N1 3897   4.303   4.627  15.308  0.3405 -0.3849  0.0154
  253MPD2    H7 3898   4.210   4.588  15.319  0.7701 -1.5627 -0.4957
  254TMC3    C1 3899   4.223   4.239  15.829  0.4702 -0.0455 -0.0710
  254TMC3    C2 3900   4.095   4.222  15.868 -0.7366 -0.0908 -0.5001
  254TMC3    C3 3901   4.068   4.123  15.956  0.1977  0.1016  0.4978
  254TMC3    C4 3902   4.324   4.164  15.872  0.5712  0.0048  0.1111
  254TMC3    C5 3903   4.291   4.063  15.958 -0.2305  0.4742  0.2157
  254TMC3    C6 3904   4.163   4.041  16.000 -0.0604  0.6212  0.1659
  254TMC3     C 3905   4.247   4.343  15.732 -0.3731  0.1501  0.0195
  254TMC3     O 3906   4.149   4.378  15.673  0.1647  0.3535 -0.7486
  254TMC3     H 3907   4.025   4.300  15.841 -1.2876 -1.1062 -2.0098
  254TMC3    H1 3908   4.428   4.180  15.849  0.2354 -0.0544 -1.4648
  254TMC3    H2 3909   4.133   3.972  16.078 -0.7399 -2.0292 -2.4385
  254TMC3    C7 3910   4.384   3.998  16.051  0.4481 -0.2560  0.2816
  254TMC3    C8 3911   3.939   4.113  16.015  0.0634  0.5177 -0.8064
  254TMC3    O1 3912   4.330   3.906  16.108  0.4683 -0.0513  0.2783
  254TMC3    O2 3913   3.873   4.217  16.028  0.1091  0.2146  0.3456
  255MPD2     C 3914   1.910   1.978  10.669  0.6020 -0.0706  0.4524
  255MPD2    C1 3915   2.028   2.051  10.671  0.1219  0.5639 -0.1047
  255MPD2    C2 3916   2.141   1.994  10.623  0.0034 -0.0709 -0.2134
  255MPD2    C3 3917   2.133   1.869  10.564 -0.0962  0.7246  0.1805
  255MPD2    C4 3918   2.017   1.794  10.568 -1.0652  0.2398  0.7066
  255MPD2    C5 3919   1.910   1.847  10.627  0.1884  0.1703  0.0491
  255MPD2     H 3920   2.236   2.045  10.613 -0.0552 -0.3654 -2.3394
  255MPD2    H1 3921   2.012   1.693  10.530  1.4902 -0.3189  1.9106
  255MPD2    H2 3922   1.817   2.013  10.711  0.9454  2.8422 -1.2394
  255MPD2    H3 3923   1.823   1.782  10.634  0.4439 -0.1453  0.3566
  255MPD2     N 3924   2.244   1.843  10.481  0.5163  0.2671 -0.0455
  255MPD2    H5 3925   2.327   1.902  10.491 -0.4301  1.8183 -1.3239
  255MPD2    N1 3926   2.031   2.184  10.711 -0.1922 -0.3365  0.2950
  255MPD2    H7 3927   1.939   2.224  10.727 -0.4633 -0.5219 -0.8004
  256TMC3    C1 3928   2.123   2.393  10.750 -0.2452  0.2010  0.7291
  256TMC3    C2 3929   2.180   2.464  10.643 -0.1543 -0.6062 -0.8955
  256TMC3    C3 3930   2.126   2.581  10.603  0.2310 -0.2938  0.2825
  256TMC3    C4 3931   2.002   2.431  10.795 -0.0238  0.9284  0.6524
  256TMC3    C5 3932   1.958   2.554  10.763 -0.4504  0.3801 -0.2341
  256TMC3    C6 3933   2.015   2.633  10.663 -0.2408  0.1182 -0.6181
  256TMC3     C 3934   2.147   2.247  10.739 -0.6586 -0.0266 -0.3922
  256TMC3     O 3935   2.265   2.218  10.739 -0.1567  0.5522  0.3591
  256TMC3     H 3936   2.263   2.411  10.598  0.0531 -1.1728  0.1505
  256TMC3    H1 3937   1.939   2.373  10.863  1.8291  1.6210  2.9723
  256TMC3    H2 3938   1.977   2.728  10.627  0.4121  0.6477  0.0925
  256TMC3    C7 3939   1.827   2.592  10.802 -0.0861  0.6817 -0.1330
  256TMC3    C8 3940   2.123   2.584  10.458  0.8145  0.8686  0.1180
  256TMC3    O1 3941   1.737   2.532  10.747 -0.3331 -0.1478 -0.3531
  256TMC3    O2 3942   2.151   2.478  10.403 -0.2847  0.6319  0.0917
  257MPD2     C 3943   1.054   4.468  13.080  0.6323  0.1988  0.2818
  257MPD2    C1 3944   1.176   4.419  13.047 -0.0458  0.3876 -0.0119
  257MPD2    C2 3945   1.250   4.331  13.142  0.4906 -0.1970  0.3060
  257MPD2    C3 3946   1.200   4.314  13.270  0.4842 -0.4572 -0.3084
  257MPD2    C4 3947   1.077   4.362  13.303  0.0552  0.9781  0.1678
  257MPD2    C5 3948   1.007   4.442  13.207 -0.5341  0.3759 -1.0135
  257MPD2     H 3949   1.351   4.297  13.122  0.6230  0.5856 -0.3627
  257MPD2    H1 3950   1.022   4.345  13.395 -2.6688  0.2873 -1.5881
  257MPD2    H2 3951   0.992   4.526  13.013  0.7871  0.8518  0.7026
  257MPD2    H3 3952   0.908   4.478  13.229 -0.4134  0.8098 -1.1851
  257MPD2     N 3953   1.289   4.252  13.360 -0.2867 -0.8139 -0.1538
  257MPD2    H5 3954   1.386   4.242  13.330 -0.2573 -0.4421 -0.1870
  257MPD2    N1 3955   1.225   4.466  12.924 -0.5844 -0.9896 -0.0514
  257MPD2    H7 3956   1.162   4.523  12.868  1.1398  0.5489 -0.4143
  258TMC3    C1 3957   1.367   4.186  13.573  0.5208 -0.1624 -0.0197
  258TMC3    C2 3958   1.485   4.144  13.517  0.5416 -0.8048 -0.0665
  258TMC3    C3 3959   1.592   4.131  13.606  0.0666  0.5098 -0.2401
  258TMC3    C4 3960   1.354   4.205  13.706  0.0713  0.6179  0.1602
  258TMC3    C5 3961   1.470   4.195  13.785  0.2187  0.3636 -0.0486
  258TMC3    C6 3962   1.592   4.162  13.734 -0.3576  0.5291 -0.1125
  258TMC3     C 3963   1.257   4.229  13.491  0.0977 -0.2827 -0.9314
  258TMC3     O 3964   1.154   4.251  13.555  0.1498 -0.8220 -0.1735
  258TMC3     H 3965   1.503   4.122  13.412  0.7820  0.2192 -0.2369
  258TMC3    H1 3966   1.267   4.252  13.751 -0.0179 -0.4057  1.0400
  258TMC3    H2 3967   1.676   4.158  13.803 -0.9998  1.4595  0.7213
  258TMC3    C7 3968   1.453   4.232  13.934 -0.5981 -0.0213 -1.2515
  258TMC3    C8 3969   1.716   4.093  13.547  0.0505  0.6864  0.3151
  258TMC3    O1 3970   1.338   4.272  13.961 -0.0730 -0.0914  0.0981
  258TMC3    O2 3971   1.709   4.023  13.445 -0.7993 -0.2783 -0.0070
  259MPD2     C 3972   0.689   1.190   0.071  0.1990 -0.6073 -0.3757
  259MPD2    C1 3973   0.784   1.213   0.161 -0.4825 -0.7438  0.4761
  259MPD2    C2 3974   0.917   1.229   0.126  0.8593  0.4188  0.0127
  259MPD2    C3 3975   0.950   1.215  17.744  0.2500 -0.4653 -0.1809
  259MPD2    C4 3976   0.853   1.192  17.643  0.2144  0.2065  1.4890
  259MPD2    C5 3977   0.723   1.189  17.684 -0.0407  0.1265  0.4569
  259MPD2     H 3978   0.988   1.241   0.206 -0.4333 -1.8506  1.5007
  259MPD2    H1 3979   0.867   1.172  17.537  0.9749  2.9723  1.0605
  259MPD2    H2 3980   0.584   1.187   0.095  0.0198 -2.8567 -1.3944
  259MPD2    H3 3981   0.651   1.191  17.602  1.4040  2.2198 -0.7518
  259MPD2     N 3982   1.089   1.209  17.725 -0.6963  0.0822 -0.8282
  259MPD2    H5 3983   1.151   1.214   0.056  0.4192  1.6335 -1.7911
  259MPD2    N1 3984   0.740   1.214   0.299  0.0225  0.3239  0.1375
  259MPD2    H7 3985   0.645   1.192   0.324  0.2485 -0.1986  0.5536
  260TMC3    C1 3986   1.226   1.047  17.621  0.5044 -0.3306 -0.2824
  260TMC3    C2 3987   1.279   0.982  17.512  0.4021 -0.6421  0.9400
  260TMC3    C3 3988   1.362   0.879  17.529  0.2284  0.7951 -0.3296
  260TMC3    C4 3989   1.243   0.993  17.747  1.3625  0.6119  0.7002
  260TMC3    C5 3990   1.320   0.881   0.017 -0.0972  0.2465  0.4506
  260TMC3    C6 3991   1.398   0.838  17.655 -0.4393  0.3427 -0.5953
  260TMC3     C 3992   1.150   1.167  17.607 -0.3658 -0.3467 -0.6429
  260TMC3     O 3993   1.119   1.198  17.492 -0.2643  0.0619  0.3595
  260TMC3     H 3994   1.254   1.018  17.413  1.0910 -1.7260  0.3726
  260TMC3    H1 3995   1.209   1.049   0.085  2.1586  0.7342  0.9293
  260TMC3    H2 3996   1.460   0.751  17.671 -0.6110  1.2354  4.9894
  260TMC3    C7 3997   1.236   0.772   0.058  0.6119  0.5164  0.0339
  260TMC3    C8 3998   1.334   0.777  17.431  0.5033 -0.3046 -0.3660
  260TMC3    O1 3999   1.270   0.661   0.018 -0.1543 -0.6747 -0.3440
  260TMC3    O2 4000   1.359   0.801  17.316  0.2146 -0.0695 -0.3017
  261MPD2     C 4001   2.041   4.411  12.330 -0.2902 -0.1629  1.0679
  261MPD2    C1 4002   2.177   4.443  12.318  0.0060 -0.4886  0.0438
  261MPD2    C2 4003   2.223   4.501  12.206 -0.0055  0.5745  0.4906
  261MPD2    C3 4004   2.142   4.524  12.097  0.6321 -0.1711 -0.6773
  261MPD2    C4 4005   2.007   4.499  12.112  0.6372  0.4920 -0.4889
  261MPD2    C5 4006   1.958   4.439  12.226 -0.0575  0.2086  1.1032
  261MPD2     H 4007   2.330   4.520  12.195  0.7059 -1.2770  4.0816
  261MPD2    H1 4008   1.936   4.540  12.041 -0.1520 -0.7263 -0.4136
  261MPD2    H2 4009   1.997   4.361  12.415 -0.5719 -0.9340  0.4692
  261MPD2    H3 4010   1.854   4.410  12.231 -0.1077 -0.1087 -1.7347
  261MPD2     N 4011   2.199   4.589  11.990  0.3719 -0.5105  0.8142
  261MPD2    H5 4012   2.286   4.637  12.010  0.6307 -0.1034 -1.2837
  261MPD2    N1 4013   2.261   4.387  12.415 -0.3818 -0.2242  0.0845
  261MPD2    H7 4014   2.362   4.385  12.404 -0.5254 -0.8730 -1.1765
  262TMC3    C1 4015   2.190   4.694  11.775  0.5685  0.0291 -0.3796
  262TMC3    C2 4016   2.116   4.736  11.668  0.0528  0.3513  0.0024
  262TMC3    C3 4017   2.145   0.108  11.596  0.5668 -0.4076 -0.4319
  262TMC3    C4 4018   2.309   0.015  11.796  0.3055 -0.5398 -0.3781
  262TMC3    C5 4019   2.349   0.114  11.708  0.4062 -0.1698  0.2866
  262TMC3    C6 4020   2.271   0.164  11.613  0.2726 -0.2068  0.1100
  262TMC3     C 4021   2.146   4.588  11.863  0.3339  0.3448  0.1662
  262TMC3     O 4022   2.060   4.508  11.822  0.7248 -0.4073  0.3619
  262TMC3     H 4023   2.020   4.687  11.656  0.0981  0.2337  0.1209
  262TMC3    H1 4024   2.387   4.726  11.867 -0.8407  0.3423  1.1853
  262TMC3    H2 4025   2.300   0.239  11.540  0.0872 -0.1371  0.1084
  262TMC3    C7 4026   2.487   0.143  11.700  0.1620  0.4733  0.1219
  262TMC3    C8 4027   2.042   0.209  11.580 -0.3713  0.2808  0.0727
  262TMC3    O1 4028   2.567   0.057  11.732  0.3913 -0.3998 -0.3794
  262TMC3    O2 4029   2.078   0.323  11.551  0.3803 -0.3227 -0.3910
  263MPD2     C 4030   2.679   3.971  11.780  0.3246  0.0286 -0.3402
  263MPD2    C1 4031   2.792   4.009  11.710  0.6903  0.5198  0.1511
  263MPD2    C2 4032   2.770   4.078  11.590 -0.4811  0.5067 -0.2466
  263MPD2    C3 4033   2.644   4.114  11.559  0.6222  0.0834  0.1254
  263MPD2    C4 4034   2.532   4.062  11.621 -0.2782 -0.2039 -0.7172
  263MPD2    C5 4035   2.556   3.988  11.730 -0.2726 -0.2555  0.0082
  263MPD2     H 4036   2.852   4.108  11.525  0.2795  0.5178  0.7249
  263MPD2    H1 4037   2.428   4.077  11.595 -0.1882 -0.1146 -1.0305
  263MPD2    H2 4038   2.689   3.932  11.880 -0.9771  2.2959  0.6803
  263MPD2    H3 4039   2.476   3.940  11.785 -0.7721 -0.8458 -1.2327
  263MPD2     N 4040   2.628   4.212  11.454 -0.2416 -0.4458 -0.0862
  263MPD2    H5 4041   2.708   4.272  11.438  1.1499 -1.9514  1.1001
  263MPD2    N1 4042   2.924   3.992  11.764 -0.4341 -0.1146 -0.3539
  263MPD2    H7 4043   2.927   3.952  11.858 -1.7709 -1.4690 -0.8876
  264TMC3    C1 4044   2.543   4.330  11.273  0.6366 -0.2106  0.4004
  264TMC3    C2 4045   2.625   4.432  11.314  0.3917  0.0980 -0.4548
  264TMC3    C3 4046   2.718   4.478  11.222  0.2272 -0.0065 -0.8416
  264TMC3    C4 4047   2.541   4.295  11.140 -0.0417  0.0753  0.1260
  264TMC3    C5 4048   2.627   4.348  11.052  0.1360  0.2916  0.5630
  264TMC3    C6 4049   2.729   4.431  11.094  0.1744 -0.0140  0.2347
  264TMC3     C 4050   2.525   4.223  11.367 -1.1099  0.1117  1.0788
  264TMC3     O 4051   2.434   4.142  11.349 -0.5098 -0.3887  0.6390
  264TMC3     H 4052   2.635   4.455  11.420 -1.8847 -0.9942 -0.0012
  264TMC3    H1 4053   2.474   4.214  11.114  2.3349 -1.8217 -0.1226
  264TMC3    H2 4054   2.796   4.473  11.020 -0.8716  0.0774 -0.6636
  264TMC3    C7 4055   2.660   4.261  10.936 -0.6285 -0.2852 -0.4991
  264TMC3    C8 4056   2.780   4.601  11.259  0.1274  0.2093 -0.0387
  264TMC3    O1 4057   2.773   4.278  10.892  0.4504 -0.0007 -0.7447
  264TMC3    O2 4058   2.883   4.632  11.206 -0.0649  0.4922  0.2368
  265MPD2     C 4059   0.212   4.035  15.686 -0.3030 -0.5038 -0.8213
  265MPD2    C1 4060   0.309   4.131  15.678 -0.0931 -0.3739  0.3542
  265MPD2    C2 4061   0.396   4.130  15.571  0.2891 -0.8116  0.2562
  265MPD2    C3 4062   0.398   4.018  15.492  0.7079 -0.4703  0.4365
  265MPD2    C4 4063   0.297   3.927  15.495 -0.0330  0.5793 -0.7227
  265MPD2    C5 4064   0.206   3.930  15.594  0.1477  0.3655 -0.7124
  265MPD2     H 4065   0.472   4.207  15.566  1.5776 -2.1116 -0.2110
  265MPD2    H1 4066   0.292   3.852  15.417  0.4095  0.8642 -1.0276
  265MPD2    H2 4067   0.144   4.039  15.770 -0.0621 -1.0415 -0.6018
  265MPD2    H3 4068   0.113   3.874  15.597  1.5124 -1.9792 -1.8282
  265MPD2     N 4069   0.493   3.995  15.389 -0.0553 -0.1743 -0.4246
  265MPD2    H5 4070   0.484   3.913  15.331  1.0891 -0.4874 -0.1572
  265MPD2    N1 4071   0.315   4.243  15.769 -0.0974  0.1982  0.2475
  265MPD2    H7 4072   0.361   4.328  15.739 -0.9698  0.1002 -1.3827
  266TMC3    C1 4073   0.204   4.381  15.931 -0.1019 -0.3664 -0.5368
  266TMC3    C2 4074   0.166   4.396  16.062  0.1330  0.1099  0.7237
  266TMC3    C3 4075   0.134   4.524  16.098  0.1876 -0.3831 -0.6091
  266TMC3    C4 4076   0.179   4.475  15.842 -0.7946  0.4499 -0.6093
  266TMC3    C5 4077   0.146   4.600  15.883  0.9691 -0.9048  0.7075
  266TMC3    C6 4078   0.127   4.630  16.010  0.4415  1.5462  0.2655
  266TMC3     C 4079   0.250   4.244  15.890 -0.5122  0.0203  0.6153
  266TMC3     O 4080   0.207   4.151  15.957  0.0385 -0.2531  0.0377
  266TMC3     H 4081   0.189   4.319  16.135  0.1886  0.0599  0.6536
  266TMC3    H1 4082   0.179   4.438  15.740  1.1278 -0.1553 -0.3924
  266TMC3    H2 4083   0.119   4.735  16.034  1.3723  1.2843  1.7468
  266TMC3    C7 4084   0.154   4.706  15.784 -0.3571 -0.0190 -0.2106
  266TMC3    C8 4085   0.142   4.562  16.238  0.0631 -0.2170  1.3017
  266TMC3    O1 4086   0.220   4.689  15.682  0.0703 -0.0644  0.1751
  266TMC3    O2 4087   0.073   4.489  16.309  0.5269 -0.0178 -0.4164
  267MPD2     C 4088   2.545   1.135   0.344  0.1695 -0.8257 -0.8118
  267MPD2    C1 4089   2.607   1.100   0.228 -0.3299 -0.3234 -0.0626
  267MPD2    C2 4090   2.555   1.143   0.109  0.9971  0.9758 -0.4862
  267MPD2    C3 4091   2.435   1.215   0.104  0.0413 -0.0344  0.5471
  267MPD2    C4 4092   2.380   1.246   0.227 -0.0411 -0.5032  0.2245
  267MPD2    C5 4093   2.429   1.204   0.348  0.0578 -0.3498 -0.2816
  267MPD2     H 4094   2.599   1.120   0.012  0.3371 -0.6128 -0.4087
  267MPD2    H1 4095   2.285   1.297   0.232  0.1768 -0.0575 -0.0944
  267MPD2    H2 4096   2.576   1.109   0.444 -0.8572  2.1525  0.2978
  267MPD2    H3 4097   2.367   1.218   0.436  0.0357  1.9320 -0.6472
  267MPD2     N 4098   2.383   1.237  17.727 -0.4610 -0.1077 -0.2984
  267MPD2    H5 4099   2.443   1.227  17.646  1.0282 -2.1004  1.0499
  267MPD2    N1 4100   2.736   1.042   0.233 -0.9015  0.2111 -0.0428
  267MPD2    H7 4101   2.791   1.046   0.318  1.6631  0.6595 -1.7163
  268TMC3    C1 4102   2.941   0.976   0.161 -0.2080 -0.4299 -0.7292
  268TMC3    C2 4103   3.019   1.025   0.066  0.0970 -0.4033  0.1929
  268TMC3    C3 4104   3.146   1.067   0.096 -0.2535 -0.1496 -0.6310
  268TMC3    C4 4105   2.992   0.949   0.287  0.6144 -0.1803  0.5283
  268TMC3    C5 4106   3.120   0.986   0.308  0.1817  1.1114  0.8137
  268TMC3    C6 4107   3.203   1.042   0.217  0.1878 -0.6472  0.8234
  268TMC3     C 4108   2.803   0.992   0.131 -0.0957 -0.2261 -0.4433
  268TMC3     O 4109   2.770   0.974   0.012 -0.4258  0.2346 -0.6470
  268TMC3     H 4110   2.976   1.048  17.718 -0.1919 -1.8252 -0.0130
  268TMC3    H1 4111   2.933   0.900   0.364  0.8534 -0.3183  0.6253
  268TMC3    H2 4112   3.302   1.077   0.242 -0.0200 -0.2963  1.1457
  268TMC3    C7 4113   3.179   0.981   0.441 -0.0530  0.5292 -0.6127
  268TMC3    C8 4114   3.235   1.137   0.010 -0.1973  0.2747  0.0821
  268TMC3    O1 4115   3.300   0.994   0.458 -0.3049 -0.4635  0.9834
  268TMC3    O2 4116   3.330   1.200   0.053 -0.0474 -0.2870 -0.0246
  269MPD2     C 4117   3.633   0.182  15.346  0.0326  0.0142 -0.1414
  269MPD2    C1 4118   3.545   0.205  15.451  0.3839  0.1425 -1.1396
  269MPD2    C2 4119   3.519   0.338  15.479  0.0441 -0.1319 -0.1128
  269MPD2    C3 4120   3.570   0.439  15.401 -0.4258  0.7480  0.7327
  269MPD2    C4 4121   3.654   0.409  15.298 -0.3987  0.6332  0.5942
  269MPD2    C5 4122   3.685   0.282  15.264 -0.1233 -0.7448 -0.3436
  269MPD2     H 4123   3.460   0.366  15.565  2.1532 -0.1488  1.3428
  269MPD2    H1 4124   3.697   0.482  15.231 -2.1849 -0.4076 -1.6872
  269MPD2    H2 4125   3.645   0.079  15.315  1.6074 -0.3146  1.5260
  269MPD2    H3 4126   3.755   0.258  15.185  0.5774 -1.1466  0.3955
  269MPD2     N 4127   3.546   0.571  15.448  0.1532  0.0530 -0.1379
  269MPD2    H5 4128   3.514   0.590  15.543  0.8791 -2.0651  0.5353
  269MPD2    N1 4129   3.506   0.092  15.534 -0.2840 -0.0368  0.6543
  269MPD2    H7 4130   3.549   0.006  15.501  1.9884  1.8815 -1.4131
  270TMC3    C1 4131   3.381   4.703  15.689  0.9232 -0.0035  0.1352
  270TMC3    C2 4132   3.249   4.703  15.719 -0.0614  0.2741  0.2384
  270TMC3    C3 4133   3.185   4.576  15.717 -0.3425  0.7588 -0.1693
  270TMC3    C4 4134   3.450   4.598  15.643  0.9266 -0.3870  0.3856
  270TMC3    C5 4135   3.377   4.485  15.622 -0.1188  0.0084 -0.0537
  270TMC3    C6 4136   3.252   4.465  15.672 -0.5658 -0.1939 -0.0366
  270TMC3     C 4137   3.425   0.097  15.646  0.8766  0.5636  0.1480
  270TMC3     O 4138   3.357   0.190  15.693 -0.0333 -0.3198  0.0197
  270TMC3     H 4139   3.198   0.053  15.757 -0.5492 -0.0741  0.3942
  270TMC3    H1 4140   3.550   4.601  15.601 -0.7743  2.2726 -3.4282
  270TMC3    H2 4141   3.209   4.365  15.666 -1.7360  0.3419 -0.5875
  270TMC3    C7 4142   3.437   4.369  15.559 -0.1399 -0.1854  0.1220
  270TMC3    C8 4143   3.039   4.572  15.691 -0.7683  0.5366 -0.5806
  270TMC3    O1 4144   3.545   4.338  15.596  0.0212 -0.3351  0.4429
  270TMC3    O2 4145   2.967   4.646  15.757  0.6517 -0.2053 -0.6086
  271MPD2     C 4146   2.196   0.056  14.271  0.0231  0.9578 -0.0698
  271MPD2    C1 4147   2.121   4.716  14.365  0.1372  0.0040 -0.2119
  271MPD2    C2 4148   1.983   0.011  14.373  0.0787 -0.1733  0.5357
  271MPD2    C3 4149   1.925   0.086  14.278  0.5124 -0.2840  0.1365
  271MPD2    C4 4150   1.995   0.161  14.189 -0.5538 -0.4012  0.9943
  271MPD2    C5 4151   2.131   0.144  14.186 -0.0192 -0.6129  0.0425
  271MPD2     H 4152   1.928   4.691  14.446  1.5239 -1.6473  0.4729
  271MPD2    H1 4153   1.942   0.210  14.108 -1.7131  0.4482  2.2604
  271MPD2    H2 4154   2.302   0.040  14.258 -0.2705 -0.2313 -1.0089
  271MPD2    H3 4155   2.180   0.198  14.106  1.8060 -1.1002  0.8413
  271MPD2     N 4156   1.787   0.109  14.266  0.0836  0.5548 -0.1510
  271MPD2    H5 4157   1.762   0.155  14.179  0.0941  0.3876 -0.2440
  271MPD2    N1 4158   2.176   4.614  14.447  0.0494  0.4869  0.4800
  271MPD2    H7 4159   2.108   4.556  14.495  0.2144 -0.6241 -0.6302
  272TMC3    C1 4160   2.318   4.453  14.531  0.0269  0.0341 -0.7648
  272TMC3    C2 4161   2.436   4.387  14.508 -0.7019  0.3687  0.0815
  272TMC3    C3 4162   2.499   4.326  14.617  0.1862  0.1038 -0.7656
  272TMC3    C4 4163   2.274   4.469  14.657  0.2460 -0.2474  0.0964
  272TMC3    C5 4164   2.346   4.423  14.763  0.9439 -0.3546 -0.1016
  272TMC3    C6 4165   2.456   4.347  14.741 -0.5104  0.3335 -0.1469
  272TMC3     C 4166   2.307   4.573  14.449 -0.0910  0.5993 -0.6003
  272TMC3     O 4167   2.402   4.625  14.402 -0.1144 -0.2045 -0.1220
  272TMC3     H 4168   2.483   4.385  14.410 -1.1952  0.8927 -0.1671
  272TMC3    H1 4169   2.179   4.518  14.674  0.1645  1.1777 -4.5035
  272TMC3    H2 4170   2.513   4.310  14.826  0.2813 -2.5122 -1.9258
  272TMC3    C7 4171   2.322   4.476  14.896  0.8896  0.1630 -0.1918
  272TMC3    C8 4172   2.641   4.291  14.590 -0.0696 -0.2744 -0.5211
  272TMC3    O1 4173   2.208   4.475  14.936 -0.0103  0.4509  0.4275
  272TMC3    O2 4174   2.690   4.348  14.494 -0.1545  0.3364  0.0023
  273MPD2     C 4175   3.483   2.612  11.641  0.2330 -0.3361 -0.2068
  273MPD2    C1 4176   3.480   2.737  11.684  0.4317 -0.0329  0.4778
  273MPD2    C2 4177   3.484   2.847  11.598  0.1028 -0.0436  0.1406
  273MPD2    C3 4178   3.465   2.835  11.465 -1.0728  0.6384 -0.6251
  273MPD2    C4 4179   3.452   2.703  11.415 -0.0415 -0.5815  0.4393
  273MPD2    C5 4180   3.466   2.602  11.507  0.1968  1.0525  0.1513
  273MPD2     H 4181   3.492   2.948  11.636  1.3935  0.1300 -0.6182
  273MPD2    H1 4182   3.447   2.681  11.309 -0.3136 -0.7101  0.4780
  273MPD2    H2 4183   3.511   2.526  11.701 -0.1973  0.0467  0.5407
  273MPD2    H3 4184   3.466   2.500  11.469  0.7700  2.2609 -3.1406
  273MPD2     N 4185   3.468   2.944  11.377  0.0005  0.0938  0.2831
  273MPD2    H5 4186   3.462   2.923  11.278 -0.6963 -2.5476  0.8846
  273MPD2    N1 4187   3.475   2.753  11.819  0.1501 -0.5807 -0.2890
  273MPD2    H7 4188   3.473   2.664  11.869 -0.0198 -1.1288 -1.2910
  274TMC3    C1 4189   3.487   3.158  11.295 -0.0741  0.0442  0.2398
  274TMC3    C2 4190   3.420   3.107  11.182 -0.3958 -0.9494 -0.1623
  274TMC3    C3 4191   3.412   3.175  11.063 -0.0522  0.8568  0.1585
  274TMC3    C4 4192   3.538   3.283  11.297 -0.1966  0.3449  0.5580
  274TMC3    C5 4193   3.532   3.340  11.174  0.6851 -0.6720  0.0222
  274TMC3    C6 4194   3.488   3.285  11.056  0.0253 -0.2309  0.4878
  274TMC3     C 4195   3.516   3.073  11.406 -0.1416 -0.5989 -0.1800
  274TMC3     O 4196   3.576   3.118  11.506 -0.5897  0.1001 -0.5100
  274TMC3     H 4197   3.376   3.009  11.174  1.5355 -1.9263  1.3035
  274TMC3    H1 4198   3.596   3.327  11.377 -0.7896 -0.0912  1.2269
  274TMC3    H2 4199   3.474   3.352  10.972  0.2556  0.9130  1.3733
  274TMC3    C7 4200   3.571   3.478  11.158  0.1365 -0.3033  0.4121
  274TMC3    C8 4201   3.319   3.135  10.958  0.8381 -0.6254 -0.2458
  274TMC3    O1 4202   3.617   3.519  11.050  0.4512 -1.3459 -0.7149
  274TMC3    O2 4203   3.236   3.054  10.992  0.3389  0.4118 -0.6274
  275MPD2     C 4204   3.462   1.247  14.676 -0.0328 -0.7029 -0.2671
  275MPD2    C1 4205   3.502   1.114  14.671  0.2022 -0.1548 -0.6363
  275MPD2    C2 4206   3.412   1.011  14.698 -0.5565  0.5651 -0.5692
  275MPD2    C3 4207   3.276   1.037  14.719 -0.1304  0.1830 -0.5822
  275MPD2    C4 4208   3.240   1.174  14.717 -0.6505  0.0222  0.6013
  275MPD2    C5 4209   3.330   1.273  14.702  0.1934 -0.0017 -0.3752
  275MPD2     H 4210   3.441   0.907  14.710  2.5987  1.6097  0.9362
  275MPD2    H1 4211   3.142   1.204  14.751 -0.4860  0.9113  0.2823
  275MPD2    H2 4212   3.526   1.328  14.645  1.8565 -1.5211  1.5558
  275MPD2    H3 4213   3.295   1.371  14.731  0.6158  0.3398 -1.0115
  275MPD2     N 4214   3.177   0.944  14.736 -0.2255  0.4769  0.2190
  275MPD2    H5 4215   3.083   0.984  14.742 -0.9263 -1.2593  0.6431
  275MPD2    N1 4216   3.637   1.074  14.662  0.2512 -0.3254  0.4421
  275MPD2    H7 4217   3.663   0.976  14.661  1.5189  0.0117 -0.6470
  276TMC3    C1 4218   3.863   1.095  14.604 -0.0234  0.2907 -0.0582
  276TMC3    C2 4219   3.853   0.963  14.564  0.6933  0.8475 -0.4835
  276TMC3    C3 4220   3.956   0.885  14.600 -0.3370 -0.1630  0.5299
  276TMC3    C4 4221   3.974   1.147  14.668 -0.6639 -0.5177  0.7754
  276TMC3    C5 4222   4.073   1.066  14.698  0.5526  0.5412  0.4514
  276TMC3    C6 4223   4.060   0.929  14.679 -0.4335 -0.1860 -0.0152
  276TMC3     C 4224   3.745   1.162  14.650 -0.8590  0.1221  0.9966
  276TMC3     O 4225   3.756   1.287  14.667  0.4926 -0.0746  0.0043
  276TMC3     H 4226   3.766   0.935  14.506  0.6422  0.1469 -0.0605
  276TMC3    H1 4227   3.965   1.251  14.696  3.3801  0.3156 -1.1088
  276TMC3    H2 4228   4.144   0.865  14.702 -0.2003  0.4740  0.9272
  276TMC3    C7 4229   4.207   1.126  14.710  0.2174 -0.4253 -0.1684
  276TMC3    C8 4230   3.955   0.760  14.538  0.5762 -0.1432  0.0296
  276TMC3    O1 4231   4.225   1.235  14.656 -0.5670 -0.1464 -0.3808
  276TMC3    O2 4232   3.878   0.753  14.445 -0.0609 -0.3271 -0.5079
  277MPD2     C 4233   0.600   4.394  13.294 -0.7373 -0.2814  0.4724
  277MPD2    C1 4234   0.484   4.459  13.345 -0.4371 -0.4558  0.3271
  277MPD2    C2 4235   0.471   4.471  13.481 -1.0731 -0.3040  0.3388
  277MPD2    C3 4236   0.572   4.413  13.563  0.0340  0.0962  0.3264
  277MPD2    C4 4237   0.684   4.361  13.507 -0.1925  0.2287 -0.9797
  277MPD2    C5 4238   0.694   4.345  13.380 -0.0574  0.1416 -0.0460
  277MPD2     H 4239   0.390   4.531  13.521 -1.5381 -1.6218  1.3872
  277MPD2    H1 4240   0.768   4.320  13.562 -1.6423 -2.3437 -0.6533
  277MPD2    H2 4241   0.616   4.374  13.188  1.1609  1.8048  0.3497
  277MPD2    H3 4242   0.784   4.310  13.331 -0.3087  3.3876 -2.8393
  277MPD2     N 4243   0.552   4.424  13.699 -1.0738 -0.5045  0.5103
  277MPD2    H5 4244   0.465   4.466  13.730 -0.9568  0.0808  0.0604
  277MPD2    N1 4245   0.387   4.518  13.258 -0.0779 -0.6551  0.3862
  277MPD2    H7 4246   0.424   4.537  13.165  0.3235 -1.6150  0.3543
  278TMC3    C1 4247   0.557   4.373  13.926 -0.1723 -0.0744  0.0682
  278TMC3    C2 4248   0.553   4.253  13.996  0.0024  0.0159 -0.3151
  278TMC3    C3 4249   0.435   4.198  14.036 -0.4494 -0.1197  0.0737
  278TMC3    C4 4250   0.447   4.455  13.928 -0.0760 -0.6053 -0.4757
  278TMC3    C5 4251   0.330   4.403  13.972 -0.2855  0.0169  0.3620
  278TMC3    C6 4252   0.320   4.269  14.020 -0.1991  0.0754  0.2620
  278TMC3     C 4253   0.632   4.375  13.801 -0.3246  0.7554 -0.2225
  278TMC3     O 4254   0.730   4.300  13.786  0.1101 -0.6070  0.5489
  278TMC3     H 4255   0.635   4.183  13.985 -0.2703 -0.5945  1.4165
  278TMC3    H1 4256   0.456   4.554  13.884  0.2125 -0.2930  0.2783
  278TMC3    H2 4257   0.220   4.226  14.021  0.2631 -0.9859  0.9249
  278TMC3    C7 4258   0.224   4.482  13.924  0.6239  0.5926 -0.0452
  278TMC3    C8 4259   0.426   4.054  14.011  0.2236 -0.5195  0.3092
  278TMC3    O1 4260   0.247   4.526  13.812 -0.1954 -0.1961 -0.3237
  278TMC3    O2 4261   0.489   3.978  14.082 -0.2511  0.2221  0.3811
  279MPD2     C 4262   0.751   4.289   0.078  0.2038  0.3800  0.2371
  279MPD2    C1 4263   0.660   4.390   0.092  0.1163 -1.4423 -0.3616
  279MPD2    C2 4264   0.533   4.368   0.041 -0.0068  0.8465 -0.3342
  279MPD2    C3 4265   0.488   4.243   0.006 -0.0872 -0.1682  0.6459
  279MPD2    C4 4266   0.578   4.143   0.017 -0.9576 -0.0538 -0.1527
  279MPD2    C5 4267   0.707   4.167   0.039 -0.4706  0.3543  0.3412
  279MPD2     H 4268   0.463   4.450   0.035 -1.3660 -0.4934 -2.9380
  279MPD2    H1 4269   0.550   4.039   0.000  1.1852 -0.7160  0.2990
  279MPD2    H2 4270   0.856   4.300   0.104  0.6484 -1.1026 -0.9552
  279MPD2    H3 4271   0.769   4.079   0.026 -0.5926  0.4291 -0.7445
  279MPD2     N 4272   0.354   4.204  17.724  0.6113  0.4404 -0.3418
  279MPD2    H5 4273   0.339   4.110  17.689  2.4059 -0.0466  0.2556
  279MPD2    N1 4274   0.709   4.508   0.155  0.2880 -0.2661 -0.9230
  279MPD2    H7 4275   0.810   4.516   0.160 -0.0540  3.4155  0.0440
  280TMC3    C1 4276   0.493   4.607   0.233 -0.6186 -0.1814 -0.2833
  280TMC3    C2 4277   0.453   4.502   0.307  0.2133  0.6643  0.0919
  280TMC3    C3 4278   0.324   4.497   0.350 -0.1122 -0.2605  0.7627
  280TMC3    C4 4279   0.416   4.717   0.212 -0.5262 -0.0044 -0.2944
  280TMC3    C5 4280   0.290   4.718   0.264 -0.3095  0.0353 -0.4358
  280TMC3    C6 4281   0.243   4.608   0.326  0.6164 -0.3354  0.3060
  280TMC3     C 4282   0.641   4.622   0.204  0.2486  0.4179  0.1052
  280TMC3     O 4283   0.691   4.734   0.221 -0.6199  0.1144 -0.2523
  280TMC3     H 4284   0.528   4.426   0.324 -0.3922 -0.0815 -0.6237
  280TMC3    H1 4285   0.463   0.070   0.174  3.1675 -2.0653 -0.6398
  280TMC3    H2 4286   0.137   4.601   0.349  0.1531  1.0684 -1.4059
  280TMC3    C7 4287   0.216   0.107   0.279  0.1038  0.3149  0.5229
  280TMC3    C8 4288   0.254   4.366   0.347 -0.0577 -0.4187  0.4079
  280TMC3    O1 4289   0.281   0.204   0.315  0.2763  0.3623  0.4271
  280TMC3    O2 4290   0.133   4.365   0.343 -0.6242  0.0869 -0.1223
  281TMC3    C1 4291   3.323   4.705  13.564 -0.3821 -0.9606 -0.5324
  281TMC3    C2 4292   3.361   0.067  13.485  0.7109 -0.2230  0.3959
  281TMC3    C3 4293   3.342   0.044  13.350  0.2678 -0.2909  0.0371
  281TMC3    C4 4294   3.298   4.579  13.519  0.3931  0.0047  0.2189
  281TMC3    C5 4295   3.286   4.560  13.382  0.6686 -0.7678 -0.0387
  281TMC3    C6 4296   3.308   4.664  13.294 -0.0792 -0.7289  0.1382
  281TMC3     C 4297   3.312   4.730  13.708 -0.0241 -0.4794  0.0465
  281TMC3     O 4298   3.340   4.635  13.783  0.1944  0.4816 -0.6203
  281TMC3     H 4299   3.389   0.165  13.523  0.2756 -0.0622  0.3018
  281TMC3    H1 4300   3.280   4.490  13.578 -1.0373  0.1009 -0.0624
  281TMC3    H2 4301   3.278   4.656  13.190 -1.7773 -0.6885  0.6363
  281TMC3    C7 4302   3.223   4.451  13.329  0.1737  0.2175 -0.1314
  281TMC3    C8 4303   3.369   0.146  13.250 -0.5461 -0.0401 -0.0434
  281TMC3    O1 4304   3.249   4.423  13.212 -0.6036  0.9411  0.7941
  281TMC3    O2 4305   3.409   0.103  13.142 -0.2215  0.4148  0.2995
  282MPD2     C 4306   0.485   1.466  15.085 -0.1713 -0.2938  0.3990
  282MPD2    C1 4307   0.349   1.486  15.086 -0.1023  0.2485 -0.3883
  282MPD2    C2 4308   0.290   1.495  14.962  0.3280  0.3165 -0.1752
  282MPD2    C3 4309   0.360   1.477  14.844 -0.3166 -0.2065  0.0778
  282MPD2    C4 4310   0.493   1.477  14.852 -0.2660 -0.5674  0.2364
  282MPD2    C5 4311   0.557   1.466  14.976  0.2453  0.4381 -0.7817
  282MPD2     H 4312   0.184   1.516  14.960  0.3229  0.3043 -0.0104
  282MPD2    H1 4313   0.558   1.462  14.766 -0.4441 -0.9790  0.1712
  282MPD2    H2 4314   0.547   1.462  15.174  0.8725 -3.6580 -0.4588
  282MPD2    H3 4315   0.664   1.449  14.972  0.7733  3.2430  2.2037
  282MPD2     N 4316   0.288   1.472  14.726 -0.0042  0.1767  0.1291
  282MPD2    H5 4317   0.191   1.500  14.732 -0.9001 -3.0224  0.3754
  282MPD2    N1 4318   0.268   1.488  15.206  1.4191 -0.9666  0.2475
  282MPD2    H7 4319   0.168   1.503  15.197  1.2603 -0.5485  2.8609
  283TMC3    C1 4320   0.217   1.503  15.438 -0.1005  0.5155  0.0845
  283TMC3    C2 4321   0.123   1.592  15.412 -0.4047  0.7306  0.2096
  283TMC3    C3 4322   0.037   1.609  15.517 -0.0409  0.0938  0.0842
  283TMC3    C4 4323   0.217   1.424  15.549 -0.0736  0.1446 -0.1409
  283TMC3    C5 4324   0.116   1.430  15.642  0.0182 -0.4976 -0.6564
  283TMC3    C6 4325   0.027   1.533  15.633  0.3245  0.4262 -0.4837
  283TMC3     C 4326   0.315   1.469  15.330  0.4022  0.4528  0.0362
  283TMC3     O 4327   0.426   1.419  15.355  0.0823  0.4202  0.0873
  283TMC3     H 4328   0.130   1.659  15.327  0.1399  0.1329 -0.2091
  283TMC3    H1 4329   0.292   1.347  15.564  0.3949  0.5741 -0.2930
  283TMC3    H2 4330   4.684   1.546  15.704  0.6285 -0.4126  0.0131
  283TMC3    C7 4331   0.085   1.326  15.731  0.0167 -0.0278  0.4593
  283TMC3    C8 4332   4.677   1.712  15.498  0.4355 -0.3134 -0.4170
  283TMC3    O1 4333   0.006   1.362  15.821  0.5326  0.3149 -0.5039
  283TMC3    O2 4334   4.631   1.764  15.597 -0.3580  0.3903 -0.5011
  284MPD2     C 4335   2.926   0.942  12.285 -0.0239 -0.2038 -0.1953
  284MPD2    C1 4336   3.054   0.978  12.305  0.5458  0.2431 -0.8649
  284MPD2    C2 4337   3.120   0.921  12.413  0.5702 -0.0558 -0.0241
  284MPD2    C3 4338   3.058   0.839  12.505  0.7380 -0.4536 -0.4626
  284MPD2    C4 4339   2.927   0.802  12.477 -0.0733 -0.3640 -0.7011
  284MPD2    C5 4340   2.864   0.859  12.371  1.0403 -0.2197 -0.1832
  284MPD2     H 4341   3.227   0.934  12.419  0.1401  2.7026  1.3159
  284MPD2    H1 4342   2.877   0.724  12.534 -1.0491  0.1514 -0.8512
  284MPD2    H2 4343   2.867   0.963  12.197  1.3438  0.7690 -0.8727
  284MPD2    H3 4344   2.766   0.816  12.352  0.7707  0.9352 -1.3970
  284MPD2     N 4345   3.136   0.768  12.601  0.4947  0.2544 -0.6084
  284MPD2    H5 4346   3.096   0.687  12.647  0.1612  1.5907  1.4522
  284MPD2    N1 4347   3.117   1.069  12.216 -0.4369  0.0379 -0.1977
  284MPD2    H7 4348   3.217   1.073  12.232 -0.1469 -0.0009 -2.0240
  285TMC3    C1 4349   3.146   1.169  12.018 -0.2810  0.0136  0.6458
  285TMC3    C2 4350   3.245   1.091  11.965 -0.0998 -0.2310 -0.6924
  285TMC3    C3 4351   3.329   1.142  11.869  0.4725 -0.3743  0.0119
  285TMC3    C4 4352   3.120   1.290  11.958  0.6184  0.5686  0.1099
  285TMC3    C5 4353   3.205   1.347  11.865 -0.0356  0.1636 -0.4648
  285TMC3    C6 4354   3.314   1.274  11.824 -0.2129  0.3157 -0.3894
  285TMC3     C 4355   3.053   1.122  12.105 -0.0365 -0.6355  0.1538
  285TMC3     O 4356   2.934   1.132  12.073  0.2044  0.5920 -0.1906
  285TMC3     H 4357   3.251   0.988  11.998  2.0991 -0.0226 -0.4192
  285TMC3    H1 4358   3.040   1.353  11.994  1.2295  1.5437 -0.2256
  285TMC3    H2 4359   3.367   1.306  11.735  1.2228  0.9999  0.7019
  285TMC3    C7 4360   3.161   1.462  11.782 -1.1307 -0.1433  0.8343
  285TMC3    C8 4361   3.397   1.043  11.784  0.5301  0.8940 -0.2317
  285TMC3    O1 4362   3.252   1.497  11.707 -0.0324  0.3323  0.3930
  285TMC3    O2 4363   3.378   0.924  11.799  0.9728  0.7492 -0.1235
  286MPD2     C 4364   4.516   4.562   1.371  0.1694  0.6510  0.3669
  286MPD2    C1 4365   4.473   4.443   1.316 -0.6278  0.0746  0.1704
  286MPD2    C2 4366   4.561   4.341   1.295  0.1135  0.6668 -0.2406
  286MPD2    C3 4367   4.689   4.347   1.340 -0.3511 -0.9593  0.2978
  286MPD2    C4 4368   4.725   4.463   1.412 -0.3888  0.4625  0.6757
  286MPD2    C5 4369   4.641   4.570   1.427 -0.1427 -0.2944  0.2721
  286MPD2     H 4370   4.519   4.260   1.237 -0.5051  0.1533  0.9409
  286MPD2    H1 4371   0.088   4.470   1.453 -0.1836  0.5181  0.1661
  286MPD2    H2 4372   4.453   4.650   1.377 -1.6823 -0.7838  1.8954
  286MPD2    H3 4373   4.682   4.652   1.485 -2.5906  0.0090  1.5847
  286MPD2     N 4374   0.041   4.238   1.335  0.6212  0.0315 -0.3695
  286MPD2    H5 4375   0.126   4.239   1.390  0.1620  0.0651  0.3424
  286MPD2    N1 4376   4.337   4.426   1.284 -0.7382  0.6241 -0.5338
  286MPD2    H7 4377   4.315   4.332   1.252  0.6683 -0.1487  0.8046
  287TMC3    C1 4378   0.130   4.026   1.265 -0.3369 -0.4737 -0.3435
  287TMC3    C2 4379   0.138   3.952   1.150 -0.0689 -0.9963 -0.3728
  287TMC3    C3 4380   0.253   3.905   1.098 -0.4783  0.7967 -0.7257
  287TMC3    C4 4381   0.247   4.070   1.311  0.1292 -1.1703  0.1773
  287TMC3    C5 4382   0.367   4.021   1.259 -0.4151  0.3801 -0.6615
  287TMC3    C6 4383   0.374   3.925   1.163  0.1631  0.3664  0.0067
  287TMC3     C 4384   0.019   4.115   1.266 -0.1629 -0.1266 -0.0365
  287TMC3     O 4385   4.667   4.087   1.188  0.3579  0.1800 -1.1771
  287TMC3     H 4386   0.045   3.919   1.106 -0.7151 -0.6074  0.6970
  287TMC3    H1 4387   0.246   4.109   1.413  3.2904  0.1368 -0.3192
  287TMC3    H2 4388   0.466   3.883   1.126  0.6327 -0.3323  1.9698
  287TMC3    C7 4389   0.487   4.049   1.342 -0.4991 -0.0551 -0.4840
  287TMC3    C8 4390   0.245   3.823   0.986  0.1564  0.3628  0.2535
  287TMC3    O1 4391   0.470   4.104   1.454 -0.1955  0.4745 -0.2696
  287TMC3    O2 4392   0.297   3.712   0.987 -0.0297  0.6937 -0.2804
  288TMC3    C1 4393   1.078   3.930  14.669  0.0350  0.2880  0.2775
  288TMC3    C2 4394   0.951   3.942  14.720 -0.1395  0.0652 -0.0149
  288TMC3    C3 4395   0.886   4.062  14.694 -0.4668  0.2329 -0.5162
  288TMC3    C4 4396   1.138   4.038  14.602 -0.3942 -0.2842  0.0361
  288TMC3    C5 4397   1.066   4.150  14.584  0.2683 -0.5362 -0.3514
  288TMC3    C6 4398   0.945   4.168  14.629  0.3384 -0.2451 -0.3073
  288TMC3     C 4399   1.174   3.875  14.769 -0.7242  0.5066 -0.3508
  288TMC3     O 4400   1.286   3.922  14.756  0.0311 -0.3886  0.0957
  288TMC3     H 4401   0.891   3.857  14.752 -0.6056  0.4699  0.1697
  288TMC3    H1 4402   1.237   4.041  14.558 -0.6203  1.3623 -0.3747
  288TMC3    H2 4403   0.877   4.242  14.588 -2.0566 -1.3939  1.6165
  288TMC3    C7 4404   1.098   4.229  14.462 -0.3748 -0.2661  0.0610
  288TMC3    C8 4405   0.750   4.096  14.747 -0.4246  0.5534  0.4202
  288TMC3    O1 4406   1.157   4.170  14.370  0.6843 -0.3900 -0.3421
  288TMC3    O2 4407   0.714   4.212  14.746  0.6704 -0.3126 -0.6835
  289MPD2     C 4408   0.628   3.009  14.412  0.1969 -0.1692  0.6328
  289MPD2    C1 4409   0.621   3.149  14.417 -1.0364 -0.0030 -0.3700
  289MPD2    C2 4410   0.535   3.215  14.331 -0.8370  0.1618 -0.0120
  289MPD2    C3 4411   0.447   3.150  14.248  0.2789  0.2521  1.1099
  289MPD2    C4 4412   0.445   3.012  14.262 -0.0240 -0.3716 -0.1593
  289MPD2    C5 4413   0.541   2.944  14.334  1.1885 -0.6588 -0.9390
  289MPD2     H 4414   0.530   3.323  14.323  1.7187  0.2126 -0.8974
  289MPD2    H1 4415   0.371   2.957  14.206 -0.1355  2.0929 -2.4299
  289MPD2    H2 4416   0.685   2.950  14.482  0.5489 -0.5859 -0.0028
  289MPD2    H3 4417   0.542   2.836  14.335 -1.6464 -0.6767 -0.9793
  289MPD2     N 4418   0.364   3.206  14.147 -0.7023 -0.0412 -0.5545
  289MPD2    H5 4419   0.312   3.144  14.086 -0.0816  0.1487 -1.2770
  289MPD2    N1 4420   0.718   3.210  14.499 -0.3338 -0.0313  0.1893
  289MPD2    H7 4421   0.766   3.143  14.558  0.4123 -0.0738 -0.4544
  290TMC3    C1 4422   0.287   3.383  14.011 -0.0289 -0.0940  0.4283
  290TMC3    C2 4423   0.256   3.515  13.992  0.2961  1.0359 -0.3419
  290TMC3    C3 4424   0.211   3.561  13.870  0.3691 -0.7363 -0.2418
  290TMC3    C4 4425   0.293   3.296  13.905  0.3318  0.6010 -0.4351
  290TMC3    C5 4426   0.271   3.347  13.779 -0.2635  0.9502 -0.5412
  290TMC3    C6 4427   0.220   3.475  13.765 -0.4006  0.2755 -0.5144
  290TMC3     C 4428   0.339   3.343  14.135  0.5893  0.5768 -1.0274
  290TMC3     O 4429   0.354   3.424  14.224 -0.2868  0.8704 -0.4392
  290TMC3     H 4430   0.235   3.567  14.084  1.9141 -0.9445  1.1463
  290TMC3    H1 4431   0.348   3.204  13.916 -1.7741 -0.4895  1.0843
  290TMC3    H2 4432   0.180   3.506  13.670  0.2754  0.3297 -0.7836
  290TMC3    C7 4433   0.250   3.254  13.672 -0.2804 -0.0928 -0.0901
  290TMC3    C8 4434   0.124   3.671  13.860 -1.0747 -0.2747  0.9647
  290TMC3    O1 4435   0.232   3.287  13.557  0.3930  0.2962 -0.2547
  290TMC3    O2 4436   0.066   3.674  13.755  0.1293 -0.1658  0.2163
  291MPD2     C 4437   0.025   3.100   0.004  0.2722 -1.0214 -0.2700
  291MPD2    C1 4438   0.125   3.049   0.088  0.1450  0.1081 -0.5320
  291MPD2    C2 4439   0.230   3.133   0.127  0.0962 -0.1612  0.4872
  291MPD2    C3 4440   0.239   3.266   0.069  0.2562 -0.7758 -0.0793
  291MPD2    C4 4441   0.150   3.310  17.724 -0.8316 -0.5317  0.6482
  291MPD2    C5 4442   0.048   3.229  17.694  0.3876  0.7710 -0.1151
  291MPD2     H 4443   0.307   3.090   0.191 -0.2036  0.0937  1.0246
  291MPD2    H1 4444   0.154   3.402  17.667 -2.7545 -0.8657 -0.0358
  291MPD2    H2 4445   4.669   3.050  17.728 -1.5689  2.7956 -1.0390
  291MPD2    H3 4446   4.709   3.262  17.624 -1.5993 -0.9275  1.2327
  291MPD2     N 4447   0.344   3.364   0.100  0.2986 -0.5330  0.0463
  291MPD2    H5 4448   0.331   3.454   0.054  2.9963  0.2398  0.7576
  291MPD2    N1 4449   0.118   2.915   0.126  0.0644  0.1113  0.1653
  291MPD2    H7 4450   0.181   2.887   0.201  0.9427  2.3529  0.2583
  292TMC3    C1 4451   0.050   2.687   0.146  0.0369  0.2595 -0.1552
  292TMC3    C2 4452   0.071   2.678   0.287  0.7734  0.0291  0.4306
  292TMC3    C3 4453   0.079   2.553   0.341 -0.2154 -0.5697 -0.2299
  292TMC3    C4 4454   0.045   2.571   0.072 -0.1732 -1.1377 -0.2396
  292TMC3    C5 4455   0.047   2.450   0.131  0.3202 -1.3799  0.3614
  292TMC3    C6 4456   0.065   2.444   0.269 -0.6370 -0.5497  0.2863
  292TMC3     C 4457   0.031   2.817   0.074 -0.7528 -0.1499 -0.4339
  292TMC3     O 4458   4.682   2.823  17.737 -0.3624 -0.6125 -0.3642
  292TMC3     H 4459   0.053   2.759   0.356  1.8685  0.9480 -0.3576
  292TMC3    H1 4460   0.033   2.584  17.714  0.5253  0.3870 -0.1255
  292TMC3    H2 4461   0.058   2.347   0.317  0.0414 -0.9235 -0.3697
  292TMC3    C7 4462   0.023   2.325   0.062 -0.6186 -0.4997  0.4725
  292TMC3    C8 4463   0.007   2.536   0.465  0.5781 -0.5928  0.3470
  292TMC3    O1 4464   0.012   2.222   0.132 -0.1300  0.3973 -0.6225
  292TMC3    O2 4465   0.068   2.576   0.564  0.1626 -0.0800 -0.7472
  293MPD2     C 4466   1.946   4.137  13.098 -0.6074  0.4910 -0.4871
  293MPD2    C1 4467   1.815   4.139  13.127 -0.3818 -0.8069 -0.5917
  293MPD2    C2 4468   1.768   4.224  13.222  0.2035 -0.3914  0.0646
  293MPD2    C3 4469   1.848   4.308  13.286 -0.2843  0.1479  0.3121
  293MPD2    C4 4470   1.983   4.309  13.260  0.8634  0.2770 -0.8690
  293MPD2    C5 4471   2.033   4.210  13.177 -0.3195 -0.5728 -0.7050
  293MPD2     H 4472   1.664   4.242  13.248  0.1824 -1.2925  0.6107
  293MPD2    H1 4473   2.052   4.378  13.310  0.5564 -0.0925  0.0582
  293MPD2    H2 4474   1.990   4.064  13.031  2.2172  1.6277  0.1070
  293MPD2    H3 4475   2.141   4.204  13.170 -0.2765 -0.7864  0.1420
  293MPD2     N 4476   1.781   4.396  13.373 -0.5701  0.2858  0.2910
  293MPD2    H5 4477   1.679   4.398  13.370 -0.6693 -2.0571  2.0808
  293MPD2    N1 4478   1.728   4.073  13.041  0.2732  0.4601  0.0295
  293MPD2    H7 4479   1.766   4.037  12.953 -1.0832  2.1294 -1.2434
  294TMC3    C1 4480   1.522   4.039  12.933 -0.6528 -0.3268 -0.8625
  294TMC3    C2 4481   1.383   4.040  12.936 -0.0131 -0.2231  0.1587
  294TMC3    C3 4482   1.318   4.086  12.825  0.6902  0.0546 -0.1466
  294TMC3    C4 4483   1.585   4.096  12.822 -0.0941  0.0376  0.1938
  294TMC3    C5 4484   1.508   4.150  12.716 -0.4872 -0.6547 -0.0854
  294TMC3    C6 4485   1.371   4.133  12.715 -0.2616 -0.5473 -0.0360
  294TMC3     C 4486   1.592   4.066  13.055  0.7859  0.1792  0.0060
  294TMC3     O 4487   1.525   4.074  13.158 -0.6260  0.0422  0.3576
  294TMC3     H 4488   1.324   3.985  13.008  0.3540  0.7206  1.1789
  294TMC3    H1 4489   1.693   4.093  12.815 -0.0809 -0.2757  0.5269
  294TMC3    H2 4490   1.306   4.176  12.640 -0.8205 -0.2087  0.6502
  294TMC3    C7 4491   1.587   4.251  12.643 -0.0831  0.3736  0.6471
  294TMC3    C8 4492   1.175   4.077  12.829 -0.0989  0.3558 -0.3096
  294TMC3    O1 4493   1.704   4.253  12.672 -0.2302 -0.1262 -0.0687
  294TMC3    O2 4494   1.114   4.071  12.938  0.8284 -0.4330  0.1661
  295MPD2     C 4495   2.301   2.655   1.174 -0.7822 -0.3527  0.3081
  295MPD2    C1 4496   2.261   2.790   1.160  0.1280  0.1961 -0.1989
  295MPD2    C2 4497   2.207   2.850   1.270 -0.2123  0.4848 -0.0952
  295MPD2    C3 4498   2.185   2.792   1.391 -0.1820 -0.4048 -0.3311
  295MPD2    C4 4499   2.207   2.654   1.396 -0.0521  0.4212 -0.4044
  295MPD2    C5 4500   2.261   2.588   1.287  0.0008 -0.2276  0.0806
  295MPD2     H 4501   2.175   2.951   1.248 -0.9749  0.3942  0.6232
  295MPD2    H1 4502   2.183   2.602   1.488 -1.5085 -1.5717 -1.9182
  295MPD2    H2 4503   2.363   2.599   1.105 -1.4024  0.0903 -0.6090
  295MPD2    H3 4504   2.305   2.490   1.302 -0.3244 -0.5553 -1.1393
  295MPD2     N 4505   2.120   2.861   1.495  1.2000  0.1609  0.2737
  295MPD2    H5 4506   2.093   2.801   1.572 -0.2999  1.3961  0.6949
  295MPD2    N1 4507   2.261   2.857   1.033 -0.4248 -0.3466 -0.0982
  295MPD2    H7 4508   2.214   2.945   1.016  0.0050  0.3954  2.5111
  296TMC3    C1 4509   2.035   3.041   1.620 -0.4951 -0.6306  0.2014
  296TMC3    C2 4510   2.023   3.173   1.644  0.0666 -0.0945 -0.7150
  296TMC3    C3 4511   1.955   3.215   1.753 -0.8605 -0.2996 -0.9022
  296TMC3    C4 4512   1.956   2.947   1.680  0.2493 -0.5703  0.5597
  296TMC3    C5 4513   1.880   2.995   1.785  0.0842  0.2692  0.5562
  296TMC3    C6 4514   1.883   3.127   1.828  0.1510  0.2634  0.1670
  296TMC3     C 4515   2.108   2.999   1.506 -0.3066 -0.3034 -0.5697
  296TMC3     O 4516   2.128   3.082   1.423  0.2024 -0.7689  0.0788
  296TMC3     H 4517   2.080   3.241   1.582  0.5669 -1.5306 -1.8340
  296TMC3    H1 4518   1.924   2.856   1.632 -2.1777  0.5215  0.1007
  296TMC3    H2 4519   1.831   3.162   1.917 -0.0882 -1.6801  0.8001
  296TMC3    C7 4520   1.794   2.906   1.861  0.0026 -0.2126  0.3502
  296TMC3    C8 4521   1.895   3.346   1.742 -0.0024  0.4357 -0.5413
  296TMC3    O1 4522   1.708   2.963   1.932 -0.0599  0.0133  0.3630
  296TMC3    O2 4523   1.794   3.361   1.814 -0.6059 -0.0778  0.7445
  297MPD2     C 4524   4.486   4.695  16.841 -0.3273  0.1472 -0.0265
  297MPD2    C1 4525   4.446   4.637  16.721 -0.0584  0.4521  0.2481
  297MPD2    C2 4526   4.439   4.725  16.617  0.0018 -0.2230 -0.4717
  297MPD2    C3 4527   4.472   0.121  16.624  0.1945  0.6885  0.0714
  297MPD2    C4 4528   4.516   0.173  16.748 -0.6082 -0.5145 -0.2293
  297MPD2    C5 4529   4.527   0.087  16.852  0.3362  0.1789  0.3702
  297MPD2     H 4530   4.392   4.688  16.527 -2.9837  1.4261  0.4111
  297MPD2    H1 4531   4.560   0.272  16.759  0.4756 -0.7974 -2.0385
  297MPD2    H2 4532   4.509   4.630  16.925 -2.3066 -1.3581 -0.6421
  297MPD2    H3 4533   4.568   0.123  16.945  0.6856 -3.1245  1.4589
  297MPD2     N 4534   4.470   0.200  16.508  0.8009 -0.0843  0.2828
  297MPD2    H5 4535   4.460   0.148  16.421  3.0568 -0.1471  0.0567
  297MPD2    N1 4536   4.413   4.506  16.707  0.0145 -0.2084  0.2026
  297MPD2    H7 4537   4.413   4.460  16.617 -0.8451 -0.6398  0.4225
  298TMC3    C1 4538   4.318   4.301  16.762  0.2155  0.0620  0.5249
  298TMC3    C2 4539   4.356   4.247  16.647  0.2242  0.3108  0.1873
  298TMC3    C3 4540   4.271   4.163  16.580 -0.3498  0.5618 -0.2673
  298TMC3    C4 4541   4.204   4.266  16.823  0.3030 -0.0155 -0.2157
  298TMC3    C5 4542   4.116   4.183  16.757  0.3160 -0.0231  0.0008
  298TMC3    C6 4543   4.161   4.122  16.640  0.4781  0.0954  0.7093
  298TMC3     C 4544   4.373   4.428  16.812  0.1646 -1.1586  0.6388
  298TMC3     O 4545   4.339   4.461  16.926  0.1308 -0.0151 -0.7232
  298TMC3     H 4546   4.454   4.270  16.606 -0.6693  0.4168 -1.8950
  298TMC3    H1 4547   4.172   4.315  16.915 -0.1797 -1.4401  0.3712
  298TMC3    H2 4548   4.083   4.058  16.599  1.4455  0.4534 -1.7319
  298TMC3    C7 4549   4.004   4.276  16.728 -0.2648  0.4846  0.0452
  298TMC3    C8 4550   4.243   4.190  16.439 -0.0390  0.3986  0.6285
  298TMC3    O1 4551   3.987   4.364  16.807 -0.1523 -0.0812  0.2764
  298TMC3    O2 4552   4.132   4.156  16.398 -0.1823 -0.0729  0.4570
  299MPD2     C 4553   4.509   0.395  10.197  0.3479 -0.3621 -0.8543
  299MPD2    C1 4554   4.497   0.288  10.284 -0.3797  0.0781 -0.7604
  299MPD2    C2 4555   4.398   0.197  10.283 -0.3670  0.2657 -0.1341
  299MPD2    C3 4556   4.298   0.233  10.187  0.2511 -0.4835  0.0276
  299MPD2    C4 4557   4.309   0.336  10.101 -0.1399 -0.2969 -0.1332
  299MPD2    C5 4558   4.414   0.418  10.106 -0.2055  0.0213  0.0739
  299MPD2     H 4559   4.388   0.109  10.345 -0.8743 -0.8974 -1.8506
  299MPD2    H1 4560   4.224   0.364  10.040 -1.1111 -1.2862  0.7658
  299MPD2    H2 4561   4.594   0.461  10.212 -1.4488  1.3632  1.5595
  299MPD2    H3 4562   4.415   0.508  10.045  3.1415  0.1590  0.3632
  299MPD2     N 4563   4.177   0.161  10.180 -0.0438 -0.4319  0.2882
  299MPD2    H5 4564   4.105   0.210  10.127 -2.1885 -2.1357  1.6117
  299MPD2    N1 4565   4.592   0.283  10.390 -0.9810  0.6444  0.2054
  299MPD2    H7 4566   4.659   0.359  10.394  0.5150 -0.6554 -0.1408
  300TMC3    C1 4567   3.981   0.068  10.269 -0.7285  0.0075 -0.1838
  300TMC3    C2 4568   3.913   0.174  10.211  0.0223 -0.8531  0.3019
  300TMC3    C3 4569   3.804   0.228  10.272  0.7663  0.1405 -0.0663
  300TMC3    C4 4570   3.936   0.022  10.384 -0.2392  0.3823  0.1891
  300TMC3    C5 4571   3.831   0.086  10.452  0.0304 -0.1802 -0.1716
  300TMC3    C6 4572   3.760   0.185  10.394 -0.1389  0.6778  0.3937
  300TMC3     C 4573   4.131   0.063  10.263  0.3530  0.5728  0.0641
  300TMC3     O 4574   4.186   4.734  10.355 -0.3596 -0.8488 -0.5688
  300TMC3     H 4575   3.923   0.203  10.108 -3.8006  0.3010  0.2681
  300TMC3    H1 4576   3.976   4.671  10.431  1.3943 -0.1640 -2.2371
  300TMC3    H2 4577   3.671   0.231  10.436  0.2601 -0.4894  2.5136
  300TMC3    C7 4578   3.767   0.009  10.558 -0.0128  0.2705 -0.0580
  300TMC3    C8 4579   3.767   0.360  10.223 -0.6815  1.0488  0.0188
  300TMC3    O1 4580   3.777   4.622  10.554 -0.3056  0.4839 -0.3475
  300TMC3    O2 4581   3.758   0.378  10.103 -0.1812 -0.5615 -0.2263
  301MPD2     C 4582   2.852   1.112   1.354  0.2277 -0.2898  0.0879
  301MPD2    C1 4583   2.743   1.074   1.277 -0.6899 -0.2028  0.1871
  301MPD2    C2 4584   2.748   0.946   1.226  0.2150 -0.5126  0.0142
  301MPD2    C3 4585   2.854   0.861   1.239  0.7281  0.4103  0.2455
  301MPD2    C4 4586   2.952   0.888   1.332  0.3502 -0.5162 -0.3783
  301MPD2    C5 4587   2.940   1.008   1.398 -0.7400 -0.3063  0.1073
  301MPD2     H 4588   2.664   0.921   1.162 -1.3891  3.4239  0.6300
  301MPD2    H1 4589   3.025   0.815   1.366  0.0455 -0.0423  1.3138
  301MPD2    H2 4590   2.864   1.213   1.389 -0.7810  0.1364 -0.7882
  301MPD2    H3 4591   3.011   1.021   1.479  0.0009  0.2542 -0.6253
  301MPD2     N 4592   2.860   0.734   1.175 -0.1462 -0.2170  0.2563
  301MPD2    H5 4593   2.944   0.680   1.193 -0.2707 -0.4852  0.0291
  301MPD2    N1 4594   2.640   1.154   1.249  0.1449 -0.0614  0.6240
  301MPD2    H7 4595   2.557   1.120   1.201 -0.3453 -1.2828  2.3792
  302TMC3    C1 4596   2.808   0.558   1.027  0.4494 -0.3806  0.1771
  302TMC3    C2 4597   2.861   0.462   1.103  0.0224 -0.8818 -0.0259
  302TMC3    C3 4598   2.872   0.334   1.056 -0.5222 -0.1206 -0.3084
  302TMC3    C4 4599   2.746   0.533   0.907  0.6497 -0.3765 -0.8810
  302TMC3    C5 4600   2.744   0.403   0.872 -0.5117 -0.3572  0.3096
  302TMC3    C6 4601   2.812   0.297   0.939  0.4830 -0.2245  0.2313
  302TMC3     C 4602   2.772   0.685   1.087  0.4658  0.2713 -0.1776
  302TMC3     O 4603   2.668   0.730   1.038 -0.0477  0.1168  0.5518
  302TMC3     H 4604   2.908   0.488   1.198  3.4116 -0.0997 -1.9408
  302TMC3    H1 4605   2.718   0.622   0.853  1.7274 -0.1663 -1.1026
  302TMC3    H2 4606   2.815   0.192   0.910 -1.1456  0.2131 -1.5600
  302TMC3    C7 4607   2.682   0.377   0.749 -0.6000  0.3596  0.1365
  302TMC3    C8 4608   2.911   0.234   1.153  0.3414 -0.0829  0.3469
  302TMC3    O1 4609   2.712   0.278   0.681  0.0398  0.9917  0.3328
  302TMC3    O2 4610   2.984   0.264   1.251  0.1563  0.2166 -0.1645
  303MPD2     C 4611   1.651   4.733  10.594  0.2027 -0.0066  0.2645
  303MPD2    C1 4612   1.517   4.724  10.567  0.6866 -0.0510  0.0368
  303MPD2    C2 4613   1.479   4.681  10.445 -0.6015 -0.0792  0.5559
  303MPD2    C3 4614   1.568   4.652  10.343 -0.1369  0.1309  0.3190
  303MPD2    C4 4615   1.700   4.675  10.364  0.7936 -0.5422 -0.2140
  303MPD2    C5 4616   1.736   4.719  10.488  0.4317  0.2777  0.0941
  303MPD2     H 4617   1.373   4.690  10.425 -0.9388 -0.5999  2.1214
  303MPD2    H1 4618   1.777   4.667  10.288  1.5215  0.6670  0.3888
  303MPD2    H2 4619   1.690   0.038  10.686 -0.7010  0.6419  0.3479
  303MPD2    H3 4620   1.841   0.004  10.506  0.4145  1.5259 -1.3868
  303MPD2     N 4621   1.527   4.601  10.218 -0.1021 -0.3181  0.0905
  303MPD2    H5 4622   1.593   4.588  10.142  2.4954 -0.3331  2.3938
  303MPD2    N1 4623   1.426   0.031  10.664 -0.0329 -0.1665 -0.1455
  303MPD2    H7 4624   1.462   0.069  10.752 -1.1429  0.4846  0.0215
  304TMC3    C1 4625   1.247   4.737  10.807 -0.2170 -0.4216 -0.1481
  304TMC3    C2 4626   1.114   4.736  10.819 -0.4040 -0.6715  0.0992
  304TMC3    C3 4627   1.052   4.691  10.935 -0.0470  0.4809 -0.1019
  304TMC3    C4 4628   1.330   4.702  10.907  0.2850 -0.1407 -0.1157
  304TMC3    C5 4629   1.275   4.634  11.009 -0.1854 -0.3887  0.1458
  304TMC3    C6 4630   1.136   4.643  11.030  0.3639 -0.2167  0.2883
  304TMC3     C 4631   1.290   4.737  10.673  0.3605 -1.1271  0.0178
  304TMC3     O 4632   1.220   4.668  10.595 -0.1721  0.3175  0.2653
  304TMC3     H 4633   1.048   0.015  10.735 -0.5696  2.0437  0.7680
  304TMC3    H1 4634   1.435   4.688  10.885  1.3258  3.4377  2.6349
  304TMC3    H2 4635   1.093   4.601  11.121  0.9558 -3.1364 -0.7818
  304TMC3    C7 4636   1.310   4.488  11.019  0.3761 -0.4270  0.1095
  304TMC3    C8 4637   0.955   4.587  10.909  0.2946  0.6962 -0.4633
  304TMC3    O1 4638   1.222   4.420  11.065 -0.1666  0.1099 -0.2169
  304TMC3    O2 4639   0.965   4.538  10.800  0.3134  0.2206 -0.2092
  305MPD2     C 4640   0.258   1.956  13.969  0.0358  0.2438 -0.1127
  305MPD2    C1 4641   0.270   1.834  14.020  0.2389  0.2560 -0.5764
  305MPD2    C2 4642   0.198   1.734  13.963  1.4222 -0.6164 -0.2498
  305MPD2    C3 4643   0.093   1.751  13.878  0.8456 -0.6024  0.1937
  305MPD2    C4 4644   0.073   1.875  13.832  0.0995 -0.1843 -0.4875
  305MPD2    C5 4645   0.162   1.973  13.876  0.5982  0.1436 -0.2626
  305MPD2     H 4646   0.210   1.639  14.014  0.6611 -1.3188 -1.3811
  305MPD2    H1 4647   4.728   1.902  13.768 -0.8097  0.3136  0.8827
  305MPD2    H2 4648   0.316   2.045  13.992  1.7124 -0.3581 -1.9044
  305MPD2    H3 4649   0.155   2.074  13.837 -1.2869 -0.2078 -0.8747
  305MPD2     N 4650   0.009   1.648  13.830 -0.0034  0.0149 -0.6807
  305MPD2    H5 4651   4.666   1.669  13.771 -0.1518  0.2204 -0.4017
  305MPD2    N1 4652   0.374   1.810  14.115 -0.0518  0.0190 -1.0541
  305MPD2    H7 4653   0.425   1.890  14.150  0.1525  0.9435 -3.5216
  306TMC3    C1 4654   0.520   1.699  14.244 -0.1262  0.0029 -0.2117
  306TMC3    C2 4655   0.606   1.593  14.257 -0.3496 -0.4628  0.2399
  306TMC3    C3 4656   0.671   1.571  14.375 -0.2661 -0.3001  0.1962
  306TMC3    C4 4657   0.497   1.774  14.354 -0.9682  0.6523 -0.3808
  306TMC3    C5 4658   0.570   1.758  14.467 -0.0784  0.4742 -0.2030
  306TMC3    C6 4659   0.654   1.649  14.479 -0.2388 -0.5610 -0.7285
  306TMC3     C 4660   0.420   1.682  14.149  0.5379 -0.1229  0.5204
  306TMC3     O 4661   0.394   1.568  14.110 -0.2769  0.5396 -0.1507
  306TMC3     H 4662   0.623   1.531  14.169 -0.0824  0.0850 -0.0996
  306TMC3    H1 4663   0.412   1.841  14.349 -0.7804  0.9639  0.6294
  306TMC3    H2 4664   0.700   1.636  14.575 -0.1753 -0.2758 -0.7188
  306TMC3    C7 4665   0.499   1.804  14.586 -0.4329 -0.2539  0.0874
  306TMC3    C8 4666   0.775   1.466  14.372 -0.5381 -0.3353 -0.4708
  306TMC3    O1 4667   0.375   1.803  14.577 -0.0810  0.1834  0.1749
  306TMC3    O2 4668   0.794   1.407  14.268 -1.1122  0.3994  0.0746
  307MPD2     C 4669   3.714   4.249   0.533  0.4661 -0.2900  0.5711
  307MPD2    C1 4670   3.639   4.354   0.482 -0.0187  0.1092  1.0671
  307MPD2    C2 4671   3.582   4.437   0.570 -0.3969  0.2859 -1.1613
  307MPD2    C3 4672   3.582   4.408   0.708 -0.2927 -0.2436 -0.3827
  307MPD2    C4 4673   3.660   4.304   0.756 -0.4073  0.0540  0.0138
  307MPD2    C5 4674   3.716   4.227   0.664  0.4674  0.1866  0.3123
  307MPD2     H 4675   3.514   4.509   0.527  0.8142  2.6782  0.8954
  307MPD2    H1 4676   3.658   4.263   0.857 -0.1594 -1.6911 -0.6847
  307MPD2    H2 4677   3.783   4.189   0.475 -0.8657 -1.0530 -0.2010
  307MPD2    H3 4678   3.767   4.138   0.700 -1.9292 -0.5419  1.8340
  307MPD2     N 4679   3.497   4.479   0.795 -0.9412  0.2361 -0.1657
  307MPD2    H5 4680   3.424   4.531   0.748 -1.3495  0.0313  0.2462
  307MPD2    N1 4681   3.638   4.398   0.342  0.2837 -0.6428  0.4799
  307MPD2    H7 4682   3.602   4.491   0.321 -3.1379 -1.9507  0.4483
  308TMC3    C1 4683   3.176   4.502   0.823 -0.1900  0.0124  0.6523
  308TMC3    C2 4684   3.161   4.642   0.826  0.0964 -0.0290 -0.7158
  308TMC3    C3 4685   3.242   4.706   0.916 -0.0568  0.4321 -0.2307
  308TMC3    C4 4686   3.277   4.442   0.888  0.6038  0.2213  0.2479
  308TMC3    C5 4687   3.358   4.516   0.967 -0.3402 -0.1737 -0.2516
  308TMC3    C6 4688   3.346   4.649   0.986  0.2268  0.3858 -0.3613
  308TMC3     C 4689   3.105   4.417   0.731  0.2004  0.3530 -0.6297
  308TMC3     O 4690   3.154   4.307   0.706 -0.1277 -0.5705 -0.2999
  308TMC3     H 4691   3.087   4.700   0.772 -1.0024  0.9223  1.8271
  308TMC3    H1 4692   3.300   4.336   0.890  0.2618  0.1574  0.7132
  308TMC3    H2 4693   3.404   4.719   1.045  0.0064 -1.1153  1.6635
  308TMC3    C7 4694   3.490   4.484   0.933  0.1396  1.2878  0.0710
  308TMC3    C8 4695   3.219   0.106   0.948  0.3509 -0.7968  0.6062
  308TMC3    O1 4696   3.561   4.431   1.019  0.3249 -0.3386  0.6824
  308TMC3    O2 4697   3.224   0.149   1.062 -0.5670 -0.0692  0.0867
  309MPD2     C 4698   2.527   4.535  17.251 -0.0216 -0.0018 -0.3939
  309MPD2    C1 4699   2.503   4.629  17.150  0.2348  0.4588 -0.3915
  309MPD2    C2 4700   2.374   4.676  17.144  0.0250 -0.3074 -0.2620
  309MPD2    C3 4701   2.287   4.636  17.244  0.6574  0.4003  0.1870
  309MPD2    C4 4702   2.312   4.541  17.334 -0.4482  0.3755 -0.2895
  309MPD2    C5 4703   2.438   4.497  17.342  0.2173  0.2860  0.3434
  309MPD2     H 4704   2.352   0.017  17.073  0.1330 -0.1604 -0.1305
  309MPD2    H1 4705   2.239   4.499  17.402  0.4835  0.8063  0.9695
  309MPD2    H2 4706   2.624   4.485  17.249  0.0796  0.1574  0.9648
  309MPD2    H3 4707   2.473   4.422  17.412 -0.2269  0.2932  0.5750
  309MPD2     N 4708   2.155   4.686  17.251 -0.7143 -0.2874  0.1333
  309MPD2    H5 4709   2.108   4.666  17.339 -1.0999 -0.3681 -0.0908
  309MPD2    N1 4710   2.596   4.670  17.049 -0.0355 -0.1023  0.3424
  309MPD2    H7 4711   2.559   4.717  16.968  1.2007  2.7066  1.4244
  310TMC3    C1 4712   2.808   4.680  16.940  0.3344 -0.0504 -0.1721
  310TMC3    C2 4713   2.748   0.021  16.836 -0.0316 -0.2658  0.7667
  310TMC3    C3 4714   2.820   0.025  16.721  0.0561 -0.3363  0.9175
  310TMC3    C4 4715   2.928   4.623  16.937  0.1716 -0.5512  0.6987
  310TMC3    C5 4716   2.994   4.626  16.816  0.1990  1.0004 -0.0134
  310TMC3    C6 4717   2.940   4.696  16.711  0.6414  0.0958 -0.0638
  310TMC3     C 4718   2.721   4.623  17.043  0.4417 -0.1279 -0.1752
  310TMC3     O 4719   2.784   4.570  17.136  0.2014  0.1233 -0.3895
  310TMC3     H 4720   2.658   0.082  16.833  0.3725  0.3570  1.1458
  310TMC3    H1 4721   2.974   4.575  17.022 -1.1780 -2.3118  0.4240
  310TMC3    H2 4722   3.005   4.695  16.625 -0.5467  2.6291 -0.9723
  310TMC3    C7 4723   3.073   4.503  16.791 -0.6596  0.3118 -0.1410
  310TMC3    C8 4724   2.770   0.085  16.607  0.1103 -1.2909  0.0853
  310TMC3    O1 4725   3.052   4.437  16.689 -0.0976  0.1332 -0.1074
  310TMC3    O2 4726   2.658   0.058  16.577 -0.9166 -0.4701 -0.4235
  311MPD2     C 4727   3.821   1.523  12.406 -0.4395 -0.1948 -0.2388
  311MPD2    C1 4728   3.881   1.563  12.524 -0.4559  0.5463 -0.4107
  311MPD2    C2 4729   3.828   1.518  12.642 -0.1151 -0.1863 -0.0534
  311MPD2    C3 4730   3.718   1.436  12.651 -0.8070  0.4230 -0.4794
  311MPD2    C4 4731   3.664   1.401  12.529 -0.2149  0.4426 -0.2872
  311MPD2    C5 4732   3.718   1.441  12.410 -0.0247 -0.0932 -0.4688
  311MPD2     H 4733   3.853   1.540  12.745  0.2703 -2.7248  0.3934
  311MPD2    H1 4734   3.580   1.334  12.528 -0.6058  0.9219  0.5640
  311MPD2    H2 4735   3.862   1.548  12.308 -0.9893 -3.2842 -1.2622
  311MPD2    H3 4736   3.676   1.401  12.318 -0.9816 -1.2394  0.4644
  311MPD2     N 4737   3.685   1.386  12.778  0.5457 -0.1967  0.1812
  311MPD2    H5 4738   3.718   1.431  12.863 -2.1920  1.0633  0.5720
  311MPD2    N1 4739   3.991   1.658  12.529  0.6225 -1.0400 -0.3318
  311MPD2    H7 4740   4.016   1.685  12.623  0.3550 -0.3335 -0.4563
  312TMC3    C1 4741   3.580   1.261  12.941 -0.3016 -0.1053 -0.0861
  312TMC3    C2 4742   3.521   1.145  12.981  0.0515  0.1009 -0.5733
  312TMC3    C3 4743   3.477   1.136  13.115  0.6225 -0.1350 -0.2221
  312TMC3    C4 4744   3.627   1.354  13.028  0.0404  0.4331  0.1503
  312TMC3    C5 4745   3.584   1.338  13.156  0.5303 -0.4277  0.1227
  312TMC3    C6 4746   3.510   1.235  13.200 -0.3001  0.3863 -0.0197
  312TMC3     C 4747   3.601   1.279  12.797  0.6415  1.2657 -0.2927
  312TMC3     O 4748   3.533   1.206  12.727  0.0945 -0.0891  0.4960
  312TMC3     H 4749   3.497   1.070  12.906 -0.1322 -0.7614  0.3449
  312TMC3    H1 4750   3.660   1.453  12.997  0.1793  0.1748 -0.5289
  312TMC3    H2 4751   3.454   1.234  13.292 -1.2604 -2.4384 -0.6320
  312TMC3    C7 4752   3.593   1.453  13.237 -0.0946 -0.0768 -0.2912
  312TMC3    C8 4753   3.347   1.067  13.123  0.8103 -0.1821  0.4034
  312TMC3    O1 4754   3.583   1.564  13.184  0.6545 -0.1101  0.3648
  312TMC3    O2 4755   3.318   1.051  13.239 -0.0148  0.2189 -0.0205
  313MPD2     C 4756   2.886   0.634  10.946  0.2202 -0.0603  0.5102
  313MPD2    C1 4757   2.991   0.698  10.882  0.3319  0.1572  0.7796
  313MPD2    C2 4758   3.110   0.635  10.842  0.0116 -0.2604  0.2821
  313MPD2    C3 4759   3.118   0.495  10.841 -0.1534  0.5502  0.1239
  313MPD2    C4 4760   3.015   0.433  10.910  0.0238 -0.1265 -1.0088
  313MPD2    C5 4761   2.909   0.500  10.970  0.1895 -0.2602 -0.5000
  313MPD2     H 4762   3.188   0.689  10.789 -1.4387  1.0148 -0.5249
  313MPD2    H1 4763   3.024   0.327  10.933 -1.2752  0.0171  0.1932
  313MPD2    H2 4764   2.803   0.686  10.991  0.5793  1.8182 -0.9810
  313MPD2    H3 4765   2.837   0.452  11.034  1.7797 -0.6780  0.9680
  313MPD2     N 4766   3.232   0.425  10.787 -0.6629 -0.3226 -0.8470
  313MPD2    H5 4767   3.319   0.473  10.766 -1.6319  0.2204 -3.6176
  313MPD2    N1 4768   2.985   0.828  10.845 -0.3603 -0.2929 -0.1310
  313MPD2    H7 4769   3.075   0.862  10.812  1.0786 -2.2841  1.6755
  314TMC3    C1 4770   2.897   1.033  10.788 -0.0525 -0.0366 -0.7379
  314TMC3    C2 4771   3.005   1.096  10.845 -0.6875  0.3388  0.6657
  314TMC3    C3 4772   3.024   1.221  10.813  0.6558 -0.7933  0.0950
  314TMC3    C4 4773   2.809   1.096  10.710  0.3182 -0.3446 -0.7100
  314TMC3    C5 4774   2.828   1.227  10.682  0.0561  1.1048  0.1238
  314TMC3    C6 4775   2.943   1.300  10.735 -0.2362  0.2241 -0.1278
  314TMC3     C 4776   2.867   0.898  10.836  0.5078  0.5680 -0.2631
  314TMC3     O 4777   2.744   0.873  10.845  0.0832  0.1968  0.3660
  314TMC3     H 4778   3.056   1.042  10.924  0.8647 -0.6776 -1.0262
  314TMC3    H1 4779   2.720   1.042  10.681 -0.7183  1.9707 -1.8646
  314TMC3    H2 4780   2.965   1.406  10.720 -0.9994  0.4585  0.3975
  314TMC3    C7 4781   2.740   1.279  10.578 -0.4121  0.5904 -0.0099
  314TMC3    C8 4782   3.136   1.285  10.882  0.0036 -0.7214  0.4468
  314TMC3    O1 4783   2.624   1.235  10.571  0.1865  0.2253 -0.4988
  314TMC3    O2 4784   3.190   1.382  10.826  0.5392  0.5300 -0.2208
  315MPD2     C 4785   4.027   4.223   0.071  0.7675  0.0162  0.0147
  315MPD2    C1 4786   4.102   4.302   0.155 -0.3019 -0.4340 -0.1703
  315MPD2    C2 4787   4.122   4.430   0.116 -0.2179 -0.3024  0.0259
  315MPD2    C3 4788   4.057   4.488   0.008 -0.1129 -0.2520  0.2601
  315MPD2    C4 4789   3.982   4.402  17.680  0.2175  0.0765 -0.5069
  315MPD2    C5 4790   3.969   4.268  17.708 -0.7016  0.5361  0.2620
  315MPD2     H 4791   4.189   4.495   0.171 -0.6452  0.5288 -0.4379
  315MPD2    H1 4792   3.940   4.431  17.584  0.6151 -2.6073 -1.4929
  315MPD2    H2 4793   4.019   4.119   0.098  2.6936 -0.4690 -1.3055
  315MPD2    H3 4794   3.915   4.203  17.639 -1.9012  0.2735  1.4547
  315MPD2     N 4795   4.094   4.620  17.725 -0.5887  0.1543  0.1716
  315MPD2    H5 4796   4.172   4.660   0.028  0.9309 -2.2473 -0.2085
  315MPD2    N1 4797   4.169   4.264   0.274 -0.5109 -0.2938  0.0022
  315MPD2    H7 4798   4.242   4.330   0.302  0.6113 -1.5278  0.0001
  316TMC3    C1 4799   4.065   0.105  17.658  0.0737  0.4750  0.1500
  316TMC3    C2 4800   4.160   0.136   0.001  0.3631  0.5250  0.1186
  316TMC3    C3 4801   4.171   0.273   0.033 -0.1720 -0.1036 -0.1334
  316TMC3    C4 4802   4.002   0.196  17.579 -0.1823 -0.1067  1.4508
  316TMC3    C5 4803   4.007   0.324  17.624 -0.1963 -0.2664 -1.2637
  316TMC3    C6 4804   4.094   0.365  17.721  0.6900 -0.4571 -0.4221
  316TMC3     C 4805   4.024   4.700  17.641  0.4681  0.5038  0.2349
  316TMC3     O 4806   3.941   4.667  17.553  0.1715  0.2175  0.4096
  316TMC3     H 4807   4.197   0.065   0.074  4.2250  0.2364 -2.1363
  316TMC3    H1 4808   3.929   0.162  17.506  1.8440 -0.9737 -0.1635
  316TMC3    H2 4809   4.101   0.469   0.002 -1.2684 -0.8801  1.4571
  316TMC3    C7 4810   3.927   0.425  17.566 -0.5522 -0.4628 -0.2297
  316TMC3    C8 4811   4.277   0.322   0.125 -0.2633  0.5396  0.3632
  316TMC3    O1 4812   3.894   0.514  17.645  0.2425  1.0074  0.0608
  316TMC3    O2 4813   4.251   0.423   0.188 -0.1622  0.2868  0.6777
  317MPD2     C 4814   0.512   3.316  12.492 -0.1986 -0.3924 -0.0150
  317MPD2    C1 4815   0.576   3.199  12.463  0.6765  0.0903  0.4448
  317MPD2    C2 4816   0.629   3.119  12.561 -0.4623  0.4489 -0.3410
  317MPD2    C3 4817   0.601   3.145  12.687  0.5791  0.1595  0.2010
  317MPD2    C4 4818   0.519   3.258  12.713 -0.4106 -0.3557  1.0284
  317MPD2    C5 4819   0.482   3.349  12.620 -0.1720 -0.3625 -0.1822
  317MPD2     H 4820   0.689   3.032  12.534  0.5450  0.7709  0.8386
  317MPD2    H1 4821   0.480   3.283  12.811  0.0676  0.6391  0.9709
  317MPD2    H2 4822   0.491   3.379  12.407 -0.8606  0.4427  0.7613
  317MPD2    H3 4823   0.419   3.435  12.639  0.5817  0.1019  0.2242
  317MPD2     N 4824   0.662   3.065  12.789 -0.3207  0.3403  0.1121
  317MPD2    H5 4825   0.720   2.988  12.758 -0.4208 -0.2127  1.2940
  317MPD2    N1 4826   0.610   3.162  12.328 -0.3168  0.1578 -0.2162
  317MPD2    H7 4827   0.662   3.076  12.317  2.3955  1.5743  1.3901
  318TMC3    C1 4828   0.706   2.987  13.007  0.5627 -1.1370 -0.3516
  318TMC3    C2 4829   0.659   2.862  12.979  0.1850 -0.4140  0.5219
  318TMC3    C3 4830   0.684   2.775  13.074 -0.3430  0.1819 -0.2151
  318TMC3    C4 4831   0.777   3.025  13.115  0.1667  0.4399 -0.4595
  318TMC3    C5 4832   0.814   2.928  13.201  0.0384 -0.2237  0.1460
  318TMC3    C6 4833   0.760   2.803  13.190 -0.3304 -0.4180 -0.0723
  318TMC3     C 4834   0.666   3.092  12.926 -0.8982  0.3605  0.2768
  318TMC3     O 4835   0.626   3.194  12.984  0.3447  0.5112  0.4450
  318TMC3     H 4836   0.600   2.844  12.890  2.1246 -0.6434 -0.7124
  318TMC3    H1 4837   0.812   3.126  13.133  0.6193 -0.1800  2.0979
  318TMC3    H2 4838   0.771   2.726  13.265  0.3999 -2.1825 -1.9919
  318TMC3    C7 4839   0.852   2.975  13.331  1.1013  0.7361 -0.3657
  318TMC3    C8 4840   0.592   2.664  13.090 -0.1210 -0.5958 -0.1268
  318TMC3    O1 4841   0.878   3.097  13.351 -0.3641 -0.0352 -0.2689
  318TMC3    O2 4842   0.630   2.557  13.136  0.1186 -0.0497 -0.2954
  319MPD2     C 4843   1.782   4.247  16.732  0.1843 -0.3640 -0.6209
  319MPD2    C1 4844   1.775   4.115  16.781 -0.2308 -0.1923  0.1389
  319MPD2    C2 4845   1.680   4.032  16.723 -0.1708 -0.3066  0.2198
  319MPD2    C3 4846   1.598   4.078  16.617 -0.8029 -0.2909 -0.3099
  319MPD2    C4 4847   1.600   4.210  16.575 -0.2798  0.1931  0.4095
  319MPD2    C5 4848   1.694   4.293  16.637 -0.0766 -0.4474  0.1580
  319MPD2     H 4849   1.659   3.935  16.767  0.3676  0.2215  1.6496
  319MPD2    H1 4850   1.537   4.243  16.492  2.0710 -0.4009 -1.6165
  319MPD2    H2 4851   1.857   4.318  16.766 -0.8344  0.4641 -0.0824
  319MPD2    H3 4852   1.707   4.399  16.617 -0.8627  0.1213  2.7412
  319MPD2     N 4853   1.504   3.990  16.549 -0.4191 -0.2607 -0.5528
  319MPD2    H5 4854   1.464   4.030  16.464  0.2131  0.3763 -0.5516
  319MPD2    N1 4855   1.864   4.069  16.887 -0.1148  0.4486 -0.2944
  319MPD2    H7 4856   1.865   3.972  16.915 -2.7081  1.0168  1.7518
  320TMC3    C1 4857   1.367   3.803  16.505 -0.3314  0.0016 -0.0218
  320TMC3    C2 4858   1.276   3.889  16.457 -0.3243  0.2537  0.2308
  320TMC3    C3 4859   1.172   3.847  16.382  0.1975  0.1240 -0.0814
  320TMC3    C4 4860   1.348   3.670  16.495  0.3800  0.5620  0.2374
  320TMC3    C5 4861   1.239   3.623  16.424 -0.0090 -0.9173  0.4007
  320TMC3    C6 4862   1.156   3.711  16.359  0.1533  0.3241  0.0753
  320TMC3     C 4863   1.481   3.857  16.580  0.0089 -0.0117  0.2813
  320TMC3     O 4864   1.536   3.788  16.669 -0.5552  0.1860 -0.0586
  320TMC3     H 4865   1.283   3.990  16.495 -1.1800  0.4556 -0.1486
  320TMC3    H1 4866   1.423   3.604  16.537  0.6007  0.9915  0.5206
  320TMC3    H2 4867   1.081   3.668  16.294 -1.6092  2.0790  0.9427
  320TMC3    C7 4868   1.203   3.479  16.413 -0.2481  0.0768  0.1272
  320TMC3    C8 4869   1.080   3.949  16.333 -0.3116  0.8297  0.6307
  320TMC3    O1 4870   1.097   3.454  16.353  0.4308 -0.5465 -0.0203
  320TMC3    O2 4871   1.094   4.063  16.378  0.1975  0.2012 -0.2075
  321TMC3    C1 4872   2.010   4.092  17.070  0.7237  0.6209  0.5728
  321TMC3    C2 4873   2.023   3.962  17.083  0.7944  0.2300  0.4739
  321TMC3    C3 4874   2.132   3.911  17.162  0.0057 -0.0892 -0.5827
  321TMC3    C4 4875   2.088   4.180  17.144  0.5156 -0.3429  1.0525
  321TMC3    C5 4876   2.183   4.131  17.235 -0.0852  0.2799 -0.5198
  321TMC3    C6 4877   2.205   3.998  17.235 -0.0886 -1.0799 -0.4074
  321TMC3     C 4878   1.947   4.157  16.955  0.1548 -0.0794  0.6793
  321TMC3     O 4879   1.960   4.278  16.949  0.7539 -0.2349 -0.0413
  321TMC3     H 4880   1.962   3.892  17.026 -0.9484  2.0849  0.0709
  321TMC3    H1 4881   2.068   4.287  17.142 -0.0579 -0.4892 -1.1438
  321TMC3    H2 4882   2.283   3.957  17.299  1.6024  1.2513 -0.9705
  321TMC3    C7 4883   2.174   4.182  17.367  0.5159 -0.2595 -0.5467
  321TMC3    C8 4884   2.107   3.790  17.234 -0.4630  0.5261 -0.3678
  321TMC3    O1 4885   2.246   4.131  17.455  0.0721 -0.1310 -0.2505
  321TMC3    O2 4886   2.186   3.762  17.326  0.3034 -0.0138 -0.2261
  322MPD2     C 4887   0.424   0.705  13.184 -0.0602 -0.1251  0.4864
  322MPD2    C1 4888   0.418   0.699  13.321  0.1830 -0.3040 -0.4664
  322MPD2    C2 4889   0.427   0.574  13.381 -0.0294 -0.0006 -0.2317
  322MPD2    C3 4890   0.455   0.462  13.308 -0.3737 -0.0838 -0.0750
  322MPD2    C4 4891   0.480   0.473  13.171 -0.2514  0.5142 -0.0087
  322MPD2    C5 4892   0.466   0.596  13.109 -0.3225 -0.5587 -0.2658
  322MPD2     H 4893   0.383   0.552  13.478 -0.3775 -2.5596 -0.9822
  322MPD2    H1 4894   0.514   0.391  13.109 -1.7030 -0.1357  0.0750
  322MPD2    H2 4895   0.405   0.799  13.133  0.1497 -0.5630 -0.4134
  322MPD2    H3 4896   0.496   0.609  13.006 -0.2658 -3.0399 -0.5571
  322MPD2     N 4897   0.463   0.343  13.387  0.3908 -0.2640  0.4462
  322MPD2    H5 4898   0.434   0.344  13.484 -0.6046  1.2464  0.1328
  322MPD2    N1 4899   0.397   0.818  13.402 -0.3429 -0.0070 -0.0951
  322MPD2    H7 4900   0.455   0.898  13.376  0.1340 -0.5820 -0.8090
  323TMC3    C1 4901   0.412   0.926  13.616 -0.2412 -0.2107  0.0235
  323TMC3    C2 4902   0.531   0.974  13.575 -0.0333 -0.0610  0.1656
  323TMC3    C3 4903   0.599   1.049  13.667 -0.3745 -0.3901 -0.1493
  323TMC3    C4 4904   0.345   0.963  13.727 -0.0747  0.1659 -0.6852
  323TMC3    C5 4905   0.415   1.040  13.815  0.3387 -0.1739 -0.0348
  323TMC3    C6 4906   0.535   1.089  13.780 -0.2489 -0.5504  0.6168
  323TMC3     C 4907   0.353   0.821  13.532 -0.3162  0.1210 -0.5191
  323TMC3     O 4908   0.266   0.752  13.586  0.0212 -0.1140 -0.1229
  323TMC3     H 4909   0.595   0.926  13.502  0.7132  1.1900 -0.0026
  323TMC3    H1 4910   0.257   0.905  13.752  1.7405 -1.5634  1.7790
  323TMC3    H2 4911   0.582   1.166  13.839 -0.1360  0.4278 -0.7584
  323TMC3    C7 4912   0.382   1.013  13.950  0.2501  0.1031 -0.5673
  323TMC3    C8 4913   0.717   1.113  13.636 -0.0788  0.3722  0.3651
  323TMC3    O1 4914   0.306   0.918  13.982  0.0380 -0.5513  0.1493
  323TMC3    O2 4915   0.777   1.177  13.722 -0.2371 -0.2985 -0.4405
  324MPD2     C 4916   2.354   1.839  14.650 -0.1824  0.8348  0.6658
  324MPD2    C1 4917   2.348   1.977  14.642 -0.8836  0.1338 -0.0025
  324MPD2    C2 4918   2.227   2.040  14.629  0.1115 -0.2072 -0.4235
  324MPD2    C3 4919   2.106   1.969  14.641 -0.1472 -0.6309 -0.0750
  324MPD2    C4 4920   2.113   1.830  14.650  0.0588 -0.3085 -0.4492
  324MPD2    C5 4921   2.236   1.768  14.654  0.1721 -0.7670 -0.1810
  324MPD2     H 4922   2.227   2.148  14.633  2.0832 -0.2046 -0.6681
  324MPD2    H1 4923   2.021   1.773  14.644 -0.3652  0.1661  1.6758
  324MPD2    H2 4924   2.445   1.781  14.657 -0.2907  0.6030  0.1750
  324MPD2    H3 4925   2.236   1.662  14.676 -0.0781 -0.8576 -0.6037
  324MPD2     N 4926   1.984   2.032  14.662 -0.4282 -0.1301  0.1685
  324MPD2    H5 4927   1.903   1.976  14.689 -0.4091 -0.2905 -0.1025
  324MPD2    N1 4928   2.467   2.052  14.651 -0.1412  0.5438  0.0965
  324MPD2    H7 4929   2.451   2.152  14.641  0.7744  0.6928  0.0973
  325TMC3    C1 4930   1.832   2.212  14.663 -0.7978  0.1095 -0.1315
  325TMC3    C2 4931   1.748   2.140  14.748 -0.0118  0.0967  0.2314
  325TMC3    C3 4932   1.625   2.195  14.780  0.3592 -0.7138  0.9693
  325TMC3    C4 4933   1.789   2.330  14.608 -0.0776  0.2085  0.4866
  325TMC3    C5 4934   1.665   2.382  14.641  0.2686  0.5851  0.1561
  325TMC3    C6 4935   1.585   2.320  14.735 -0.6241  0.4139 -0.0093
  325TMC3     C 4936   1.966   2.165  14.631  0.3263  0.3400 -0.0792
  325TMC3     O 4937   2.038   2.240  14.560  0.4172  0.1284  0.3031
  325TMC3     H 4938   1.781   2.045  14.789  1.2711  0.8869  1.0527
  325TMC3    H1 4939   1.853   2.378  14.535  1.3027 -2.1816  0.1093
  325TMC3    H2 4940   1.505   2.366  14.791 -1.4746 -1.6744  0.5171
  325TMC3    C7 4941   1.589   2.457  14.542 -0.1627  0.3986 -0.0317
  325TMC3    C8 4942   1.515   2.111  14.803  0.4491  0.3508 -0.2519
  325TMC3    O1 4943   1.650   2.494  14.441  0.3949 -0.0667 -0.1428
  325TMC3    O2 4944   1.533   1.991  14.782 -0.6014 -0.2029 -0.6933
  326MPD2     C 4945   2.757   3.315  11.229  0.3952  0.0291 -0.6170
  326MPD2    C1 4946   2.801   3.333  11.103  0.6750 -0.0400 -0.1018
  326MPD2    C2 4947   2.902   3.422  11.077  0.4565  0.1494  0.0325
  326MPD2    C3 4948   2.985   3.467  11.181 -0.1660 -0.5160  0.6049
  326MPD2    C4 4949   2.945   3.446  11.312 -0.0519 -0.0993 -0.0158
  326MPD2    C5 4950   2.832   3.373  11.331  1.0825  0.1893  0.5391
  326MPD2     H 4951   2.925   3.464  10.979 -1.7057 -0.1756 -0.6242
  326MPD2    H1 4952   2.996   3.488  11.399  1.9142 -0.2703 -1.0794
  326MPD2    H2 4953   2.669   3.262  11.264  0.2439 -0.6520 -2.0340
  326MPD2    H3 4954   2.799   3.356  11.432  0.1577 -0.2780  0.1526
  326MPD2     N 4955   3.103   3.538  11.159 -0.1717  0.1557  0.1176
  326MPD2    H5 4956   3.158   3.562  11.241  1.1771 -0.2700 -0.6715
  326MPD2    N1 4957   2.747   3.273  10.984  0.0984 -0.1105  0.4772
  326MPD2    H7 4958   2.790   3.293  10.894 -1.5720 -0.9603 -0.5202
  327TMC3    C1 4959   2.621   3.150  10.835  0.1011  0.5593 -0.2761
  327TMC3    C2 4960   2.500   3.198  10.779  0.5034 -1.1293  0.0746
  327TMC3    C3 4961   2.486   3.192  10.646  0.0852 -0.3510 -0.0193
  327TMC3    C4 4962   2.726   3.117  10.759 -0.4770  0.2273 -0.1579
  327TMC3    C5 4963   2.713   3.123  10.627 -0.5105 -0.3360  0.4848
  327TMC3    C6 4964   2.594   3.155  10.571  0.0846 -0.4857  0.0138
  327TMC3     C 4965   2.640   3.190  10.974 -0.4727 -0.2452  0.6592
  327TMC3     O 4966   2.550   3.179  11.055  0.4367  0.1941 -0.1066
  327TMC3     H 4967   2.432   3.253  10.843  0.5741 -1.7230  0.6636
  327TMC3    H1 4968   2.821   3.099  10.809 -0.9426  0.8042  0.9081
  327TMC3    H2 4969   2.592   3.168  10.464  2.5416  0.0377  0.0221
  327TMC3    C7 4970   2.828   3.138  10.545  0.2055 -0.4309  0.3593
  327TMC3    C8 4971   2.400   3.298  10.592 -0.0193 -0.2501  0.1579
  327TMC3    O1 4972   2.825   3.197  10.437  0.5759  0.2016  0.8744
  327TMC3    O2 4973   2.433   3.343  10.483  0.3215  0.3649  0.5156
  328MPD2     C 4974   1.447   3.371  17.602 -0.4546 -0.4151  0.1318
  328MPD2    C1 4975   1.410   3.244  17.576  0.3756  0.2842  0.5307
  328MPD2    C2 4976   1.346   3.216  17.458 -1.1346  1.3486 -1.5134
  328MPD2    C3 4977   1.339   3.315  17.359  0.1539 -0.0989  0.9101
  328MPD2    C4 4978   1.399   3.437  17.380 -0.3627  0.7910 -0.1869
  328MPD2    C5 4979   1.450   3.468  17.503 -0.3540 -0.1376  0.6917
  328MPD2     H 4980   1.304   3.117  17.447 -1.5784  1.4996 -1.1444
  328MPD2    H1 4981   1.392   3.520  17.311 -0.6991 -0.1159 -1.2342
  328MPD2    H2 4982   1.487   3.390  17.701  0.2865 -0.0948 -0.2321
  328MPD2    H3 4983   1.487   3.565  17.533 -1.8236  0.7679 -0.4206
  328MPD2     N 4984   1.277   3.293  17.226 -0.5068 -0.2577  0.1726
  328MPD2    H5 4985   1.290   3.363  17.153 -0.1052 -1.1545 -0.6145
  328MPD2    N1 4986   1.436   3.151  17.681 -0.6307  0.0876  0.0929
  328MPD2    H7 4987   1.485   3.188   0.014  0.8300 -0.1934 -0.6589
  329TMC3    C1 4988   1.442   2.946   0.052  0.3672  0.1117  0.1178
  329TMC3    C2 4989   1.429   3.010   0.172  0.0960 -0.2745  0.0824
  329TMC3    C3 4990   1.412   2.924   0.282 -0.1489  0.2732  0.9857
  329TMC3    C4 4991   1.434   2.810   0.042  0.2219  0.2596 -0.3478
  329TMC3    C5 4992   1.425   2.733   0.156  0.0335  0.4322  0.4761
  329TMC3    C6 4993   1.416   2.795   0.283 -0.1288 -0.3320 -0.5324
  329TMC3     C 4994   1.413   3.015  17.677 -0.2964  0.2934 -0.8318
  329TMC3     O 4995   1.375   2.954  17.575  0.1856 -0.3136  0.5058
  329TMC3     H 4996   1.398   3.114   0.170  0.8838 -0.0497 -0.4607
  329TMC3    H1 4997   1.447   2.757  17.697 -2.6041 -1.2297  0.0853
  329TMC3    H2 4998   1.404   2.741   0.377  0.4287  0.7146  0.1428
  329TMC3    C7 4999   1.426   2.596   0.147  0.4357  0.2257  0.9752
  329TMC3    C8 5000   1.359   3.001   0.391 -0.1938 -0.3797 -0.1987
  329TMC3    O1 5001   1.438   2.545   0.040  0.1322  0.2111 -0.2804
  329TMC3    O2 5002   1.406   2.983   0.504  0.8160 -0.1942  0.8316
  330TMC3    C1 5003   2.166   3.076   9.481  0.0667 -0.2588  0.5717
  330TMC3    C2 5004   2.200   2.990   9.584  0.3547 -0.0650 -0.7208
  330TMC3    C3 5005   2.305   2.898   9.556 -0.4888  0.2596  0.4994
  330TMC3    C4 5006   2.240   3.084   9.362 -0.4131 -0.0777  0.2658
  330TMC3    C5 5007   2.345   2.997   9.346  0.0709 -0.2040 -0.5761
  330TMC3    C6 5008   2.381   2.908   9.440 -0.4001 -0.3450  0.2740
  330TMC3     C 5009   2.038   3.135   9.479 -0.0587 -0.0154  0.0283
  330TMC3     O 5010   2.006   3.185   9.375  0.2216  0.5202 -0.0084
  330TMC3     H 5011   2.143   2.963   9.672 -0.1214  1.2362 -0.6310
  330TMC3    H1 5012   2.213   3.154   9.284  0.5398 -0.4451 -0.3908
  330TMC3    H2 5013   2.456   2.831   9.424  0.0340  0.8500 -3.4712
  330TMC3    C7 5014   2.414   2.981   9.222  0.0290 -0.0303  0.5397
  330TMC3    C8 5015   2.317   2.775   9.627  0.0324 -0.2545  0.5806
  330TMC3    O1 5016   2.526   2.927   9.220 -0.1527  0.3836  0.2590
  330TMC3    O2 5017   2.282   2.782   9.745 -0.4373  0.5384  0.6988
  331MPD2     C 5018   1.996   1.316  13.236  0.1829  0.2552 -0.3253
  331MPD2    C1 5019   1.873   1.350  13.182 -0.3335 -0.0455 -0.1147
  331MPD2    C2 5020   1.785   1.254  13.142 -0.1401  0.1897  0.0968
  331MPD2    C3 5021   1.815   1.121  13.145 -0.0343 -0.9878  0.5513
  331MPD2    C4 5022   1.946   1.085  13.176 -0.5789 -0.3641  0.2488
  331MPD2    C5 5023   2.033   1.187  13.223  0.7264  0.1671  0.1284
  331MPD2     H 5024   1.687   1.279  13.102 -0.0314  0.4502 -0.0054
  331MPD2    H1 5025   1.983   0.986  13.156  1.2122 -0.0623  2.1042
  331MPD2    H2 5026   2.065   1.392  13.269 -0.4073  0.3309  0.7365
  331MPD2    H3 5027   2.132   1.162  13.259  0.2465  2.0245  2.7068
  331MPD2     N 5028   1.725   1.026  13.098 -0.0884 -0.5928  0.1227
  331MPD2    H5 5029   1.637   1.062  13.064 -0.5938  0.8298  2.9443
  331MPD2    N1 5030   1.840   1.484  13.170 -0.0900  0.6761  0.8177
  331MPD2    H7 5031   1.910   1.556  13.186  0.9610 -0.0031 -0.6815
  332TMC3    C1 5032   1.629   0.814  13.041  0.3990  0.2850  0.3158
  332TMC3    C2 5033   1.575   0.856  12.926 -0.6454  0.2523  0.0168
  332TMC3    C3 5034   1.589   0.776  12.812  0.0552 -0.6995 -0.2782
  332TMC3    C4 5035   1.665   0.680  13.046  0.0209 -1.3533 -0.6516
  332TMC3    C5 5036   1.665   0.602  12.929  0.8978  0.8158  0.4667
  332TMC3    C6 5037   1.639   0.650  12.808 -0.1500  0.3938  0.2858
  332TMC3     C 5038   1.744   0.886  13.088  0.6491 -0.7693 -0.5447
  332TMC3     O 5039   1.832   0.817  13.135  0.2301  0.1179  0.4290
  332TMC3     H 5040   1.531   0.955  12.926 -1.5273 -0.1478  0.6209
  332TMC3    H1 5041   1.664   0.638  13.145  0.0332 -0.8980 -0.4558
  332TMC3    H2 5042   1.664   0.592  12.720 -0.8923 -0.4629  0.6394
  332TMC3    C7 5043   1.760   0.502  12.924  0.1739 -0.5087  0.9991
  332TMC3    C8 5044   1.567   0.835  12.680 -0.5014 -0.2319  0.2102
  332TMC3    O1 5045   1.756   0.408  12.846  0.4295  0.0586 -0.2487
  332TMC3    O2 5046   1.566   0.955  12.664 -0.9806 -0.1400 -0.0097
  333MPD2     C 5047   1.687   1.728  11.518 -0.1333 -0.0469  0.2717
  333MPD2    C1 5048   1.738   1.645  11.426  0.0089 -0.3762  0.0550
  333MPD2    C2 5049   1.733   1.509  11.444  0.6155 -0.4471 -0.4287
  333MPD2    C3 5050   1.645   1.454  11.532 -0.1772  0.6600 -0.0782
  333MPD2    C4 5051   1.560   1.541  11.609 -0.5099  0.2612 -0.8026
  333MPD2    C5 5052   1.592   1.677  11.603 -0.4095 -0.3114 -0.3141
  333MPD2     H 5053   1.790   1.441  11.382  0.2854  0.3076 -1.5569
  333MPD2    H1 5054   1.482   1.516  11.679  0.1097  1.1053  0.1926
  333MPD2    H2 5055   1.705   1.834  11.510 -1.7521  0.2375  0.4119
  333MPD2    H3 5056   1.533   1.750  11.658  0.4294 -0.4720  0.7904
  333MPD2     N 5057   1.643   1.316  11.543  0.4169 -0.8811 -0.4310
  333MPD2    H5 5058   1.700   1.258  11.483  0.5690  0.1336 -1.2744
  333MPD2    N1 5059   1.818   1.705  11.324  0.1383  0.3382  0.4775
  333MPD2    H7 5060   1.819   1.807  11.322 -3.2393  0.3513 -0.3612
  334TMC3    C1 5061   1.950   1.734  11.135 -0.0004 -0.1867  0.6459
  334TMC3    C2 5062   2.064   1.698  11.077 -0.1339  0.0494 -0.0884
  334TMC3    C3 5063   2.127   1.801  11.013  0.0918 -0.2944 -0.1218
  334TMC3    C4 5064   1.891   1.857  11.125 -0.6601  0.3497  0.4588
  334TMC3    C5 5065   1.949   1.945  11.047  0.4170 -0.4661  0.0151
  334TMC3    C6 5066   2.072   1.925  10.994 -0.5661  0.5227  0.0521
  334TMC3     C 5067   1.893   1.638  11.231  0.4532 -0.1438 -0.5610
  334TMC3     O 5068   1.919   1.520  11.215 -0.5276 -0.1235 -0.0615
  334TMC3     H 5069   2.113   1.607  11.109 -0.1566  0.4624  1.1225
  334TMC3    H1 5070   1.790   1.875  11.160 -0.4804 -0.0290  1.1713
  334TMC3    H2 5071   2.106   1.990  10.914 -0.6897  1.4270  0.7302
  334TMC3    C7 5072   1.899   2.078  11.033  0.6755  0.5544 -0.2278
  334TMC3    C8 5073   2.231   1.754  10.925  0.5589 -0.5574  0.9210
  334TMC3    O1 5074   1.987   2.167  11.037 -0.3998  0.2970 -0.0800
  334TMC3    O2 5075   2.232   1.636  10.897  0.0677  0.0780  0.0356
  335TMC3    C1 5076   1.844   2.762  17.687 -0.2276  0.1455 -0.2310
  335TMC3    C2 5077   1.745   2.733  17.588 -0.4331 -0.7421 -0.1989
  335TMC3    C3 5078   1.757   2.774  17.461 -0.0743  0.1963  0.0974
  335TMC3    C4 5079   1.952   2.838  17.649 -0.6590  0.2187 -0.6177
  335TMC3    C5 5080   1.968   2.869  17.511  0.5143  0.4810 -0.0504
  335TMC3    C6 5081   1.871   2.840  17.419  0.7789 -0.1416 -0.2007
  335TMC3     C 5082   1.834   2.694   0.065 -0.0665  1.4060  0.1636
  335TMC3     O 5083   1.753   2.600   0.062 -0.5333  0.4980  0.1296
  335TMC3     H 5084   1.657   2.678  17.623 -1.6856  0.3901 -1.5658
  335TMC3    H1 5085   2.029   2.850  17.724  0.1847  1.4150 -1.6729
  335TMC3    H2 5086   1.889   2.858  17.314 -2.7564 -0.2880 -0.8247
  335TMC3    C7 5087   2.096   2.932  17.474  0.1806 -0.4909 -0.0079
  335TMC3    C8 5088   1.655   2.731  17.363  1.2155  0.1497 -0.3944
  335TMC3    O1 5089   2.134   2.909  17.361  0.2249 -0.2066 -0.4107
  335TMC3    O2 5090   1.663   2.795  17.260 -0.4161  0.3125 -0.4008
  336MPD2     C 5091   1.703   0.833  16.462  0.0414 -0.5460 -0.1297
  336MPD2    C1 5092   1.640   0.806  16.344 -0.2548 -0.0944  0.1502
  336MPD2    C2 5093   1.655   0.677  16.295 -0.0878 -0.6084 -0.4508
  336MPD2    C3 5094   1.718   0.580  16.365 -0.2103  0.0998 -0.1078
  336MPD2    C4 5095   1.767   0.604  16.488 -0.0304 -0.0432 -0.4141
  336MPD2    C5 5096   1.754   0.733  16.535 -0.4079 -0.3654  0.0145
  336MPD2     H 5097   1.619   0.664  16.194  0.5185 -0.3745 -0.6979
  336MPD2    H1 5098   1.813   0.526  16.547  3.1253  1.4859 -0.8813
  336MPD2    H2 5099   1.697   0.931  16.507  3.1187  0.4591 -1.9249
  336MPD2    H3 5100   1.806   0.752  16.628  1.2631 -0.2230 -0.9382
  336MPD2     N 5101   1.712   0.446  16.328  0.0421 -0.2344  0.3361
  336MPD2    H5 5102   1.762   0.382  16.388  0.0389 -1.3056 -0.7970
  336MPD2    N1 5103   1.563   0.895  16.270  0.1938  0.4390 -0.3279
  336MPD2    H7 5104   1.530   0.858  16.182 -4.1345 -0.1480  1.5564
  337TMC3    C1 5105   1.461   1.100  16.207  0.1184  0.5272 -0.2339
  337TMC3    C2 5106   1.344   1.035  16.174 -0.5789  0.6766  0.0591
  337TMC3    C3 5107   1.268   1.087  16.074 -0.2485  0.3092  0.3494
  337TMC3    C4 5108   1.502   1.213  16.151  0.1125 -0.3244 -0.1034
  337TMC3    C5 5109   1.416   1.272  16.067 -0.4207 -0.0709 -0.3724
  337TMC3    C6 5110   1.296   1.214  16.030  0.2527  0.3614 -0.1501
  337TMC3     C 5111   1.552   1.035  16.297 -0.4535 -0.1087  1.0108
  337TMC3     O 5112   1.605   1.107  16.383 -0.1830  0.4634 -0.3270
  337TMC3     H 5113   1.311   0.955  16.239 -1.7321  1.2417  0.1733
  337TMC3    H1 5114   1.597   1.250  16.187  0.0765  0.4020 -0.7615
  337TMC3    H2 5115   1.219   1.259  15.968 -0.1437  0.6024  0.5139
  337TMC3    C7 5116   1.431   1.404  16.032 -1.3542  0.5095  1.0017
  337TMC3    C8 5117   1.136   1.044  16.062  0.0325  0.5338 -0.5915
  337TMC3    O1 5118   1.351   1.455  15.953 -0.2395 -1.0554 -0.1950
  337TMC3    O2 5119   1.080   0.997  16.156  0.2537  0.5121  0.0725
  338MPD2     C 5120   2.313   0.317   0.909 -0.5536 -0.0215 -0.0866
  338MPD2    C1 5121   2.214   0.272   0.833  0.2126  0.2095  0.0737
  338MPD2    C2 5122   2.085   0.308   0.874  0.1173  0.2078  0.0159
  338MPD2    C3 5123   2.062   0.352   1.004 -0.4313  0.2418 -0.1148
  338MPD2    C4 5124   2.166   0.389   1.080  0.1816  0.1951 -0.6428
  338MPD2    C5 5125   2.291   0.381   1.021  0.3352  0.0503 -0.8788
  338MPD2     H 5126   1.996   0.301   0.813 -0.4918 -2.0157  1.1556
  338MPD2    H1 5127   2.154   0.450   1.169 -0.6222 -0.2798 -0.4183
  338MPD2    H2 5128   2.416   0.295   0.882 -0.4216 -0.0178  0.4081
  338MPD2    H3 5129   2.370   0.415   1.087  0.1934 -2.5476  0.6151
  338MPD2     N 5130   1.927   0.359   1.053  0.5107 -0.5847  0.7304
  338MPD2    H5 5131   1.856   0.328   0.988  0.3105 -1.2931  1.2834
  338MPD2    N1 5132   2.227   0.196   0.715 -0.4639 -0.0095  0.2069
  338MPD2    H7 5133   2.139   0.182   0.668 -0.2250  1.7232 -0.7328
  339TMC3    C1 5134   1.741   0.388   1.185  0.1520  0.4858 -0.5188
  339TMC3    C2 5135   1.692   0.450   1.298 -0.5595  0.5551 -0.1495
  339TMC3    C3 5136   1.560   0.487   1.281 -0.0118 -0.4245  0.7883
  339TMC3    C4 5137   1.663   0.357   1.074  0.1710  0.3401  0.8830
  339TMC3    C5 5138   1.533   0.396   1.073 -0.5962 -0.6659  0.3923
  339TMC3    C6 5139   1.479   0.475   1.172 -0.3999  0.7093 -0.3106
  339TMC3     C 5140   1.885   0.401   1.178 -0.1304 -0.1286  1.0016
  339TMC3     O 5141   1.953   0.440   1.274 -0.4049  0.0218 -0.5374
  339TMC3     H 5142   1.761   0.464   1.381 -1.3331 -0.4620  0.6755
  339TMC3    H1 5143   1.712   0.294   1.001 -1.4585  1.0049 -0.7812
  339TMC3    H2 5144   1.388   0.533   1.157 -0.6849  0.2138 -0.5052
  339TMC3    C7 5145   1.487   0.406   0.938  0.6899 -0.3165  0.7626
  339TMC3    C8 5146   1.511   0.570   1.387  0.2047 -0.0426 -0.1102
  339TMC3    O1 5147   1.572   0.398   0.847 -0.5422 -0.1451 -0.0305
  339TMC3    O2 5148   1.596   0.649   1.434  0.3248  0.9881 -0.2102
  340MPD2     C 5149   1.511   2.965  10.952 -0.2302 -0.4724 -0.4652
  340MPD2    C1 5150   1.481   2.839  10.911  0.2779 -0.6610  0.3967
  340MPD2    C2 5151   1.590   2.756  10.887 -0.0251 -0.3775  0.1807
  340MPD2    C3 5152   1.719   2.805  10.878  0.4193  0.5648 -0.0216
  340MPD2    C4 5153   1.746   2.932  10.914 -0.0771 -0.2176 -0.8125
  340MPD2    C5 5154   1.650   3.011  10.964 -0.6393  0.1410  0.3713
  340MPD2     H 5155   1.572   2.653  10.861  0.2845  0.3230 -2.8346
  340MPD2    H1 5156   1.850   2.964  10.913  0.1727 -0.9256  2.5423
  340MPD2    H2 5157   1.435   3.038  10.977 -1.6824 -1.1969 -2.8463
  340MPD2    H3 5158   1.678   3.113  10.989  0.8672  0.1986 -1.5212
  340MPD2     N 5159   1.831   2.731  10.838 -0.0262  0.5152  0.0500
  340MPD2    H5 5160   1.923   2.770  10.854  0.0511 -0.0951  1.0686
  340MPD2    N1 5161   1.341   2.803  10.898  0.5145  0.0170  0.7824
  340MPD2    H7 5162   1.278   2.864  10.950 -0.0964  0.2994 -0.2899
  341TMC3    C1 5163   1.353   2.620  10.731 -0.4758  0.6487 -0.5596
  341TMC3    C2 5164   1.349   2.486  10.748 -0.7656 -0.0896  1.2851
  341TMC3    C3 5165   1.426   2.403  10.669  0.7195  0.3644 -0.4007
  341TMC3    C4 5166   1.437   2.678  10.645  0.0142  0.6478 -0.5414
  341TMC3    C5 5167   1.497   2.597  10.551  0.3169  0.0841  0.2071
  341TMC3    C6 5168   1.496   2.459  10.564 -0.3989  0.3283  0.1710
  341TMC3     C 5169   1.278   2.690  10.845  0.8236 -0.5319  0.6183
  341TMC3     O 5170   1.167   2.654  10.882 -0.2474 -0.5898  0.0717
  341TMC3     H 5171   1.281   2.439  10.818 -2.0174  0.3632  0.3777
  341TMC3    H1 5172   1.458   2.784  10.658 -2.2805  1.0829 -0.3162
  341TMC3    H2 5173   1.539   2.404  10.480  1.8431  1.5207  0.5483
  341TMC3    C7 5174   1.586   2.644  10.450  0.3135  0.4109 -0.2972
  341TMC3    C8 5175   1.383   2.265  10.647 -0.1789 -0.4959 -0.5184
  341TMC3    O1 5176   1.669   2.558  10.413  0.0240  0.3520  0.3229
  341TMC3    O2 5177   1.266   2.240  10.675  0.2769  0.5030 -0.1739
  342MPD2     C 5178   4.219   1.064  17.153  0.5438 -0.3059 -0.3147
  342MPD2    C1 5179   4.347   1.021  17.166  0.2168  0.8400 -0.2164
  342MPD2    C2 5180   4.431   1.101  17.244 -0.4090  0.0723 -0.6956
  342MPD2    C3 5181   4.391   1.216  17.310  0.9506 -0.4382  0.1997
  342MPD2    C4 5182   4.262   1.253  17.288 -0.5359 -0.0501 -0.2158
  342MPD2    C5 5183   4.178   1.176  17.217 -0.0407 -0.4556  0.1323
  342MPD2     H 5184   4.537   1.077  17.241 -0.0207  1.7673 -0.0740
  342MPD2    H1 5185   4.210   1.332  17.340 -0.0141  0.8255 -1.0099
  342MPD2    H2 5186   4.149   1.025  17.080  1.9226  0.2105 -1.9178
  342MPD2    H3 5187   4.072   1.201  17.211  0.3124  1.2236  1.0808
  342MPD2     N 5188   4.472   1.305  17.386  0.2476 -0.0538 -0.9946
  342MPD2    H5 5189   4.427   1.384  17.430  0.6458  0.0825 -0.8333
  342MPD2    N1 5190   4.404   0.906  17.107 -0.9337 -0.3050  0.2299
  342MPD2    H7 5191   4.497   0.887  17.143 -0.4999  1.0987 -0.1377
  343TMC3    C1 5192   4.431   0.704  16.997 -0.9773  0.1475  0.7588
  343TMC3    C2 5193   4.570   0.735  16.983  0.1187 -0.3215  0.4435
  343TMC3    C3 5194   4.652   0.626  16.968  0.0432  0.0950 -0.0092
  343TMC3    C4 5195   4.384   0.584  16.984  0.0813  0.4274  0.8503
  343TMC3    C5 5196   4.473   0.479  16.980  0.0881 -0.5185 -0.7642
  343TMC3    C6 5197   4.610   0.499  16.972 -0.4755 -0.1680  0.5025
  343TMC3     C 5198   4.341   0.813  17.027 -0.1090 -0.3454  0.4211
  343TMC3     O 5199   4.225   0.796  16.996 -1.0767 -0.6464 -0.2311
  343TMC3     H 5200   4.612   0.834  16.996 -0.7484  0.0246  0.6268
  343TMC3    H1 5201   4.277   0.565  16.988 -0.1020  1.2068 -0.1794
  343TMC3    H2 5202   4.676   0.417  16.948 -1.4704 -0.9491  0.4784
  343TMC3    C7 5203   4.434   0.362  17.055  0.2183  0.2399 -0.2504
  343TMC3    C8 5204   0.049   0.643  16.997 -0.1249  0.3188 -0.1448
  343TMC3    O1 5205   4.318   0.327  17.051 -0.0866 -0.4486 -0.5466
  343TMC3    O2 5206   0.073   0.739  17.063 -0.1535 -0.4907 -0.3034
  344MPD2     C 5207   0.189   0.673  11.068  0.2578  0.9990  0.0382
  344MPD2    C1 5208   0.163   0.669  10.930  0.0429  0.2830 -0.1546
  344MPD2    C2 5209   0.232   0.755  10.847 -0.0554  0.2393 -0.0107
  344MPD2    C3 5210   0.319   0.851  10.901 -0.7519  0.7838 -0.0666
  344MPD2    C4 5211   0.335   0.858  11.038  0.2335 -0.5519  0.9591
  344MPD2    C5 5212   0.268   0.771  11.118 -0.5904  0.6177  0.1809
  344MPD2     H 5213   0.226   0.751  10.738 -0.3551  0.7410 -0.0101
  344MPD2    H1 5214   0.400   0.927  11.089 -1.3952  0.7614  1.2541
  344MPD2    H2 5215   0.152   0.598  11.136  1.0562  0.1498 -0.4603
  344MPD2    H3 5216   0.279   0.775  11.226  0.2548  1.3720  0.0663
  344MPD2     N 5217   0.393   0.942  10.825  0.1678 -0.0728  0.1635
  344MPD2    H5 5218   0.438   1.014  10.881 -1.6196 -0.4898  2.1245
  344MPD2    N1 5219   0.081   0.571  10.885  0.1798 -0.4349 -0.3480
  344MPD2    H7 5220   0.019   0.525  10.951  0.4779  0.2600  0.4153
  345TMC3    C1 5221   0.491   1.058  10.655 -0.1564  0.0581 -0.2149
  345TMC3    C2 5222   0.602   1.091  10.730  0.8683 -0.3428  0.0230
  345TMC3    C3 5223   0.697   1.177  10.687 -0.4528 -0.3641  0.4367
  345TMC3    C4 5224   0.469   1.120  10.531 -0.8545  0.5441  0.0945
  345TMC3    C5 5225   0.567   1.200  10.485 -0.1275  0.0260 -0.0187
  345TMC3    C6 5226   0.682   1.224  10.559 -0.6188  0.0374  0.0300
  345TMC3     C 5227   0.393   0.962  10.686 -0.4122  0.1030 -0.7687
  345TMC3     O 5228   0.324   0.910  10.599  0.1904  0.4573  0.0148
  345TMC3     H 5229   0.618   1.041  10.826  3.3976 -0.4077 -0.4248
  345TMC3    H1 5230   0.374   1.103  10.482 -1.8231  0.2292  2.0889
  345TMC3    H2 5231   0.751   1.300  10.526  0.4727 -1.0180 -0.1115
  345TMC3    C7 5232   0.527   1.296  10.382 -1.0959 -0.0001 -0.3116
  345TMC3    C8 5233   0.777   1.243  10.790  0.0928  0.2412  0.5479
  345TMC3    O1 5234   0.594   1.400  10.376 -0.4799  0.2859 -0.1198
  345TMC3    O2 5235   0.771   1.208  10.910 -0.1315 -0.5360  0.2266
  346MPD2     C 5236   0.269   2.668  14.153  0.3739 -0.6503 -0.2217
  346MPD2    C1 5237   0.395   2.608  14.120  0.2751 -0.2597 -1.3694
  346MPD2    C2 5238   0.481   2.578  14.222 -0.1066  0.0617  0.2001
  346MPD2    C3 5239   0.439   2.593  14.356 -0.2890 -0.4428  0.1203
  346MPD2    C4 5240   0.317   2.642  14.395 -0.5112 -0.0545  0.5949
  346MPD2    C5 5241   0.239   2.684  14.287  0.0742  0.4414  0.3714
  346MPD2     H 5242   0.577   2.531  14.203  1.6289  2.9778  1.8225
  346MPD2    H1 5243   0.276   2.658  14.495  0.7770  1.7027  0.8436
  346MPD2    H2 5244   0.186   2.694  14.088  2.2068  2.3074 -1.3598
  346MPD2    H3 5245   0.138   2.718  14.309 -0.1096  2.0128 -2.9853
  346MPD2     N 5246   0.531   2.545  14.455 -0.6100  0.2351  0.8748
  346MPD2    H5 5247   0.617   2.512  14.412  0.0101  0.7866  1.6740
  346MPD2    N1 5248   0.429   2.574  13.982  0.1164  0.0586 -0.5858
  346MPD2    H7 5249   0.513   2.519  13.972 -0.2889 -1.1190  2.2837
  347TMC3    C1 5250   0.620   2.478  14.665  0.6875  0.3821  0.1099
  347TMC3    C2 5251   0.743   2.518  14.626 -0.3865  0.1636  0.0264
  347TMC3    C3 5252   0.840   2.498  14.720 -0.0257 -0.1033  0.3720
  347TMC3    C4 5253   0.592   2.417  14.787 -0.5414 -0.2347 -0.0806
  347TMC3    C5 5254   0.693   2.401  14.876 -0.6200  0.1131  0.4736
  347TMC3    C6 5255   0.821   2.438  14.844  0.7199 -0.9221 -0.2096
  347TMC3     C 5256   0.508   2.505  14.580 -0.4585  0.1632 -0.2918
  347TMC3     O 5257   0.400   2.484  14.634  0.5948  0.3679  0.1221
  347TMC3     H 5258   0.755   2.578  14.537  0.8235 -1.3497 -0.8362
  347TMC3    H1 5259   0.488   2.400  14.813 -0.6087  0.9630  0.4095
  347TMC3    H2 5260   0.904   2.416  14.910  1.3453 -1.8015 -1.3064
  347TMC3    C7 5261   0.666   2.342  15.006  0.0638  0.2093 -0.5784
  347TMC3    C8 5262   0.982   2.518  14.690 -0.0641  0.0052  0.1716
  347TMC3    O1 5263   0.753   2.350  15.088 -0.1817  0.3395  0.3051
  347TMC3    O2 5264   1.049   2.519  14.789  0.0839 -0.0679  0.6283
  348MPD2     C 5265   4.016   2.386  11.994 -0.0605  0.7386 -0.0333
  348MPD2    C1 5266   4.016   2.323  11.871 -0.0808 -0.1981  0.2236
  348MPD2    C2 5267   3.999   2.401  11.753  0.3842  0.1674 -0.1412
  348MPD2    C3 5268   4.002   2.537  11.758  0.1168  0.2561  0.2460
  348MPD2    C4 5269   3.999   2.593  11.885 -0.1909 -0.8739 -0.9280
  348MPD2    C5 5270   4.011   2.524  11.998  0.0682 -0.0997 -0.5084
  348MPD2     H 5271   3.997   2.350  11.658 -0.2223  1.2296 -0.6927
  348MPD2    H1 5272   3.999   2.700  11.901  0.4165 -0.8733 -0.9451
  348MPD2    H2 5273   4.022   2.329  12.086  0.4015  1.1576  0.1917
  348MPD2    H3 5274   3.996   2.576  12.092 -1.9314 -2.6502  0.5733
  348MPD2     N 5275   3.990   2.611  11.636 -0.1245 -0.5658 -0.7270
  348MPD2    H5 5276   3.994   2.570  11.543  2.9754 -1.2680 -0.2925
  348MPD2    N1 5277   4.006   2.182  11.857  0.7000  0.1827  0.2134
  348MPD2    H7 5278   3.997   2.147  11.762 -0.4726  0.5963  0.1831
  349TMC3    C1 5279   3.954   1.964  11.905 -0.2229  0.7317 -0.2927
  349TMC3    C2 5280   4.009   1.853  11.969 -0.8079  0.1348  0.8585
  349TMC3    C3 5281   3.987   1.726  11.931  0.4451 -0.5999 -0.0028
  349TMC3    C4 5282   3.874   1.949  11.793  0.5445  0.9194 -0.5352
  349TMC3    C5 5283   3.845   1.822  11.762 -0.6331 -0.1623 -0.2307
  349TMC3    C6 5284   3.881   1.706  11.837 -0.6247 -0.4200 -0.0086
  349TMC3     C 5285   4.005   2.091  11.958  0.4977  0.1380 -0.2229
  349TMC3     O 5286   4.030   2.096  12.078 -0.1546 -0.1735 -0.0014
  349TMC3     H 5287   4.077   1.869  12.052  0.6212 -1.4926 -0.0039
  349TMC3    H1 5288   3.841   2.032  11.732  0.4330  0.6085 -0.8953
  349TMC3    H2 5289   3.840   1.610  11.808  2.5795 -1.9284  0.4257
  349TMC3    C7 5290   3.777   1.794  11.637  0.3133 -0.3448 -0.1180
  349TMC3    C8 5291   4.016   1.619  12.021  0.0746 -0.2825  0.1377
  349TMC3    O1 5292   3.702   1.701  11.639 -0.5790  0.0758  0.2738
  349TMC3    O2 5293   3.933   1.524  12.022  0.0785  0.1391  0.2185
  350MPD2     C 5294   2.898   0.579  10.158  0.7444 -0.1170 -0.1862
  350MPD2    C1 5295   2.891   0.440  10.159 -0.7477 -0.1886  1.0566
  350MPD2    C2 5296   3.010   0.370  10.195 -0.3991 -0.1550 -0.5619
  350MPD2    C3 5297   3.117   0.444  10.244 -0.3840 -0.4174  0.9876
  350MPD2    C4 5298   3.117   0.582  10.239 -0.0222 -0.1702 -0.2113
  350MPD2    C5 5299   3.007   0.650  10.196  0.4150 -0.1763 -0.5096
  350MPD2     H 5300   3.013   0.262  10.184 -1.4215 -0.1041 -1.4037
  350MPD2    H1 5301   3.200   0.646  10.266  2.3723 -2.5472 -2.0676
  350MPD2    H2 5302   2.817   0.641  10.121  0.3925 -0.2852  0.3105
  350MPD2    H3 5303   3.019   0.758  10.185  1.8280 -0.5080 -2.3611
  350MPD2     N 5304   3.222   0.373  10.301  0.9580  0.1849  0.1468
  350MPD2    H5 5305   3.212   0.272  10.291 -1.0093  0.5356 -1.4414
  350MPD2    N1 5306   2.771   0.360  10.126 -0.1128 -0.0881  0.4422
  350MPD2    H7 5307   2.784   0.259  10.130  0.4082  0.0571  2.2822
  351TMC3    C1 5308   2.538   0.313  10.068  0.2334  0.2226 -0.0070
  351TMC3    C2 5309   2.566   0.180  10.075  0.1855  0.6127 -0.0850
  351TMC3    C3 5310   2.458   0.094  10.089  0.0963 -0.0785 -0.3518
  351TMC3    C4 5311   2.411   0.365  10.074 -0.1761  0.1245 -0.3582
  351TMC3    C5 5312   2.304   0.277  10.085  0.3842  0.2636 -0.9480
  351TMC3    C6 5313   2.333   0.144  10.092 -1.2362 -0.6784 -0.2166
  351TMC3     C 5314   2.643   0.410  10.089  0.2952  0.7574  0.4483
  351TMC3     O 5315   2.612   0.530  10.078  0.4482  0.3032 -0.1647
  351TMC3     H 5316   2.665   0.139  10.088 -0.2909 -1.0363 -1.6636
  351TMC3    H1 5317   2.392   0.472  10.075 -0.0659  0.1367  1.0933
  351TMC3    H2 5318   2.247   0.079  10.081 -1.1443 -0.8667  0.2074
  351TMC3    C7 5319   2.162   0.322  10.087  0.8337  0.3240  0.6801
  351TMC3    C8 5320   2.481   4.698  10.037  0.2997 -0.5093 -0.5471
  351TMC3    O1 5321   2.161   0.439  10.109 -0.2854 -0.0387  0.6069
  351TMC3    O2 5322   2.563   4.683   9.949  0.0360  0.4728  0.2753
  352MPD2     C 5323   1.870   1.902   1.379  0.5252 -0.3318  0.7528
  352MPD2    C1 5324   1.996   1.946   1.342  0.5636 -0.0087 -0.1444
  352MPD2    C2 5325   2.103   1.856   1.344 -0.0405 -0.5055 -0.6088
  352MPD2    C3 5326   2.079   1.720   1.385 -0.1418 -0.7574  0.1442
  352MPD2    C4 5327   1.947   1.685   1.423  0.2356 -0.2351  0.3062
  352MPD2    C5 5328   1.848   1.775   1.429 -0.0143 -0.6681 -0.4323
  352MPD2     H 5329   2.203   1.894   1.333 -0.4718  0.7685 -0.1415
  352MPD2    H1 5330   1.920   1.587   1.462  0.8798 -1.1861 -1.6378
  352MPD2    H2 5331   1.778   1.961   1.383  1.3002  0.8133  1.6517
  352MPD2    H3 5332   1.746   1.747   1.452 -0.0618  0.7100  0.9954
  352MPD2     N 5333   2.166   1.607   1.368  0.9366  0.0939  0.2152
  352MPD2    H5 5334   2.133   1.515   1.395 -1.2800  0.2142 -2.1389
  352MPD2    N1 5335   2.009   2.083   1.314 -0.6455  0.3184 -0.1300
  352MPD2    H7 5336   1.927   2.142   1.324  0.5848  1.6349  1.9108
  353TMC3    C1 5337   2.334   1.488   1.270  0.4240  0.3726  0.8295
  353TMC3    C2 5338   2.470   1.467   1.267  0.2417  0.3584 -1.1571
  353TMC3    C3 5339   2.516   1.348   1.222 -0.6032  0.3411  0.2836
  353TMC3    C4 5340   2.246   1.399   1.215 -0.2343  0.4299  0.0155
  353TMC3    C5 5341   2.298   1.287   1.159  0.1054 -0.2922  0.5709
  353TMC3    C6 5342   2.432   1.259   1.155  0.7802  0.9739  0.4704
  353TMC3     C 5343   2.289   1.618   1.313  0.4281 -0.1048  0.0707
  353TMC3     O 5344   2.349   1.723   1.287 -0.9414 -0.4365 -0.1587
  353TMC3     H 5345   2.546   1.533   1.307 -2.0494  0.5365  2.8593
  353TMC3    H1 5346   2.141   1.425   1.201 -0.3982  0.3344  1.0384
  353TMC3    H2 5347   2.456   1.180   1.086 -2.2621  0.5765 -0.1672
  353TMC3    C7 5348   2.210   1.182   1.128  0.3304  0.1315  0.5023
  353TMC3    C8 5349   2.626   1.287   1.288  0.3479 -0.4786  0.5109
  353TMC3    O1 5350   2.252   1.104   1.044  0.6464  0.0594 -0.4783
  353TMC3    O2 5351   2.682   1.349   1.379  0.1208 -0.0622  0.2636
  354TMC3    C1 5352   2.786   3.103  13.741  0.9172 -0.5944 -0.8139
  354TMC3    C2 5353   2.849   3.221  13.725 -0.0469  0.5151  0.7255
  354TMC3    C3 5354   2.843   3.280  13.603  0.0556  0.1661 -0.3171
  354TMC3    C4 5355   2.700   3.053  13.648  0.2159  0.8687 -1.1933
  354TMC3    C5 5356   2.687   3.122  13.532 -0.7478 -0.2770 -0.4368
  354TMC3    C6 5357   2.762   3.232  13.507  0.1986  0.0270  0.1582
  354TMC3     C 5358   2.773   3.044  13.876 -0.8717 -0.2371 -0.4872
  354TMC3     O 5359   2.688   2.958  13.892 -0.3560  0.4417 -0.5785
  354TMC3     H 5360   2.896   3.272  13.808  0.3344  0.5011  0.5196
  354TMC3    H1 5361   2.679   2.946  13.650 -2.6269  1.4307 -0.6362
  354TMC3    H2 5362   2.750   3.288  13.414 -0.3594 -3.0356 -1.6177
  354TMC3    C7 5363   2.703   3.034  13.421  0.5861 -0.0844  0.1240
  354TMC3    C8 5364   2.962   3.364  13.572  0.7428  0.5837  0.2898
  354TMC3    O1 5365   2.608   2.993  13.358 -0.4462  0.0391 -0.0293
  354TMC3    O2 5366   3.066   3.356  13.637  0.0768  0.5069 -0.2445
  355MPD2     C 5367   2.856   4.271  11.928  0.3528 -0.8270  0.1819
  355MPD2    C1 5368   2.934   4.328  11.826 -0.2398  0.0614 -0.3096
  355MPD2    C2 5369   3.065   4.349  11.843  0.7420 -0.6140 -0.0571
  355MPD2    C3 5370   3.123   4.319  11.967  0.0118  0.6236 -1.2802
  355MPD2    C4 5371   3.040   4.276  12.068  0.5300  0.4670  0.5143
  355MPD2    C5 5372   2.914   4.237  12.049  0.2623 -0.2599 -0.5710
  355MPD2     H 5373   3.136   4.380  11.766  0.4361  2.2273  0.8033
  355MPD2    H1 5374   3.080   4.277  12.168  0.1544 -0.4057  0.6648
  355MPD2    H2 5375   2.749   4.273  11.913  0.6711 -0.8068 -2.0653
  355MPD2    H3 5376   2.856   4.207  12.136 -0.5547  2.9783  0.0024
  355MPD2     N 5377   3.264   4.334  11.997  0.2012  0.0284  0.1664
  355MPD2    H5 5378   3.300   4.354  12.090  3.8860  3.0092 -1.8438
  355MPD2    N1 5379   2.868   4.346  11.702 -0.6343  0.1430  0.1356
  355MPD2    H7 5380   2.777   4.302  11.705  0.2336 -1.5100  2.5011
  356TMC3    C1 5381   3.448   4.447  11.966 -0.6989 -0.5487 -0.4489
  356TMC3    C2 5382   3.478   4.568  11.905 -0.0066  0.6218 -0.0044
  356TMC3    C3 5383   3.579   4.650  11.963 -0.3591 -0.2428 -0.1781
  356TMC3    C4 5384   3.516   4.415  12.087  0.5975  0.2195 -0.5629
  356TMC3    C5 5385   3.607   4.501  12.139  0.2927 -0.6599 -0.1929
  356TMC3    C6 5386   3.639   4.620  12.083 -0.4707 -0.3628  0.0202
  356TMC3     C 5387   3.354   4.362  11.897  0.0359 -0.3271 -0.6981
  356TMC3     O 5388   3.345   4.373  11.776  0.0059 -0.0685  0.1674
  356TMC3     H 5389   3.441   4.595  11.807  0.4903 -1.2350 -0.7095
  356TMC3    H1 5390   3.495   4.325  12.143  0.2872  0.6532  0.0199
  356TMC3    H2 5391   3.723   4.673  12.126 -0.0723 -0.6056 -0.4586
  356TMC3    C7 5392   3.631   4.478  12.277  0.4302 -1.1936 -0.2344
  356TMC3    C8 5393   3.639   0.005  11.870 -0.3369  0.5873  0.4832
  356TMC3    O1 5394   3.643   4.365  12.318  0.2798 -0.8174  0.1948
  356TMC3    O2 5395   3.629   4.708  11.751 -0.4739 -0.5492 -0.0656
  357MPD2     C 5396   4.129   3.788   0.538 -1.0161  0.2048 -0.1599
  357MPD2    C1 5397   4.177   3.767   0.662  0.3704  0.0417  0.2676
  357MPD2    C2 5398   4.092   3.791   0.768 -0.6806 -0.2654  0.3083
  357MPD2    C3 5399   3.956   3.827   0.748  0.1997  0.1971 -0.2832
  357MPD2    C4 5400   3.915   3.857   0.622 -0.9247  0.3154  0.1852
  357MPD2    C5 5401   4.001   3.836   0.518  0.4785 -0.3928 -0.1512
  357MPD2     H 5402   4.128   3.770   0.868  0.9619 -1.9439 -0.6125
  357MPD2    H1 5403   3.811   3.880   0.603 -1.4257 -0.4575  2.0216
  357MPD2    H2 5404   4.197   3.772   0.456 -1.2530 -0.2433 -0.2695
  357MPD2    H3 5405   3.966   3.835   0.415  0.2593  1.2091 -0.0829
  357MPD2     N 5406   3.860   3.831   0.851  0.3588 -0.2680  0.3659
  357MPD2    H5 5407   3.765   3.851   0.821  0.2440 -1.7442 -0.2404
  357MPD2    N1 5408   4.313   3.728   0.676 -0.3578  0.1108 -0.1247
  357MPD2    H7 5409   4.360   3.703   0.589  1.0471 -0.3493  0.7694
  358TMC3    C1 5410   4.504   3.640   0.769  0.0536  0.0226 -0.8935
  358TMC3    C2 5411   4.501   3.538   0.679 -0.5353 -0.6196  0.0492
  358TMC3    C3 5412   4.579   3.427   0.702 -0.0121 -0.2674 -0.6287
  358TMC3    C4 5413   4.578   3.628   0.879 -0.4032 -0.0204  0.4208
  358TMC3    C5 5414   4.645   3.510   0.904  0.1469  0.1552 -0.2320
  358TMC3    C6 5415   4.647   3.406   0.814 -0.2874 -0.0614  0.5990
  358TMC3     C 5416   4.378   3.708   0.792 -0.0607 -0.5089  0.5599
  358TMC3     O 5417   4.358   3.754   0.905  0.0054  0.1959  0.2951
  358TMC3     H 5418   4.437   3.543   0.591 -0.3160  2.2554  0.0669
  358TMC3    H1 5419   4.577   3.711   0.950  0.6852 -1.4973  2.1470
  358TMC3    H2 5420   4.728   3.334   0.822  1.1220  1.1148 -3.1359
  358TMC3    C7 5421   0.017   3.513   1.010 -0.3494 -0.5096 -0.7524
  358TMC3    C8 5422   4.513   3.309   0.640  0.5478 -0.4397  0.4341
  358TMC3    O1 5423   0.118   3.454   0.982 -0.7705 -0.1674  0.1862
  358TMC3    O2 5424   4.460   3.325   0.527  1.2261 -0.3459  0.2577
  359MPD2     C 5425   2.981   2.553  12.349 -0.8912  0.3220  0.6320
  359MPD2    C1 5426   3.109   2.513  12.374 -0.2144 -0.9189 -0.4300
  359MPD2    C2 5427   3.126   2.409  12.461  0.0194  0.2441  0.3776
  359MPD2    C3 5428   3.020   2.338  12.511  0.0415 -0.0638  0.5244
  359MPD2    C4 5429   2.897   2.380  12.488  0.0785  0.3783 -0.4679
  359MPD2    C5 5430   2.876   2.493  12.412  0.4200 -0.5552  0.3819
  359MPD2     H 5431   3.220   2.367  12.495 -0.0482  1.0535  1.5515
  359MPD2    H1 5432   2.804   2.334  12.520  0.3468 -0.4508 -0.8850
  359MPD2    H2 5433   2.953   2.637  12.286  1.1726  1.0036  0.6300
  359MPD2    H3 5434   2.779   2.538  12.393  0.9082  0.7023  0.8399
  359MPD2     N 5435   3.048   2.215  12.578 -0.1486  0.3456 -0.4577
  359MPD2    H5 5436   3.144   2.186  12.569 -0.1012  0.4312 -0.2388
  359MPD2    N1 5437   3.220   2.586  12.331  0.3230 -0.1508 -0.0545
  359MPD2    H7 5438   3.312   2.571  12.372  0.3478 -3.5130 -1.3312
  360TMC3    C1 5439   3.353   2.724  12.193 -1.1117 -0.0060 -0.0498
  360TMC3    C2 5440   3.426   2.792  12.288  0.5970  0.4211 -0.2632
  360TMC3    C3 5441   3.527   2.875  12.252 -0.7710  0.7186  0.3905
  360TMC3    C4 5442   3.371   2.750  12.062 -0.5701  0.3709  0.0665
  360TMC3    C5 5443   3.463   2.846  12.035  0.0463  0.5215  0.2453
  360TMC3    C6 5444   3.538   2.917  12.125 -0.2674 -0.4057  0.8730
  360TMC3     C 5445   3.221   2.665  12.218 -0.5893 -0.4504 -0.6472
  360TMC3     O 5446   3.130   2.692  12.141  0.3074  0.0690 -0.5758
  360TMC3     H 5447   3.422   2.763  12.393  1.6737 -2.8283 -1.1220
  360TMC3    H1 5448   3.311   2.700  11.987  0.2940  0.6454 -0.8053
  360TMC3    H2 5449   3.602   2.994  12.083  0.8226 -1.4924  0.5552
  360TMC3    C7 5450   3.477   2.870  11.895  0.0098  0.2070 -0.6739
  360TMC3    C8 5451   3.647   2.855  12.332  0.0477 -0.6168 -0.6616
  360TMC3    O1 5452   3.535   2.980  11.876  0.0259  0.4059 -0.3257
  360TMC3    O2 5453   3.638   2.868  12.452 -0.0286 -0.5635 -0.0235
  361MPD2     C 5454   1.217   1.655  16.661 -0.0932 -0.3138 -0.5586
  361MPD2    C1 5455   1.164   1.668  16.793 -0.4176 -0.0356  0.1008
  361MPD2    C2 5456   1.177   1.569  16.883  0.0188  0.0199  0.3566
  361MPD2    C3 5457   1.252   1.458  16.853 -0.3231  0.1263 -0.4021
  361MPD2    C4 5458   1.302   1.446  16.724  0.3967 -0.0674  0.1891
  361MPD2    C5 5459   1.290   1.542  16.633 -0.0596  0.3503 -0.8300
  361MPD2     H 5460   1.147   1.590  16.985 -0.8555  0.1422  0.0690
  361MPD2    H1 5461   1.363   1.362  16.694 -0.1669 -1.1081  1.9072
  361MPD2    H2 5462   1.220   1.731  16.583 -1.1896  0.8805  0.5554
  361MPD2    H3 5463   1.343   1.537  16.538 -0.0453 -0.2359 -0.7907
  361MPD2     N 5464   1.288   1.352  16.941 -0.6550 -1.3630  0.3141
  361MPD2    H5 5465   1.351   1.279  16.909 -0.8405 -1.0053 -0.8533
  361MPD2    N1 5466   1.088   1.776  16.841  0.1708  0.7308 -0.7165
  361MPD2    H7 5467   1.045   1.773  16.932 -0.1928  0.0943 -0.9126
  362TMC3    C1 5468   0.964   1.980  16.812  0.1879 -0.4278  0.6445
  362TMC3    C2 5469   1.032   2.054  16.904 -0.0471  0.0179 -0.0268
  362TMC3    C3 5470   0.986   2.181  16.935  0.2214 -0.5694  0.4928
  362TMC3    C4 5471   0.851   2.028  16.747 -0.5361 -0.2577  0.3237
  362TMC3    C5 5472   0.827   2.165  16.765 -0.0941  0.8671  0.3709
  362TMC3    C6 5473   0.883   2.235  16.866  0.4140 -0.1497  0.1894
  362TMC3     C 5474   1.044   1.871  16.755  0.4705  0.0239 -0.7769
  362TMC3     O 5475   1.065   1.893  16.634  0.3429 -0.0680  0.5203
  362TMC3     H 5476   1.120   2.008  16.947  0.2069  1.0349  0.5174
  362TMC3    H1 5477   0.801   1.982  16.662  0.5601  0.8223 -0.9164
  362TMC3    H2 5478   0.846   2.335  16.889  1.6110  0.6291 -1.2447
  362TMC3    C7 5479   0.724   2.237  16.689 -0.3279  0.0483  0.2023
  362TMC3    C8 5480   1.007   2.236  17.066 -0.2215  0.4762  0.1693
  362TMC3    O1 5481   0.679   2.343  16.736 -0.1888 -0.3164 -0.5510
  362TMC3    O2 5482   1.011   2.354  17.083 -0.5441  0.0798 -0.2281
  363TMC3    C1 5483   3.243   4.344   9.699 -0.5136 -0.2738  0.1660
  363TMC3    C2 5484   3.371   4.297   9.728  0.2544 -0.0926 -1.1313
  363TMC3    C3 5485   3.460   4.389   9.775  0.0560  0.2705 -0.2398
  363TMC3    C4 5486   3.200   4.469   9.723 -0.6511  0.2075  0.3359
  363TMC3    C5 5487   3.287   4.553   9.787  0.2507  0.4924 -0.2578
  363TMC3    C6 5488   3.416   4.516   9.809  0.3392  0.4621 -0.3614
  363TMC3     C 5489   3.159   4.264   9.621 -0.5627  0.1753  0.4428
  363TMC3     O 5490   3.209   4.163   9.575  0.5342  0.2848 -0.2197
  363TMC3     H 5491   3.400   4.193   9.714  1.3810  0.5148 -3.2237
  363TMC3    H1 5492   3.109   4.517   9.687 -0.4662 -0.4232 -0.9766
  363TMC3    H2 5493   3.485   4.589   9.850  0.2432  1.4267 -1.9374
  363TMC3    C7 5494   3.238   4.690   9.811  0.3457 -0.6417 -0.4947
  363TMC3    C8 5495   3.599   4.359   9.805 -1.0264  0.0105 -0.5260
  363TMC3    O1 5496   3.128   4.728   9.772 -0.8130 -0.4891 -0.0117
  363TMC3    O2 5497   3.655   4.443   9.876 -0.3114  0.2295  0.6424
  364MPD2     C 5498   2.108   3.711  10.648 -0.5104 -0.5136 -0.0868
  364MPD2    C1 5499   2.217   3.678  10.573 -0.0591  0.0543  0.2620
  364MPD2    C2 5500   2.282   3.562  10.584  0.6046 -0.2280  0.9129
  364MPD2    C3 5501   2.231   3.465  10.664 -0.5499  0.0466  0.5922
  364MPD2    C4 5502   2.131   3.499  10.746  0.3366  0.2324  0.8145
  364MPD2    C5 5503   2.063   3.618  10.738  0.7046  0.6377 -0.2526
  364MPD2     H 5504   2.371   3.550  10.524  0.4658  1.7855  0.3191
  364MPD2    H1 5505   2.094   3.432  10.823 -1.2734  1.0345  0.7613
  364MPD2    H2 5506   2.056   3.806  10.646  1.5597  0.5733 -2.1462
  364MPD2    H3 5507   1.982   3.641  10.807 -0.0023 -0.8192 -0.6125
  364MPD2     N 5508   2.304   3.346  10.682 -0.1643 -0.1589  0.7541
  364MPD2    H5 5509   2.278   3.279  10.753 -0.6262 -1.0174 -0.2138
  364MPD2    N1 5510   2.287   3.777  10.492  0.1466  0.1398 -0.3363
  364MPD2    H7 5511   2.358   3.738  10.431  0.0857 -1.1045  0.3905
  365TMC3    C1 5512   2.324   3.978  10.394  0.5707  0.1824  0.0260
  365TMC3    C2 5513   2.391   3.920  10.295 -0.6624  0.3249  0.6972
  365TMC3    C3 5514   2.507   3.974  10.239  0.4502  1.1415 -1.5859
  365TMC3    C4 5515   2.365   4.103  10.436  0.3456 -0.5964  0.6738
  365TMC3    C5 5516   2.482   4.159  10.376  0.3150 -0.2980 -0.1389
  365TMC3    C6 5517   2.555   4.096  10.276  0.2890  0.1993 -0.1043
  365TMC3     C 5518   2.251   3.909  10.495  0.2592 -0.3280  0.2342
  365TMC3     O 5519   2.186   3.977  10.573 -0.1076 -0.0372 -0.0380
  365TMC3     H 5520   2.350   3.826  10.259 -0.3846  0.9035 -1.1491
  365TMC3    H1 5521   2.329   4.156  10.524 -1.4013 -0.4848 -0.0990
  365TMC3    H2 5522   2.636   4.142  10.221  1.0695  1.1544  1.8501
  365TMC3    C7 5523   2.550   4.271  10.440  0.1013 -0.3652 -0.6663
  365TMC3    C8 5524   2.591   3.899  10.144 -0.0808 -0.2056  0.1006
  365TMC3    O1 5525   2.664   4.293  10.397 -0.1036  0.2729  0.0089
  365TMC3    O2 5526   2.691   3.958  10.106 -0.7080  0.1395 -0.0964
  366MPD2     C 5527   1.235   0.715  16.031  0.0303  0.1788 -0.0598
  366MPD2    C1 5528   1.262   0.706  15.894  0.0003  0.4261 -0.2408
  366MPD2    C2 5529   1.166   0.656  15.810  0.1217 -0.5023 -0.1319
  366MPD2    C3 5530   1.039   0.623  15.854  0.0662  0.2644 -0.5039
  366MPD2    C4 5531   1.004   0.650  15.987 -0.2393 -0.4228 -0.2864
  366MPD2    C5 5532   1.101   0.698  16.070  0.4970  0.1636  0.0059
  366MPD2     H 5533   1.181   0.649  15.703 -0.7468 -1.4990 -0.1856
  366MPD2    H1 5534   0.904   0.634  16.024 -0.4898  0.6827 -0.4875
  366MPD2    H2 5535   1.302   0.749  16.109  1.0905 -1.3278 -0.3097
  366MPD2    H3 5536   1.079   0.719  16.174 -2.0105  1.8527 -0.8590
  366MPD2     N 5537   0.951   0.561  15.765 -0.1933  0.4195 -0.3654
  366MPD2    H5 5538   1.002   0.531  15.682  1.3123 -0.2084  0.7700
  366MPD2    N1 5539   1.389   0.751  15.840 -0.7260  0.6474  0.4331
  366MPD2    H7 5540   1.403   0.755  15.739 -1.4738 -1.3116  0.2432
  367TMC3    C1 5541   1.611   0.774  15.827  0.1572  0.1815 -0.2994
  367TMC3    C2 5542   1.684   0.661  15.853  0.0356  0.7379  0.1373
  367TMC3    C3 5543   1.714   0.576  15.752 -0.1419  0.0097 -0.2763
  367TMC3    C4 5544   1.575   0.801  15.697 -0.5212 -0.6852 -0.0884
  367TMC3    C5 5545   1.613   0.718  15.595 -0.3541  0.7405 -0.7266
  367TMC3    C6 5546   1.689   0.609  15.624  0.4369 -0.1281  0.0163
  367TMC3     C 5547   1.496   0.790  15.910  0.6470 -0.3787 -0.2307
  367TMC3     O 5548   1.510   0.797  16.032  0.0412 -0.0846 -0.1788
  367TMC3     H 5549   1.738   0.654  15.947  1.6396 -0.7600 -0.8976
  367TMC3    H1 5550   1.529   0.895  15.668  0.0520 -1.3475 -3.1072
  367TMC3    H2 5551   1.705   0.536  15.546  0.9897 -1.0524  0.9877
  367TMC3    C7 5552   1.503   0.703  15.499  0.0362  0.1165  0.3197
  367TMC3    C8 5553   1.804   0.471  15.783  0.0723 -0.0136  0.4881
  367TMC3    O1 5554   1.394   0.745  15.549 -0.3191  0.1379 -0.7895
  367TMC3    O2 5555   1.882   0.482  15.878  0.6332 -0.2176  0.3242
  368MPD2     C 5556   2.080   1.897  13.930 -1.3294  0.9707  0.2064
  368MPD2    C1 5557   2.054   1.933  13.797  0.0426  0.3673  0.3438
  368MPD2    C2 5558   2.116   1.859  13.697  0.0105  0.3475  0.1239
  368MPD2    C3 5559   2.203   1.753  13.733  0.6220  0.1871  0.3396
  368MPD2    C4 5560   2.225   1.720  13.863 -0.6671  0.0512  0.2095
  368MPD2    C5 5561   2.169   1.796  13.964  0.1147 -0.2696  0.1993
  368MPD2     H 5562   2.093   1.871  13.591 -0.7114 -2.2661 -0.0163
  368MPD2    H1 5563   2.280   1.633  13.899 -0.2160  0.1971 -0.1385
  368MPD2    H2 5564   2.034   1.956  14.008 -0.1224  0.0256  1.6368
  368MPD2    H3 5565   2.174   1.779  14.071 -0.9555  0.8092  0.4244
  368MPD2     N 5566   2.260   1.661  13.641 -0.1107  0.1962  0.5792
  368MPD2    H5 5567   2.318   1.583  13.672 -0.8251 -0.1311  1.1177
  368MPD2    N1 5568   1.953   2.029  13.767  0.1275 -0.0632  0.5249
  368MPD2    H7 5569   1.904   2.077  13.842  0.8994 -0.2840  1.1860
  369TMC3    C1 5570   1.807   2.160  13.652  0.9237  0.0778  0.1522
  369TMC3    C2 5571   1.799   2.256  13.557  0.5154 -0.3505  0.5695
  369TMC3    C3 5572   1.676   2.320  13.545  0.6364 -0.0581  0.8411
  369TMC3    C4 5573   1.702   2.118  13.728 -0.7813 -0.1102  0.3592
  369TMC3    C5 5574   1.585   2.177  13.706 -0.6185  0.1100 -0.8972
  369TMC3    C6 5575   1.568   2.280  13.613 -0.5519  0.5684 -0.1800
  369TMC3     C 5576   1.924   2.079  13.641 -0.6505 -0.2843 -0.0007
  369TMC3     O 5577   1.995   2.081  13.542  0.1332  0.1870  0.0172
  369TMC3     H 5578   1.880   2.280  13.489  1.2129 -2.0920  0.7795
  369TMC3    H1 5579   1.705   2.029  13.790 -0.0309  0.5661  1.2888
  369TMC3    H2 5580   1.476   2.331  13.586  0.2108  1.0860 -1.7809
  369TMC3    C7 5581   1.475   2.143  13.795 -0.0142 -0.1191 -0.0033
  369TMC3    C8 5582   1.677   2.436  13.455 -0.0822  0.3719  0.2600
  369TMC3    O1 5583   1.503   2.085  13.899 -0.3088  0.1960  0.3713
  369TMC3    O2 5584   1.575   2.466  13.395 -0.9396  0.2654 -0.1593
  370TMC3    C1 5585   1.912   2.300  16.288 -0.1200 -0.0237  1.0157
  370TMC3    C2 5586   1.874   2.216  16.389  0.2361  0.4501 -0.5511
  370TMC3    C3 5587   1.827   2.092  16.353 -1.2861 -0.1159 -0.2549
  370TMC3    C4 5588   1.926   2.249  16.159 -0.2113 -0.6293 -0.0704
  370TMC3    C5 5589   1.905   2.113  16.140  0.7837  0.1813 -0.3294
  370TMC3    C6 5590   1.840   2.035  16.232  0.8702 -0.4848  0.0335
  370TMC3     C 5591   1.986   2.416  16.341 -0.3394  0.0174  0.3448
  370TMC3     O 5592   2.025   2.425  16.455 -0.0345 -0.4108 -0.1996
  370TMC3     H 5593   1.879   2.257  16.489  0.2852  0.5998 -0.6141
  370TMC3    H1 5594   1.978   2.302  16.079  0.3585  0.6501  1.1510
  370TMC3    H2 5595   1.832   1.928  16.217  1.0082 -0.6554  1.1034
  370TMC3    C7 5596   1.954   2.063  16.015  0.3253 -0.5912  0.0205
  370TMC3    C8 5597   1.772   2.008  16.455 -0.0669 -0.2222 -0.5996
  370TMC3    O1 5598   1.931   2.139  15.919  0.0796 -0.0027  0.3271
  370TMC3    O2 5599   1.753   1.891  16.436  0.6372 -0.3907  0.3387
  371TMC3    C1 5600   3.531   0.807  15.445 -0.1753 -0.3308  0.5262
  371TMC3    C2 5601   3.442   0.793  15.549 -0.5283 -0.2212  0.3897
  371TMC3    C3 5602   3.378   0.910  15.597  0.0243 -0.8163 -0.2065
  371TMC3    C4 5603   3.550   0.931  15.393 -0.5115 -0.4931 -0.0516
  371TMC3    C5 5604   3.481   1.045  15.438  0.0944 -0.1224  0.0511
  371TMC3    C6 5605   3.397   1.034  15.542  0.7906  0.4398 -0.4948
  371TMC3     C 5606   3.596   0.685  15.383  0.9411 -0.3559 -0.1318
  371TMC3     O 5607   3.657   0.700  15.275  0.1959 -0.2290  0.0638
  371TMC3     H 5608   3.414   0.695  15.587  0.6333 -0.8624 -0.4271
  371TMC3    H1 5609   3.628   0.939  15.318 -2.4227 -1.2343 -2.1303
  371TMC3    H2 5610   3.349   1.122  15.585 -2.7012 -1.5550 -0.2917
  371TMC3    C7 5611   3.539   1.178  15.411  0.9399 -0.0866  0.2949
  371TMC3    C8 5612   3.295   0.885  15.712  0.0362  0.3521 -0.2193
  371TMC3    O1 5613   3.546   1.257  15.503 -0.3173  0.1334 -0.4455
  371TMC3    O2 5614   3.321   0.782  15.773  0.9811 -0.0498  0.3983
  372MPD2     C 5615   2.571   2.150  13.538  0.6573  0.5055 -0.3128
  372MPD2    C1 5616   2.705   2.153  13.569  0.3898  0.5127  0.7175
  372MPD2    C2 5617   2.753   2.076  13.671  0.1986  0.2860 -0.1226
  372MPD2    C3 5618   2.674   1.981  13.736  0.5575 -0.1820  0.8711
  372MPD2    C4 5619   2.539   1.983  13.715  0.4113 -0.2916  0.4889
  372MPD2    C5 5620   2.490   2.068  13.617 -0.3583  0.6989  0.1164
  372MPD2     H 5621   2.858   2.075  13.697 -0.0623  0.4811  0.9769
  372MPD2    H1 5622   2.475   1.920  13.776  1.7864 -0.7469  1.4872
  372MPD2    H2 5623   2.530   2.212  13.459 -0.8606  0.1330  0.1844
  372MPD2    H3 5624   2.387   2.051  13.586 -0.6578  0.8831  1.0075
  372MPD2     N 5625   2.743   1.912  13.837  0.0916  0.0507  0.3752
  372MPD2    H5 5626   2.843   1.931  13.837 -0.0565  0.8096 -0.0633
  372MPD2    N1 5627   2.797   2.243  13.497  0.5738  0.1326 -0.3173
  372MPD2    H7 5628   2.891   2.239  13.536  0.8131 -0.2484 -0.9248
  373TMC3    C1 5629   2.775   1.763  14.019 -0.6824 -0.0700 -0.2052
  373TMC3    C2 5630   2.851   1.848  14.098  0.1286 -0.4423  0.2281
  373TMC3    C3 5631   2.901   1.785  14.209  0.1264 -0.3191  0.1318
  373TMC3    C4 5632   2.736   1.637  14.061  0.0755 -0.0103 -0.0913
  373TMC3    C5 5633   2.788   1.582  14.177  0.2248 -0.3799 -0.0760
  373TMC3    C6 5634   2.875   1.654  14.250  0.6360 -0.0377 -0.2150
  373TMC3     C 5635   2.690   1.817  13.915  0.1594  0.0982 -0.3424
  373TMC3     O 5636   2.573   1.781  13.915  0.8653  0.5902 -0.3513
  373TMC3     H 5637   2.859   1.954  14.081  0.0624 -0.8440 -2.3786
  373TMC3    H1 5638   2.666   1.580  14.002 -1.7373  1.2834  0.8155
  373TMC3    H2 5639   2.924   1.606  14.334 -1.2458  0.3430  1.0897
  373TMC3    C7 5640   2.817   1.442  14.162 -0.2276 -1.0511 -0.0975
  373TMC3    C8 5641   3.005   1.857  14.278 -0.2235 -0.3804  0.3112
  373TMC3    O1 5642   2.742   1.367  14.223  0.0096 -0.0906 -0.0682
  373TMC3    O2 5643   3.091   1.912  14.205 -0.0662 -0.1492 -0.0515
  374TMC3    C1 5644   3.380   2.130   9.362 -0.0001  0.1496 -0.5436
  374TMC3    C2 5645   3.439   2.248   9.377  0.3274 -0.1243  0.0546
  374TMC3    C3 5646   3.525   2.268   9.482  1.0562 -0.2472  0.0765
  374TMC3    C4 5647   3.393   2.022   9.446  0.5772 -0.7222 -0.4986
  374TMC3    C5 5648   3.490   2.041   9.546 -0.5132 -0.0322  0.8660
  374TMC3    C6 5649   3.555   2.165   9.567  0.8198  0.4689  0.1592
  374TMC3     C 5650   3.289   2.119   9.252  0.8550  0.3141  0.2444
  374TMC3     O 5651   3.249   2.216   9.195  0.0352  0.0106  0.1760
  374TMC3     H 5652   3.410   2.333   9.317  0.2490 -0.9968 -1.1559
  374TMC3    H1 5653   3.325   1.938   9.444  0.3883 -0.5561 -1.0426
  374TMC3    H2 5654   3.632   2.173   9.642 -0.4062  0.2421  1.4548
  374TMC3    C7 5655   3.501   1.944   9.651  0.7934 -0.0562  0.8015
  374TMC3    C8 5656   3.575   2.398   9.509 -0.1923  0.0888  0.0927
  374TMC3    O1 5657   3.539   1.992   9.760  0.4747 -0.0031 -0.3462
  374TMC3    O2 5658   3.580   2.473   9.409  0.4850  0.3959 -0.2027
  375MPD2     C 5659   3.258   2.621  17.143  0.3978 -1.0233  0.3007
  375MPD2    C1 5660   3.152   2.587  17.052 -0.0941  0.3919 -0.3432
  375MPD2    C2 5661   3.166   2.479  16.977  0.3402 -0.7195  0.1791
  375MPD2    C3 5662   3.271   2.386  17.002  0.6114 -1.0260 -0.9496
  375MPD2    C4 5663   3.363   2.416  17.093  0.1971  0.1942  0.1793
  375MPD2    C5 5664   3.359   2.532  17.156  0.1279  0.1152 -0.1113
  375MPD2     H 5665   3.087   2.457  16.907 -1.0294 -2.0619  2.1497
  375MPD2    H1 5666   3.451   2.353  17.105 -1.3262 -1.5420  2.3754
  375MPD2    H2 5667   3.260   2.709  17.206 -0.4119 -0.3024 -0.6738
  375MPD2    H3 5668   3.438   2.540  17.229 -2.0477  0.0264  2.2752
  375MPD2     N 5669   3.288   2.274  16.921  0.2425 -0.5062 -0.5173
  375MPD2    H5 5670   3.375   2.225  16.938  1.0797  1.2182  0.2085
  375MPD2    N1 5671   3.041   2.670  17.025 -0.6994  0.1426 -0.4150
  375MPD2    H7 5672   2.967   2.646  16.959  0.1009  0.6282 -1.4882
  376TMC3    C1 5673   3.272   2.160  16.710 -0.4564  0.3046  0.0332
  376TMC3    C2 5674   3.399   2.112  16.730 -0.6484 -0.4763  0.0785
  376TMC3    C3 5675   3.484   2.108  16.620  0.1863 -0.4201  0.5579
  376TMC3    C4 5676   3.234   2.205  16.589  0.0455  0.5401  0.3789
  376TMC3    C5 5677   3.306   2.188  16.477  0.8082 -0.1623  0.0847
  376TMC3    C6 5678   3.436   2.137  16.491 -0.0993  0.3913  0.3199
  376TMC3     C 5679   3.203   2.223  16.822 -0.1476  0.5031  0.1912
  376TMC3     O 5680   3.089   2.263  16.802 -0.2070  0.9205  0.0755
  376TMC3     H 5681   3.439   2.083  16.827  0.7791  4.9471  1.0903
  376TMC3    H1 5682   3.140   2.256  16.571 -0.3739 -0.5211 -0.4636
  376TMC3    H2 5683   3.498   2.150  16.403 -1.5956 -2.2731 -1.1120
  376TMC3    C7 5684   3.273   2.277  16.362  0.5768  0.0406 -0.1836
  376TMC3    C8 5685   3.622   2.155  16.636 -0.2237 -0.5271 -0.4610
  376TMC3    O1 5686   3.222   2.387  16.383  0.1093 -0.2674 -0.2016
  376TMC3    O2 5687   3.669   2.210  16.537 -0.0336 -0.4104 -0.2699
  377MPD2     C 5688   0.771   2.250  13.228 -0.1431  0.0062  0.4504
  377MPD2    C1 5689   0.901   2.199  13.248 -0.2257 -0.3081  0.1653
  377MPD2    C2 5690   0.923   2.107  13.349  0.3650 -0.1160  0.2100
  377MPD2    C3 5691   0.817   2.057  13.420  0.5472  0.2126 -0.9813
  377MPD2    C4 5692   0.689   2.100  13.400  0.0095  0.3271  0.1009
  377MPD2    C5 5693   0.666   2.194  13.301 -0.4763 -0.2596  0.7570
  377MPD2     H 5694   1.020   2.059  13.364  0.3236 -0.0461  0.6892
  377MPD2    H1 5695   0.602   2.051  13.441  0.2043 -0.5170 -0.4785
  377MPD2    H2 5696   0.748   2.327  13.155  0.4657  0.6628  0.9536
  377MPD2    H3 5697   0.564   2.227  13.283 -0.0851  0.3570 -0.3534
  377MPD2     N 5698   0.821   1.939  13.496 -0.3827  0.6505  0.3106
  377MPD2    H5 5699   0.737   1.917  13.549 -0.3379 -0.6407 -0.1791
  377MPD2    N1 5700   1.000   2.242  13.158 -0.0675 -0.4907  0.4950
  377MPD2    H7 5701   0.976   2.298  13.077  1.1039 -0.9427 -0.1607
  378TMC3    C1 5702   1.257   2.309  12.828 -0.3875  0.1166  0.6887
  378TMC3    C2 5703   1.175   2.281  12.930 -0.1367 -0.0827  0.0003
  378TMC3    C3 5704   1.219   2.265  13.058 -0.0789  0.3165 -0.4538
  378TMC3    C4 5705   1.392   2.322  12.849 -0.1032 -0.2546 -0.4760
  378TMC3    C5 5706   1.439   2.302  12.976  0.8635  0.1125  0.4115
  378TMC3    C6 5707   1.351   2.270  13.076 -0.4641 -0.2189 -0.4122
  378TMC3     C 5708   1.186   2.312  12.700  0.3389  0.1046 -0.3588
  378TMC3     O 5709   1.063   2.311  12.692 -0.0207  0.0599 -0.1037
  378TMC3     H 5710   1.069   2.267  12.910  0.2518 -2.3206 -0.4125
  378TMC3    H1 5711   1.469   2.346  12.776 -1.3159  0.3089 -1.5593
  378TMC3    H2 5712   1.391   2.230  13.168  2.2001  0.4313 -1.2944
  378TMC3    C7 5713   1.580   2.277  13.008 -0.4340  0.5139  0.0728
  378TMC3    C8 5714   1.135   2.219  13.169  0.1709 -0.2997 -0.1167
  378TMC3    O1 5715   1.609   2.273  13.127  0.1216 -0.0565 -0.1088
  378TMC3    O2 5716   1.188   2.142  13.245  0.0127  0.1565  0.1864
  379MPD2     C 5717   2.834   0.405  16.222  0.6628  0.0379 -0.4017
  379MPD2    C1 5718   2.735   0.318  16.250 -1.0913  0.1377  0.4783
  379MPD2    C2 5719   2.744   0.241  16.362  0.5920 -0.2329 -0.5593
  379MPD2    C3 5720   2.847   0.258  16.444  0.1022  0.0343 -0.2497
  379MPD2    C4 5721   2.938   0.358  16.421  0.3616  0.2553  0.0746
  379MPD2    C5 5722   2.940   0.422  16.307  0.5488 -0.4027 -0.0137
  379MPD2     H 5723   2.666   0.168  16.381  0.5617  0.3943  1.8245
  379MPD2    H1 5724   3.016   0.394  16.487 -2.0806 -0.7763  3.5155
  379MPD2    H2 5725   2.839   0.464  16.131  2.5899  0.7933  0.1880
  379MPD2    H3 5726   3.013   0.499  16.287  0.0915  0.2857  0.9418
  379MPD2     N 5727   2.858   0.178  16.563  0.2586  0.1412  0.0748
  379MPD2    H5 5728   2.938   0.194  16.623  0.0459  1.6119 -0.0391
  379MPD2    N1 5729   2.653   0.285  16.143 -0.7264 -0.1494  0.1859
  379MPD2    H7 5730   2.676   0.325  16.052 -2.8368  1.6270  0.4447
  380TMC3    C1 5731   2.541   0.125  16.002 -0.2134 -0.3449  0.0977
  380TMC3    C2 5732   2.646   0.136  15.914  0.9676 -0.6035  0.1731
  380TMC3    C3 5733   2.629   0.078  15.792 -0.2207  0.3629  0.0450
  380TMC3    C4 5734   2.417   0.080  15.968 -0.1775 -0.1607  0.7373
  380TMC3    C5 5735   2.406   0.022  15.843  0.1155 -0.1154  0.6278
  380TMC3    C6 5736   2.514   0.018  15.756  0.4119 -0.1547 -0.3498
  380TMC3     C 5737   2.555   0.187  16.138 -0.3449 -1.0987  0.5312
  380TMC3     O 5738   2.492   0.148  16.236 -0.8610  0.1614 -0.1561
  380TMC3     H 5739   2.736   0.183  15.949  1.6671 -1.2096 -0.8165
  380TMC3    H1 5740   2.339   0.057  16.039 -1.8734  0.3016 -0.9747
  380TMC3    H2 5741   2.489   4.709  15.661 -0.8150  0.3892 -0.3004
  380TMC3    C7 5742   2.277   4.729  15.783 -0.2688  0.2464  0.5331
  380TMC3    C8 5743   2.686   0.144  15.673 -0.2146  0.6111 -0.3952
  380TMC3    O1 5744   2.269   4.633  15.711 -0.5479 -0.3095 -0.1287
  380TMC3    O2 5745   2.634   0.135  15.562 -0.1725 -0.3292  0.7112
  381TMC3    C1 5746   1.946   1.350  16.273  0.2402  0.0006  1.0708
  381TMC3    C2 5747   1.996   1.474  16.248 -0.0038 -0.1227 -0.0259
  381TMC3    C3 5748   1.957   1.577  16.329  0.6325 -0.1355 -0.5536
  381TMC3    C4 5749   1.854   1.325  16.372 -0.4004  0.1163 -0.1447
  381TMC3    C5 5750   1.818   1.435  16.451 -0.4091  0.4257  0.3036
  381TMC3    C6 5751   1.864   1.561  16.430  0.4839 -0.6702 -0.1750
  381TMC3     C 5752   1.958   1.249  16.173  0.6456 -0.2285 -0.4700
  381TMC3     O 5753   1.975   1.293  16.059 -0.2750 -0.5448  0.1713
  381TMC3     H 5754   2.065   1.483  16.165 -1.8296  1.3795 -1.3649
  381TMC3    H1 5755   1.818   1.223  16.381  1.3247 -0.1923  3.0247
  381TMC3    H2 5756   1.841   1.638  16.502  0.3529 -0.5965 -0.2952
  381TMC3    C7 5757   1.820   1.391  16.588  0.3113 -0.2007 -0.2004
  381TMC3    C8 5758   2.026   1.704  16.310 -0.1441 -0.4245 -0.2496
  381TMC3    O1 5759   1.889   1.292  16.615 -0.0452 -0.1420  0.0901
  381TMC3    O2 5760   2.065   1.717  16.195 -0.4720 -0.0716 -0.5975
  382MPD2     C 5761   1.496   3.868  17.030 -0.3467 -0.9566  0.1180
  382MPD2    C1 5762   1.463   3.826  17.161 -0.7281 -0.6088 -0.5137
  382MPD2    C2 5763   1.343   3.755  17.173 -0.0082 -0.5265  0.3960
  382MPD2    C3 5764   1.260   3.735  17.068 -0.1513 -1.1720 -0.4279
  382MPD2    C4 5765   1.284   3.789  16.940  0.2786 -0.2613 -0.6433
  382MPD2    C5 5766   1.404   3.856  16.932 -0.0782  0.3269 -0.3281
  382MPD2     H 5767   1.306   3.722  17.269 -1.5515  1.2769  0.4213
  382MPD2    H1 5768   1.216   3.784  16.856  1.0749 -0.0351 -1.3004
  382MPD2    H2 5769   1.582   3.924  16.996  0.0461 -0.9327  1.1624
  382MPD2    H3 5770   1.432   3.909  16.842  1.1904  0.8830  0.3878
  382MPD2     N 5771   1.138   3.671  17.072 -0.1464  0.2238 -0.6928
  382MPD2    H5 5772   1.087   3.667  16.984 -0.1412 -0.9258 -0.6457
  382MPD2    N1 5773   1.540   3.851  17.282  0.2843  0.4599  0.4340
  382MPD2    H7 5774   1.509   3.823  17.375  1.2062  1.8580  1.1688
  383TMC3    C1 5775   0.945   3.599  17.174 -0.9289  0.0119  0.0223
  383TMC3    C2 5776   0.896   3.475  17.214  0.5628  0.1407 -0.5001
  383TMC3    C3 5777   0.760   3.471  17.233  0.2371 -0.1734 -0.4019
  383TMC3    C4 5778   0.870   3.706  17.146 -0.2976  0.2998 -0.8507
  383TMC3    C5 5779   0.731   3.689  17.150 -0.1774 -0.0038 -0.1597
  383TMC3    C6 5780   0.674   3.576  17.202 -0.4674 -0.3160 -0.1962
  383TMC3     C 5781   1.085   3.611  17.184  0.1749 -0.0355 -0.1841
  383TMC3     O 5782   1.142   3.577  17.292  0.8358  0.0545  0.3809
  383TMC3     H 5783   0.963   3.392  17.193  0.3273 -1.3377  4.7370
  383TMC3    H1 5784   0.914   3.800  17.114  0.1018  0.4623  0.2050
  383TMC3    H2 5785   0.567   3.563  17.212 -0.5442 -1.3072 -2.2369
  383TMC3    C7 5786   0.636   3.787  17.112 -0.7092 -0.1571 -0.1277
  383TMC3    C8 5787   0.691   3.346  17.252  1.3036  0.0445  0.8236
  383TMC3    O1 5788   0.518   3.768  17.149  0.2483 -0.3365 -0.3094
  383TMC3    O2 5789   0.571   3.342  17.232  0.3075  0.5106 -0.3751
  384MPD2     C 5790   2.343   0.587  12.141  0.7784  0.2920 -0.0045
  384MPD2    C1 5791   2.427   0.533  12.239  0.0705  0.0321  0.0493
  384MPD2    C2 5792   2.523   0.448  12.197  0.2934  0.2317  0.3342
  384MPD2    C3 5793   2.547   0.409  12.062 -0.5823 -0.7667 -0.3386
  384MPD2    C4 5794   2.466   0.462  11.966 -0.1362 -0.0680  0.2678
  384MPD2    C5 5795   2.368   0.550  12.009  0.1136  0.0738  0.8616
  384MPD2     H 5796   2.588   0.402  12.270  0.5832  1.3633  0.7997
  384MPD2    H1 5797   2.477   0.448  11.859 -0.1670 -1.3459  0.4251
  384MPD2    H2 5798   2.254   0.648  12.156  0.9344  0.4588  0.2497
  384MPD2    H3 5799   2.302   0.592  11.933  0.6939 -0.1653  0.2290
  384MPD2     N 5800   2.642   0.313  12.029  0.1067  0.1189 -0.0787
  384MPD2    H5 5801   2.658   0.304  11.929  1.7675  0.7156  0.1322
  384MPD2    N1 5802   2.425   0.556  12.378 -0.2069 -0.0213  0.0653
  384MPD2    H7 5803   2.494   0.532  12.449  0.5354 -0.7168 -0.8856
  385TMC3    C1 5804   2.800   0.142  12.056  0.1073 -0.1104 -0.1536
  385TMC3    C2 5805   2.727   0.046  11.994 -0.2640  0.0107 -0.2735
  385TMC3    C3 5806   2.752   4.651  12.033  0.3034  0.1359  0.5635
  385TMC3    C4 5807   2.898   0.107  12.143 -0.3306  0.6190 -0.5506
  385TMC3    C5 5808   2.918   4.711  12.190  0.7272 -0.5290  1.0455
  385TMC3    C6 5809   2.840   4.616  12.135  0.3999  0.0718  1.2484
  385TMC3     C 5810   2.719   0.240  12.117 -0.1525  0.2516  0.4729
  385TMC3     O 5811   2.733   0.246  12.239  0.0868  0.0553  0.1359
  385TMC3     H 5812   2.635   0.072  11.945 -0.2349  1.6689  0.5480
  385TMC3    H1 5813   2.949   0.195  12.179 -0.2451  0.1270  0.5334
  385TMC3    H2 5814   2.846   4.512  12.166  0.9309  0.0109  0.9431
  385TMC3    C7 5815   2.932   4.695  12.332  0.2554  0.3699 -0.2273
  385TMC3    C8 5816   2.659   4.542  11.999 -0.5919 -0.2810 -0.2267
  385TMC3    O1 5817   2.970   4.587  12.374  0.3328 -0.3762 -0.0825
  385TMC3    O2 5818   2.650   4.449  12.081  0.5831 -0.2991  0.4436
  386TMC3    C1 5819   2.596   2.139  11.914 -0.1946 -0.5237  0.0653
  386TMC3    C2 5820   2.562   2.220  11.813 -0.2386 -0.8930 -0.2676
  386TMC3    C3 5821   2.439   2.271  11.808 -0.1690  0.6894 -0.0675
  386TMC3    C4 5822   2.515   2.118  12.025  0.8163  0.0537  0.2723
  386TMC3    C5 5823   2.394   2.185  12.024 -0.7973  0.8675  0.0971
  386TMC3    C6 5824   2.352   2.256  11.915  0.1104  0.1696 -0.9460
  386TMC3     C 5825   2.734   2.091  11.902 -0.0821 -0.2357  0.1875
  386TMC3     O 5826   2.803   2.143  11.814  0.0811  0.2683 -0.5182
  386TMC3     H 5827   2.623   2.222  11.723 -1.7543 -1.0125 -1.2856
  386TMC3    H1 5828   2.544   2.061  12.113  1.7429  0.7286  0.4079
  386TMC3    H2 5829   2.253   2.299  11.903 -0.0956 -0.2594 -0.7806
  386TMC3    C7 5830   2.334   2.229  12.149 -0.1684 -0.0799 -0.1581
  386TMC3    C8 5831   2.399   2.356  11.696 -0.6262 -0.1170  0.4077
  386TMC3    O1 5832   2.212   2.249  12.150  0.0526 -0.2142 -0.0062
  386TMC3    O2 5833   2.296   2.423  11.720 -0.6331 -0.3896 -0.7866
  387MPD2     C 5834   0.143   2.763  10.177  0.2406 -0.5347  0.0854
  387MPD2    C1 5835   0.228   2.704  10.266  0.0378  0.3716  0.1031
  387MPD2    C2 5836   0.249   2.565  10.247 -0.2134  0.3267  0.2493
  387MPD2    C3 5837   0.191   2.481  10.153  0.4743 -0.3457  0.0817
  387MPD2    C4 5838   0.101   2.537  10.066  0.5915  0.8776  0.5639
  387MPD2    C5 5839   0.089   2.680  10.078  0.3775  0.0613 -0.2785
  387MPD2     H 5840   0.320   2.517  10.314  3.2339  2.0918 -2.1001
  387MPD2    H1 5841   0.049   2.486   9.986  1.5474 -0.2770  0.6801
  387MPD2    H2 5842   0.119   2.869  10.183  0.6997 -0.3382 -1.5337
  387MPD2    H3 5843   0.027   2.716   9.998 -1.8758 -1.7077  0.6886
  387MPD2     N 5844   0.242   2.347  10.138  0.3687  0.1024 -0.0532
  387MPD2    H5 5845   0.300   2.305  10.210 -0.9956  3.3277  2.9207
  387MPD2    N1 5846   0.319   2.777  10.350  0.7030 -0.5442  0.2662
  387MPD2    H7 5847   0.400   2.733  10.393  1.2097  0.4327  0.3279
  388TMC3    C1 5848   0.476   2.949  10.345  0.5222 -0.3584 -0.1294
  388TMC3    C2 5849   0.517   3.070  10.395 -0.1472  0.1608 -0.0384
  388TMC3    C3 5850   0.651   3.084  10.423 -0.3830  0.1852  0.5999
  388TMC3    C4 5851   0.566   2.854  10.298 -0.0289  0.7390  0.1053
  388TMC3    C5 5852   0.695   2.873  10.336 -0.3125 -0.2099 -0.3593
  388TMC3    C6 5853   0.740   2.981  10.402  0.0039 -0.5332 -0.2228
  388TMC3     C 5854   0.335   2.915  10.349 -0.1648  0.3056  0.1995
  388TMC3     O 5855   0.246   2.998  10.332  0.0137  0.5661  0.6502
  388TMC3     H 5856   0.442   3.141  10.430 -0.7738  1.3923 -3.7729
  388TMC3    H1 5857   0.545   2.779  10.223 -0.4829  1.4413 -0.4809
  388TMC3    H2 5858   0.845   2.984  10.429 -0.4412 -0.4395  1.5280
  388TMC3    C7 5859   0.793   2.787  10.280 -0.5194  0.1483  0.9889
  388TMC3    C8 5860   0.692   3.197  10.502 -0.3927 -0.6121  0.4074
  388TMC3    O1 5861   0.896   2.832  10.232 -0.2435  0.0386  0.3861
  388TMC3    O2 5862   0.602   3.261  10.555 -0.3863  0.2987 -0.2166
  389MPD2     C 5863   4.269   1.027  11.329  0.0320  0.7538 -0.2093
  389MPD2    C1 5864   4.150   0.976  11.273  0.1858 -0.3034 -0.6290
  389MPD2    C2 5865   4.068   0.917  11.377  0.6451 -0.1418 -0.0240
  389MPD2    C3 5866   4.109   0.915  11.513 -0.3463 -0.2014 -0.0056
  389MPD2    C4 5867   4.232   0.962  11.550 -0.3493  0.1574 -0.0081
  389MPD2    C5 5868   4.315   1.012  11.456 -0.2271  0.4107 -0.0406
  389MPD2     H 5869   3.966   0.903  11.345  0.5026  0.9933 -0.0940
  389MPD2    H1 5870   4.266   0.977  11.652 -1.8243  3.2688  0.0244
  389MPD2    H2 5871   4.339   1.074  11.263 -0.3499 -0.1551 -1.2596
  389MPD2    H3 5872   4.400   1.065  11.498 -0.0344  0.2393 -0.2148
  389MPD2     N 5873   4.019   0.885  11.615  0.4396  0.2106 -0.2476
  389MPD2    H5 5874   4.039   0.926  11.705  2.0039 -0.1645 -0.4320
  389MPD2    N1 5875   4.124   0.969  11.137 -0.1408  0.5053 -0.1915
  389MPD2    H7 5876   4.175   1.037  11.081 -0.0460 -0.0500 -0.7658
  390TMC3    C1 5877   3.823   0.791  11.703  0.1169  0.4909  0.1431
  390TMC3    C2 5878   3.741   0.680  11.700  0.6100  0.9257 -0.4342
  390TMC3    C3 5879   3.641   0.672  11.794  0.6646  0.0364  0.0907
  390TMC3    C4 5880   3.812   0.888  11.796 -0.0621  0.0604  0.0233
  390TMC3    C5 5881   3.712   0.877  11.890 -0.2532 -0.0779  0.0871
  390TMC3    C6 5882   3.625   0.768  11.897  0.5190  0.2073  0.7437
  390TMC3     C 5883   3.914   0.805  11.589  0.2255 -1.3071 -0.1027
  390TMC3     O 5884   3.891   0.728  11.494  0.1408 -0.0448 -0.3343
  390TMC3     H 5885   3.755   0.605  11.623 -0.7327  0.8474 -0.5977
  390TMC3    H1 5886   3.874   0.977  11.792 -0.9168  0.5226 -3.2074
  390TMC3    H2 5887   3.537   0.773  11.960 -0.8785  3.0455 -1.4466
  390TMC3    C7 5888   3.728   0.962  12.001  0.0380  0.7000 -0.1847
  390TMC3    C8 5889   3.561   0.551  11.783  0.1376 -0.2745  0.4051
  390TMC3    O1 5890   3.752   1.084  11.981  0.4888  0.8840 -0.3339
  390TMC3    O2 5891   3.564   0.478  11.683  0.6621 -0.6443  0.1394
  391MPD2     C 5892   3.843   2.385  11.071 -0.1045 -0.3705 -0.0922
  391MPD2    C1 5893   3.778   2.505  11.074 -0.4108 -0.1522  0.1158
  391MPD2    C2 5894   3.750   2.557  10.949 -0.5225  0.4802  0.5164
  391MPD2    C3 5895   3.768   2.490  10.834  0.1131 -0.4169  0.1092
  391MPD2    C4 5896   3.826   2.368  10.831  0.5003 -0.3728  0.7810
  391MPD2    C5 5897   3.864   2.323  10.950  0.3701  0.3724 -0.2297
  391MPD2     H 5898   3.696   2.651  10.940 -0.9549  0.1228 -0.6422
  391MPD2    H1 5899   3.856   2.304  10.749 -1.8856 -0.9139  0.3365
  391MPD2    H2 5900   3.889   2.350  11.163 -0.0402  1.4170  0.5615
  391MPD2    H3 5901   3.917   2.229  10.955  1.3942  0.9435 -0.3940
  391MPD2     N 5902   3.725   2.550  10.715  0.5571 -0.7042  0.1398
  391MPD2    H5 5903   3.677   2.639  10.721 -0.8252 -1.4858  0.7014
  391MPD2    N1 5904   3.770   2.581  11.190  0.8278 -0.1310 -0.1950
  391MPD2    H7 5905   3.815   2.537  11.270 -1.9298  1.6839  2.3430
  392TMC3    C1 5906   3.711   2.610  10.487 -0.1127  0.3914  0.5566
  392TMC3    C2 5907   3.686   2.569  10.357  0.7434 -1.2916  0.4953
  392TMC3    C3 5908   3.697   2.664  10.257  0.8631 -0.4288 -0.4605
  392TMC3    C4 5909   3.741   2.742  10.513 -0.4255  0.5039 -0.8626
  392TMC3    C5 5910   3.750   2.831  10.406  0.4249  0.7005 -0.5600
  392TMC3    C6 5911   3.727   2.792  10.276 -0.4474 -0.1286 -0.0612
  392TMC3     C 5912   3.756   2.509  10.582  0.1569  0.1198  0.6518
  392TMC3     O 5913   3.813   2.411  10.540  0.0111 -0.2259 -0.7952
  392TMC3     H 5914   3.698   2.465  10.331  0.4236 -1.2887  0.3447
  392TMC3    H1 5915   3.792   2.767  10.606 -2.6721  1.9278 -0.0254
  392TMC3    H2 5916   3.732   2.864  10.195 -0.4604  1.3503  1.2393
  392TMC3    C7 5917   3.816   2.951  10.441  0.4287  0.2086  0.5705
  392TMC3    C8 5918   3.679   2.610  10.127  0.4734 -0.9103 -0.1791
  392TMC3    O1 5919   3.906   2.938  10.522 -0.6464 -0.5465  0.3579
  392TMC3    O2 5920   3.582   2.537  10.116 -0.2273  0.0766 -0.0691
  393TMC3    C1 5921   2.510   0.600  10.424 -0.4943 -0.9423 -0.4393
  393TMC3    C2 5922   2.385   0.617  10.477 -0.4445 -0.2363 -0.6252
  393TMC3    C3 5923   2.307   0.503  10.498  0.1213 -0.3813 -0.6292
  393TMC3    C4 5924   2.569   0.478  10.409 -1.3597  0.4048  0.0111
  393TMC3    C5 5925   2.492   0.368  10.442  0.3794  0.0913  0.2969
  393TMC3    C6 5926   2.361   0.381  10.493 -0.1606 -0.1388  0.8280
  393TMC3     C 5927   2.583   0.717  10.387 -0.3830  0.9903  0.6311
  393TMC3     O 5928   2.520   0.809  10.335  0.2597 -0.1281  0.3068
  393TMC3     H 5929   2.345   0.717  10.471  0.8466  0.3212 -0.0206
  393TMC3    H1 5930   2.665   0.466  10.362 -1.3276  0.1260  0.1451
  393TMC3    H2 5931   2.297   0.293  10.493  1.3521 -1.2309  1.0402
  393TMC3    C7 5932   2.542   0.232  10.438 -0.4422 -1.0584 -0.3786
  393TMC3    C8 5933   2.209   0.514  10.612 -0.0805  0.2050 -0.6510
  393TMC3    O1 5934   2.470   0.142  10.399  0.2831  0.1308  0.8352
  393TMC3    O2 5935   2.125   0.425  10.618 -0.2617 -0.1169  0.3772
  394TMC3    C1 5936   4.006   0.932  10.937  0.7880  0.2979  0.3482
  394TMC3    C2 5937   3.893   0.886  10.870  0.0358  0.1511 -0.6486
  394TMC3    C3 5938   3.876   0.914  10.736  0.0377  0.5707 -0.1990
  394TMC3    C4 5939   4.111   0.974  10.863  0.3597 -0.3823  0.3394
  394TMC3    C5 5940   4.100   0.990  10.727  0.2083  0.6174 -0.5636
  394TMC3    C6 5941   3.986   0.960  10.664 -0.1033 -0.0798 -0.1631
  394TMC3     C 5942   4.024   0.897  11.079  0.4129  0.0592  0.0783
  394TMC3     O 5943   3.952   0.814  11.124  0.2647  0.2150  0.1600
  394TMC3     H 5944   3.815   0.836  10.926  1.3673 -2.2662 -0.9330
  394TMC3    H1 5945   4.203   1.001  10.915  2.4925 -2.9730 -2.0689
  394TMC3    H2 5946   3.996   0.953  10.557 -1.7490 -5.1043  0.0087
  394TMC3    C7 5947   4.223   1.014  10.649  0.6526 -0.0177  0.5376
  394TMC3    C8 5948   3.785   0.825  10.660 -0.3984 -0.1477 -0.1131
  394TMC3    O1 5949   4.205   1.079  10.549  0.3314  0.7153 -0.4645
  394TMC3    O2 5950   3.750   0.724  10.715  0.1316  0.5389  0.6724
  395TMC3    C1 5951   4.434   2.462  14.594  0.4314  0.3618  0.1706
  395TMC3    C2 5952   4.302   2.487  14.582 -0.3665 -0.5996 -0.7572
  395TMC3    C3 5953   4.247   2.608  14.607 -0.5721  0.0356 -0.2916
  395TMC3    C4 5954   4.521   2.559  14.645 -0.5706 -0.4945 -0.1967
  395TMC3    C5 5955   4.455   2.679  14.680  0.2532  0.7636  0.2641
  395TMC3    C6 5956   4.326   2.710  14.653  0.5641 -0.4662 -0.0747
  395TMC3     C 5957   4.451   2.332  14.654  0.6348 -0.3537  0.3953
  395TMC3     O 5958   4.545   2.258  14.614 -0.5724  1.0696  0.5791
  395TMC3     H 5959   4.247   2.404  14.539 -0.7234  0.3119 -2.0724
  395TMC3    H1 5960   4.624   2.533  14.667  0.0811  0.5525 -2.0255
  395TMC3    H2 5961   4.284   2.805  14.684  1.5464 -0.7647  2.1386
  395TMC3    C7 5962   4.539   2.797  14.713 -0.1188  0.2257 -0.2313
  395TMC3    C8 5963   4.123   2.605  14.688  0.4463  0.5684 -0.8649
  395TMC3    O1 5964   4.483   2.884  14.769  0.2271  0.5449  0.6568
  395TMC3    O2 5965   4.107   2.693  14.768  0.8975  0.0575 -0.8068
  396MPD2     C 5966   4.039   3.071  16.948 -0.0306  0.1756 -0.0152
  396MPD2    C1 5967   4.135   3.118  17.037  0.1760  0.0888  0.2088
  396MPD2    C2 5968   4.174   3.248  17.036  0.5532 -0.2971  0.2238
  396MPD2    C3 5969   4.114   3.337  16.942 -0.8377  0.4005 -0.0243
  396MPD2    C4 5970   4.015   3.290  16.860  0.1385  0.2931 -1.0129
  396MPD2    C5 5971   3.984   3.158  16.857  0.2772 -0.3020  0.1804
  396MPD2     H 5972   4.259   3.280  17.095  1.7770 -0.2049 -1.5774
  396MPD2    H1 5973   3.979   3.345  16.774  0.9027 -1.5847 -2.5098
  396MPD2    H2 5974   4.019   2.964  16.943 -0.1330  0.3045 -2.2768
  396MPD2    H3 5975   3.941   3.118  16.766  1.4140 -2.9329  0.8045
  396MPD2     N 5976   4.170   3.473  16.929  0.4549 -0.8895 -0.4724
  396MPD2    H5 5977   4.249   3.476  16.992 -0.4550  1.0067  0.5936
  396MPD2    N1 5978   4.189   3.019  17.125 -0.0874 -0.1686  0.2704
  396MPD2    H7 5979   4.165   2.923  17.104  1.1085  0.0249 -2.0359
  397TMC3    C1 5980   4.308   2.944  17.317  0.0545  0.4940 -0.1858
  397TMC3    C2 5981   4.284   2.827  17.244  0.1405 -0.5135  0.1004
  397TMC3    C3 5982   4.214   2.727  17.304 -0.4000 -0.1654 -0.7099
  397TMC3    C4 5983   4.259   2.946  17.450 -0.0633 -0.2599 -0.4655
  397TMC3    C5 5984   4.184   2.844  17.503  0.0295  0.3505  0.5483
  397TMC3    C6 5985   4.159   2.732  17.427  0.2311  0.3280  0.4136
  397TMC3     C 5986   4.251   3.057  17.243 -1.1499 -0.5695  0.3713
  397TMC3     O 5987   4.245   3.167  17.300  0.0698 -0.0021  0.1490
  397TMC3     H 5988   4.355   2.806  17.166 -0.6535 -1.7173 -0.2981
  397TMC3    H1 5989   4.264   3.039  17.507  2.0501  0.2656 -1.4997
  397TMC3    H2 5990   4.095   2.655  17.469 -3.0942  2.6201 -0.5030
  397TMC3    C7 5991   4.200   2.808  17.642  0.3672 -0.7430 -0.6343
  397TMC3    C8 5992   4.122   2.676  17.200  0.3086  0.6326  0.2551
  397TMC3    O1 5993   4.151   2.703  17.679  0.5118 -0.2408 -0.0153
  397TMC3    O2 5994   4.136   2.726  17.087 -0.0096 -0.2880  0.0705
  398MPD2     C 5995   2.415   0.257   0.041 -0.3805  0.1397 -0.6398
  398MPD2    C1 5996   2.531   0.171   0.054  0.0897  0.0784 -0.4320
  398MPD2    C2 5997   2.648   0.245   0.080  0.1168  0.3694  0.2391
  398MPD2    C3 5998   2.651   0.385   0.072 -0.1880  0.4578  0.2815
  398MPD2    C4 5999   2.536   0.462   0.058 -0.0984  0.3449  0.5072
  398MPD2    C5 6000   2.419   0.394   0.039 -0.2294 -0.0325  0.1277
  398MPD2     H 6001   2.742   0.194   0.099  0.8160  1.2761 -0.7502
  398MPD2    H1 6002   2.535   0.571   0.055  0.5316  0.2740 -2.3076
  398MPD2    H2 6003   2.316   0.217   0.024 -0.3254 -0.3639  0.2468
  398MPD2    H3 6004   2.326   0.442   0.012 -0.1585  0.2709  0.4204
  398MPD2     N 6005   2.771   0.443   0.104 -0.0250 -0.3471 -0.4488
  398MPD2    H5 6006   2.841   0.374   0.128  0.7531  0.5747 -0.0419
  398MPD2    N1 6007   2.526   0.033   0.070 -0.4381 -0.0598  0.2363
  398MPD2    H7 6008   2.616   4.731   0.097 -0.9087 -0.8297  0.6605
  399TMC3    C1 6009   2.445   4.544   0.036  0.3312  0.6672 -0.1260
  399TMC3    C2 6010   2.573   4.493   0.020  0.4907  0.0305 -0.0783
  399TMC3    C3 6011   2.589   4.364  17.728 -0.4409 -0.9643  0.2368
  399TMC3    C4 6012   2.339   4.464   0.034  0.2434  0.1502  0.3864
  399TMC3    C5 6013   2.361   4.329   0.009 -0.5291  0.5932  0.2972
  399TMC3    C6 6014   2.483   4.281  17.718  0.1821  0.5402  0.1022
  399TMC3     C 6015   2.427   4.690   0.018 -0.1200 -0.6330  0.1854
  399TMC3     O 6016   2.329   4.736  17.705 -0.1997  0.2989  0.2214
  399TMC3     H 6017   2.664   4.551   0.036  1.0618 -1.0292  0.5217
  399TMC3    H1 6018   2.241   4.505   0.056 -0.4467 -1.0242 -0.4705
  399TMC3    H2 6019   2.507   4.175  17.720 -3.3536 -0.2864 -0.3264
  399TMC3    C7 6020   2.271   4.225   0.065 -0.1817 -0.0589  0.4759
  399TMC3    C8 6021   2.714   4.296   0.016 -0.1619  0.0724  0.5810
  399TMC3    O1 6022   2.191   4.262   0.145 -0.2942 -0.3686  0.1883
  399TMC3    O2 6023   2.786   4.349   0.096  0.0710 -0.3530 -0.1336
  400TMC3    C1 6024   1.173   3.192  17.035  0.0279  0.3604  0.1437
  400TMC3    C2 6025   1.067   3.110  16.991  0.1567  0.2874  0.0385
  400TMC3    C3 6026   0.989   3.128  16.877  0.5248  0.4778 -0.4604
  400TMC3    C4 6027   1.202   3.304  16.954  0.0193  0.4570 -0.3484
  400TMC3    C5 6028   1.125   3.324  16.840  0.5035 -0.8290 -0.4129
  400TMC3    C6 6029   1.036   3.229  16.794  0.2112 -0.6199  0.4074
  400TMC3     C 6030   1.210   3.180  17.180 -0.0728  0.3314 -0.3096
  400TMC3     O 6031   1.151   3.093  17.244 -0.0030  0.9459  0.3161
  400TMC3     H 6032   1.012   3.054  17.066 -0.1330 -0.4872 -0.7567
  400TMC3    H1 6033   1.273   3.378  16.988 -0.2544  0.4480  0.2323
  400TMC3    H2 6034   0.977   3.249  16.705  0.5402  0.8419  0.5235
  400TMC3    C7 6035   1.099   3.461  16.788  0.0970 -0.8966  0.2923
  400TMC3    C8 6036   0.849   3.160  16.907 -0.0088  0.3157 -0.0131
  400TMC3    O1 6037   1.189   3.543  16.782  0.3014 -0.4827 -0.0310
  400TMC3    O2 6038   0.820   3.273  16.945  0.3868  0.5310  0.1628
  401MPD2     C 6039   3.660   2.039  17.677 -0.2025  0.1185 -0.2246
  401MPD2    C1 6040   3.697   1.997   0.054  0.0510  0.0722  0.1203
  401MPD2    C2 6041   3.677   1.867   0.082  0.4054 -0.0975  0.6924
  401MPD2    C3 6042   3.633   1.778  17.744  0.5600  0.4281 -0.0059
  401MPD2    C4 6043   3.593   1.818  17.616  0.1466 -0.7256 -0.3296
  401MPD2    C5 6044   3.601   1.953  17.587 -0.0503  0.1084 -0.3938
  401MPD2     H 6045   3.695   1.842   0.186  1.0335 -0.3089  0.5319
  401MPD2    H1 6046   3.567   1.752  17.534 -0.0706 -1.4443  0.3138
  401MPD2    H2 6047   3.667   2.140  17.638 -1.5212 -0.1234 -1.1050
  401MPD2    H3 6048   3.585   2.000  17.490  1.2378 -1.4991 -1.3756
  401MPD2     N 6049   3.628   1.642   0.045  0.0196 -0.1244  0.1366
  401MPD2    H5 6050   3.672   1.631   0.136  0.1598  0.0917  0.0939
  401MPD2    N1 6051   3.745   2.077   0.150  0.0367  0.4657 -0.0038
  401MPD2    H7 6052   3.754   2.036   0.243  0.5729  2.9639  1.0546
  402TMC3    C1 6053   3.582   1.416   0.057  0.8902 -1.0612  0.1303
  402TMC3    C2 6054   3.596   1.425   0.187 -0.1059 -0.3206  0.5739
  402TMC3    C3 6055   3.625   1.308   0.258 -0.3058  0.0194 -0.0050
  402TMC3    C4 6056   3.584   1.303  17.732 -0.4943  0.5938  0.0835
  402TMC3    C5 6057   3.613   1.188   0.055 -0.2014  0.5832  0.5666
  402TMC3    C6 6058   3.634   1.194   0.189 -0.1632  0.1091  0.1257
  402TMC3     C 6059   3.566   1.533  17.733  0.5633 -0.0189 -0.0479
  402TMC3     O 6060   3.505   1.525  17.629  0.0691 -0.0988 -0.2362
  402TMC3     H 6061   3.571   1.514   0.244 -1.9102  0.6816 -1.7846
  402TMC3    H1 6062   3.559   1.304  17.627 -1.0182  0.0296  0.2037
  402TMC3    H2 6063   3.648   1.101   0.243 -0.5226 -0.3219 -0.5218
  402TMC3    C7 6064   3.714   1.099  17.740 -0.1425  0.4531  0.7298
  402TMC3    C8 6065   3.725   1.323   0.357 -0.4129  0.3932 -0.3698
  402TMC3    O1 6066   3.704   1.060  17.623  0.6746  0.2020  0.1858
  402TMC3    O2 6067   3.824   1.263   0.322 -0.2895  0.0332  0.2880
  403MPD2     C 6068   2.239   4.544  13.657  0.4930 -0.6032  0.6500
  403MPD2    C1 6069   2.181   4.664  13.696 -0.5651  0.6790  1.0658
  403MPD2    C2 6070   2.256   0.004  13.780  0.6856  0.5768  0.0889
  403MPD2    C3 6071   2.384   4.710  13.829  0.6446  0.6371  0.3506
  403MPD2    C4 6072   2.446   4.601  13.767  0.4457  1.0383  1.1052
  403MPD2    C5 6073   2.376   4.522  13.685  0.7055  0.6428  0.3688
  403MPD2     H 6074   2.209   0.091  13.826 -0.5148 -0.7418  1.3473
  403MPD2    H1 6075   2.550   4.585  13.793  0.2909  1.0902  1.7434
  403MPD2    H2 6076   2.173   4.478  13.602  2.7254 -1.9432 -0.4469
  403MPD2    H3 6077   2.422   4.435  13.641 -0.4378 -0.1142  0.6768
  403MPD2     N 6078   2.437   0.053  13.928 -0.2885 -0.4839  0.6239
  403MPD2    H5 6079   2.387   0.137  13.956 -0.2595 -0.4543  0.5873
  403MPD2    N1 6080   2.042   4.685  13.665 -0.1974 -0.1289 -0.5375
  403MPD2    H7 6081   2.018   4.610  13.601 -0.2438 -0.9471  0.4380
  404TMC3    C1 6082   1.820   0.008  13.672 -0.2023  0.0730 -0.0804
  404TMC3    C2 6083   1.742   4.687  13.764  0.6905 -0.3850  0.1735
  404TMC3    C3 6084   1.683   4.569  13.733 -0.3981  0.1202 -0.4799
  404TMC3    C4 6085   1.820   4.698  13.544 -0.5805 -0.1443 -0.2385
  404TMC3    C5 6086   1.755   4.585  13.508 -0.0849  0.3221 -0.5369
  404TMC3    C6 6087   1.676   4.522  13.606  0.2504  0.3541  0.2124
  404TMC3     C 6088   1.954   0.033  13.726  0.0722 -0.1120  0.0745
  404TMC3     O 6089   1.962   0.108  13.822  0.3050 -0.0551  0.8142
  404TMC3     H 6090   1.775   4.709  13.865 -0.6635 -1.5718  0.8876
  404TMC3    H1 6091   1.896   0.013  13.487  0.2237  1.2423  2.1024
  404TMC3    H2 6092   1.649   4.419  13.589 -1.1739  0.5275  1.4130
  404TMC3    C7 6093   1.841   4.483  13.454 -0.1069  0.0852 -0.4091
  404TMC3    C8 6094   1.752   4.474  13.816 -0.8662  0.2272 -0.1914
  404TMC3    O1 6095   1.958   4.514  13.446 -0.1010 -0.0785 -0.2488
  404TMC3    O2 6096   1.815   4.389  13.754 -0.3692  0.4241 -0.1411
  405MPD2     C 6097   2.360   0.765  14.742  0.6260 -0.0931 -0.5223
  405MPD2    C1 6098   2.271   0.682  14.680 -0.8960  0.2701  0.0574
  405MPD2    C2 6099   2.150   0.730  14.642 -0.4147 -0.3166 -0.0366
  405MPD2    C3 6100   2.120   0.859  14.659  0.3911 -0.3239  0.0336
  405MPD2    C4 6101   2.205   0.948  14.713 -0.5731 -0.4930 -0.3971
  405MPD2    C5 6102   2.335   0.900  14.755 -0.0689 -0.6516  0.3766
  405MPD2     H 6103   2.067   0.668  14.611  0.1176 -1.1637  0.2476
  405MPD2    H1 6104   2.182   1.054  14.711  2.8012  0.1972 -2.7010
  405MPD2    H2 6105   2.455   0.724  14.776 -0.3013  1.4428  3.8402
  405MPD2    H3 6106   2.410   0.970  14.789  0.2595 -1.4172  1.2518
  405MPD2     N 6107   1.993   0.904  14.621 -0.4767  0.1937  0.1571
  405MPD2    H5 6108   1.943   0.846  14.555  1.7476 -1.4935 -0.0488
  405MPD2    N1 6109   2.312   0.545  14.675  0.0214  0.4633 -0.0493
  405MPD2    H7 6110   2.399   0.515  14.717 -0.6719  0.2691  1.2852
  406TMC3    C1 6111   1.587   1.048  14.552  0.1577  0.0860  0.1989
  406TMC3    C2 6112   1.534   0.918  14.560  0.0773  0.4448 -0.6279
  406TMC3    C3 6113   1.615   0.821  14.606 -0.9961  0.5165  0.1363
  406TMC3    C4 6114   1.703   1.088  14.607  0.3905  0.7021  0.4403
  406TMC3    C5 6115   1.784   0.984  14.653 -0.6955 -0.0178 -0.4036
  406TMC3    C6 6116   1.743   0.851  14.653 -0.1616  0.1309 -0.3818
  406TMC3     C 6117   1.513   1.141  14.473  0.2122 -0.3899 -0.2741
  406TMC3     O 6118   1.514   1.259  14.502 -0.0811 -0.0003 -0.1250
  406TMC3     H 6119   1.435   0.896  14.523 -0.7874  2.0862  0.7701
  406TMC3    H1 6120   1.738   1.191  14.597 -1.2176  1.3057  1.0989
  406TMC3    H2 6121   1.810   0.778  14.697  0.3659  1.0392  0.2898
  406TMC3    C7 6122   1.926   1.019  14.650 -0.5357  0.5457  0.3875
  406TMC3    C8 6123   1.578   0.681  14.595  0.4007  0.2305 -0.4707
  406TMC3    O1 6124   1.968   1.127  14.689  0.2087  0.4634  0.0657
  406TMC3    O2 6125   1.458   0.657  14.574  0.0867 -0.1475  0.5453
  407MPD2     C 6126   4.454   2.335   9.683  0.0203 -0.4946  0.3492
  407MPD2    C1 6127   4.545   2.300   9.778  0.4495  0.1761 -0.3158
  407MPD2    C2 6128   4.529   2.356   9.903 -0.5615 -0.4518  0.0675
  407MPD2    C3 6129   4.435   2.451   9.928  0.0532  0.5166 -0.2376
  407MPD2    C4 6130   4.343   2.482   9.828  0.0472 -0.2651 -0.2472
  407MPD2    C5 6131   4.350   2.423   9.705 -0.3034  0.2174 -0.6718
  407MPD2     H 6132   4.597   2.340   9.986  1.2421  2.7168 -0.7844
  407MPD2    H1 6133   4.265   2.557   9.841  1.4056  0.6571  2.5892
  407MPD2    H2 6134   4.466   2.291   9.584 -1.0332  2.1563 -0.9654
  407MPD2    H3 6135   4.278   2.454   9.631 -2.0903  1.6140  1.6527
  407MPD2     N 6136   4.430   2.521  10.053 -0.0416  0.3869  0.2580
  407MPD2    H5 6137   4.362   2.596  10.063 -2.5540 -1.5038 -2.7226
  407MPD2    N1 6138   4.670   2.235   9.750 -0.0480 -0.4206 -0.3626
  407MPD2    H7 6139   4.732   2.242   9.829  0.2366  2.6080 -0.8669
  408TMC3    C1 6140   0.121   2.144   9.634  0.0963 -0.5274  0.4165
  408TMC3    C2 6141   0.165   2.027   9.577  0.4716 -0.3007  0.1281
  408TMC3    C3 6142   0.293   1.995   9.610 -0.2668 -0.4944 -0.5415
  408TMC3    C4 6143   0.198   2.240   9.695 -0.5797  0.5688  0.8072
  408TMC3    C5 6144   0.332   2.218   9.691 -0.7051 -0.4220 -0.0156
  408TMC3    C6 6145   0.369   2.093   9.661  0.2555  0.0487 -0.7238
  408TMC3     C 6146   4.707   2.157   9.646  0.3513 -0.3046 -0.4317
  408TMC3     O 6147   4.633   2.104   9.563 -0.0205 -0.4102 -0.0226
  408TMC3     H 6148   0.099   1.941   9.571 -1.2045  0.8490  2.2957
  408TMC3    H1 6149   0.152   2.334   9.723 -1.9142 -0.5501  2.4254
  408TMC3    H2 6150   0.476   2.083   9.670  0.2180 -0.7098 -1.1434
  408TMC3    C7 6151   0.439   2.307   9.745  1.1235  0.8601  1.1109
  408TMC3    C8 6152   0.331   1.864   9.637  0.2422  0.1470  0.5383
  408TMC3    O1 6153   0.559   2.271   9.729 -0.2492 -0.0809  0.0638
  408TMC3    O2 6154   0.242   1.776   9.631  0.0301  0.3929 -0.3660
  409MPD2     C 6155   0.169   1.926  17.195 -0.0073  0.4642  0.4286
  409MPD2    C1 6156   0.239   2.011  17.285 -0.3448 -0.8983  0.2076
  409MPD2    C2 6157   0.230   2.145  17.268  0.6477 -0.7271 -0.1612
  409MPD2    C3 6158   0.160   2.197  17.159 -0.7113  0.6776  0.2730
  409MPD2    C4 6159   0.083   2.116  17.078 -0.0365 -0.2354 -0.1733
  409MPD2    C5 6160   0.091   1.982  17.100 -0.3830  0.7251 -0.2024
  409MPD2     H 6161   0.273   2.221  17.333 -1.1955  0.6903 -0.5833
  409MPD2    H1 6162   0.020   2.157  17.000 -0.7775  0.7762  0.9566
  409MPD2    H2 6163   0.161   1.818  17.194 -1.8850  0.5949  1.7794
  409MPD2    H3 6164   0.023   1.917  17.046 -1.4414  2.7892 -1.3454
  409MPD2     N 6165   0.157   2.336  17.127  0.1798 -0.5879 -0.9752
  409MPD2    H5 6166   0.090   2.366  17.056 -0.1662 -0.9441 -0.7946
  409MPD2    N1 6167   0.316   1.960  17.392 -0.6939  0.3580  0.3862
  409MPD2    H7 6168   0.348   2.034  17.455 -1.6318  0.5325  0.6545
  410TMC3    C1 6169   0.198   2.576  17.146 -0.0166 -0.0883  0.0138
  410TMC3    C2 6170   0.293   2.672  17.166  0.0767 -0.2391 -0.5172
  410TMC3    C3 6171   0.268   2.798  17.130  0.0351 -0.0755 -0.0605
  410TMC3    C4 6172   0.076   2.605  17.087 -0.2993  0.7345  0.5081
  410TMC3    C5 6173   0.054   2.739  17.061 -0.4721  0.1252  0.4643
  410TMC3    C6 6174   0.141   2.836  17.083  0.6728 -0.3382  0.6818
  410TMC3     C 6175   0.242   2.437  17.178 -0.4069 -0.0056  0.0161
  410TMC3     O 6176   0.355   2.426  17.224 -0.3221 -0.4513  0.5003
  410TMC3     H 6177   0.376   2.648  17.231 -0.4687  2.7699  1.2927
  410TMC3    H1 6178   4.737   2.528  17.087  0.2213  0.2143  0.2971
  410TMC3    H2 6179   0.136   2.940  17.052  0.4236 -1.2185 -2.2373
  410TMC3    C7 6180   4.658   2.772  17.016  0.3349  0.2316 -0.1713
  410TMC3    C8 6181   0.361   2.903  17.161 -0.0897  0.0102  0.3103
  410TMC3    O1 6182   4.569   2.700  17.061  0.3803 -0.2936  0.3707
  410TMC3    O2 6183   0.321   3.019  17.182 -0.6135  0.0879  0.1851
  411MPD2     C 6184   0.288   3.839  14.649 -0.3928 -0.4719  0.5485
  411MPD2    C1 6185   0.174   3.789  14.711 -0.2979  0.2614 -0.2957
  411MPD2    C2 6186   0.139   3.659  14.679  0.1200 -0.0590  0.4221
  411MPD2    C3 6187   0.208   3.582  14.592  0.1756  0.2095 -0.9514
  411MPD2    C4 6188   0.326   3.636  14.542 -0.4659  0.0914  0.3407
  411MPD2    C5 6189   0.368   3.762  14.571 -0.2225  0.5631  0.3566
  411MPD2     H 6190   0.059   3.617  14.738  0.5213 -0.4445  0.6839
  411MPD2    H1 6191   0.391   3.589  14.468 -0.0509  0.1794  0.6471
  411MPD2    H2 6192   0.321   3.941  14.667 -0.0906 -0.6942  1.2526
  411MPD2    H3 6193   0.455   3.809  14.526  0.0324 -0.4833 -0.2539
  411MPD2     N 6194   0.173   3.455  14.549  0.1141  0.4154  0.2573
  411MPD2    H5 6195   0.251   3.407  14.504 -1.4216 -0.5050 -1.4379
  411MPD2    N1 6196   0.090   3.871  14.779  0.3138  0.3561 -0.3517
  411MPD2    H7 6197   0.116   3.969  14.771  0.0445  0.4585  0.0871
  412TMC3    C1 6198   0.019   3.268  14.488 -0.3708 -0.2116 -0.6373
  412TMC3    C2 6199   4.635   3.221  14.530 -0.1539  0.2006  0.3913
  412TMC3    C3 6200   4.547   3.182  14.438 -0.4910  0.5787  0.5285
  412TMC3    C4 6201   0.051   3.276  14.360 -0.2395  0.0304  0.6005
  412TMC3    C5 6202   4.699   3.242  14.262  1.1655  0.1285  0.0351
  412TMC3    C6 6203   4.582   3.188  14.300 -0.3647  0.4658  0.0004
  412TMC3     C 6204   0.052   3.394  14.567 -0.7775  0.1975  0.1020
  412TMC3     O 6205   4.682   3.430  14.612 -0.0787  0.0750 -0.6697
  412TMC3     H 6206   4.614   3.214  14.636  0.2924 -0.0847  0.4649
  412TMC3    H1 6207   0.145   3.322  14.328 -0.5450  0.3545  0.1608
  412TMC3    H2 6208   4.511   3.154  14.226 -0.2858 -2.3069  1.2278
  412TMC3    C7 6209   4.674   3.351  14.174 -0.9062 -0.0713 -0.1320
  412TMC3    C8 6210   4.417   3.240  14.455 -0.0398  0.7136 -0.3067
  412TMC3    O1 6211   0.034   3.409  14.136 -0.6850 -0.1359  0.3335
  412TMC3    O2 6212   4.330   3.198  14.385 -0.0166  0.8337  0.1566
  413MPD2     C 6213   1.495   2.104  15.559 -0.2092  0.1576  0.1258
  413MPD2    C1 6214   1.469   2.049  15.440  0.2282 -0.3146  0.3464
  413MPD2    C2 6215   1.571   1.953  15.397  0.7957 -0.4124  0.2821
  413MPD2    C3 6216   1.685   1.921  15.473 -0.0633  0.0077  0.4277
  413MPD2    C4 6217   1.693   1.974  15.600 -0.6584  0.0563 -0.2164
  413MPD2    C5 6218   1.600   2.068  15.635  0.1762  0.1320 -0.6612
  413MPD2     H 6219   1.570   1.902  15.301 -0.2159 -1.4922  0.8612
  413MPD2    H1 6220   1.772   1.952  15.671 -1.5238 -2.1585  0.0560
  413MPD2    H2 6221   1.419   2.161  15.610 -1.2868 -3.0474  2.0996
  413MPD2    H3 6222   1.601   2.108  15.736 -0.9288  0.5233 -0.8020
  413MPD2     N 6223   1.778   1.833  15.414 -0.5423  0.4389 -0.2592
  413MPD2    H5 6224   1.761   1.804  15.318  1.5644 -0.9946 -0.2000
  413MPD2    N1 6225   1.342   2.074  15.395  0.9676  0.1041 -0.6443
  413MPD2    H7 6226   1.291   2.142  15.450  2.7041  0.4784  0.4862
  414TMC3    C1 6227   1.922   1.653  15.420  0.4504 -0.0991  0.4967
  414TMC3    C2 6228   1.920   1.521  15.465 -0.7649  0.0166 -0.5978
  414TMC3    C3 6229   1.933   1.417  15.382 -0.3437 -0.2589  0.2589
  414TMC3    C4 6230   1.937   1.668  15.281  0.0670  0.0319 -0.3225
  414TMC3    C5 6231   1.970   1.561  15.204 -0.4878  0.5962  0.0789
  414TMC3    C6 6232   1.966   1.437  15.252 -0.7361  0.6625  0.2859
  414TMC3     C 6233   1.859   1.756  15.491  0.7001 -0.1840  0.1370
  414TMC3     O 6234   1.874   1.755  15.615  0.2904 -0.0162  0.4192
  414TMC3     H 6235   1.895   1.505  15.570 -0.1656 -2.0654 -0.7885
  414TMC3    H1 6236   1.943   1.768  15.239  2.4156  0.0261 -0.0068
  414TMC3    H2 6237   2.000   1.354  15.191  1.7801  1.8445  0.0616
  414TMC3    C7 6238   2.081   1.595  15.116 -0.6798  0.0755 -0.0257
  414TMC3    C8 6239   2.005   1.306  15.440  0.7194  0.7958 -0.2850
  414TMC3    O1 6240   2.162   1.678  15.162 -0.4864  0.0237 -0.2709
  414TMC3    O2 6241   2.001   1.197  15.379  0.5967  0.2873  0.9918
  415TMC3    C1 6242   1.399   4.489  10.055  0.1058 -0.1224  0.0719
  415TMC3    C2 6243   1.489   4.545   9.965 -1.1323  0.0325 -0.8323
  415TMC3    C3 6244   1.501   4.492   9.840 -0.3548 -0.2651 -0.3040
  415TMC3    C4 6245   1.318   4.381  10.030  0.2324 -0.3458 -0.1756
  415TMC3    C5 6246   1.332   4.330   9.901  0.1477  0.6791 -0.4558
  415TMC3    C6 6247   1.420   4.386   9.807  0.1813 -0.1929 -0.0800
  415TMC3     C 6248   1.406   4.542  10.189 -0.0921  0.9103 -0.1838
  415TMC3     O 6249   1.300   4.538  10.251  1.0243  0.3129 -0.0534
  415TMC3     H 6250   1.554   4.628   9.991  0.0550 -1.0212 -0.4393
  415TMC3    H1 6251   1.263   4.338  10.113  0.1477  1.2033  0.5618
  415TMC3    H2 6252   1.433   4.341   9.710  1.1353  0.3147 -0.1857
  415TMC3    C7 6253   1.269   4.200   9.879 -0.1993 -0.7871  1.2826
  415TMC3    C8 6254   1.598   4.544   9.745 -0.4628  0.1364 -0.8472
  415TMC3    O1 6255   1.316   4.126   9.791 -0.8148 -0.1021 -0.1886
  415TMC3    O2 6256   1.625   4.464   9.656  0.1621  0.2309 -0.0773
  416MPD2     C 6257   3.625   3.934  11.378  0.8293  0.5712  0.2515
  416MPD2    C1 6258   3.558   3.851  11.463 -0.1895 -0.0311  0.3471
  416MPD2    C2 6259   3.531   3.725  11.427 -0.4079 -0.2394  0.1377
  416MPD2    C3 6260   3.586   3.672  11.310  0.1216 -0.0833 -0.3147
  416MPD2    C4 6261   3.663   3.752  11.227 -0.4385  0.1132 -0.0446
  416MPD2    C5 6262   3.683   3.887  11.263 -0.2218  0.0930  0.8054
  416MPD2     H 6263   3.475   3.647  11.477  0.5897 -1.2356 -0.2979
  416MPD2    H1 6264   3.686   3.722  11.125  0.1934  0.7297 -0.0807
  416MPD2    H2 6265   3.638   4.037  11.407 -0.8372  1.3671 -1.8439
  416MPD2    H3 6266   3.735   3.952  11.195  0.1751 -0.1759  0.8535
  416MPD2     N 6267   3.540   3.543  11.273 -0.5817  0.2665 -0.9668
  416MPD2    H5 6268   3.474   3.503  11.339  1.9838 -1.9159  0.2605
  416MPD2    N1 6269   3.499   3.905  11.581  0.1107 -0.1898 -1.0147
  416MPD2    H7 6270   3.507   4.006  11.588 -1.5614 -0.2736  1.9353
  417TMC3    C1 6271   3.373   3.929  11.772  0.7816  0.3963  0.0856
  417TMC3    C2 6272   3.363   3.877  11.902  0.6398 -0.4391 -0.0217
  417TMC3    C3 6273   3.246   3.905  11.972 -0.0042  0.5589  0.0190
  417TMC3    C4 6274   3.270   4.000  11.718  0.0580  0.2089  0.4438
  417TMC3    C5 6275   3.157   4.020  11.790  0.6933 -0.2333 -0.2949
  417TMC3    C6 6276   3.142   3.977  11.915 -0.0902  0.5929 -0.0483
  417TMC3     C 6277   3.440   3.837  11.684 -0.0981 -0.0199  0.4106
  417TMC3     O 6278   3.439   3.716  11.702  0.0894  0.3911  0.4004
  417TMC3     H 6279   3.439   3.808  11.938 -0.6146 -1.6745  0.2408
  417TMC3    H1 6280   3.273   4.034  11.615 -2.3225 -0.5902  0.1015
  417TMC3    H2 6281   3.055   4.006  11.973  0.3406  2.0989 -0.1490
  417TMC3    C7 6282   3.035   4.038  11.706 -0.3572  1.2646 -0.9374
  417TMC3    C8 6283   3.229   3.875  12.108 -0.1356  0.4631  0.0718
  417TMC3    O1 6284   3.052   4.095  11.600  0.7490  0.4229  0.8053
  417TMC3    O2 6285   3.171   3.959  12.184 -0.1789  0.0653  0.4807
  418TMC3    C1 6286   3.151   0.574   0.055 -0.5664  0.7083  0.0964
  418TMC3    C2 6287   3.017   0.602   0.035 -0.0889  0.5051  0.6024
  418TMC3    C3 6288   2.932   0.605   0.135  0.2322 -0.8454  0.1897
  418TMC3    C4 6289   3.192   0.534   0.182 -0.1557 -0.9373 -0.7971
  418TMC3    C5 6290   3.095   0.533   0.285 -0.3661  0.2047 -0.0157
  418TMC3    C6 6291   2.967   0.565   0.258  0.2418  0.8873  0.3078
  418TMC3     C 6292   3.221   0.524  17.683 -0.3060  0.1412 -0.0089
  418TMC3     O 6293   3.208   0.592  17.581  0.7737 -0.3096  0.1854
  418TMC3     H 6294   2.976   0.610  17.684 -1.4473  1.2098  1.2179
  418TMC3    H1 6295   3.294   0.501   0.200  0.7152  2.1290 -0.2276
  418TMC3    H2 6296   2.894   0.567   0.338  0.5537  1.4336  0.5736
  418TMC3    C7 6297   3.123   0.454   0.404 -0.4434  0.1937 -0.0208
  418TMC3    C8 6298   2.793   0.577   0.094  0.6048  0.3995 -0.0203
  418TMC3    O1 6299   3.216   0.375   0.398  0.1409  0.1145 -0.3747
  418TMC3    O2 6300   2.728   0.672   0.052 -0.3688  0.4671  0.1492
  419MPD2     C 6301   0.946   3.278  12.421 -0.1638 -0.1790  0.3706
  419MPD2    C1 6302   0.883   3.404  12.424 -0.1996 -1.0923  0.2009
  419MPD2    C2 6303   0.840   3.461  12.543 -0.2070 -0.4361 -1.0751
  419MPD2    C3 6304   0.872   3.397  12.665  0.2983 -0.2752 -0.3436
  419MPD2    C4 6305   0.945   3.279  12.664 -0.1376  0.8000 -0.1835
  419MPD2    C5 6306   0.978   3.219  12.546 -0.2094  0.1842  0.5125
  419MPD2     H 6307   0.791   3.557  12.546  0.0921 -0.2309 -2.5100
  419MPD2    H1 6308   0.972   3.226  12.755 -0.8495  0.7014 -0.0235
  419MPD2    H2 6309   0.972   3.230  12.328 -1.3741  0.8612 -0.5037
  419MPD2    H3 6310   1.031   3.125  12.556 -1.8707 -1.0220 -2.1347
  419MPD2     N 6311   0.831   3.459  12.784 -0.6663  0.6335 -0.1845
  419MPD2    H5 6312   0.784   3.548  12.768 -2.0660 -0.5722 -2.6650
  419MPD2    N1 6313   0.852   3.484  12.312  0.3551  0.2679  0.1082
  419MPD2    H7 6314   0.808   3.574  12.330 -2.9698 -1.0280 -1.5671
  420TMC3    C1 6315   0.773   3.498  13.002 -0.4667  0.3269 -0.3352
  420TMC3    C2 6316   0.649   3.531  12.958  0.0249  0.0016  0.1184
  420TMC3    C3 6317   0.579   3.603  13.054  0.4909  0.9110  0.1555
  420TMC3    C4 6318   0.820   3.525  13.125 -0.4314 -0.3929  0.3706
  420TMC3    C5 6319   0.745   3.596  13.212 -1.1684 -1.1101  0.4260
  420TMC3    C6 6320   0.627   3.646  13.175  0.0694 -0.4766  0.6087
  420TMC3     C 6321   0.844   3.415  12.913 -0.1790 -0.4666 -0.0598
  420TMC3     O 6322   0.921   3.334  12.962  0.6175  0.0212 -0.2631
  420TMC3     H 6323   0.604   3.507  12.863  1.4880  1.4955 -0.9618
  420TMC3    H1 6324   0.908   3.472  13.159 -0.1663 -0.2405 -0.0834
  420TMC3    H2 6325   0.566   3.708  13.240 -0.5217 -2.2621  1.7565
  420TMC3    C7 6326   0.784   3.600  13.349  0.0764  0.2382  0.8120
  420TMC3    C8 6327   0.469   3.672  12.987 -0.0194  0.2517 -0.2853
  420TMC3    O1 6328   0.839   3.502  13.398 -0.2474  0.1648 -0.0386
  420TMC3    O2 6329   0.466   3.793  13.009 -0.0969 -0.8017  0.2903
  421TMC3    C1 6330   2.588   0.124  14.097 -0.1376 -0.2780 -0.2073
  421TMC3    C2 6331   2.522   0.249  14.106  0.8084  0.3778 -0.7731
  421TMC3    C3 6332   2.576   0.350  14.182  0.5502 -1.2222 -0.1837
  421TMC3    C4 6333   2.703   0.101  14.169  0.2461 -0.7211 -0.8625
  421TMC3    C5 6334   2.755   0.211  14.235  0.3915 -0.3321  0.0742
  421TMC3    C6 6335   2.694   0.332  14.248  0.5156  0.0408 -0.3841
  421TMC3     C 6336   2.547   0.022  13.999  0.3264 -0.1393  0.9149
  421TMC3     O 6337   2.608   4.654  14.004 -0.8888  0.3127  0.4855
  421TMC3     H 6338   2.431   0.269  14.050 -0.4876  0.9948  1.5394
  421TMC3    H1 6339   2.737   4.736  14.161  0.9606 -0.3749 -2.2880
  421TMC3    H2 6340   2.741   0.411  14.306  0.2945 -0.9963  1.1873
  421TMC3    C7 6341   2.877   0.199  14.305  0.0725 -1.1410  0.5270
  421TMC3    C8 6342   2.491   0.454  14.239  0.7501  0.0936  0.3410
  421TMC3    O1 6343   2.925   0.303  14.350 -0.3927 -0.0460 -0.1747
  421TMC3    O2 6344   2.544   0.526  14.326 -0.2721 -0.2059  0.3453
  422TMC3    C1 6345   4.378   1.839  12.410  0.3544 -0.0631  0.3527
  422TMC3    C2 6346   4.371   1.964  12.452 -0.1819  0.1790  0.2744
  422TMC3    C3 6347   4.251   2.024  12.478 -0.1039  0.1711  0.2572
  422TMC3    C4 6348   4.266   1.756  12.425  0.0714  0.4472  0.5894
  422TMC3    C5 6349   4.157   1.819  12.465  0.6184  0.6047  0.6951
  422TMC3    C6 6350   4.135   1.952  12.491  0.2196 -0.1537  0.5408
  422TMC3     C 6351   4.510   1.792  12.373  0.4990 -1.0840 -0.5008
  422TMC3     O 6352   4.589   1.878  12.331 -0.6648 -0.4035  0.1252
  422TMC3     H 6353   4.462   2.022  12.464 -0.6051  0.7351  0.8176
  422TMC3    H1 6354   4.244   1.656  12.390 -1.9703  0.4396  1.8924
  422TMC3    H2 6355   4.043   1.990  12.534  0.8837  0.9324  1.0193
  422TMC3    C7 6356   4.031   1.748  12.427  0.9725  0.1479  0.4423
  422TMC3    C8 6357   4.252   2.157  12.528  1.1013 -0.3954  0.1216
  422TMC3    O1 6358   3.978   1.769  12.321  0.1201 -0.1388  0.0835
  422TMC3    O2 6359   4.348   2.201  12.589  0.4479 -0.4294 -0.2402
  423MPD2     C 6360   2.026   2.521   0.603 -0.0032 -0.0139  0.2239
  423MPD2    C1 6361   2.010   2.396   0.661 -0.0086 -0.0777 -0.9520
  423MPD2    C2 6362   1.965   2.289   0.578 -0.1112 -0.7520 -0.3899
  423MPD2    C3 6363   1.945   2.309   0.446  0.4581 -0.3635  0.0429
  423MPD2    C4 6364   1.981   2.430   0.388 -0.1006  0.6472  0.3151
  423MPD2    C5 6365   2.014   2.533   0.470 -0.7820 -0.4075 -0.1997
  423MPD2     H 6366   1.937   2.196   0.627  2.4241 -0.9649  0.6180
  423MPD2    H1 6367   1.972   2.448   0.281 -3.2159 -1.6763  0.1960
  423MPD2    H2 6368   2.060   2.611   0.653 -1.9361  0.6864  0.2681
  423MPD2    H3 6369   2.039   2.627   0.424  1.3679 -1.3341 -0.9068
  423MPD2     N 6370   1.881   2.213   0.357 -0.1920 -0.2483 -0.1385
  423MPD2    H5 6371   1.869   2.249   0.263  0.0326 -0.0756 -0.1019
  423MPD2    N1 6372   2.027   2.371   0.799 -0.1507  0.0580  0.0132
  423MPD2    H7 6373   2.020   2.273   0.823  0.7549  0.0327  0.1736
  424TMC3    C1 6374   2.040   2.427   1.034  0.2408  0.0884  0.3623
  424TMC3    C2 6375   2.093   2.307   1.078  0.1804  0.4132 -0.4158
  424TMC3    C3 6376   2.089   2.276   1.211 -0.3398 -0.4802  0.2240
  424TMC3    C4 6377   1.976   2.513   1.117  0.7672 -0.1414 -0.5801
  424TMC3    C5 6378   1.964   2.474   1.252  0.0545  0.3651  0.8484
  424TMC3    C6 6379   2.018   2.353   1.300 -0.3740  0.5740  0.0803
  424TMC3     C 6380   2.047   2.476   0.893 -0.3904  0.0559 -0.1491
  424TMC3     O 6381   2.049   2.597   0.873  0.5952  0.3471 -0.1879
  424TMC3     H 6382   2.141   2.241   1.006  1.8491  1.5440 -0.3359
  424TMC3    H1 6383   1.933   2.604   1.077 -0.4827 -1.3072 -1.8813
  424TMC3    H2 6384   2.012   2.330   1.406 -0.7663 -0.4273 -0.1640
  424TMC3    C7 6385   1.901   2.555   1.348  0.6555  0.0310  0.7129
  424TMC3    C8 6386   2.123   2.144   1.257 -0.6379  0.6684  0.2544
  424TMC3    O1 6387   1.881   2.509   1.464  0.3777  0.5339 -0.4834
  424TMC3    O2 6388   2.213   2.086   1.199  0.1181  0.1100  0.0784
  425MPD2     C 6389   0.727   1.513  17.621 -1.1044 -0.4981 -0.4558
  425MPD2    C1 6390   0.678   1.468  17.498 -0.4247 -0.8615 -0.0148
  425MPD2    C2 6391   0.545   1.431  17.496  0.7083  0.3712 -0.2597
  425MPD2    C3 6392   0.453   1.445  17.598 -0.1633  0.2943  0.2178
  425MPD2    C4 6393   0.506   1.490  17.721 -0.0597 -0.3223 -0.1383
  425MPD2    C5 6394   0.640   1.516  17.728  0.3647  0.6829 -0.2019
  425MPD2     H 6395   0.505   1.394  17.402 -1.5121 -0.4848  1.0168
  425MPD2    H1 6396   0.454   1.500   0.068 -0.5147  0.9237 -0.5172
  425MPD2    H2 6397   0.830   1.543  17.637 -0.6652 -1.2007 -1.9632
  425MPD2    H3 6398   0.676   1.568   0.067  0.8560  0.0443 -0.0310
  425MPD2     N 6399   0.319   1.441  17.570  0.1118 -0.0204 -0.3430
  425MPD2    H5 6400   0.281   1.412  17.480  1.1385  1.7666 -1.3573
  425MPD2    N1 6401   0.768   1.462  17.387 -0.4810  0.3391 -0.3320
  425MPD2    H7 6402   0.868   1.467  17.404 -0.7783 -0.6388  1.6602
  426TMC3    C1 6403   0.834   1.414  17.166 -0.2852 -1.1105  0.0585
  426TMC3    C2 6404   0.781   1.393  17.041  0.0042 -0.4376  0.6013
  426TMC3    C3 6405   0.820   1.292  16.960 -0.6882 -0.7840  0.0316
  426TMC3    C4 6406   0.928   1.327  17.208 -0.3629 -0.0073  0.5716
  426TMC3    C5 6407   0.965   1.221  17.126 -0.6380  0.2038 -1.3976
  426TMC3    C6 6408   0.917   1.207  17.002  0.0317  0.8526  0.3351
  426TMC3     C 6409   0.729   1.450  17.254  0.2303 -0.0717  1.1066
  426TMC3     O 6410   0.616   1.440  17.208  0.2440  0.4420 -0.2564
  426TMC3     H 6411   0.702   1.454  17.000  1.5097  1.8165  1.0703
  426TMC3    H1 6412   0.973   1.340  17.306  2.1312 -0.6097 -0.5021
  426TMC3    H2 6413   0.945   1.120  16.944 -1.8362 -1.0575  2.3030
  426TMC3    C7 6414   0.998   1.097  17.186  0.2671 -0.0466  1.0033
  426TMC3    C8 6415   0.719   1.230  16.870  0.1401 -0.3589  0.9445
  426TMC3    O1 6416   1.099   1.036  17.171 -0.4777 -0.1444  0.9549
  426TMC3    O2 6417   0.757   1.148  16.786  0.1146  0.1433  0.4537
  427MPD2     C 6418   3.863   3.625  14.899 -0.2565  0.4575  0.5572
  427MPD2    C1 6419   3.803   3.514  14.955 -0.3753  0.7099  0.4931
  427MPD2    C2 6420   3.666   3.519  14.977 -0.2453  0.0693  0.1359
  427MPD2    C3 6421   3.587   3.631  14.941  1.0605  0.2371 -0.2266
  427MPD2    C4 6422   3.649   3.731  14.875 -0.8389 -0.1471 -0.6871
  427MPD2    C5 6423   3.783   3.728  14.860 -0.0242  0.0702 -0.5991
  427MPD2     H 6424   3.620   3.452  15.049  2.3302 -0.9828  0.7916
  427MPD2    H1 6425   3.597   3.821  14.843 -0.0514  0.6807  0.3785
  427MPD2    H2 6426   3.970   3.636  14.888 -0.5435 -0.0693 -3.0212
  427MPD2    H3 6427   3.828   3.812  14.807  0.6834  0.6014  0.8468
  427MPD2     N 6428   3.442   3.642  14.955 -0.3556  0.3294  0.2245
  427MPD2    H5 6429   3.395   3.721  14.912 -0.7561  1.4009  2.6927
  427MPD2    N1 6430   3.886   3.409  15.003 -0.4423  0.6986  0.9770
  427MPD2    H7 6431   3.987   3.415  14.997 -0.5861 -0.1642 -2.2814
  428TMC3    C1 6432   3.946   3.217  15.119 -0.2362  0.2151  0.3300
  428TMC3    C2 6433   3.908   3.087  15.144  0.5430 -0.9731  0.1411
  428TMC3    C3 6434   3.998   3.008  15.211  0.0745  0.1687  0.2690
  428TMC3    C4 6435   4.060   3.271  15.163 -0.4068 -0.1129  0.5971
  428TMC3    C5 6436   4.154   3.176  15.205  0.4379 -0.5292 -0.8459
  428TMC3    C6 6437   4.125   3.050  15.244 -0.2416 -0.7037 -0.5075
  428TMC3     C 6438   3.842   3.297  15.062 -0.4652  0.2823 -0.0980
  428TMC3     O 6439   3.726   3.250  15.071 -0.0348 -0.0825  0.9965
  428TMC3     H 6440   3.808   3.052  15.123  0.7016 -1.1319 -0.3521
  428TMC3    H1 6441   4.078   3.378  15.165 -0.0576 -0.0763 -3.5943
  428TMC3    H2 6442   4.200   2.983  15.283  1.1958  1.0704 -0.2670
  428TMC3    C7 6443   4.268   3.235  15.271 -0.0568 -0.3741 -0.2133
  428TMC3    C8 6444   3.957   2.886  15.275 -0.3525  0.1770  0.1016
  428TMC3    O1 6445   4.306   3.175  15.372 -0.2934 -0.0881 -0.7026
  428TMC3    O2 6446   3.895   2.810  15.204 -0.3584  0.4099 -0.0505
  429MPD2     C 6447   4.661   3.071  17.233 -0.0747  0.0301  0.7488
  429MPD2    C1 6448   0.033   3.132  17.291  0.0519  0.7671 -0.3609
  429MPD2    C2 6449   0.072   3.259  17.258  0.5849 -0.0470 -0.6635
  429MPD2    C3 6450   0.009   3.324  17.157  0.4288 -0.3052  0.0689
  429MPD2    C4 6451   4.648   3.260  17.089 -0.4041 -0.1029 -0.4023
  429MPD2    C5 6452   4.596   3.140  17.131  0.3105 -0.4094 -0.1104
  429MPD2     H 6453   0.158   3.303  17.306 -0.4722 -1.2118  2.2838
  429MPD2    H1 6454   4.607   3.291  16.994  0.7000  0.7974 -0.5800
  429MPD2    H2 6455   4.627   2.971  17.254 -0.0729 -0.0153  0.5331
  429MPD2    H3 6456   4.506   3.100  17.086  1.0012 -0.0592 -1.7897
  429MPD2     N 6457   0.070   3.445  17.110 -0.5263  0.1277 -0.3215
  429MPD2    H5 6458   0.155   3.478  17.153  1.2239 -0.6236 -3.2350
  429MPD2    N1 6459   0.117   3.070  17.383 -0.2766  0.2340  0.1008
  429MPD2    H7 6460   0.211   3.108  17.394 -0.4336  0.6809 -0.0971
  430TMC3    C1 6461   0.118   3.629  16.980 -0.4884 -1.1557 -0.7925
  430TMC3    C2 6462   0.068   3.738  16.917  0.4052 -0.3226 -0.4020
  430TMC3    C3 6463   0.157   3.835  16.873 -0.4862  0.2413  0.7065
  430TMC3    C4 6464   0.252   3.591  16.978  0.2463 -0.6174  0.2125
  430TMC3    C5 6465   0.336   3.681  16.915  0.0381  0.0405 -0.0061
  430TMC3    C6 6466   0.289   3.801  16.860 -0.2222 -0.2012 -0.5414
  430TMC3     C 6467   0.015   3.529  17.018 -0.3211 -0.2328  0.3174
  430TMC3     O 6468   4.636   3.529  16.974  0.0970  0.3302  0.4468
  430TMC3     H 6469   4.701   3.759  16.937  0.3506  1.2129 -2.2444
  430TMC3    H1 6470   0.294   3.496  17.009  0.6271 -0.9267 -1.2300
  430TMC3    H2 6471   0.359   3.868  16.812 -1.2271  1.3121  0.0988
  430TMC3    C7 6472   0.466   3.629  16.870  0.5796  0.2256 -0.0674
  430TMC3    C8 6473   0.105   3.910  16.762  0.2235 -0.2229 -0.0178
  430TMC3    O1 6474   0.512   3.536  16.931 -0.7318  0.4041 -0.7941
  430TMC3    O2 6475   4.723   3.891  16.744  0.0183 -0.4241 -0.3905
  431MPD2     C 6476   0.897   4.052  12.728 -0.1287  0.2619 -0.4641
  431MPD2    C1 6477   1.006   4.025  12.649  0.0803 -0.2375  0.3712
  431MPD2    C2 6478   0.993   3.983  12.525 -0.3166  0.8043  0.5664
  431MPD2    C3 6479   0.865   3.980  12.464 -0.0432 -0.1838  0.4474
  431MPD2    C4 6480   0.754   4.018  12.539  0.0443 -0.0720 -0.0839
  431MPD2    C5 6481   0.770   4.045  12.674 -0.2943 -0.7063 -0.6600
  431MPD2     H 6482   1.084   3.959  12.471 -1.5285  0.3559 -1.2696
  431MPD2    H1 6483   0.651   4.003  12.508  0.5379  0.2779 -1.8856
  431MPD2    H2 6484   0.894   4.089  12.829 -2.6457 -2.7564  0.5715
  431MPD2    H3 6485   0.690   4.070  12.743  0.6165  0.7577 -0.1274
  431MPD2     N 6486   0.849   3.927  12.329 -0.3598 -0.3509  0.4914
  431MPD2    H5 6487   0.751   3.911  12.306 -0.5714  3.3902 -1.2536
  431MPD2    N1 6488   1.135   4.039  12.698  0.2092  0.3412  0.5790
  431MPD2    H7 6489   1.213   4.039  12.633 -0.2571  1.4150  0.0216
  432TMC3    C1 6490   0.916   3.816  12.139 -0.1333 -0.9228  0.4539
  432TMC3    C2 6491   1.005   3.814  12.035 -0.4329  0.2364  0.0331
  432TMC3    C3 6492   1.027   3.699  11.969 -0.1082  0.0413 -0.1948
  432TMC3    C4 6493   0.855   3.695  12.174  0.2172  0.0121 -0.0725
  432TMC3    C5 6494   0.884   3.585  12.104  0.3331  0.1754  0.4534
  432TMC3    C6 6495   0.973   3.584  11.998  0.5401  0.5159 -0.3489
  432TMC3     C 6496   0.951   3.909  12.242  0.3198 -0.1691  0.0992
  432TMC3     O 6497   1.065   3.944  12.253 -0.3546 -0.6963  0.0796
  432TMC3     H 6498   1.066   3.902  12.016 -2.5596  1.5682 -0.6621
  432TMC3    H1 6499   0.766   3.693  12.236  0.3124 -1.9557 -0.0235
  432TMC3    H2 6500   0.990   3.501  11.931 -0.2594 -0.0815  0.1905
  432TMC3    C7 6501   0.888   3.464  12.181  0.1793 -1.1376  0.0895
  432TMC3    C8 6502   1.137   3.705  11.874  0.3643 -0.2001  0.1362
  432TMC3    O1 6503   0.912   3.358  12.119  0.7834  0.2876 -0.0902
  432TMC3    O2 6504   1.151   3.815  11.821  0.0758 -0.1345  0.4033
  433MPD2     C 6505   4.160   2.737  11.053 -0.3037 -0.0301  0.2305
  433MPD2    C1 6506   4.207   2.627  11.114  0.4291 -0.3878  0.5355
  433MPD2    C2 6507   4.245   2.629  11.247 -0.3983 -0.2390 -0.5391
  433MPD2    C3 6508   4.247   2.744  11.309 -0.5679  0.2548  0.1854
  433MPD2    C4 6509   4.206   2.861  11.243  0.4274  0.1790  0.0229
  433MPD2    C5 6510   4.154   2.853  11.120 -0.5025 -0.0167 -0.1111
  433MPD2     H 6511   4.273   2.539  11.301 -3.8479 -1.6944 -1.1796
  433MPD2    H1 6512   4.215   2.957  11.293 -0.6830 -0.1675  0.9215
  433MPD2    H2 6513   4.137   2.732  10.947  0.0947 -1.0430  0.1870
  433MPD2    H3 6514   4.110   2.943  11.078  0.9594 -0.2082 -2.0281
  433MPD2     N 6515   4.298   2.747  11.447  0.0590  0.0827  0.5150
  433MPD2    H5 6516   4.330   2.659  11.485 -0.5810 -0.1949  0.4029
  433MPD2    N1 6517   4.216   2.516  11.032  0.5500  0.4260 -0.3751
  433MPD2    H7 6518   4.179   2.524  10.938  1.0856 -0.0615 -0.6256
  434TMC3    C1 6519   4.293   2.306  10.953  0.0296 -0.4690  0.8123
  434TMC3    C2 6520   4.305   2.175  11.000 -0.0137  0.8844  0.1056
  434TMC3    C3 6521   4.398   2.096  10.949 -0.5528 -0.5273  0.1846
  434TMC3    C4 6522   4.361   2.354  10.839 -0.1756 -0.1549  0.4427
  434TMC3    C5 6523   4.443   2.263  10.786 -0.0685 -0.6658 -0.8953
  434TMC3    C6 6524   4.470   2.137  10.835 -0.5439  0.1053 -0.0737
  434TMC3     C 6525   4.261   2.389  11.067  0.2895  0.0295 -0.0871
  434TMC3     O 6526   4.293   2.353  11.175 -0.1701  0.2013  0.7287
  434TMC3     H 6527   4.240   2.140  11.079  0.0215  0.4436 -0.0642
  434TMC3    H1 6528   4.335   2.447  10.790 -3.2075 -0.0435  2.2553
  434TMC3    H2 6529   4.556   2.084  10.796 -1.9304 -2.1626 -0.0600
  434TMC3    C7 6530   4.438   2.267  10.643  0.1157 -0.6198 -1.0556
  434TMC3    C8 6531   4.478   2.026  11.046  0.0591 -0.1804 -0.2937
  434TMC3    O1 6532   4.448   2.377  10.589  0.3783  0.1297  0.3864
  434TMC3    O2 6533   4.446   2.045  11.163 -0.1697  0.2271  0.5832
  435MPD2     C 6534   2.064   2.503  15.616 -0.1339 -0.2760 -0.1101
  435MPD2    C1 6535   2.028   2.416  15.720  0.1358  0.3641 -0.7630
  435MPD2    C2 6536   2.127   2.338  15.778 -1.0891  0.3653  0.5225
  435MPD2    C3 6537   2.255   2.333  15.729 -0.2628 -0.0559 -0.1030
  435MPD2    C4 6538   2.293   2.428  15.638  0.0081  0.7226  0.6517
  435MPD2    C5 6539   2.196   2.504  15.579  0.1943 -0.3343 -0.6036
  435MPD2     H 6540   2.101   2.273  15.861  0.3917  1.1785  1.6274
  435MPD2    H1 6541   2.399   2.440  15.619  0.6255  0.9112  4.2642
  435MPD2    H2 6542   1.996   2.573  15.570  1.6494  0.1374 -2.0925
  435MPD2    H3 6543   2.228   2.567  15.497 -0.1148 -2.1500 -2.1134
  435MPD2     N 6544   2.349   2.249  15.792  1.2163 -0.5464  0.2503
  435MPD2    H5 6545   2.325   2.193  15.873  0.5473  0.4450  0.7459
  435MPD2    N1 6546   1.898   2.393  15.768  0.4169 -0.7179  0.0131
  435MPD2    H7 6547   1.883   2.317  15.833  0.0987 -0.5847  0.0986
  436TMC3    C1 6548   1.525   2.332  15.927 -0.0872 -0.0049  0.0599
  436TMC3    C2 6549   1.646   2.348  15.871 -0.1015 -0.1122 -0.0782
  436TMC3    C3 6550   1.659   2.411  15.756 -0.3261 -0.2980  0.2266
  436TMC3    C4 6551   1.408   2.368  15.859 -0.8417 -0.1350 -0.0893
  436TMC3    C5 6552   1.432   2.435  15.749  0.0299 -0.5070  0.0178
  436TMC3    C6 6553   1.553   2.468  15.699  0.5296 -0.2833 -0.0492
  436TMC3     C 6554   1.516   2.240  16.037 -0.4087  0.3175 -0.3302
  436TMC3     O 6555   1.600   2.157  16.060  0.2855 -0.4261 -0.1753
  436TMC3     H 6556   1.730   2.309  15.928  0.3598  2.2044  0.8397
  436TMC3    H1 6557   1.311   2.342  15.900 -0.8541 -0.1489 -0.1273
  436TMC3    H2 6558   1.569   2.526  15.609 -0.7751  1.1195  0.6045
  436TMC3    C7 6559   1.319   2.445  15.665  0.2294 -0.0748 -0.6276
  436TMC3    C8 6560   1.789   2.465  15.720  0.2730 -0.1113  0.3217
  436TMC3    O1 6561   1.212   2.466  15.716  0.6031 -0.8459  0.2828
  436TMC3    O2 6562   1.785   2.569  15.661 -0.5501  0.1363 -0.4140
  437TMC3    C1 6563   0.761   4.661  11.827  0.0300  0.1278 -0.0531
  437TMC3    C2 6564   0.803   4.695  11.703  0.0067 -0.3670 -0.1583
  437TMC3    C3 6565   0.863   0.081  11.683 -0.1791 -0.6893 -0.5099
  437TMC3    C4 6566   0.776   0.013  11.926  0.4338  0.4174 -0.4893
  437TMC3    C5 6567   0.821   0.140  11.899 -0.0698  0.8882  0.5055
  437TMC3    C6 6568   0.869   0.180  11.783 -0.0849  0.4198  0.1289
  437TMC3     C 6569   0.766   4.519  11.862  0.2244 -0.3483 -0.5266
  437TMC3     O 6570   0.819   4.451  11.780 -0.4688 -0.2524 -0.2158
  437TMC3     H 6571   0.801   4.622  11.623  1.0305 -1.3776  0.7421
  437TMC3    H1 6572   0.752   4.726  12.029 -1.3174  0.0080 -0.9988
  437TMC3    H2 6573   0.899   0.283  11.768  1.8809 -0.1108  0.4106
  437TMC3    C7 6574   0.869   0.221  12.012  0.0262  0.4631 -0.3523
  437TMC3    C8 6575   0.932   0.097  11.550 -0.4448 -0.0530 -0.1347
  437TMC3    O1 6576   0.837   0.336  12.005  0.8143  0.1067  0.5228
  437TMC3    O2 6577   0.914   0.008  11.468  0.0649  0.0586 -0.3771
  438MPD2     C 6578   3.259   0.117  16.619  0.4713  0.7591  0.1135
  438MPD2    C1 6579   3.298   0.013  16.703 -0.4821 -0.5531  0.5215
  438MPD2    C2 6580   3.293   0.025  16.842 -0.1676  0.7678 -0.0217
  438MPD2    C3 6581   3.248   0.142  16.901 -0.1522  0.3559 -0.3964
  438MPD2    C4 6582   3.228   0.253  16.818 -0.2230 -0.0432 -0.1601
  438MPD2    C5 6583   3.229   0.240  16.681  0.2503 -0.1608  0.1677
  438MPD2     H 6584   3.321   4.682  16.908  0.4477 -0.3742 -1.6662
  438MPD2    H1 6585   3.206   0.349  16.864  3.5590  0.5030  0.5904
  438MPD2    H2 6586   3.252   0.125  16.511  4.8542  2.1897 -0.0612
  438MPD2    H3 6587   3.214   0.322  16.612 -1.3187 -1.3215 -0.8597
  438MPD2     N 6588   3.227   0.156  17.043  0.3136 -0.1233  0.7872
  438MPD2    H5 6589   3.220   0.249  17.082  0.8989  0.0793  0.4136
  438MPD2    N1 6590   3.358   4.632  16.665  0.4018  0.4342 -0.2298
  438MPD2    H7 6591   3.401   4.578  16.738  1.0679 -1.3454 -1.9461
  439TMC3    C1 6592   3.404   4.424  16.559  0.2380 -0.0059 -0.2254
  439TMC3    C2 6593   3.428   4.351  16.448  0.6800 -0.3514  0.5329
  439TMC3    C3 6594   3.485   4.225  16.462 -0.6144 -1.1368 -0.1410
  439TMC3    C4 6595   3.446   4.377  16.682 -0.4775 -0.2944  0.0087
  439TMC3    C5 6596   3.501   4.260  16.694  0.8645  0.3128 -0.2954
  439TMC3    C6 6597   3.521   4.179  16.584  0.3213  0.4165  1.2561
  439TMC3     C 6598   3.372   4.572  16.543 -0.0020 -0.8615  0.0221
  439TMC3     O 6599   3.333   4.601  16.429 -0.2105 -0.0430 -0.2061
  439TMC3     H 6600   3.399   4.391  16.351  0.6087  1.6895  1.3906
  439TMC3    H1 6601   3.430   4.427  16.777 -0.5133  1.5612 -0.9834
  439TMC3    H2 6602   3.585   4.092  16.591 -0.1684 -0.0607 -0.2999
  439TMC3    C7 6603   3.600   4.238  16.805  0.1283  0.1536  1.1241
  439TMC3    C8 6604   3.525   4.160  16.335  0.1212  0.0328 -0.0985
  439TMC3    O1 6605   3.613   4.334  16.885  0.4273  0.0204 -0.3137
  439TMC3    O2 6606   3.517   4.217  16.228 -0.3081  0.4282  0.1386
  440MPD2     C 6607   1.839   0.596  14.935 -0.2958 -0.3943 -0.8017
  440MPD2    C1 6608   1.865   0.715  15.001  0.2597 -0.0397 -0.2632
  440MPD2    C2 6609   1.995   0.741  15.053  0.6322 -0.2724 -0.3501
  440MPD2    C3 6610   2.100   0.649  15.032 -0.2416  0.0182  0.0522
  440MPD2    C4 6611   2.076   0.537  14.953  0.0389  0.1647  0.1941
  440MPD2    C5 6612   1.949   0.514  14.908  0.7088 -0.3941  0.0773
  440MPD2     H 6613   2.008   0.835  15.106 -1.9993 -0.0039 -0.1998
  440MPD2    H1 6614   2.155   0.466  14.933 -0.8634  0.0402 -2.9285
  440MPD2    H2 6615   1.742   0.570  14.894 -0.2871 -0.8243 -0.5466
  440MPD2    H3 6616   1.920   0.422  14.857 -0.5760 -0.7270  1.3946
  440MPD2     N 6617   2.241   0.680  15.069  0.2816  0.1060 -0.4103
  440MPD2    H5 6618   2.316   0.625  15.029 -0.3633 -0.4805 -0.8081
  440MPD2    N1 6619   1.764   0.809  15.025  0.3664  0.4365  0.4777
  440MPD2    H7 6620   1.794   0.883  15.088  1.4940  0.4445 -0.0743
  441TMC3    C1 6621   2.425   0.787  15.169  0.5957  0.6888 -0.5861
  441TMC3    C2 6622   2.492   0.906  15.171  0.6217  0.3574  0.1302
  441TMC3    C3 6623   2.599   0.921  15.247  0.1898 -0.7576 -0.0586
  441TMC3    C4 6624   2.463   0.691  15.257  0.1454 -0.0370 -0.3438
  441TMC3    C5 6625   2.585   0.695  15.318  0.6003 -0.3034 -0.3914
  441TMC3    C6 6626   2.651   0.816  15.317  0.0698  0.4315 -0.2382
  441TMC3     C 6627   2.287   0.789  15.145 -0.0123 -0.5344  0.2949
  441TMC3     O 6628   2.214   0.875  15.197 -0.3360  0.4904  0.8509
  441TMC3     H 6629   2.461   0.983  15.101 -0.5648 -1.0250 -0.8919
  441TMC3    H1 6630   2.408   0.597  15.264  0.5164 -0.2193  0.1331
  441TMC3    H2 6631   2.735   0.836  15.383 -0.7758  0.4336  0.8315
  441TMC3    C7 6632   2.640   0.582  15.385  1.1438  0.2685  0.4132
  441TMC3    C8 6633   2.599   1.049  15.316 -0.1885  0.6176  0.0676
  441TMC3    O1 6634   2.584   0.479  15.360 -0.0418 -0.0383  0.3224
  441TMC3    O2 6635   2.709   1.090  15.365  0.0367 -0.7457  0.6779
  442MPD2     C 6636   4.547   1.256  16.196 -0.2132 -0.2406  0.5461
  442MPD2    C1 6637   4.467   1.196  16.283 -0.6884  0.4965  0.8149
  442MPD2    C2 6638   4.470   1.058  16.298  0.5344 -0.9647 -0.3777
  442MPD2    C3 6639   4.570   0.986  16.225 -0.0588  0.5165  0.3660
  442MPD2    C4 6640   4.645   1.052  16.130  0.2864 -0.6753 -0.2038
  442MPD2    C5 6641   4.630   1.189  16.116  0.3077 -0.4802 -0.4987
  442MPD2     H 6642   4.398   1.011  16.364  0.7550 -0.1669  0.4275
  442MPD2    H1 6643   4.721   0.998  16.076  2.0524  1.0666  0.5201
  442MPD2    H2 6644   4.558   1.363  16.182  2.5740 -0.4600  1.1167
  442MPD2    H3 6645   4.695   1.236  16.043 -1.3076 -0.0653 -1.6634
  442MPD2     N 6646   4.586   0.844  16.237  0.0179 -0.5251 -0.6913
  442MPD2    H5 6647   4.658   0.804  16.177 -0.2089 -0.4329 -1.0229
  442MPD2    N1 6648   4.364   1.268  16.344 -0.5782  0.1697 -0.1180
  442MPD2    H7 6649   4.295   1.223  16.403  0.5346  0.8277  1.6573
  443TMC3    C1 6650   4.243   1.455  16.431 -0.7398 -0.6474  0.5559
  443TMC3    C2 6651   4.199   1.585  16.407 -0.2669  0.1841  0.6832
  443TMC3    C3 6652   4.092   1.630  16.479 -0.1927 -0.4946 -0.2373
  443TMC3    C4 6653   4.167   1.370  16.507  0.9878  0.5833  0.1159
  443TMC3    C5 6654   4.049   1.416  16.561 -0.7008  0.4484  0.0337
  443TMC3    C6 6655   4.021   1.552  16.569 -0.0741  0.4366  0.5088
  443TMC3     C 6656   4.355   1.406  16.359 -0.6630  0.5427  0.4286
  443TMC3     O 6657   4.418   1.494  16.307 -0.0726  0.2875 -0.1358
  443TMC3     H 6658   4.229   1.647  16.323 -2.5106  0.6929  0.2596
  443TMC3    H1 6659   4.180   1.263  16.511 -3.7241 -0.0787 -1.4435
  443TMC3    H2 6660   3.949   1.611  16.624  0.8507  0.7333  1.4149
  443TMC3    C7 6661   3.993   1.336  16.660 -0.0655 -0.1511  0.5223
  443TMC3    C8 6662   4.039   1.756  16.443 -0.3433  0.3280 -0.2337
  443TMC3    O1 6663   3.987   1.216  16.634 -0.0769  0.5008  0.0007
  443TMC3    O2 6664   4.004   1.830  16.534 -0.2345  0.0300 -0.5190
  444MPD2     C 6665   0.338   0.708  16.925 -0.9337  0.2927 -0.3964
  444MPD2    C1 6666   0.268   0.596  16.891  0.0703 -0.3286 -0.4105
  444MPD2    C2 6667   0.324   0.502  16.809  0.2743  0.4080  0.3281
  444MPD2    C3 6668   0.453   0.517  16.763 -0.1930  0.2017 -0.4737
  444MPD2    C4 6669   0.532   0.616  16.816  0.5706  0.0514  0.0789
  444MPD2    C5 6670   0.476   0.718  16.896 -0.4622  0.7901  0.4453
  444MPD2     H 6671   0.259   0.425  16.769 -0.3251  0.7662  0.6216
  444MPD2    H1 6672   0.637   0.627  16.790  0.4863  0.6246 -0.0081
  444MPD2    H2 6673   0.295   0.791  16.980 -1.4461  0.3878 -0.9410
  444MPD2    H3 6674   0.535   0.804  16.924  1.4238 -0.0618 -0.9201
  444MPD2     N 6675   0.505   0.413  16.680 -0.1829  0.3941  0.4377
  444MPD2    H5 6676   0.460   0.322  16.686  0.6313 -0.0139  0.4762
  444MPD2    N1 6677   0.132   0.564  16.918  0.3020  0.6804 -0.6722
  444MPD2    H7 6678   0.095   0.479  16.876  1.6585  0.8521 -2.2052
  445TMC3    C1 6679   0.693   0.287  16.582 -0.2046 -0.3138  0.0123
  445TMC3    C2 6680   0.616   0.181  16.540 -0.0621  0.0025 -0.1692
  445TMC3    C3 6681   0.680   0.075  16.479  0.2244 -0.5142  0.9518
  445TMC3    C4 6682   0.829   0.287  16.570 -0.4472  0.4949  0.8153
  445TMC3    C5 6683   0.892   0.180  16.517 -0.2548 -0.2836  0.4835
  445TMC3    C6 6684   0.822   0.075  16.471 -0.3940  0.1606 -0.0668
  445TMC3     C 6685   0.632   0.416  16.621  0.1837  0.6851 -0.5561
  445TMC3     O 6686   0.692   0.515  16.581  0.0359 -0.0935  0.4185
  445TMC3     H 6687   0.508   0.186  16.539  0.1092  3.5335 -1.2100
  445TMC3    H1 6688   0.886   0.377  16.591 -1.6469  1.2441  0.8090
  445TMC3    H2 6689   0.875   4.731  16.424 -0.9130 -0.7590  0.9386
  445TMC3    C7 6690   1.030   0.158  16.539  0.9748  0.9921  0.5297
  445TMC3    C8 6691   0.610   4.692  16.445  0.2823  0.0675 -0.1565
  445TMC3    O1 6692   1.109   0.249  16.528  0.3086 -0.4384  0.0863
  445TMC3    O2 6693   0.662   4.613  16.368 -0.0386 -0.3272  0.0657
  446MPD2     C 6694   4.149   1.794  11.538  0.3679  0.4431 -0.1123
  446MPD2    C1 6695   4.175   1.827  11.407  0.3896 -0.8091  0.8776
  446MPD2    C2 6696   4.277   1.916  11.385 -0.5586 -0.7397 -0.4062
  446MPD2    C3 6697   4.356   1.975  11.484  0.8993 -0.1212  0.9277
  446MPD2    C4 6698   4.319   1.945  11.613  0.1662 -0.2310 -0.4042
  446MPD2    C5 6699   4.225   1.847  11.639 -0.3076 -0.8571 -0.5313
  446MPD2     H 6700   4.290   1.935  11.279  0.2854 -0.3292 -0.2290
  446MPD2    H1 6701   4.380   1.972  11.699  0.1500  2.4287 -1.2269
  446MPD2    H2 6702   4.084   1.710  11.563 -3.1930  3.1668 -0.1102
  446MPD2    H3 6703   4.231   1.803  11.738  4.7445  0.0176 -0.4762
  446MPD2     N 6704   4.453   2.065  11.442 -0.2581 -1.1807  0.7393
  446MPD2    H5 6705   4.457   2.073  11.341  0.4350 -1.8196  0.7106
  446MPD2    N1 6706   4.096   1.786  11.300  0.3926 -0.2660  0.2955
  446MPD2    H7 6707   4.131   1.815  11.209 -0.2151 -0.0476  0.1355
  447TMC3    C1 6708   4.658   2.191  11.436  0.1429 -1.1672  0.3446
  447TMC3    C2 6709   4.641   2.223  11.305  0.2768 -0.2173  0.0295
  447TMC3    C3 6710   0.015   2.267  11.237 -0.5621 -0.1696 -0.6959
  447TMC3    C4 6711   0.046   2.191  11.498  0.8584 -0.1634  0.2757
  447TMC3    C5 6712   0.157   2.226  11.418 -0.5174  0.2736 -0.5683
  447TMC3    C6 6713   0.143   2.260  11.288 -0.7061  0.2244  0.2444
  447TMC3     C 6714   4.552   2.131  11.520 -0.0257  0.4647  0.4282
  447TMC3     O 6715   4.572   2.116  11.639 -0.4525  0.0689  0.0591
  447TMC3     H 6716   4.543   2.234  11.260  0.7906 -0.2522 -1.0855
  447TMC3    H1 6717   0.058   2.167  11.603 -2.2783  0.9139  0.8702
  447TMC3    H2 6718   0.227   2.277  11.223  0.6626 -1.1068  1.6473
  447TMC3    C7 6719   0.294   2.178  11.472 -0.1472  0.0659 -0.2437
  447TMC3    C8 6720   4.729   2.318  11.103 -0.8924 -0.3997 -0.5053
  447TMC3    O1 6721   0.385   2.150  11.398 -0.4655 -0.1354  0.2120
  447TMC3    O2 6722   4.619   2.332  11.052 -0.0999 -0.4829  0.1697
  448TMC3    C1 6723   3.082   1.237  16.748  0.2351  0.0768  0.3447
  448TMC3    C2 6724   3.071   1.109  16.693 -0.3778  0.7921  0.0280
  448TMC3    C3 6725   3.052   0.999  16.772  0.5493 -0.7320 -0.6982
  448TMC3    C4 6726   3.083   1.252  16.882 -0.1925  0.0554 -0.4487
  448TMC3    C5 6727   3.086   1.137  16.962 -0.0629  0.2485  0.5481
  448TMC3    C6 6728   3.056   1.014  16.909 -0.0592 -0.6423 -0.1361
  448TMC3     C 6729   3.106   1.351  16.660 -0.2413 -0.1706  0.1830
  448TMC3     O 6730   3.049   1.350  16.551 -0.0653 -0.2084  0.1259
  448TMC3     H 6731   3.048   1.105  16.587 -0.0876  0.6570 -0.0322
  448TMC3    H1 6732   3.091   1.352  16.923  1.7685 -1.3957  2.6837
  448TMC3    H2 6733   3.072   0.925  16.969 -1.0687 -0.5836  0.2139
  448TMC3    C7 6734   3.094   1.143  17.109  0.2980 -0.1231  0.5328
  448TMC3    C8 6735   3.103   0.877  16.712  0.0388  0.2430 -0.2620
  448TMC3    O1 6736   3.052   1.044  17.172 -0.2380  0.1075  0.1371
  448TMC3    O2 6737   3.153   0.799  16.794  0.1214 -0.6452 -0.1682
  449MPD2     C 6738   4.240   0.310  13.754  0.3843  0.0368 -0.3952
  449MPD2    C1 6739   4.104   0.285  13.724 -0.5939  0.2716  0.7505
  449MPD2    C2 6740   4.030   0.213  13.816  0.5483 -0.0047 -0.2876
  449MPD2    C3 6741   4.087   0.162  13.932  0.2772 -0.1314 -0.0595
  449MPD2    C4 6742   4.221   0.172  13.954  0.4439  0.2537  0.0045
  449MPD2    C5 6743   4.297   0.256  13.869 -0.2970  0.4797 -0.7732
  449MPD2     H 6744   3.925   0.195  13.795  1.0308 -0.7720 -2.0498
  449MPD2    H1 6745   4.268   0.135  14.044 -1.0671  2.9127  1.8585
  449MPD2    H2 6746   4.313   0.372  13.703 -0.6284  2.3636  0.9681
  449MPD2    H3 6747   4.403   0.274  13.884 -0.9524  2.7201  1.0523
  449MPD2     N 6748   3.997   0.082  14.002 -0.3192  0.3075  0.2015
  449MPD2    H5 6749   3.903   0.075  13.966  0.3502 -2.4787 -1.0062
  449MPD2    N1 6750   4.034   0.343  13.621 -0.1316 -0.6987  0.1355
  449MPD2    H7 6751   3.939   0.308  13.605  0.7099 -2.3892 -1.1849
  450TMC3    C1 6752   4.003   0.404  13.401 -0.0626  0.2687  0.5718
  450TMC3    C2 6753   4.037   0.309  13.306 -0.1596  0.1558 -0.6384
  450TMC3    C3 6754   3.935   0.249  13.236 -0.4965  0.5714 -0.1871
  450TMC3    C4 6755   3.874   0.426  13.440  0.9935 -0.1992  0.2591
  450TMC3    C5 6756   3.772   0.357  13.369  0.5535  0.3625 -0.1653
  450TMC3    C6 6757   3.805   0.270  13.270  0.6806 -0.0399 -0.5423
  450TMC3     C 6758   4.092   0.393  13.507 -0.4541 -0.0531 -0.4561
  450TMC3     O 6759   4.209   0.388  13.473 -0.2029  0.1297  0.7296
  450TMC3     H 6760   4.140   0.299  13.273  0.2393  0.4913  0.5243
  450TMC3    H1 6761   3.851   0.511  13.503  2.2750  0.7207 -0.5119
  450TMC3    H2 6762   3.718   0.243  13.211 -0.5303  1.8431  0.3810
  450TMC3    C7 6763   3.680   0.308  13.469 -0.4099  0.3080 -0.3936
  450TMC3    C8 6764   3.955   0.149  13.135  0.4414 -0.1584 -0.3711
  450TMC3    O1 6765   3.663   0.190  13.486 -0.6594  0.4388 -0.4592
  450TMC3    O2 6766   3.864   0.125  13.056 -0.3004  0.9894 -0.6991
  451MPD2     C 6767   1.466   4.539   1.832  0.0279 -0.3465 -0.9321
  451MPD2    C1 6768   1.423   4.587   1.708  0.3559 -0.6747  0.1883
  451MPD2    C2 6769   1.446   4.525   1.585  0.0976  0.4365  0.4729
  451MPD2    C3 6770   1.512   4.405   1.586 -0.4194  0.4604  0.0374
  451MPD2    C4 6771   1.564   4.357   1.705 -0.0405  0.1488 -0.5508
  451MPD2    C5 6772   1.532   4.417   1.827 -0.3289 -0.0205 -0.1958
  451MPD2     H 6773   1.424   4.576   1.492 -1.8742 -1.1868  0.0310
  451MPD2    H1 6774   1.619   4.263   1.710  0.1184  0.3424  1.1320
  451MPD2    H2 6775   1.438   4.584   1.926 -2.5396 -0.1916 -1.7791
  451MPD2    H3 6776   1.551   4.366   1.921  1.1447  0.3381 -0.2926
  451MPD2     N 6777   1.525   4.336   1.463 -0.5018  0.0582  0.3475
  451MPD2    H5 6778   1.591   4.259   1.453 -0.8311 -0.1854  0.0342
  451MPD2    N1 6779   1.354   4.708   1.699 -0.0555 -0.3541  0.0258
  451MPD2    H7 6780   1.322   0.003   1.608  1.1425  0.3315 -0.1558
  452TMC3    C1 6781   1.485   4.285   1.231  0.6296 -0.6507 -0.5395
  452TMC3    C2 6782   1.402   4.297   1.122  0.4097  0.2680  0.1322
  452TMC3    C3 6783   1.429   4.236   1.003 -0.1449  0.0390 -1.2493
  452TMC3    C4 6784   1.595   4.208   1.228 -0.1363  0.2562 -0.0126
  452TMC3    C5 6785   1.628   4.157   1.103 -0.4906 -0.1753  0.6919
  452TMC3    C6 6786   1.544   4.164   0.993  0.1897 -0.2923  0.6022
  452TMC3     C 6787   1.456   4.365   1.350  0.2646 -0.0661  0.0923
  452TMC3     O 6788   1.361   4.437   1.331 -0.3614  0.1462 -0.0329
  452TMC3     H 6789   1.320   4.368   1.112 -0.4140 -0.7047  0.0517
  452TMC3    H1 6790   1.666   4.207   1.309 -0.5764 -0.3326  0.3718
  452TMC3    H2 6791   1.573   4.109   0.905  0.5205  2.3712 -0.9399
  452TMC3    C7 6792   1.754   4.105   1.085  0.3566  0.0472  0.3987
  452TMC3    C8 6793   1.340   4.233   0.897 -0.8180 -0.2853 -0.4181
  452TMC3    O1 6794   1.788   4.085   0.967 -0.1368 -0.1641  0.1500
  452TMC3    O2 6795   1.389   4.208   0.785 -0.2031 -0.5164 -0.0369
  453TMC3    C1 6796   1.832   0.879  11.988 -0.0950  0.7403  0.4067
  453TMC3    C2 6797   1.781   0.773  11.913  0.7127  0.4675  0.7151
  453TMC3    C3 6798   1.766   0.784  11.773  0.0246  0.2121 -1.2887
  453TMC3    C4 6799   1.860   0.996  11.921  0.0607  0.0129  0.5871
  453TMC3    C5 6800   1.866   0.999  11.783  0.4365  0.3662  0.0983
  453TMC3    C6 6801   1.828   0.887  11.711  0.4929  0.5549 -0.1418
  453TMC3     C 6802   1.830   0.884  12.128  0.1164  0.1320  0.4116
  453TMC3     O 6803   1.831   0.995  12.179 -0.0436  0.0642  0.8005
  453TMC3     H 6804   1.736   0.691  11.967  2.1629 -0.4129  0.5900
  453TMC3    H1 6805   1.906   1.076  11.978 -0.8054  0.8086  0.1765
  453TMC3    H2 6806   1.839   0.893  11.603 -2.2664  2.4278 -0.3405
  453TMC3    C7 6807   1.927   1.115  11.719 -0.5559  0.0575  0.7709
  453TMC3    C8 6808   1.775   0.663  11.690 -0.2373 -0.0731 -0.3863
  453TMC3    O1 6809   1.969   1.100  11.609  0.4974 -0.0828  0.0823
  453TMC3    O2 6810   1.869   0.656  11.614 -0.2287  0.4945  0.2895
  454MPD2     C 6811   0.975   0.277  16.205 -1.0037 -1.2305  0.3653
  454MPD2    C1 6812   0.843   0.251  16.168  0.3889 -0.7126 -0.0357
  454MPD2    C2 6813   0.745   0.347  16.193 -0.3079  0.1299 -0.0709
  454MPD2    C3 6814   0.772   0.463  16.253 -0.1787  0.0179  0.8322
  454MPD2    C4 6815   0.898   0.494  16.298 -0.3741  0.3727 -0.0980
  454MPD2    C5 6816   0.994   0.402  16.262  0.1990  0.4914  0.0408
  454MPD2     H 6817   0.645   0.328  16.158  0.1364 -0.3666 -1.0942
  454MPD2    H1 6818   0.928   0.584  16.351 -0.2634  1.5399 -2.1404
  454MPD2    H2 6819   1.058   0.210  16.187  0.1567  0.0493  0.9022
  454MPD2    H3 6820   1.097   0.418  16.292  0.8215 -1.0601 -1.2809
  454MPD2     N 6821   0.678   0.568  16.277  0.5020 -0.5993  0.3667
  454MPD2    H5 6822   0.709   0.662  16.299 -2.0830  0.0562  1.1593
  454MPD2    N1 6823   0.802   0.133  16.096 -0.2920 -0.3459 -0.0290
  454MPD2    H7 6824   0.704   0.127  16.069 -0.2198  3.3128 -1.2207
  455TMC3    C1 6825   0.459   0.647  16.323  0.7740 -0.0124 -0.6680
  455TMC3    C2 6826   0.502   0.733  16.420 -0.1264 -0.5857  0.7345
  455TMC3    C3 6827   0.411   0.765  16.522 -0.4554 -0.1302 -0.1871
  455TMC3    C4 6828   0.332   0.594  16.331  0.0357 -0.9235 -0.1411
  455TMC3    C5 6829   0.258   0.616  16.447 -0.1502 -0.3186 -0.2234
  455TMC3    C6 6830   0.295   0.705  16.545  0.1217  0.5781  0.5105
  455TMC3     C 6831   0.544   0.547  16.263 -0.2310  0.7316  0.7680
  455TMC3     O 6832   0.487   0.444  16.238 -0.0477  0.7805  0.2146
  455TMC3     H 6833   0.601   0.778  16.417 -0.8774  0.8850 -1.8965
  455TMC3    H1 6834   0.285   0.545  16.247 -3.1483  1.5811  0.1426
  455TMC3    H2 6835   0.245   0.692  16.641 -0.1783  1.9679  0.5478
  455TMC3    C7 6836   0.183   0.499  16.489 -0.2017  0.2598 -0.0499
  455TMC3    C8 6837   0.450   0.881  16.603 -0.2240  0.0599  0.0694
  455TMC3    O1 6838   0.100   0.513  16.581 -0.3430 -0.2489  0.3678
  455TMC3    O2 6839   0.560   0.931  16.575  0.3603  0.5750 -0.3489
  456MPD2     C 6840   3.835   4.343  16.413  0.1024 -0.1362  0.4349
  456MPD2    C1 6841   3.866   4.359  16.546 -0.5073  0.7360  0.2714
  456MPD2    C2 6842   3.821   4.475  16.616 -0.5941 -0.0190  0.8053
  456MPD2    C3 6843   3.752   4.575  16.545  0.1510 -0.6771 -0.6784
  456MPD2    C4 6844   3.709   4.548  16.418  0.5521  0.3295 -0.1391
  456MPD2    C5 6845   3.753   4.436  16.353  0.3178 -0.0617  0.6085
  456MPD2     H 6846   3.829   4.503  16.720  0.0247  2.2509  0.1538
  456MPD2    H1 6847   3.643   4.614  16.363  0.3434 -0.7450 -1.1702
  456MPD2    H2 6848   3.866   4.259  16.353 -3.2218 -1.4482  0.5507
  456MPD2    H3 6849   3.713   4.427  16.253  2.1805  3.0376 -0.4484
  456MPD2     N 6850   3.707   4.698  16.610  0.3140  0.2527  0.1389
  456MPD2    H5 6851   3.706   4.694  16.711  1.2809  1.6020  0.1908
  456MPD2    N1 6852   3.952   4.268  16.603  0.0470 -0.5329 -0.3303
  456MPD2    H7 6853   3.988   4.196  16.541  0.3816 -1.0398  0.4595
  457TMC3    C1 6854   3.622   0.172  16.646  0.2823  0.4778  0.6293
  457TMC3    C2 6855   3.566   0.286  16.589 -0.5003 -0.9337  0.0667
  457TMC3    C3 6856   3.575   0.401  16.660 -0.4914 -0.2676  0.6166
  457TMC3    C4 6857   3.658   0.169  16.782  0.1614 -0.6480 -0.4367
  457TMC3    C5 6858   3.645   0.290  16.851 -0.2999 -0.5964 -0.5212
  457TMC3    C6 6859   3.615   0.405  16.788  0.3375  0.9129 -0.5219
  457TMC3     C 6860   3.662   0.075  16.549 -0.5791 -0.0602 -0.1018
  457TMC3     O 6861   3.657   0.105  16.433  0.1928 -0.1313 -0.3311
  457TMC3     H 6862   3.521   0.289  16.491 -1.6740  3.1360  0.7671
  457TMC3    H1 6863   3.707   0.084  16.827 -0.1590 -0.8952 -0.5551
  457TMC3    H2 6864   3.625   0.504  16.830  0.3093 -0.2461  2.1668
  457TMC3    C7 6865   3.658   0.289  16.994 -0.2730  0.7204  0.2161
  457TMC3    C8 6866   3.494   0.520  16.625  0.4633  0.2587  0.4154
  457TMC3    O1 6867   3.692   0.192  17.051 -0.1157 -0.4139 -0.2312
  457TMC3    O2 6868   3.487   0.614  16.701 -0.4179 -0.0190  0.3016
  458MPD2     C 6869   1.195   0.330  12.379  0.4396 -0.1838 -0.0473
  458MPD2    C1 6870   1.171   0.192  12.381  0.2948 -0.1646 -0.7261
  458MPD2    C2 6871   1.083   0.134  12.295  0.4165  0.1253  0.1748
  458MPD2    C3 6872   1.018   0.211  12.198 -1.0810  0.3494  0.1279
  458MPD2    C4 6873   1.043   0.351  12.198  0.7377 -0.0763 -0.1418
  458MPD2    C5 6874   1.130   0.402  12.285  0.7051  0.3727  0.2015
  458MPD2     H 6875   1.076   0.026  12.287 -1.9321  0.3020 -0.0573
  458MPD2    H1 6876   0.995   0.420  12.130  1.0068 -0.1797 -0.4363
  458MPD2    H2 6877   1.271   0.366  12.447 -0.5431 -1.9552  1.9884
  458MPD2    H3 6878   1.161   0.506  12.275  2.2043  0.0516  1.6019
  458MPD2     N 6879   0.943   0.149  12.101 -1.0812 -0.3686  0.7671
  458MPD2    H5 6880   0.954   0.048  12.104  0.6161 -0.2686 -2.4578
  458MPD2    N1 6881   1.251   0.126  12.477  0.0753  0.1387  0.4290
  458MPD2    H7 6882   1.302   0.188  12.539 -0.2584  2.2920 -1.4478
  459TMC3    C1 6883   1.345   4.698  12.600  0.1750 -1.3411 -0.0285
  459TMC3    C2 6884   1.463   0.018  12.613  0.0392  0.3410  0.6602
  459TMC3    C3 6885   1.548   4.714  12.713 -0.3166 -0.6360 -0.3850
  459TMC3    C4 6886   1.310   4.588  12.679 -0.6526  0.1243 -0.3049
  459TMC3    C5 6887   1.393   4.545  12.771  0.6050  0.4469 -0.2799
  459TMC3    C6 6888   1.515   4.604  12.787 -0.1690  0.1584  0.4190
  459TMC3     C 6889   1.257   4.731  12.496 -0.2415 -0.0238  0.1238
  459TMC3     O 6890   1.174   4.650  12.460 -0.3360  0.2460 -0.1707
  459TMC3     H 6891   1.500   0.099  12.551  1.7051 -2.1646 -1.5819
  459TMC3    H1 6892   1.212   4.546  12.660 -0.1723 -1.0327 -0.2717
  459TMC3    H2 6893   1.576   4.567  12.868  1.9935 -1.2976 -1.8617
  459TMC3    C7 6894   1.355   4.450  12.880 -0.0622 -0.6058 -0.1856
  459TMC3    C8 6895   1.690   0.009  12.709 -0.2149 -0.3505  0.5306
  459TMC3    O1 6896   1.443   4.390  12.941 -0.0618  0.4523 -0.2820
  459TMC3    O2 6897   1.711   0.118  12.654 -0.0955  0.3363  0.0153
  460MPD2     C 6898   0.255   2.439  10.889 -0.2686 -0.0820 -0.3381
  460MPD2    C1 6899   0.126   2.415  10.915 -0.6409 -0.6647  0.2652
  460MPD2    C2 6900   0.022   2.446  10.827 -0.4061 -0.0939 -0.4357
  460MPD2    C3 6901   0.054   2.528  10.723 -0.0203 -0.1272 -1.4048
  460MPD2    C4 6902   0.178   2.571  10.704 -0.1617 -0.6864 -0.1027
  460MPD2    C5 6903   0.281   2.518  10.780  0.2703  0.0624 -0.5631
  460MPD2     H 6904   4.655   2.425  10.848 -0.1485  1.7678  2.7597
  460MPD2    H1 6905   0.205   2.637  10.621  3.4525  0.3496  1.8990
  460MPD2    H2 6906   0.332   2.397  10.952  0.6711  1.0680 -0.7210
  460MPD2    H3 6907   0.376   2.550  10.738  1.3912 -0.3088  1.7090
  460MPD2     N 6908   4.685   2.564  10.638 -0.6666 -0.7538 -0.3627
  460MPD2    H5 6909   4.597   2.514  10.636 -0.6601 -1.0002  3.8367
  460MPD2    N1 6910   0.106   2.347  11.040  0.3044 -0.6945 -0.3168
  460MPD2    H7 6911   0.188   2.314  11.089  1.8928 -0.6210 -2.9189
  461TMC3    C1 6912   4.581   2.690  10.467 -0.5046  0.5020  0.3340
  461TMC3    C2 6913   4.558   2.587  10.381 -0.9781 -0.2106 -0.1717
  461TMC3    C3 6914   4.506   2.600  10.255 -0.0703  0.9595 -1.1524
  461TMC3    C4 6915   4.563   2.818  10.414 -0.4121 -0.4154  0.0987
  461TMC3    C5 6916   4.517   2.829  10.286  0.1269 -0.1716 -1.0122
  461TMC3    C6 6917   4.492   2.726  10.200 -0.7506 -0.6360 -0.1443
  461TMC3     C 6918   4.687   2.682  10.571  0.5288 -0.0028  0.2387
  461TMC3     O 6919   0.021   2.781  10.585  0.0905  0.7678  0.1970
  461TMC3     H 6920   4.584   2.486  10.413  1.5831  0.7464  0.8006
  461TMC3    H1 6921   4.576   2.905  10.478  0.8546  1.4430 -2.6284
  461TMC3    H2 6922   4.466   2.748  10.098 -1.2777 -0.8743 -0.0620
  461TMC3    C7 6923   4.478   2.963  10.250  1.0691  0.9552  0.5137
  461TMC3    C8 6924   4.502   2.491  10.166  0.4407 -0.4065 -0.8846
  461TMC3    O1 6925   4.410   2.970  10.149 -0.1291  0.2642  0.2433
  461TMC3    O2 6926   4.552   2.384  10.204  0.0919  0.0899  0.1652
  462TMC3    C1 6927   0.636   3.653   0.096  0.5212  0.3561  0.1913
  462TMC3    C2 6928   0.735   3.653   0.192 -0.2964  1.0909  0.6559
  462TMC3    C3 6929   0.740   3.543   0.277 -0.6479 -0.2544 -0.1775
  462TMC3    C4 6930   0.535   3.556   0.098 -0.0718 -0.0462  0.4759
  462TMC3    C5 6931   0.544   3.455   0.190 -1.0790  0.2462  0.2997
  462TMC3    C6 6932   0.650   3.440   0.270  0.1951  0.1714 -0.2876
  462TMC3     C 6933   0.654   3.729  17.726  0.6059  0.5645 -0.3895
  462TMC3     O 6934   0.552   3.763  17.663  0.3594 -1.0189 -0.0573
  462TMC3     H 6935   0.816   3.725   0.194  1.1725 -0.6122  2.7642
  462TMC3    H1 6936   0.485   3.544   0.003 -1.5193  2.3978  0.9315
  462TMC3    H2 6937   0.652   3.362   0.345 -0.6264  1.6642  1.3024
  462TMC3    C7 6938   0.449   3.345   0.187  0.2567 -0.5290  0.1193
  462TMC3    C8 6939   0.846   3.518   0.363  0.3734 -0.1392 -0.0330
  462TMC3    O1 6940   0.466   3.246   0.254  0.3373 -0.2739 -0.1373
  462TMC3    O2 6941   0.885   3.606   0.436 -0.5016 -0.2056  0.2357
  463MPD2     C 6942   1.913   1.222   1.700 -0.0829 -0.3971 -0.0867
  463MPD2    C1 6943   1.800   1.296   1.699  0.0569 -0.1183 -0.2761
  463MPD2    C2 6944   1.812   1.437   1.713 -0.7102 -0.2820  0.2830
  463MPD2    C3 6945   1.933   1.503   1.733 -0.3442 -0.3582 -0.1847
  463MPD2    C4 6946   2.044   1.423   1.737 -0.5686 -0.3934 -0.1014
  463MPD2    C5 6947   2.033   1.286   1.727 -0.1827  0.2085  0.3549
  463MPD2     H 6948   1.723   1.498   1.706  0.3533  0.9031 -2.8538
  463MPD2    H1 6949   2.138   1.472   1.759 -0.7806  0.6131 -1.4448
  463MPD2    H2 6950   1.917   1.113   1.699  3.5653 -0.2820  2.1273
  463MPD2    H3 6951   2.121   1.223   1.731  0.5242  1.1716 -0.0036
  463MPD2     N 6952   1.954   1.643   1.753 -0.7948 -0.0954 -0.0708
  463MPD2    H5 6953   2.050   1.675   1.753 -0.4258 -1.1960  2.1901
  463MPD2    N1 6954   1.676   1.252   1.656 -0.6780 -0.0050 -0.3736
  463MPD2    H7 6955   1.602   1.321   1.658 -1.3822 -0.8217  1.7302
  464TMC3    C1 6956   1.497   1.097   1.602 -0.6804 -0.4517  0.0285
  464TMC3    C2 6957   1.400   1.188   1.635 -0.2169  0.3069  0.5886
  464TMC3    C3 6958   1.294   1.205   1.557 -0.2691 -0.3793 -0.2163
  464TMC3    C4 6959   1.489   1.025   1.488  0.4152 -0.1346  0.4070
  464TMC3    C5 6960   1.377   1.045   1.411 -0.2541  0.1876  0.5167
  464TMC3    C6 6961   1.275   1.129   1.445  0.0079  1.0878  0.2994
  464TMC3     C 6962   1.636   1.113   1.644  0.5135 -0.0211 -0.2148
  464TMC3     O 6963   1.714   1.017   1.636  0.4410 -0.0560  0.2865
  464TMC3     H 6964   1.406   1.232   1.734 -0.9739 -0.6817  1.0646
  464TMC3    H1 6965   1.570   0.960   1.458 -0.0763 -0.9399  0.8377
  464TMC3    H2 6966   1.175   1.109   1.407  0.5579 -0.1426 -0.4847
  464TMC3    C7 6967   1.366   0.970   1.293 -0.4686  0.1623 -0.0393
  464TMC3    C8 6968   1.199   1.310   1.567 -0.0691 -0.3986 -0.3902
  464TMC3    O1 6969   1.451   0.883   1.274 -0.2927 -0.8090 -0.2918
  464TMC3    O2 6970   1.129   1.323   1.468  0.2458 -0.5408 -0.2710
  465MPD2     C 6971   2.878   0.479  16.912 -0.3156  0.1024  0.3302
  465MPD2    C1 6972   2.755   0.416  16.918 -0.9063  0.7080 -0.2627
  465MPD2    C2 6973   2.668   0.432  16.811 -0.0165 -0.4036 -0.1815
  465MPD2    C3 6974   2.705   0.496  16.692  0.1370 -0.9455  0.0496
  465MPD2    C4 6975   2.835   0.542  16.677 -0.1173  0.8215  0.4517
  465MPD2    C5 6976   2.922   0.540  16.791  0.0152  0.5449  0.8551
  465MPD2     H 6977   2.566   0.398  16.823  0.4666 -1.3523  1.2113
  465MPD2    H1 6978   2.877   0.582  16.585  1.8814 -0.2994  0.8724
  465MPD2    H2 6979   2.949   0.474  16.994 -1.4108  1.9722  1.3823
  465MPD2    H3 6980   3.021   0.580  16.774  0.1490 -0.4021 -0.6216
  465MPD2     N 6981   2.603   0.508  16.598  0.2566  0.4099  0.1014
  465MPD2    H5 6982   2.508   0.484  16.624  0.6327  1.0080  2.0347
  465MPD2    N1 6983   2.715   0.338  17.032 -0.1454 -0.1731 -0.1099
  465MPD2    H7 6984   2.618   0.308  17.026 -0.6052  1.1280  0.9136
  466TMC3    C1 6985   2.347   0.466  16.273 -0.3264 -0.2112 -0.0831
  466TMC3    C2 6986   2.307   0.591  16.226 -0.3260 -0.2316  0.1096
  466TMC3    C3 6987   2.361   0.708  16.269 -0.0114 -0.1530  0.0020
  466TMC3    C4 6988   2.448   0.466  16.363 -0.0694 -0.3314  0.3335
  466TMC3    C5 6989   2.493   0.584  16.414 -0.1839 -0.3154 -0.0562
  466TMC3    C6 6990   2.461   0.703  16.368  0.0064 -0.0781  0.4031
  466TMC3     C 6991   2.234   0.386  16.324 -0.0299 -0.3428 -0.4459
  466TMC3     O 6992   2.134   0.450  16.360  0.1592  0.1719  0.3641
  466TMC3     H 6993   2.231   0.600  16.150 -0.3543 -1.4398 -0.0032
  466TMC3    H1 6994   2.473   0.371  16.409  0.3163 -0.0022  0.8187
  466TMC3    H2 6995   2.519   0.789  16.398 -0.4841  0.0031  1.1251
  466TMC3    C7 6996   2.617   0.588  16.489 -0.5560 -0.0356 -0.7646
  466TMC3    C8 6997   2.335   0.842  16.220  0.6097 -0.6536  0.9714
  466TMC3    O1 6998   2.701   0.670  16.454 -0.3327 -0.4353  0.1890
  466TMC3    O2 6999   2.313   0.853  16.098  0.6558  0.1032  0.2616
  467TMC3    C1 7000   3.142   4.000  13.975  0.2831 -0.1680 -0.0402
  467TMC3    C2 7001   3.065   3.970  13.859 -0.7700  0.5150 -0.0388
  467TMC3    C3 7002   2.935   4.007  13.853 -0.3556 -0.4305  0.2123
  467TMC3    C4 7003   3.064   4.024  14.087  0.0089 -0.2281 -0.1057
  467TMC3    C5 7004   2.929   4.037  14.086 -0.1310  0.1833 -0.1624
  467TMC3    C6 7005   2.867   4.039  13.970  0.0166  0.1675 -0.0530
  467TMC3     C 7006   3.285   4.034  13.980 -0.1963  0.2956 -0.2683
  467TMC3     O 7007   3.324   4.100  14.075  0.0542 -0.0130 -0.2917
  467TMC3     H 7008   3.118   3.967  13.765 -0.1741  2.6565  0.2341
  467TMC3    H1 7009   3.115   4.054  14.178 -0.0966  1.2993 -0.5547
  467TMC3    H2 7010   2.760   4.060  13.971 -0.0313 -0.0722 -0.9052
  467TMC3    C7 7011   2.878   3.973  14.210 -0.3564 -0.0712  0.1063
  467TMC3    C8 7012   2.900   4.083  13.734  0.0905  0.1869  0.0816
  467TMC3    O1 7013   2.965   3.925  14.288 -0.3081  0.2928  0.2048
  467TMC3    O2 7014   2.878   4.199  13.762  0.0730  0.0913  0.7085
  468MPD2     C 7015   1.538   2.428  11.074  1.0699  0.1411 -0.0645
  468MPD2    C1 7016   1.670   2.423  11.112  0.5695  0.2659  0.7713
  468MPD2    C2 7017   1.744   2.309  11.083 -0.9315  0.1959  0.3540
  468MPD2    C3 7018   1.688   2.199  11.025 -0.8013  0.0171 -0.6118
  468MPD2    C4 7019   1.554   2.198  10.994  0.1590  0.0164  0.0928
  468MPD2    C5 7020   1.484   2.314  11.015  1.1939 -0.0954 -0.2399
  468MPD2     H 7021   1.849   2.317  11.110 -0.7504  3.0755 -1.2165
  468MPD2    H1 7022   1.494   2.111  10.972 -0.1489  0.4648 -0.8667
  468MPD2    H2 7023   1.482   2.519  11.092 -0.1899 -1.1684  2.5189
  468MPD2    H3 7024   1.376   2.303  11.007  0.8793  2.7147  0.3273
  468MPD2     N 7025   1.764   2.080  11.007 -0.3018  0.2621 -0.6800
  468MPD2    H5 7026   1.722   1.991  10.984 -1.3617  0.0656  2.0987
  468MPD2    N1 7027   1.738   2.537  11.168  0.0088  0.0232 -0.3134
  468MPD2    H7 7028   1.835   2.534  11.197  0.8454  0.5613 -3.0497
  469TMC3    C1 7029   1.781   2.750  11.252 -0.8054 -0.5964 -0.1192
  469TMC3    C2 7030   1.908   2.736  11.194  0.7914  0.5834 -0.0397
  469TMC3    C3 7031   2.019   2.768  11.271  0.3625 -0.7252 -0.7946
  469TMC3    C4 7032   1.766   2.777  11.388 -0.8189 -0.0509 -0.0640
  469TMC3    C5 7033   1.876   2.799  11.463  0.6849 -0.1483 -0.8156
  469TMC3    C6 7034   2.002   2.796  11.408  0.2574  0.1452  0.0765
  469TMC3     C 7035   1.677   2.654  11.209 -0.0604 -0.1498 -0.0648
  469TMC3     O 7036   1.559   2.688  11.220  0.3107  0.9065 -0.4216
  469TMC3     H 7037   1.923   2.700  11.093  3.5172  0.1535  0.5327
  469TMC3    H1 7038   1.671   2.773  11.441 -0.7574  2.4013  0.2350
  469TMC3    H2 7039   2.092   2.820  11.464  0.5814  0.3877 -0.5483
  469TMC3    C7 7040   1.871   2.757  11.605 -0.4706  0.1359  0.4862
  469TMC3    C8 7041   2.142   2.710  11.231  0.4172  0.6030 -0.6838
  469TMC3    O1 7042   1.974   2.695  11.639  0.5155  0.2840  0.0599
  469TMC3    O2 7043   2.166   2.707  11.111 -0.0674 -0.1437 -0.0120
  470TMC3    C1 7044   0.773   3.554   0.798  0.8563 -0.4963  0.7543
  470TMC3    C2 7045   0.687   3.666   0.817 -0.4061  1.5958  0.0558
  470TMC3    C3 7046   0.740   3.764   0.912 -0.0089  0.0812 -0.2804
  470TMC3    C4 7047   0.895   3.548   0.863 -0.2728 -0.3151  0.3814
  470TMC3    C5 7048   0.940   3.647   0.950 -0.4100 -0.2182 -0.1254
  470TMC3    C6 7049   0.858   3.759   0.973 -0.6120 -0.2745 -0.1756
  470TMC3     C 7050   0.716   3.430   0.728 -0.0743  0.0679  0.4635
  470TMC3     O 7051   0.643   3.453   0.633 -0.1858 -0.1722  0.2146
  470TMC3     H 7052   0.588   3.663   0.775  1.1619 -2.2000 -3.3806
  470TMC3    H1 7053   0.952   3.458   0.850 -0.2206 -0.3093  0.5734
  470TMC3    H2 7054   0.891   3.844   1.033 -2.1632  0.7799 -0.8111
  470TMC3    C7 7055   1.043   3.611   1.041 -0.0966  0.0006 -0.1202
  470TMC3    C8 7056   0.662   3.888   0.926  0.2039  0.0523 -0.3353
  470TMC3    O1 7057   1.137   3.550   0.997 -0.4813 -0.2433  0.5905
  470TMC3    O2 7058   0.675   3.957   1.029  0.0690  0.3757  0.3315
  471MPD2     C 7059   0.172   3.760  16.280  0.3952  0.4827 -0.0907
  471MPD2    C1 7060   0.083   3.719  16.376 -0.4222 -0.0677 -0.5506
  471MPD2    C2 7061   0.093   3.780  16.506  0.2713 -0.1979 -0.1388
  471MPD2    C3 7062   0.183   3.880  16.537  0.2784 -0.5485 -0.3140
  471MPD2    C4 7063   0.258   3.928  16.435 -0.3241  0.4718  0.1624
  471MPD2    C5 7064   0.260   3.867  16.312 -0.4880 -0.1653  0.3795
  471MPD2     H 7065   0.026   3.734  16.577 -0.7990  0.5332 -0.6752
  471MPD2    H1 7066   0.323   4.014  16.447  0.4740 -0.3849  1.9269
  471MPD2    H2 7067   0.176   3.717  16.181 -1.2127 -0.3125  0.1865
  471MPD2    H3 7068   0.325   3.903  16.233 -1.9046  1.3799 -0.0629
  471MPD2     N 7069   0.203   3.928  16.664 -0.2804  0.3028 -1.0687
  471MPD2    H5 7070   0.285   3.984  16.681  0.1561 -0.7406  0.1953
  471MPD2    N1 7071   4.720   3.623  16.352  0.3508  0.5567  0.0800
  471MPD2    H7 7072   4.663   3.593  16.430  0.0024 -1.4901 -0.9821
  472TMC3    C1 7073   4.606   3.460  16.251  0.3627 -0.1928 -0.0291
  472TMC3    C2 7074   4.507   3.432  16.163  0.0829  0.5608  0.7220
  472TMC3    C3 7075   4.419   3.330  16.200  0.2041  0.4858  0.0142
  472TMC3    C4 7076   4.626   3.390  16.366  0.3787 -0.0015  1.2144
  472TMC3    C5 7077   4.538   3.295  16.402  0.6733  0.1312 -0.1986
  472TMC3    C6 7078   4.435   3.260  16.317 -0.2674 -0.0538  0.1150
  472TMC3     C 7079   4.690   3.576  16.229 -0.2321 -0.2402  1.0097
  472TMC3     O 7080   4.721   3.613  16.117 -0.0379  0.4258 -0.6814
  472TMC3     H 7081   4.494   3.497  16.077 -2.0235  0.5054  1.0015
  472TMC3    H1 7082   4.707   3.409  16.435  0.4771 -0.0688  1.1182
  472TMC3    H2 7083   4.363   3.182  16.339  0.2425 -0.7205 -0.6394
  472TMC3    C7 7084   4.569   3.212  16.517  0.5927  0.2747  0.7479
  472TMC3    C8 7085   4.291   3.342  16.131 -0.6496 -0.1409  0.5809
  472TMC3    O1 7086   4.686   3.207  16.553  0.1099 -0.6800 -0.2038
  472TMC3    O2 7087   4.275   3.420  16.040  0.2539  0.7250  0.1799
  473MPD2     C 7088   4.318   1.707  13.769  0.0639 -0.2072  0.2529
  473MPD2    C1 7089   4.275   1.819  13.702  0.3334 -0.4444 -0.0711
  473MPD2    C2 7090   4.323   1.941  13.732 -0.0278 -0.0895  0.1918
  473MPD2    C3 7091   4.420   1.952  13.833  0.4308  0.3628  0.1835
  473MPD2    C4 7092   4.454   1.846  13.915 -0.1713 -0.0565 -0.4548
  473MPD2    C5 7093   4.403   1.724  13.878 -0.5060  0.1013 -0.1686
  473MPD2     H 7094   4.290   2.019  13.664  0.0352  1.1130  1.5496
  473MPD2    H1 7095   4.536   1.845  13.986  0.5810 -1.7104 -1.3489
  473MPD2    H2 7096   4.279   1.606  13.762 -1.1155  0.3029 -0.5975
  473MPD2    H3 7097   4.435   1.647  13.947  1.6747  1.9825  0.9367
  473MPD2     N 7098   4.489   2.071  13.860  0.4311 -0.0273  0.0795
  473MPD2    H5 7099   4.554   2.072  13.938 -0.6993  1.4965  0.9928
  473MPD2    N1 7100   4.201   1.807  13.587 -0.2603 -0.1740  0.1307
  473MPD2    H7 7101   4.179   1.893  13.538  0.6121  0.4072  0.7692
  474TMC3    C1 7102   4.552   2.306  13.834 -0.3658 -0.8225 -0.4965
  474TMC3    C2 7103   4.554   2.405  13.741  0.4923  0.2682  0.3064
  474TMC3    C3 7104   4.663   2.492  13.748  0.5260  0.0924 -0.6964
  474TMC3    C4 7105   4.629   2.299  13.938 -0.7203  0.1068 -0.0077
  474TMC3    C5 7106   4.726   2.390  13.946 -0.0914  0.4396 -0.0047
  474TMC3    C6 7107   0.017   2.484  13.846  0.1364 -0.0076 -0.2275
  474TMC3     C 7108   4.456   2.197  13.808 -0.0853 -0.1071  0.0141
  474TMC3     O 7109   4.370   2.222  13.723  0.3221 -0.1767 -0.0225
  474TMC3     H 7110   4.500   2.399  13.648 -0.1934  0.6465  0.6739
  474TMC3    H1 7111   4.622   2.219  14.011  0.0715  1.2448  1.3091
  474TMC3    H2 7112   0.111   2.536  13.850  1.1946 -1.9623  0.3765
  474TMC3    C7 7113   0.104   2.343  14.031  0.0120  0.1654  0.3837
  474TMC3    C8 7114   4.690   2.585  13.645  0.2892 -0.2148 -1.5723
  474TMC3    O1 7115   0.217   2.364  13.985  0.1836  0.4927  0.0346
  474TMC3    O2 7116   4.654   2.551  13.532  0.0340 -0.1984 -0.3102
  475MPD2     C 7117   2.946   4.670  10.369 -0.3085  0.4860  0.1790
  475MPD2    C1 7118   2.979   0.048  10.441 -0.6753  0.4118 -1.4480
  475MPD2    C2 7119   2.886   0.149  10.466  0.7594 -0.7545  0.3269
  475MPD2    C3 7120   2.763   0.131  10.414  0.2612  0.1993 -0.1705
  475MPD2    C4 7121   2.723   0.017  10.336  0.2490 -0.8360 -0.3904
  475MPD2    C5 7122   2.819   4.659  10.313 -0.7278  0.4074  0.3130
  475MPD2     H 7123   2.899   0.246  10.514 -0.3723 -0.0712 -0.7840
  475MPD2    H1 7124   2.620   0.013  10.303  0.1176 -2.3064  0.1965
  475MPD2    H2 7125   3.016   4.590  10.347 -0.2698  0.3444  0.8049
  475MPD2    H3 7126   2.780   4.584  10.245  1.1846 -0.4412  0.1421
  475MPD2     N 7127   2.677   0.229  10.455  0.6154 -0.4082 -0.4077
  475MPD2    H5 7128   2.723   0.306  10.503  0.2590 -0.2599 -0.3051
  475MPD2    N1 7129   3.108   0.077  10.492  0.0785 -0.9762  0.6381
  475MPD2    H7 7130   3.111   0.152  10.561 -1.1998 -1.5095  1.2795
  476TMC3    C1 7131   3.336   0.102  10.485 -0.3705  0.6945 -0.4739
  476TMC3    C2 7132   3.371   0.196  10.395  0.4250  0.3896  0.2777
  476TMC3    C3 7133   3.390   0.326  10.443 -0.1934 -0.1175  0.1677
  476TMC3    C4 7134   3.332   0.133  10.622  0.1558 -0.3073  0.1523
  476TMC3    C5 7135   3.349   0.259  10.671 -0.3800 -0.2917 -1.1621
  476TMC3    C6 7136   3.376   0.352  10.576 -0.2073 -0.0335 -0.4157
  476TMC3     C 7137   3.226   0.027  10.440 -0.2320  0.0029 -0.4065
  476TMC3     O 7138   3.237   4.696  10.344 -0.2634 -0.0147 -0.1877
  476TMC3     H 7139   3.375   0.172  10.289 -0.2702  1.2373  0.0577
  476TMC3    H1 7140   3.290   0.054  10.684 -2.0241 -0.0659 -1.0090
  476TMC3    H2 7141   3.406   0.451  10.609 -2.1871  0.0552  1.1506
  476TMC3    C7 7142   3.229   0.296  10.744 -0.0019 -0.2372 -0.1558
  476TMC3    C8 7143   3.330   0.425  10.362 -0.1631 -0.0000  0.0989
  476TMC3    O1 7144   3.143   0.211  10.741 -0.1109  0.3008  0.3079
  476TMC3    O2 7145   3.359   0.542  10.380  0.3736 -0.4449  0.1063
  477MPD2     C 7146   0.728   1.734  11.881 -0.6301 -0.0591 -0.0092
  477MPD2    C1 7147   0.610   1.678  11.931 -0.4288 -0.0802 -0.1715
  477MPD2    C2 7148   0.617   1.571  12.025 -0.3184 -0.4637 -0.4313
  477MPD2    C3 7149   0.736   1.529  12.078  0.2909  0.4882  0.4634
  477MPD2    C4 7150   0.851   1.589  12.034  0.2296 -0.2672  0.1926
  477MPD2    C5 7151   0.849   1.679  11.925  0.2853  0.5668 -0.4641
  477MPD2     H 7152   0.518   1.535  12.052 -1.1189  0.5121 -2.0599
  477MPD2    H1 7153   0.952   1.558  12.059  0.3126  1.5053  2.0301
  477MPD2    H2 7154   0.718   1.813  11.808 -1.7353  0.9650  1.2409
  477MPD2    H3 7155   0.950   1.711  11.902  0.7581 -1.2221 -0.9220
  477MPD2     N 7156   0.731   1.423  12.166 -0.1835 -0.3070 -0.1553
  477MPD2    H5 7157   0.641   1.377  12.174 -0.7039  0.4987 -1.2987
  477MPD2    N1 7158   0.491   1.728  11.879  0.4093 -0.1700  0.3091
  477MPD2    H7 7159   0.507   1.789  11.799  2.5774  0.8625  1.4992
  478TMC3    C1 7160   0.255   1.774  11.852 -0.6063 -0.4097 -0.4661
  478TMC3    C2 7161   0.146   1.825  11.916  0.3842  0.7263  0.0510
  478TMC3    C3 7162   0.048   1.890  11.852  0.3179 -0.1626 -0.0181
  478TMC3    C4 7163   0.273   1.789  11.716 -0.6405  0.2160  0.4733
  478TMC3    C5 7164   0.162   1.839  11.650 -0.2981  0.3835  0.0040
  478TMC3    C6 7165   0.051   1.899  11.714  0.4000  0.5879  0.0013
  478TMC3     C 7166   0.358   1.715  11.929 -0.0241 -0.2886 -0.4964
  478TMC3     O 7167   0.324   1.647  12.027  0.3593  0.5086  0.3073
  478TMC3     H 7168   0.150   1.820  12.024  1.0641  0.5318  0.0141
  478TMC3    H1 7169   0.362   1.743  11.674 -1.0594 -2.0652  2.0619
  478TMC3    H2 7170   4.706   1.934  11.653  0.2414 -1.4464 -0.9529
  478TMC3    C7 7171   0.184   1.837  11.506  0.0991 -0.9418  0.1669
  478TMC3    C8 7172   4.681   1.939  11.938 -0.5476  0.0635 -0.5619
  478TMC3    O1 7173   0.290   1.788  11.463 -0.1519  0.2848  0.7739
  478TMC3    O2 7174   4.672   1.886  12.051 -0.5297  0.1179 -0.0265
  479MPD2     C 7175   4.469   3.530  15.177 -0.0392 -0.2433  0.2368
  479MPD2    C1 7176   4.431   3.427  15.253  0.5576  0.4386  0.2911
  479MPD2    C2 7177   4.495   3.413  15.380  0.3380  0.5778 -0.4294
  479MPD2    C3 7178   4.577   3.517  15.430  0.2041  0.4107  0.4553
  479MPD2    C4 7179   4.606   3.624  15.348  0.0239 -0.1166 -0.3495
  479MPD2    C5 7180   4.568   3.620  15.218 -0.4094 -0.4519  1.1482
  479MPD2     H 7181   4.469   3.330  15.445 -1.4402  1.7203  0.2932
  479MPD2    H1 7182   4.679   3.701  15.371 -0.8342 -0.4018  3.2691
  479MPD2    H2 7183   4.414   3.534  15.084 -0.1915 -0.1438  0.3305
  479MPD2    H3 7184   4.605   3.694  15.148  1.8709 -0.5852  2.1983
  479MPD2     N 7185   4.638   3.513  15.559 -0.0785  0.6826  0.1402
  479MPD2    H5 7186   4.712   3.581  15.573  1.7785 -1.1991 -0.6014
  479MPD2    N1 7187   4.326   3.342  15.204 -0.5160  0.2247 -0.7297
  479MPD2    H7 7188   4.290   3.364  15.112 -2.6514  0.0845  0.0728
  480TMC3    C1 7189   4.297   3.271  15.767 -0.0086  0.4164  0.1064
  480TMC3    C2 7190   4.200   3.347  15.710  0.3525 -0.1860  0.0250
  480TMC3    C3 7191   4.237   3.466  15.651 -0.0084 -0.1698 -0.7905
  480TMC3    C4 7192   4.432   3.297  15.753 -0.5097 -0.1888  0.4910
  480TMC3    C5 7193   4.463   3.414  15.694  0.1066 -0.0151 -0.1850
  480TMC3    C6 7194   4.368   3.503  15.650  0.2868  0.0398  0.0378
  480TMC3     C 7195   4.279   3.166  15.868 -0.6679 -0.7824 -0.0599
  480TMC3     O 7196   4.374   3.134  15.937 -0.4110  0.2821 -0.0956
  480TMC3     H 7197   4.096   3.320  15.720  0.4170  1.1689  4.2179
  480TMC3    H1 7198   4.514   3.242  15.796 -1.6119 -2.0503  0.2062
  480TMC3    H2 7199   4.388   3.605  15.619  0.2052  0.5029  1.5224
  480TMC3    C7 7200   4.610   3.431  15.661 -0.6979  0.2926 -0.5237
  480TMC3    C8 7201   4.138   3.525  15.564  0.6578 -0.1884  0.4887
  480TMC3    O1 7202   4.682   3.404  15.754 -0.0824 -0.1381 -0.4762
  480TMC3    O2 7203   4.024   3.490  15.576  0.3317 -0.0542 -0.0868
  481MPD2     C 7204   1.341   3.339  14.414  0.1341 -0.0068 -0.7379
  481MPD2    C1 7205   1.214   3.287  14.398  0.5192 -0.0247 -0.0905
  481MPD2    C2 7206   1.183   3.186  14.490 -0.1860  0.4001  0.1112
  481MPD2    C3 7207   1.269   3.143  14.593  0.4549 -0.1584 -0.1875
  481MPD2    C4 7208   1.388   3.210  14.611 -0.1689 -0.3890 -0.0404
  481MPD2    C5 7209   1.424   3.298  14.517 -0.0051  0.1329  0.0449
  481MPD2     H 7210   1.079   3.155  14.497  0.2062 -0.5494  1.7456
  481MPD2    H1 7211   1.463   3.189  14.687  0.4874  2.3513  0.0715
  481MPD2    H2 7212   1.370   3.415  14.341 -2.8568  3.7456  1.9884
  481MPD2    H3 7213   1.525   3.339  14.522  0.0671 -0.1929  1.3950
  481MPD2     N 7214   1.236   3.042  14.688 -0.1757  0.6289  0.0456
  481MPD2    H5 7215   1.302   3.032  14.765  0.9082  2.2054 -0.6828
  481MPD2    N1 7216   1.124   3.332  14.296 -0.7104  0.2492 -0.1833
  481MPD2    H7 7217   1.158   3.395  14.224  3.1250 -0.6601  0.8598
  482TMC3    C1 7218   0.929   3.347  14.157  0.3176  0.3710 -0.2470
  482TMC3    C2 7219   0.818   3.281  14.121  0.2165  0.2846  0.0834
  482TMC3    C3 7220   0.729   3.347  14.042  1.0683  0.1000 -0.0117
  482TMC3    C4 7221   0.937   3.484  14.143 -0.2216  0.5221  1.1794
  482TMC3    C5 7222   0.845   3.547  14.065 -0.2919  0.0126  0.1989
  482TMC3    C6 7223   0.744   3.482  14.010  0.2841  0.7133  0.5655
  482TMC3     C 7224   0.995   3.287  14.275  0.3138  0.4745 -0.2050
  482TMC3     O 7225   0.940   3.189  14.324 -0.0914 -0.2985  0.5026
  482TMC3     H 7226   0.814   3.174  14.139  0.1954  0.5543  1.7644
  482TMC3    H1 7227   1.008   3.545  14.198  2.0775 -0.6017 -0.5552
  482TMC3    H2 7228   0.661   3.542  13.974  0.1990  1.9668  2.8720
  482TMC3    C7 7229   0.898   3.664  13.992  0.1097  0.0517 -0.8686
  482TMC3    C8 7230   0.654   3.261  13.952 -0.3496  0.1535  0.1300
  482TMC3    O1 7231   0.922   3.757  14.065  0.3389 -0.2130 -0.1023
  482TMC3    O2 7232   0.632   3.145  13.980 -0.3731  0.3164  0.4175
  483TMC3    C1 7233   3.801   2.258   0.284 -0.0826  0.2744  0.0323
  483TMC3    C2 7234   3.921   2.323   0.288 -1.2319  0.6069  0.0810
  483TMC3    C3 7235   4.003   2.290   0.394  0.6482  0.6331  0.8220
  483TMC3    C4 7236   3.771   2.163   0.378 -0.1161  0.3465  0.0470
  483TMC3    C5 7237   3.868   2.116   0.463 -0.0347  0.9508 -0.6508
  483TMC3    C6 7238   3.990   2.181   0.475  0.0293  0.2330  0.5120
  483TMC3     C 7239   3.763   2.213   0.154 -0.6514  0.1370  0.5405
  483TMC3     O 7240   3.749   2.299   0.067 -0.4039  0.0384  0.0925
  483TMC3     H 7241   3.947   2.405   0.221 -2.2868 -0.2263 -1.3384
  483TMC3    H1 7242   3.672   2.122   0.370  0.8140 -2.2849  2.2950
  483TMC3    H2 7243   4.068   2.144   0.540 -1.6183  0.8431  2.8185
  483TMC3    C7 7244   3.888   1.965   0.450  0.2855 -0.0538 -0.6182
  483TMC3    C8 7245   4.131   2.352   0.405 -0.0064 -0.1990 -0.4545
  483TMC3    O1 7246   3.801   1.909   0.386 -0.5191 -0.7650  0.2612
  483TMC3    O2 7247   4.187   2.395   0.301 -0.3857 -0.4263  0.5339
  484MPD2     C 7248   1.979   4.562  12.845  0.3101 -0.4816  0.4534
  484MPD2    C1 7249   1.905   4.664  12.787  0.5609  0.3025  0.3942
  484MPD2    C2 7250   1.973   0.047  12.765  0.1651  0.1097 -0.6333
  484MPD2    C3 7251   2.107   0.063  12.791  0.1910  0.4862  0.8233
  484MPD2    C4 7252   2.176   4.704  12.857 -0.2524 -0.0061 -0.2379
  484MPD2    C5 7253   2.110   4.584  12.876  0.6588 -0.6204  0.8662
  484MPD2     H 7254   1.923   0.131  12.719 -0.7478  0.0377  0.2226
  484MPD2    H1 7255   2.280   4.712  12.887 -1.3946  0.7890  3.4496
  484MPD2    H2 7256   1.931   4.466  12.859  1.0350 -1.0490 -0.9411
  484MPD2    H3 7257   2.162   4.502  12.923  0.9863  0.8804  3.1228
  484MPD2     N 7258   2.187   0.184  12.776  0.1730 -0.1197 -0.0566
  484MPD2    H5 7259   2.282   0.196  12.811 -0.3265 -3.2788  2.3656
  484MPD2    N1 7260   1.765   4.650  12.770 -0.3752 -0.4290  0.2007
  484MPD2    H7 7261   1.721   4.568  12.811  1.5543 -0.6083  1.8675
  485TMC3    C1 7262   2.230   0.410  12.727  0.5525  0.2460  1.1470
  485TMC3    C2 7263   2.364   0.386  12.766 -0.4011 -0.6294 -0.4333
  485TMC3    C3 7264   2.468   0.470  12.720  0.2703  0.3513 -0.0537
  485TMC3    C4 7265   2.203   0.510  12.635  0.1248 -0.3688 -0.1886
  485TMC3    C5 7266   2.316   0.585  12.586 -0.3099  0.6359 -0.8390
  485TMC3    C6 7267   2.441   0.570  12.634 -0.5675  0.1376  0.0838
  485TMC3     C 7268   2.141   0.300  12.716  0.2961 -0.2817 -0.4557
  485TMC3     O 7269   2.042   0.317  12.644  0.0752  0.2857  0.4729
  485TMC3     H 7270   2.383   0.303  12.832  1.7846  0.4158  0.2598
  485TMC3    H1 7271   2.105   0.523  12.591 -0.0329  0.5090  0.4309
  485TMC3    H2 7272   2.521   0.635  12.601 -0.4321 -0.5612 -0.9757
  485TMC3    C7 7273   2.307   0.600  12.443 -0.3901 -0.4513  0.2023
  485TMC3    C8 7274   2.581   0.392  12.672 -0.5942 -0.3189 -0.1730
  485TMC3    O1 7275   2.204   0.632  12.390  0.1269  0.2552 -0.0232
  485TMC3    O2 7276   2.616   0.418  12.560  0.1262  0.4915  0.4794
  486MPD2     C 7277   3.438   3.513  12.617  0.6355  0.6288  0.1380
  486MPD2    C1 7278   3.429   3.572  12.738 -0.0338 -0.3805  0.0068
  486MPD2    C2 7279   3.433   3.713  12.738 -0.2287  0.1195 -0.2820
  486MPD2    C3 7280   3.442   3.786  12.624 -0.2104  0.6128  0.2346
  486MPD2    C4 7281   3.464   3.715  12.503  0.6503 -0.0867 -0.1595
  486MPD2    C5 7282   3.454   3.581  12.501 -0.0944  0.1548 -0.2343
  486MPD2     H 7283   3.447   3.765  12.832 -0.1977  1.0780 -0.8116
  486MPD2    H1 7284   3.476   3.763  12.407 -0.7403  2.0990  0.7387
  486MPD2    H2 7285   3.437   3.405  12.608 -0.5008  0.5028  1.7186
  486MPD2    H3 7286   3.479   3.523  12.413 -2.3321 -2.0921  0.6290
  486MPD2     N 7287   3.437   3.927  12.635 -0.0668 -0.4694 -0.3758
  486MPD2    H5 7288   3.414   3.955  12.730 -1.6546 -0.1561 -0.8633
  486MPD2    N1 7289   3.429   3.490  12.851 -0.0666 -0.0907  0.0049
  486MPD2    H7 7290   3.431   3.390  12.837  0.9049  0.3298 -2.8953
  487TMC3    C1 7291   3.407   3.429  13.079  0.0383  1.6417  0.2651
  487TMC3    C2 7292   3.376   3.301  13.041 -1.4866  0.0069  0.6307
  487TMC3    C3 7293   3.419   3.196  13.112 -0.5273  0.8641 -0.4757
  487TMC3    C4 7294   3.474   3.452  13.197  0.5141  0.3251 -0.6371
  487TMC3    C5 7295   3.523   3.345  13.267  0.1071 -0.1076  0.6083
  487TMC3    C6 7296   3.499   3.216  13.220  0.5182  0.5227  0.2451
  487TMC3     C 7297   3.425   3.532  12.984  0.4813 -0.2277  0.6130
  487TMC3     O 7298   3.427   3.645  13.025  0.0040 -0.9034  0.1351
  487TMC3     H 7299   3.316   3.288  12.952  0.1207 -0.1711 -0.4264
  487TMC3    H1 7300   3.493   3.555  13.226  2.1438  0.4659 -2.1680
  487TMC3    H2 7301   3.519   3.122  13.270  1.4417 -0.1936 -1.4524
  487TMC3    C7 7302   3.525   3.361  13.408 -0.7691 -0.5033 -0.3788
  487TMC3    C8 7303   3.303   3.117  13.166 -0.0353  0.1999  0.2537
  487TMC3    O1 7304   3.569   3.466  13.460  0.2161 -0.1928 -0.1283
  487TMC3    O2 7305   3.298   3.089  13.280  0.3233 -0.3920  0.1450
  488MPD2     C 7306   4.041   0.560  16.384  0.3685 -0.0553 -0.3999
  488MPD2    C1 7307   4.062   0.682  16.436  0.2316  0.7568 -0.3111
  488MPD2    C2 7308   4.044   0.690  16.572  0.0406  0.4074  0.0807
  488MPD2    C3 7309   3.995   0.587  16.654  0.1721  0.2067  0.1523
  488MPD2    C4 7310   3.971   0.465  16.596 -0.7157  0.2011 -0.0633
  488MPD2    C5 7311   3.993   0.455  16.459 -0.0614  0.8241  0.0108
  488MPD2     H 7312   4.073   0.782  16.622  1.0579  0.2488 -0.2107
  488MPD2    H1 7313   3.932   0.385  16.658  0.7518  0.8621  1.6939
  488MPD2    H2 7314   4.047   0.544  16.277  0.6067 -3.9477  0.2124
  488MPD2    H3 7315   3.971   0.364  16.404 -0.3492  2.2763 -2.2853
  488MPD2     N 7316   3.975   0.608  16.790 -0.2362  0.4219 -0.6208
  488MPD2    H5 7317   3.984   0.703  16.825  0.2614 -0.0830  0.6138
  488MPD2    N1 7318   4.107   0.795  16.358 -0.3542 -0.3863 -0.0381
  488MPD2    H7 7319   4.117   0.884  16.405  1.7804 -0.0700 -1.0782
  489TMC3    C1 7320   3.927   0.569  17.013  0.4000  0.2486 -0.1770
  489TMC3    C2 7321   3.860   0.688  16.990 -0.3284  0.0142 -0.3280
  489TMC3    C3 7322   3.883   0.790  17.077 -0.4931 -0.0379  0.4751
  489TMC3    C4 7323   4.014   0.542  17.119  0.8369 -0.1201  0.1739
  489TMC3    C5 7324   4.028   0.651  17.208 -1.1262 -0.2344 -0.0527
  489TMC3    C6 7325   3.975   0.772  17.184 -0.3078  1.1059 -0.4993
  489TMC3     C 7326   3.970   0.511  16.888 -0.2652 -0.3141  0.3794
  489TMC3     O 7327   3.997   0.392  16.897 -0.0112  0.6420  0.1269
  489TMC3     H 7328   3.795   0.696  16.904 -1.6512 -4.2325  0.2845
  489TMC3    H1 7329   4.094   0.470  17.105  0.2692 -1.2156  2.4698
  489TMC3    H2 7330   4.005   0.861  17.237 -1.0620  0.5481  0.8529
  489TMC3    C7 7331   4.131   0.648  17.309 -0.0180 -0.4481 -0.0607
  489TMC3    C8 7332   3.882   0.917  17.007 -0.1516 -0.1810 -0.4757
  489TMC3    O1 7333   4.153   0.756  17.365 -0.3338  0.2888 -0.1906
  489TMC3    O2 7334   3.891   0.912  16.885  0.0077  0.1061  0.4478
  490MPD2     C 7335   0.029   0.078  17.637 -0.3241  0.9223 -0.5054
  490MPD2    C1 7336   0.113   4.715  17.643  0.1833  0.2569 -1.0528
  490MPD2    C2 7337   0.251   4.726  17.649  0.8272  0.1514  0.2735
  490MPD2    C3 7338   0.306   0.113  17.632 -0.3367  0.0054  0.0485
  490MPD2    C4 7339   0.222   0.223  17.629  0.0713 -0.7840 -0.6066
  490MPD2    C5 7340   0.082   0.204  17.627  0.4439  0.0661  1.1504
  490MPD2     H 7341   0.304   4.632  17.653 -1.1099 -0.9621  0.0616
  490MPD2    H1 7342   0.263   0.322  17.649 -2.9977  0.1235  1.2123
  490MPD2    H2 7343   4.659   0.073  17.640 -0.4391  2.2109 -2.5442
  490MPD2    H3 7344   0.015   0.289  17.628  1.4631  0.8764  0.8113
  490MPD2     N 7345   0.441   0.141  17.620 -0.7459 -0.1699  0.0089
  490MPD2    H5 7346   0.472   0.237  17.631 -0.9671 -0.3147  1.8637
  490MPD2    N1 7347   0.066   4.582  17.658  0.5453 -0.1012  0.4764
  490MPD2    H7 7348   0.137   4.517  17.689  0.9880  0.6598  1.0696
  491TMC3    C1 7349   4.671   4.399  17.682  0.6573  0.1548  0.3810
  491TMC3    C2 7350   0.029   4.353   0.019  0.6608  0.1318 -0.0971
  491TMC3    C3 7351   0.117   4.255  17.728  0.6394  0.1303  0.4257
  491TMC3    C4 7352   4.650   4.336  17.566  0.0440  0.2311 -0.2250
  491TMC3    C5 7353   0.002   4.239  17.538 -0.0165 -0.0681  0.1317
  491TMC3    C6 7354   0.104   4.198  17.610 -0.4386 -0.5479 -0.3639
  491TMC3     C 7355   4.669   4.539  17.662  0.4166 -1.4348 -0.1027
  491TMC3     O 7356   4.572   4.593  17.609  0.1419 -0.7319  0.4732
  491TMC3     H 7357   0.047   4.399   0.115  1.0694 -0.5095  0.1355
  491TMC3    H1 7358   4.581   4.373  17.492 -1.9474 -1.9703  0.5407
  491TMC3    H2 7359   0.174   4.121  17.579 -0.5230 -1.3977  1.5561
  491TMC3    C7 7360   4.682   4.132  17.455 -0.2182 -0.2095  0.7838
  491TMC3    C8 7361   0.250   4.296   0.005 -0.7522 -0.5532 -0.1123
  491TMC3    O1 7362   4.634   4.166  17.347  0.3384 -0.3970 -0.1215
  491TMC3    O2 7363   0.259   4.413   0.044  0.4536  0.1527 -0.1633
  492MPD2     C 7364   4.080   0.142  10.882  0.3875 -0.2018  0.1067
  492MPD2    C1 7365   4.186   0.196  10.940  0.7500  0.1474 -0.1636
  492MPD2    C2 7366   4.193   0.200  11.076  0.2960 -0.4145  0.2554
  492MPD2    C3 7367   4.082   0.156  11.152  0.5190  0.0859 -0.2755
  492MPD2    C4 7368   3.970   0.116  11.096  0.3518 -0.0322 -0.2179
  492MPD2    C5 7369   3.971   0.102  10.959 -0.4225  0.3339  0.2658
  492MPD2     H 7370   4.279   0.240  11.128  0.3640 -0.3685  0.1071
  492MPD2    H1 7371   3.882   0.085  11.151 -0.4966  1.9816 -0.4537
  492MPD2    H2 7372   4.092   0.115  10.778 -0.2154  0.7008 -0.2030
  492MPD2    H3 7373   3.882   0.068  10.908  1.0226 -0.6531 -1.6122
  492MPD2     N 7374   4.078   0.148  11.293  0.4320  0.2345  0.0835
  492MPD2    H5 7375   3.988   0.130  11.337 -1.0021  0.4791 -2.7033
  492MPD2    N1 7376   4.305   0.217  10.873 -0.3466  0.2072  0.0255
  492MPD2    H7 7377   4.310   0.184  10.778  0.2572  0.6668 -0.1049
  493TMC3    C1 7378   4.523   0.295  10.823  0.4026  0.0991 -0.5439
  493TMC3    C2 7379   4.604   0.405  10.831 -0.3556  0.0117 -0.2622
  493TMC3    C3 7380   4.696   0.438  10.734  0.3893 -0.2607  0.6805
  493TMC3    C4 7381   4.529   0.203  10.716  0.2641  0.2376  0.3335
  493TMC3    C5 7382   4.629   0.243  10.620  0.5132 -0.3097 -0.2737
  493TMC3    C6 7383   4.710   0.353  10.623 -0.2035  0.1071 -0.2584
  493TMC3     C 7384   4.411   0.289  10.920 -0.8831 -0.2267  1.0426
  493TMC3     O 7385   4.416   0.365  11.013  0.1879 -0.1790 -0.5275
  493TMC3     H 7386   4.597   0.467  10.920  0.7756 -0.4353  0.1364
  493TMC3    H1 7387   4.471   0.112  10.703  0.7532  0.0723 -0.6921
  493TMC3    H2 7388   0.047   0.371  10.547 -1.2435  1.8767 -0.8774
  493TMC3    C7 7389   4.597   0.187  10.489  0.6620  0.5390 -0.0685
  493TMC3    C8 7390   0.072   0.521  10.758 -0.0705 -0.7234  0.2050
  493TMC3    O1 7391   4.546   0.078  10.496 -0.5261  0.2354 -0.2356
  493TMC3    O2 7392   0.139   0.556  10.663  0.1062 -0.2239 -0.3309
  494TMC3    C1 7393   0.997   1.511   0.655  0.7001 -0.5705  0.1381
  494TMC3    C2 7394   1.075   1.408   0.690 -0.5530  0.0910 -0.1674
  494TMC3    C3 7395   1.177   1.372   0.614  0.8578  0.1373  0.0389
  494TMC3    C4 7396   1.021   1.585   0.548  0.6841 -0.5630 -0.3583
  494TMC3    C5 7397   1.137   1.549   0.471 -0.3743  0.6542  0.2627
  494TMC3    C6 7398   1.212   1.439   0.504  0.1526 -0.1482 -0.7208
  494TMC3     C 7399   0.884   1.547   0.742 -0.4178  0.5667  0.3187
  494TMC3     O 7400   0.871   1.475   0.839 -0.1715  0.5754  0.5294
  494TMC3     H 7401   1.066   1.347   0.779  0.1594  1.2710  0.7095
  494TMC3    H1 7402   0.963   1.674   0.527  1.0926 -0.4071 -0.8153
  494TMC3    H2 7403   1.304   1.415   0.451 -1.0060 -1.6059 -2.1048
  494TMC3    C7 7404   1.191   1.624   0.355 -0.0477  0.8189 -0.7119
  494TMC3    C8 7405   1.243   1.248   0.643  0.5590  0.2626  0.0482
  494TMC3    O1 7406   1.262   1.564   0.275  0.2944 -0.3093  0.0581
  494TMC3    O2 7407   1.346   1.243   0.710  0.0605  0.5554 -0.3106
  495TMC3    C1 7408   4.629   3.941  14.867  0.2547  0.2956 -0.3573
  495TMC3    C2 7409   4.563   3.961  14.752  0.6744 -0.3657  0.5655
  495TMC3    C3 7410   4.434   4.011  14.757  0.1024 -0.4877 -0.2975
  495TMC3    C4 7411   4.563   3.956  14.987 -0.2906  0.5005 -0.0427
  495TMC3    C5 7412   4.430   3.997  14.993 -0.0735  0.8808  0.3386
  495TMC3    C6 7413   4.364   4.016  14.873 -0.2567  0.3450  0.3781
  495TMC3     C 7414   4.725   3.834  14.862 -0.5714 -0.3006  0.0844
  495TMC3     O 7415   4.698   3.728  14.918 -0.0150  0.3013 -1.0445
  495TMC3     H 7416   4.623   3.965  14.662  1.7891  0.9747  1.3777
  495TMC3    H1 7417   4.610   3.924  15.079 -1.7831  0.7387  0.8116
  495TMC3    H2 7418   4.258   4.040  14.876 -0.2245  0.4615  0.5484
  495TMC3    C7 7419   4.357   3.951  15.108  0.2790 -0.7516 -0.2618
  495TMC3    C8 7420   4.348   3.995  14.642 -0.5815 -0.3223  0.3575
  495TMC3    O1 7421   4.417   3.951  15.216 -0.2048  0.4484  0.1989
  495TMC3    O2 7422   4.230   4.030  14.649  0.6283  0.8481  0.2994
  496MPD2     C 7423   1.508   4.369  15.331  0.5305 -0.7154 -0.3098
  496MPD2    C1 7424   1.562   4.307  15.441  0.4280 -0.0134  0.1759
  496MPD2    C2 7425   1.516   4.184  15.488 -0.3485  0.2694 -0.9803
  496MPD2    C3 7426   1.402   4.123  15.437 -0.8441 -0.5760  0.7616
  496MPD2    C4 7427   1.331   4.193  15.339 -0.6059  0.4393 -0.0101
  496MPD2    C5 7428   1.386   4.311  15.292 -0.0566  0.7905  0.5106
  496MPD2     H 7429   1.590   4.133  15.549 -0.5349  2.2745  0.9187
  496MPD2    H1 7430   1.241   4.148  15.299 -0.9410  0.5171  0.6634
  496MPD2    H2 7431   1.543   4.463  15.290 -0.0873  0.6320  2.2137
  496MPD2    H3 7432   1.333   4.356  15.208 -0.6222  1.1284  1.0486
  496MPD2     N 7433   1.355   3.997  15.474  0.4764  0.4372  0.4332
  496MPD2    H5 7434   1.279   3.957  15.420 -1.2888  3.3915  0.7089
  496MPD2    N1 7435   1.681   4.365  15.494  0.4042 -0.9937  0.3375
  496MPD2    H7 7436   1.704   4.449  15.443 -0.3364 -1.6447 -1.0470
  497TMC3    C1 7437   1.312   3.800  15.602  0.2175  0.0177  0.7009
  497TMC3    C2 7438   1.191   3.784  15.541  0.0572 -0.1315  0.1122
  497TMC3    C3 7439   1.107   3.680  15.575 -0.2765 -0.5223  0.0050
  497TMC3    C4 7440   1.346   3.703  15.696  0.0799 -0.7806  0.2168
  497TMC3    C5 7441   1.262   3.595  15.722  0.6398  0.2093  0.2586
  497TMC3    C6 7442   1.143   3.580  15.660  0.4230  0.3987  0.9783
  497TMC3     C 7443   1.384   3.925  15.591 -0.7557  0.4365  0.1298
  497TMC3     O 7444   1.475   3.945  15.666  0.2577  0.2111  0.1624
  497TMC3     H 7445   1.149   3.868  15.487 -0.0174  0.9590  1.8688
  497TMC3    H1 7446   1.442   3.711  15.746  0.3232  3.3800 -0.8675
  497TMC3    H2 7447   1.076   3.500  15.689  0.3768  0.1178  0.1002
  497TMC3    C7 7448   1.291   3.494  15.820 -0.5437  0.4925 -0.1485
  497TMC3    C8 7449   0.966   3.700  15.536  0.6378 -0.0224  0.3932
  497TMC3    O1 7450   1.220   3.392  15.809 -0.0765 -0.4692  0.1704
  497TMC3    O2 7451   0.915   3.810  15.528  0.0672  0.3544  0.3329
  498MPD2     C 7452   1.904   0.160   9.538 -0.1146 -0.6348  0.0645
  498MPD2    C1 7453   1.794   0.223   9.591 -0.0992  0.4437 -0.0848
  498MPD2    C2 7454   1.715   0.146   9.671  0.1645  0.7986 -0.4325
  498MPD2    C3 7455   1.728   0.006   9.681  0.4755 -0.6085 -0.2755
  498MPD2    C4 7456   1.835   4.678   9.624 -0.0988 -0.2774  0.3179
  498MPD2    C5 7457   1.923   0.023   9.555 -0.0032 -0.5258  0.1398
  498MPD2     H 7458   1.628   0.182   9.724 -0.3945  0.2636 -0.9891
  498MPD2    H1 7459   1.871   4.577   9.641 -0.4598 -0.4405  0.1158
  498MPD2    H2 7460   1.978   0.218   9.484  1.3141  0.3172  3.0091
  498MPD2    H3 7461   2.008   4.712   9.507 -0.1605 -1.7831  1.1293
  498MPD2     N 7462   1.636   4.674   9.766 -0.1007  0.2665 -0.8543
  498MPD2    H5 7463   1.577   4.726   9.829 -0.8028  0.6772 -1.8446
  498MPD2    N1 7464   1.770   0.360   9.576  0.3106  0.9051 -0.3233
  498MPD2    H7 7465   1.699   0.398   9.639  0.9886  2.4339 -0.4860
  499TMC3    C1 7466   1.793   0.589   9.527  0.7245  0.6413 -0.0690
  499TMC3    C2 7467   1.657   0.599   9.511 -0.1838  0.3440  0.2363
  499TMC3    C3 7468   1.604   0.710   9.457 -0.9036  0.5459 -0.7304
  499TMC3    C4 7469   1.871   0.693   9.485 -0.3148 -0.3982  0.2917
  499TMC3    C5 7470   1.814   0.801   9.424 -0.1764  0.3149  0.2691
  499TMC3    C6 7471   1.679   0.815   9.423 -0.3624  0.1637 -0.0471
  499TMC3     C 7472   1.851   0.458   9.520 -0.2902 -0.4108 -0.1559
  499TMC3     O 7473   1.956   0.460   9.455 -0.2726  0.0518  0.0415
  499TMC3     H 7474   1.592   0.514   9.527 -1.7728  0.9876 -2.7630
  499TMC3    H1 7475   1.978   0.687   9.500  0.0651  1.2079 -1.8666
  499TMC3    H2 7476   1.646   0.909   9.379  0.2373 -0.2142 -1.2964
  499TMC3    C7 7477   1.904   0.918   9.393 -0.0724  0.0660  0.4479
  499TMC3    C8 7478   1.461   0.696   9.421  0.0850  0.5236  0.1317
  499TMC3    O1 7479   2.016   0.896   9.441 -0.5569 -0.1912  0.5359
  499TMC3    O2 7480   1.392   0.615   9.481  0.8341  0.0536 -0.3733
  500MPD2     C 7481   3.591   1.648  10.590  0.3984 -0.1782  0.5494
  500MPD2    C1 7482   3.633   1.671  10.467  0.9748  0.1170 -0.4174
  500MPD2    C2 7483   3.558   1.745  10.381 -0.2040 -0.1298  0.1859
  500MPD2    C3 7484   3.433   1.789  10.422  0.0021  0.4315 -0.1890
  500MPD2    C4 7485   3.389   1.765  10.551 -0.3064 -0.4603 -0.1780
  500MPD2    C5 7486   3.470   1.696  10.634 -0.1154  0.1065  0.1248
  500MPD2     H 7487   3.587   1.758  10.277 -0.6224  3.3772  0.4918
  500MPD2    H1 7488   3.292   1.786  10.594 -1.6977 -1.4883 -2.8133
  500MPD2    H2 7489   3.652   1.597  10.663 -1.5709 -1.4497  1.2964
  500MPD2    H3 7490   3.449   1.668  10.737 -0.6597  2.4412  0.6535
  500MPD2     N 7491   3.346   1.856  10.328 -0.3992  0.5806 -0.1201
  500MPD2    H5 7492   3.258   1.878  10.373  0.1499 -0.4894  1.4974
  500MPD2    N1 7493   3.753   1.613  10.435 -0.7088 -0.3577  0.0059
  500MPD2    H7 7494   3.803   1.572  10.513  1.7890  2.8496  0.1120
  501TMC3    C1 7495   3.949   1.547  10.335  0.1984 -0.4145  0.6026
  501TMC3    C2 7496   4.052   1.618  10.284  0.4495 -0.6305  0.2196
  501TMC3    C3 7497   4.172   1.592  10.343  0.2330  0.5679 -0.0925
  501TMC3    C4 7498   3.949   1.461  10.443 -0.2301  1.0450  0.0295
  501TMC3    C5 7499   4.075   1.431  10.495  0.7545 -0.2870 -0.5416
  501TMC3    C6 7500   4.182   1.505  10.451 -0.3250  0.2293 -0.8582
  501TMC3     C 7501   3.826   1.614  10.311  0.2910 -0.2351 -0.4370
  501TMC3     O 7502   3.807   1.688  10.213 -0.2688  0.1942  0.0262
  501TMC3     H 7503   4.035   1.700  10.215  1.4688  0.5512  1.3912
  501TMC3    H1 7504   3.860   1.408  10.475  0.0025  1.1607  0.8815
  501TMC3    H2 7505   4.279   1.480  10.494  0.3304 -0.7346 -2.9148
  501TMC3    C7 7506   4.086   1.387  10.627  0.5578 -0.4220  0.6329
  501TMC3    C8 7507   4.259   1.708  10.361  0.0399 -0.9782 -0.4952
  501TMC3    O1 7508   4.192   1.409  10.688  0.1796 -0.0327 -0.1987
  501TMC3    O2 7509   4.329   1.701  10.461 -0.4823 -0.2010 -0.0704
  502TMC3    C1 7510   4.231   4.721  15.097 -0.4585 -0.1532  0.5812
  502TMC3    C2 7511   4.234   0.108  15.035  0.4409  0.6415 -0.0565
  502TMC3    C3 7512   4.133   0.123  14.944 -0.0114 -0.5677  0.2218
  502TMC3    C4 7513   4.146   4.617  15.071 -0.3671  0.7971  0.1926
  502TMC3    C5 7514   4.046   4.645  14.983 -0.5967 -0.6161 -0.1466
  502TMC3    C6 7515   4.040   0.028  14.919 -0.0198  0.3246 -0.9249
  502TMC3     C 7516   4.331   4.716  15.204 -0.6469 -0.9685 -0.2152
  502TMC3     O 7517   4.436   0.041  15.185  0.0886 -0.5935  0.0310
  502TMC3     H 7518   4.313   0.179  15.056 -1.1400  3.0186 -2.1396
  502TMC3    H1 7519   4.148   4.518  15.114 -0.0926  1.2419  1.2102
  502TMC3    H2 7520   3.967   0.044  14.840  0.8040  0.0848 -1.7474
  502TMC3    C7 7521   3.930   4.555  14.971 -0.2654  0.6122  0.2539
  502TMC3    C8 7522   4.130   0.243  14.854 -0.0553  0.4373  0.2952
  502TMC3    O1 7523   3.952   4.436  14.983 -0.5528  0.2824 -0.0475
  502TMC3    O2 7524   4.185   0.344  14.897  0.2386  0.0330 -0.0371
  503MPD2     C 7525   1.562   0.683  16.833  0.1526  0.1764 -0.5575
  503MPD2    C1 7526   1.555   0.685  16.972 -0.2504  0.2650  0.2685
  503MPD2    C2 7527   1.572   0.566  17.045 -0.0454 -0.2995  0.0304
  503MPD2    C3 7528   1.608   0.451  16.981 -0.1716 -0.2150 -0.3465
  503MPD2    C4 7529   1.611   0.448  16.841  0.6182 -0.2801 -0.0211
  503MPD2    C5 7530   1.589   0.563  16.770  0.6399  0.6531  0.2596
  503MPD2     H 7531   1.575   0.575  17.153  0.0387 -1.5961  0.1421
  503MPD2    H1 7532   1.634   0.364  16.778 -0.9331  0.7236 -1.8989
  503MPD2    H2 7533   1.549   0.770  16.770 -1.1205  1.1914  1.1039
  503MPD2    H3 7534   1.587   0.555  16.662  1.6677  0.7248  0.2364
  503MPD2     N 7535   1.639   0.345  17.066  0.0944  0.2102 -0.0137
  503MPD2    H5 7536   1.636   0.354  17.167 -0.7104  3.3072 -0.3122
  503MPD2    N1 7537   1.539   0.806  17.045  0.0309 -0.0895 -0.4491
  503MPD2    H7 7538   1.521   0.796  17.144  0.0881 -0.1108 -0.4405
  504TMC3    C1 7539   1.750   0.147  17.144  0.3424 -0.4680  0.2243
  504TMC3    C2 7540   1.734   0.204  17.268 -0.6094  0.1150 -0.3734
  504TMC3    C3 7541   1.838   0.185  17.348  0.3779 -0.5757  0.1827
  504TMC3    C4 7542   1.861   0.090  17.110 -0.1001 -0.1939  0.3134
  504TMC3    C5 7543   1.959   0.065  17.199 -0.2694  0.0528 -0.3059
  504TMC3    C6 7544   1.956   0.124  17.318 -0.0561 -0.4570 -0.2111
  504TMC3     C 7545   1.684   0.219  17.033  0.0241 -0.0787 -0.3479
  504TMC3     O 7546   1.717   0.187  16.917  0.5097 -0.1289 -0.0687
  504TMC3     H 7547   1.649   0.264  17.300  0.5559  0.7014  1.6671
  504TMC3    H1 7548   1.872   0.040  17.014 -1.1145 -3.9889  2.1680
  504TMC3    H2 7549   2.043   0.121  17.384 -0.0122  0.5401 -0.2279
  504TMC3    C7 7550   2.088   0.012  17.146  0.1007  0.6689  0.4521
  504TMC3    C8 7551   1.834   0.257  17.471 -0.0362 -0.1786 -0.6842
  504TMC3    O1 7552   2.114   0.027  17.028  0.4927  0.3474  0.1802
  504TMC3    O2 7553   1.764   0.357  17.478 -0.3701 -0.0573 -0.6832
  505MPD2     C 7554   0.832   4.142  11.112  0.3591 -0.7575 -0.0999
  505MPD2    C1 7555   0.888   4.167  10.988 -0.4389 -0.6801  0.2765
  505MPD2    C2 7556   0.917   4.301  10.961  0.1802  0.1057 -0.5024
  505MPD2    C3 7557   0.882   4.406  11.046  0.4008 -0.1204 -0.0658
  505MPD2    C4 7558   0.820   4.375  11.164  0.4262  0.0362 -0.2873
  505MPD2    C5 7559   0.793   4.242  11.193 -0.4728 -0.1929 -0.3943
  505MPD2     H 7560   0.978   4.329  10.876  1.5306 -0.2940  0.3358
  505MPD2    H1 7561   0.772   4.446  11.230 -0.1870 -1.2732  0.6462
  505MPD2    H2 7562   0.812   4.041  11.143  2.6047 -0.5669  1.9415
  505MPD2    H3 7563   0.752   4.212  11.289  1.1714  0.8494  0.6351
  505MPD2     N 7564   0.884   4.539  11.020 -0.5829 -0.2318  0.2927
  505MPD2    H5 7565   0.859   4.607  11.091 -1.1694  0.1557 -0.2914
  505MPD2    N1 7566   0.915   4.054  10.907  0.0216 -0.3514 -0.4004
  505MPD2    H7 7567   0.903   3.961  10.947 -0.6101 -0.4288 -0.7715
  506TMC3    C1 7568   1.018   3.915  10.751  0.3814  0.1545  0.5302
  506TMC3    C2 7569   1.010   3.878  10.621  0.1132  0.0689 -0.4221
  506TMC3    C3 7570   1.106   3.800  10.565 -0.0509  0.8580  0.5247
  506TMC3    C4 7571   1.129   3.873  10.824  0.4694 -0.7066 -0.3885
  506TMC3    C5 7572   1.237   3.816  10.760 -0.3196 -0.7732 -0.0240
  506TMC3    C6 7573   1.233   3.776  10.632  0.1122  0.3784 -0.1277
  506TMC3     C 7574   0.961   4.049  10.777  0.0752  0.2943 -0.3723
  506TMC3     O 7575   0.976   4.140  10.699  0.0452  0.4325  0.0835
  506TMC3     H 7576   0.923   3.908  10.565  0.0251 -0.1661 -0.4129
  506TMC3    H1 7577   1.139   3.913  10.925  2.8196 -0.8990 -0.5470
  506TMC3    H2 7578   1.318   3.737  10.577 -1.9011 -1.2863 -2.0690
  506TMC3    C7 7579   1.363   3.883  10.784  0.6135  0.1702  0.0530
  506TMC3    C8 7580   1.124   3.792  10.424  0.0513 -0.4581  0.3973
  506TMC3    O1 7581   1.464   3.821  10.765  0.1442  0.7663  0.7218
  506TMC3    O2 7582   1.207   3.713  10.390 -0.7699 -0.3109 -0.5228
  507TMC3    C1 7583   2.301   0.174  14.856  0.6775  0.3679  0.8743
  507TMC3    C2 7584   2.197   0.090  14.825  0.0401 -0.0986 -0.3034
  507TMC3    C3 7585   2.139   0.105  14.702 -0.0362 -0.6030 -0.2128
  507TMC3    C4 7586   2.339   0.288  14.784  0.2708 -0.3009 -0.4790
  507TMC3    C5 7587   2.276   0.303  14.664 -1.2019 -0.3936 -0.4918
  507TMC3    C6 7588   2.185   0.208  14.628 -0.1802  0.1745 -0.1460
  507TMC3     C 7589   2.299   0.184  15.001 -0.6244 -0.0359 -0.2292
  507TMC3     O 7590   2.394   0.233  15.063 -0.4719 -0.2901 -0.5102
  507TMC3     H 7591   2.174   0.002  14.884  2.4859  0.0078  0.7767
  507TMC3    H1 7592   2.416   0.354  14.823  0.2684  0.4938 -1.8057
  507TMC3    H2 7593   2.174   0.200  14.521  0.7743  0.0387 -0.2339
  507TMC3    C7 7594   2.224   0.442  14.633 -1.1540  0.9279 -0.1879
  507TMC3    C8 7595   1.998   0.104  14.710  1.0600 -0.3371 -0.5204
  507TMC3    O1 7596   2.116   0.449  14.572 -0.5141 -0.0327 -0.0596
  507TMC3    O2 7597   1.945   0.056  14.809  0.4731 -0.2830 -0.1447
  508MPD2     C 7598   3.381   2.230  16.025  0.6001 -0.1006 -0.0409
  508MPD2    C1 7599   3.306   2.287  16.128 -0.8311  0.6923 -0.1143
  508MPD2    C2 7600   3.217   2.392  16.093 -0.8443  0.2140 -0.4471
  508MPD2    C3 7601   3.205   2.444  15.964  0.3069  1.0162  0.1346
  508MPD2    C4 7602   3.276   2.371  15.865  0.2951  0.0951  0.0792
  508MPD2    C5 7603   3.358   2.267  15.895  0.0302  0.0649 -0.4715
  508MPD2     H 7604   3.160   2.448  16.166 -0.0220  3.4768 -2.3229
  508MPD2    H1 7605   3.270   2.396  15.760  2.9512 -3.4963 -0.9391
  508MPD2    H2 7606   3.444   2.142  16.032  1.5373  0.8114  3.0711
  508MPD2    H3 7607   3.409   2.220  15.811  0.4459  0.4155 -0.4142
  508MPD2     N 7608   3.113   2.553  15.943  0.0262 -0.2466  0.3489
  508MPD2    H5 7609   3.064   2.592  16.023  0.7526 -0.3393  0.8427
  508MPD2    N1 7610   3.323   2.225  16.253 -0.3908  0.5683 -0.2324
  508MPD2    H7 7611   3.381   2.142  16.259 -0.4466  0.4936 -0.7184
  509TMC3    C1 7612   2.886   2.897  15.716 -0.2703  0.0743 -0.2405
  509TMC3    C2 7613   2.926   2.990  15.810  0.2463  0.6448 -0.8360
  509TMC3    C3 7614   3.006   2.945  15.911  0.5225 -0.4514  0.8014
  509TMC3    C4 7615   2.937   2.769  15.724 -0.1029  0.3284 -0.1640
  509TMC3    C5 7616   3.002   2.720  15.834 -0.2340 -0.8986  0.3070
  509TMC3    C6 7617   3.038   2.811  15.930 -0.3037 -0.6060 -0.4504
  509TMC3     C 7618   2.818   2.924  15.595  0.2293 -0.5893 -0.0937
  509TMC3     O 7619   2.763   2.832  15.544  0.0120 -0.3495 -0.1492
  509TMC3     H 7620   2.900   3.095  15.798 -1.3327  0.2166 -1.1099
  509TMC3    H1 7621   2.913   2.696  15.648  2.8656  1.4352 -2.1732
  509TMC3    H2 7622   3.086   2.783  16.023  0.8622 -2.5156 -1.6082
  509TMC3    C7 7623   3.091   2.602  15.817 -0.0688 -0.4426 -0.2792
  509TMC3    C8 7624   3.071   3.044  15.992  0.7225  0.0375  0.2838
  509TMC3    O1 7625   3.150   2.586  15.714 -0.0194  0.4340  0.0649
  509TMC3    O2 7626   3.065   3.024  16.117  0.2081 -0.1851 -0.4058
  510MPD2     C 7627   0.935   4.401  14.892  0.2944 -0.5766 -0.3976
  510MPD2    C1 7628   1.014   4.299  14.944  0.7233 -0.1946 -0.3113
  510MPD2    C2 7629   1.151   4.288  14.901  0.0368 -0.2945  0.6221
  510MPD2    C3 7630   1.212   4.384  14.817 -0.5619 -0.1225 -0.0350
  510MPD2    C4 7631   1.130   4.483  14.767 -0.6905  0.1136  0.2486
  510MPD2    C5 7632   0.999   4.489  14.809 -0.5031 -1.1769  0.0624
  510MPD2     H 7633   1.211   4.206  14.939  0.8722 -0.8099 -1.7924
  510MPD2    H1 7634   1.160   4.558  14.695 -0.9362  0.2338  0.2717
  510MPD2    H2 7635   0.830   4.416  14.912  0.3083  1.3326 -1.7295
  510MPD2    H3 7636   0.946   4.576  14.771  0.6098  0.0388  1.2632
  510MPD2     N 7637   1.350   4.377  14.783 -0.8733 -0.1772  0.3067
  510MPD2    H5 7638   1.407   4.304  14.824  0.6626  1.0216  0.3260
  510MPD2    N1 7639   0.945   4.208  15.027 -0.2384  0.1003 -0.5375
  510MPD2    H7 7640   0.843   4.204  15.026 -0.2078 -0.8663  0.2795
  511TMC3    C1 7641   0.921   4.031  15.176  0.3520 -0.3296 -0.8408
  511TMC3    C2 7642   0.806   4.089  15.227 -0.1076 -0.1546  0.3331
  511TMC3    C3 7643   0.692   4.015  15.257 -0.4172  0.4111  0.5229
  511TMC3    C4 7644   0.925   3.894  15.159 -0.4234 -0.6185  0.7935
  511TMC3    C5 7645   0.798   3.828  15.184  0.1692  0.2500 -0.6092
  511TMC3    C6 7646   0.686   3.882  15.236 -0.5266  0.7220 -0.0178
  511TMC3     C 7647   1.001   4.091  15.079  0.2162  0.3910  0.5042
  511TMC3     O 7648   1.109   4.037  15.062 -0.5796 -0.0298  0.0909
  511TMC3     H 7649   0.797   4.193  15.255 -1.3289 -0.1150 -0.2310
  511TMC3    H1 7650   0.999   3.838  15.103 -0.6130  0.0847 -0.1751
  511TMC3    H2 7651   0.596   3.821  15.233  0.3526 -0.6962  2.2699
  511TMC3    C7 7652   0.780   3.725  15.091 -0.3674  0.9250  0.4868
  511TMC3    C8 7653   0.608   4.061  15.372 -0.7538 -0.4199 -1.0008
  511TMC3    O1 7654   0.828   3.736  14.978  0.9148  0.5344  0.0755
  511TMC3    O2 7655   0.654   4.150  15.443 -0.0426 -0.1479  0.0118
  512TMC3    C1 7656   0.183   3.947  13.111 -0.5938 -0.5370 -0.2077
  512TMC3    C2 7657   0.258   3.890  13.209  0.4565 -0.6006  0.5392
  512TMC3    C3 7658   0.216   3.772  13.252 -0.3261 -0.3903 -0.6315
  512TMC3    C4 7659   0.055   3.894  13.085  0.3006 -0.4995 -0.7042
  512TMC3    C5 7660   0.022   3.773  13.132 -0.0636  0.2907 -0.6024
  512TMC3    C6 7661   0.108   3.699  13.214 -0.4724  0.3348  0.4267
  512TMC3     C 7662   0.224   4.067  13.034 -0.0833 -0.6448  0.2093
  512TMC3     O 7663   0.132   4.133  12.983  0.0529 -0.4260 -0.0200
  512TMC3     H 7664   0.356   3.922  13.243  0.3219  0.1821  0.1978
  512TMC3    H1 7665   4.725   3.938  13.012  1.1794 -0.2588 -1.3785
  512TMC3    H2 7666   0.078   3.601  13.249  1.5009 -0.2523  0.4700
  512TMC3    C7 7667   4.617   3.741  13.109 -0.8688  0.6647 -0.5339
  512TMC3    C8 7668   0.295   3.731  13.367 -0.7206 -0.1347 -0.5195
  512TMC3    O1 7669   4.535   3.825  13.077 -0.1536 -0.6755 -0.7698
  512TMC3    O2 7670   0.334   3.614  13.373 -0.6331 -0.2726 -0.4012
  513MPD2     C 7671   1.133   3.607  12.897  0.3996 -0.0573 -0.1426
  513MPD2    C1 7672   1.204   3.516  12.967 -0.4154  0.0957 -0.1267
  513MPD2    C2 7673   1.206   3.520  13.103  0.3494  0.1894 -0.1150
  513MPD2    C3 7674   1.162   3.626  13.175  0.1639  0.2019  0.0101
  513MPD2    C4 7675   1.099   3.730  13.104 -0.5674  0.3443 -0.1498
  513MPD2    C5 7676   1.078   3.713  12.965 -1.0094  0.6354  0.3222
  513MPD2     H 7677   1.252   3.441  13.162 -3.1101 -2.0297 -0.3371
  513MPD2    H1 7678   1.071   3.824  13.151 -2.1715  0.1589 -0.7321
  513MPD2    H2 7679   1.125   3.597  12.789 -2.2736 -0.8891  0.1227
  513MPD2    H3 7680   1.024   3.787  12.907 -2.0296 -1.8953 -1.9429
  513MPD2     N 7681   1.168   3.634  13.320  0.7635 -0.5651 -0.3673
  513MPD2    H5 7682   1.215   3.559  13.369  1.2660 -0.1387 -0.2004
  513MPD2    N1 7683   1.266   3.406  12.906  0.1451 -0.2227 -0.7455
  513MPD2    H7 7684   1.281   3.334  12.976  2.9296  0.3752 -0.7163
  514TMC3    C1 7685   1.411   3.295  12.766  0.2356  0.0130 -0.5992
  514TMC3    C2 7686   1.530   3.337  12.708  0.5743  0.3584 -0.2943
  514TMC3    C3 7687   1.644   3.331  12.782 -0.9376 -0.7098  0.2831
  514TMC3    C4 7688   1.418   3.226  12.885 -0.1599  0.3677  0.2412
  514TMC3    C5 7689   1.536   3.216  12.952  0.4692  0.1760  0.0322
  514TMC3    C6 7690   1.646   3.278  12.906 -1.0454 -0.5818 -0.3027
  514TMC3     C 7691   1.305   3.394  12.775 -0.0526  0.0200  1.1433
  514TMC3     O 7692   1.304   3.470  12.679  0.6670 -0.3482 -0.6418
  514TMC3     H 7693   1.526   3.397  12.617 -1.7722  0.2141 -0.2656
  514TMC3    H1 7694   1.326   3.183  12.923 -0.9747  0.2787 -1.8101
  514TMC3    H2 7695   1.746   3.260  12.945 -1.4978  1.9146  1.9378
  514TMC3    C7 7696   1.516   3.213  13.106 -0.0389 -0.4588 -0.1931
  514TMC3    C8 7697   1.770   3.342  12.715  0.0095 -0.2721  0.1053
  514TMC3    O1 7698   1.565   3.307  13.164  0.0401 -0.2230 -0.0791
  514TMC3    O2 7699   1.869   3.342  12.783 -0.1408 -0.5517  0.4892
  515MPD2     C 7700   0.113   0.904  14.845  0.8845  0.2145  0.5973
  515MPD2    C1 7701   0.147   0.772  14.851 -0.3703 -0.7876  0.7839
  515MPD2    C2 7702   0.256   0.739  14.937  0.1431  0.5097 -0.0059
  515MPD2    C3 7703   0.321   0.840  15.008 -0.4321 -0.0219 -0.0804
  515MPD2    C4 7704   0.279   0.970  15.002 -0.1519  0.3383  0.3775
  515MPD2    C5 7705   0.179   0.997  14.920 -0.0374  0.5264 -0.2176
  515MPD2     H 7706   0.297   0.641  14.959  0.4684  0.7407  0.3972
  515MPD2    H1 7707   0.329   1.045  15.061  1.6942 -1.4113  1.0336
  515MPD2    H2 7708   0.028   0.941  14.788  2.9469  1.5331 -1.6062
  515MPD2    H3 7709   0.153   1.101  14.906 -2.8642 -0.0201  1.1259
  515MPD2     N 7710   0.429   0.814  15.099  0.4388  0.4383 -0.6422
  515MPD2    H5 7711   0.442   0.891  15.165  3.7058 -1.0690  0.5076
  515MPD2    N1 7712   0.062   0.666  14.803 -0.4334 -0.2501  0.0574
  515MPD2    H7 7713   0.075   0.569  14.828 -1.2565 -0.7007 -1.2689
  516TMC3    C1 7714   4.620   0.562  14.689  0.1393  0.2159 -0.2854
  516TMC3    C2 7715   4.566   0.576  14.561 -0.1725 -0.4330  1.0112
  516TMC3    C3 7716   4.494   0.475  14.514 -0.0872  0.7095  0.0741
  516TMC3    C4 7717   4.591   0.447  14.761  0.2326  0.2838 -0.6766
  516TMC3    C5 7718   4.515   0.342  14.710 -0.8691 -0.5802 -0.8176
  516TMC3    C6 7719   4.468   0.357  14.581 -0.4680 -0.2558 -0.7293
  516TMC3     C 7720   4.676   0.683  14.745 -0.2618 -0.0228  0.4581
  516TMC3     O 7721   4.618   0.786  14.717  0.1781  0.8578 -0.1773
  516TMC3     H 7722   4.574   0.672  14.512 -0.0977 -0.2118  1.4638
  516TMC3    H1 7723   4.639   0.430  14.857 -3.2761  1.2007  1.2409
  516TMC3    H2 7724   4.388   0.290  14.551 -2.1418  1.2491  0.3607
  516TMC3    C7 7725   4.520   0.217  14.778  0.2115  0.1852  0.7341
  516TMC3    C8 7726   4.413   0.493  14.392 -0.7512  0.0630 -0.3663
  516TMC3    O1 7727   4.570   0.220  14.890 -0.1581 -0.0681 -0.2185
  516TMC3    O2 7728   4.312   0.428  14.381 -0.2261 -0.3511 -0.8388
  517MPD2     C 7729   4.630   2.081  17.375  0.2949  0.1804 -0.4297
  517MPD2    C1 7730   4.668   2.020  17.494  0.1801 -0.6418  0.1306
  517MPD2    C2 7731   4.708   2.108  17.595  0.6614  0.2654 -0.1912
  517MPD2    C3 7732   4.700   2.246  17.582  0.0350 -0.3932  0.0702
  517MPD2    C4 7733   4.658   2.296  17.461 -0.3309  0.4653 -0.1013
  517MPD2    C5 7734   4.623   2.221  17.352  0.5866  0.3945 -0.1851
  517MPD2     H 7735   4.736   2.075  17.694 -1.6267  1.7452  0.9390
  517MPD2    H1 7736   4.645   2.404  17.452  0.2643  0.4778 -0.9001
  517MPD2    H2 7737   4.618   2.016  17.289  3.2277 -3.5575  2.0444
  517MPD2    H3 7738   4.602   2.269  17.257 -0.8232  1.2364  0.5617
  517MPD2     N 7739   4.724   2.343  17.680  0.0277  0.2164 -0.0222
  517MPD2    H5 7740   0.001   2.439  17.650 -0.9269  0.0423 -1.0469
  517MPD2    N1 7741   4.689   1.881  17.526  0.4226  0.3373  0.1066
  517MPD2    H7 7742   4.730   1.856  17.615  0.7347  0.7301  0.0690
  518TMC3    C1 7743   4.681   1.648  17.494 -0.1305  0.3342 -0.2609
  518TMC3    C2 7744   4.610   1.541  17.445  0.3355 -0.6787 -0.6329
  518TMC3    C3 7745   4.661   1.418  17.471 -0.1205 -0.0006  0.6832
  518TMC3    C4 7746   0.053   1.632  17.568  0.3683 -0.9170  0.2570
  518TMC3    C5 7747   0.105   1.508  17.588 -0.4114 -0.2058 -0.1776
  518TMC3    C6 7748   0.044   1.396  17.541  0.6766  0.5913 -0.7144
  518TMC3     C 7749   4.642   1.778  17.447  0.9371  0.1562 -0.5272
  518TMC3     O 7750   4.566   1.791  17.352  0.3787  0.0535 -0.3167
  518TMC3     H 7751   4.524   1.557  17.379 -0.1533 -0.1804  0.1196
  518TMC3    H1 7752   0.117   1.712  17.605  2.0443 -1.3104 -1.7670
  518TMC3    H2 7753   0.078   1.294  17.555  0.1488  0.1053 -2.8998
  518TMC3    C7 7754   0.229   1.504  17.657  0.0035  0.3822 -1.0316
  518TMC3    C8 7755   4.608   1.297  17.407  0.3161 -0.7479 -0.2336
  518TMC3    O1 7756   0.247   1.574   0.007  0.1021  0.7178  0.2583
  518TMC3    O2 7757   4.688   1.203  17.379 -0.2377 -0.2723 -0.2658
  519MPD2     C 7758   0.987   0.549  14.620 -0.2738  0.4817  0.2841
  519MPD2    C1 7759   0.985   0.527  14.486  0.1567 -0.5951  0.1598
  519MPD2    C2 7760   1.076   0.436  14.433 -0.0267  0.0245 -0.5541
  519MPD2    C3 7761   1.160   0.371  14.519 -0.0632 -0.0787  0.6159
  519MPD2    C4 7762   1.179   0.416  14.649 -0.8611  0.1039 -1.1520
  519MPD2    C5 7763   1.089   0.504  14.698 -0.3437  0.1840 -0.2906
  519MPD2     H 7764   1.082   0.412  14.327  3.2280  0.9160 -0.5694
  519MPD2    H1 7765   1.254   0.372  14.713  1.7009  3.3571 -1.8731
  519MPD2    H2 7766   0.916   0.622  14.657  1.0739  1.3296  1.2005
  519MPD2    H3 7767   1.102   0.546  14.797 -0.4154  1.1643 -0.7007
  519MPD2     N 7768   1.241   0.267  14.470  0.4736 -0.3275 -0.2159
  519MPD2    H5 7769   1.313   0.227  14.528  1.5019 -1.2806 -2.1792
  519MPD2    N1 7770   0.880   0.581  14.401  0.2574  0.1094  0.1277
  519MPD2    H7 7771   0.810   0.639  14.445  0.8506  0.3329  0.7779
  520TMC3    C1 7772   1.321   0.108  14.322 -0.3066  0.0718  0.0147
  520TMC3    C2 7773   1.305   0.051  14.197 -0.1030  0.5085 -0.3211
  520TMC3    C3 7774   1.411   0.009  14.121  0.1834 -0.0945  0.1185
  520TMC3    C4 7775   1.450   0.123  14.374  1.0519 -0.4201  0.0346
  520TMC3    C5 7776   1.550   0.095  14.288  0.0510  0.4765 -0.4708
  520TMC3    C6 7777   1.532   0.035  14.165  0.8486 -0.6330  0.2805
  520TMC3     C 7778   1.219   0.202  14.352 -0.2187 -0.7668  1.2105
  520TMC3     O 7779   1.138   0.215  14.262 -0.8784 -0.1207  0.1488
  520TMC3     H 7780   1.204   0.026  14.165 -0.6230  0.0290  1.7396
  520TMC3    H1 7781   1.476   0.173  14.467 -2.9717 -1.0561  1.4977
  520TMC3    H2 7782   1.621   0.013  14.108  1.2392  1.0647  0.2140
  520TMC3    C7 7783   1.682   0.069  14.348  0.4449 -0.0074  0.7716
  520TMC3    C8 7784   1.393   4.669  14.006 -0.6035 -0.2179 -0.3330
  520TMC3    O1 7785   1.684   4.727  14.444  0.4179  1.0181 -0.0415
  520TMC3    O2 7786   1.489   4.607  13.967 -0.1717  0.3456 -0.0140
  521MPD2     C 7787   2.363   3.059  17.684 -0.6618  0.8092 -0.5786
  521MPD2    C1 7788   2.313   3.002  17.573 -0.6195  0.4795 -0.7361
  521MPD2    C2 7789   2.398   2.990  17.464  0.2139 -0.3198 -0.4058
  521MPD2    C3 7790   2.529   3.031  17.477  0.2081  0.3390 -0.8290
  521MPD2    C4 7791   2.578   3.085  17.590 -1.0368 -0.8987  0.3342
  521MPD2    C5 7792   2.491   3.106  17.694 -0.1026 -0.2261 -0.1376
  521MPD2     H 7793   2.353   2.948  17.375 -2.8310  0.4196  0.8148
  521MPD2    H1 7794   2.680   3.115  17.606 -1.7023  1.9509 -0.7390
  521MPD2    H2 7795   2.300   3.071   0.023  0.6605 -1.9543  0.7610
  521MPD2    H3 7796   2.524   3.165   0.030  1.0376 -0.9804 -0.0504
  521MPD2     N 7797   2.619   3.005  17.365 -0.3608  0.0101  0.4137
  521MPD2    H5 7798   2.717   3.027  17.373 -0.6375  1.0955  0.8316
  521MPD2    N1 7799   2.174   2.970  17.576  0.4250 -0.2179  0.2434
  521MPD2    H7 7800   2.134   2.986  17.668  1.5982  2.3507  0.3305
  522TMC3    C1 7801   2.689   2.958  17.144 -0.2431  0.3267  0.0608
  522TMC3    C2 7802   2.785   2.862  17.184 -0.3805 -0.1316  0.1018
  522TMC3    C3 7803   2.875   2.816  17.083  0.2669 -0.2815  0.3314
  522TMC3    C4 7804   2.675   2.995  17.016  0.3091  0.4977  0.3698
  522TMC3    C5 7805   2.772   2.965  16.926 -0.3681 -0.0641  0.3408
  522TMC3    C6 7806   2.865   2.866  16.954  0.1910 -0.4413 -0.0862
  522TMC3     C 7807   2.577   2.988  17.237  0.2319 -0.0847 -0.2849
  522TMC3     O 7808   2.465   2.990  17.188 -0.2671  0.1004 -0.1486
  522TMC3     H 7809   2.790   2.825  17.286 -0.1414  1.2529  0.5957
  522TMC3    H1 7810   2.603   3.074  16.996 -0.0818  0.1104  0.2269
  522TMC3    H2 7811   2.923   2.835  16.868 -0.3036 -0.4659 -0.4085
  522TMC3    C7 7812   2.745   3.006  16.787  1.1373  0.1390  0.2563
  522TMC3    C8 7813   3.004   2.766  17.113 -0.3042 -0.2570  0.0039
  522TMC3    O1 7814   2.834   3.006  16.706 -0.5126 -0.1574  0.6171
  522TMC3    O2 7815   3.067   2.814  17.205 -0.1680 -0.0581  0.1086
  523MPD2     C 7816   4.613   3.293  10.348 -0.1494 -0.5604 -0.0202
  523MPD2    C1 7817   4.520   3.204  10.304  0.2002 -0.5316 -0.0036
  523MPD2    C2 7818   4.405   3.250  10.233 -0.3988 -0.0499  0.7450
  523MPD2    C3 7819   4.386   3.385  10.210 -0.5113 -0.1053 -1.0494
  523MPD2    C4 7820   4.478   3.474  10.265  0.0393 -0.2016 -0.8801
  523MPD2    C5 7821   4.585   3.424  10.339 -0.4922  0.4855 -0.5383
  523MPD2     H 7822   4.327   3.183  10.199  1.0933 -0.5954 -1.5833
  523MPD2    H1 7823   4.461   3.579  10.247  0.0178 -0.1161 -0.3522
  523MPD2    H2 7824   4.705   3.265  10.399 -0.2865  0.5706  0.8474
  523MPD2    H3 7825   4.662   3.493  10.370 -2.1511  1.5112  1.3273
  523MPD2     N 7826   4.285   3.436  10.125 -0.1410 -0.4681  0.6496
  523MPD2    H5 7827   4.285   3.538  10.127 -2.5713 -0.4293 -1.9661
  523MPD2    N1 7828   4.552   3.061  10.311  0.0334 -0.1227 -0.1167
  523MPD2    H7 7829   4.630   3.035  10.370  1.9433 -0.3118 -2.7537
  524TMC3    C1 7830   4.116   3.440   9.960  0.2502  0.6452 -0.6569
  524TMC3    C2 7831   4.106   3.400   9.829 -0.0346  0.2217  0.3614
  524TMC3    C3 7832   4.049   3.485   9.739  0.1266 -0.0235 -0.0249
  524TMC3    C4 7833   4.059   3.556   9.994  0.0659  0.2307  0.6145
  524TMC3    C5 7834   4.004   3.640   9.905  0.2559  0.1848 -0.4935
  524TMC3    C6 7835   3.996   3.603   9.773  0.1973 -0.3859 -0.7865
  524TMC3     C 7836   4.203   3.362  10.046 -0.3788  0.2464  0.4296
  524TMC3     O 7837   4.220   3.244  10.008 -0.4906  0.2592  0.2717
  524TMC3     H 7838   4.179   3.327   9.798 -0.0093  0.1171  0.6680
  524TMC3    H1 7839   4.060   3.587  10.098 -0.1738 -0.0440  0.7008
  524TMC3    H2 7840   3.971   3.679   9.700 -0.3813  0.8804  0.7283
  524TMC3    C7 7841   4.007   3.778   9.946  0.4345  0.3223 -0.4519
  524TMC3    C8 7842   4.045   3.450   9.594 -0.6100 -0.3272 -0.4249
  524TMC3    O1 7843   4.100   3.822  10.009 -0.0455 -0.0130  0.0942
  524TMC3    O2 7844   3.951   3.497   9.529  0.3086 -0.3734  0.0164
  525MPD2     C 7845   2.662   4.710  14.666  0.8652 -0.3846  0.7737
  525MPD2    C1 7846   2.787   4.732  14.721  0.0935 -0.2542  0.4685
  525MPD2    C2 7847   2.841   0.124  14.717  0.2944  0.0489  0.6739
  525MPD2    C3 7848   2.776   0.233  14.658  0.7142  0.4005 -0.1860
  525MPD2    C4 7849   2.657   0.204  14.606 -0.0326  0.1864 -0.5277
  525MPD2    C5 7850   2.607   0.081  14.600  0.7819 -0.4266 -0.8615
  525MPD2     H 7851   2.938   0.142  14.764 -0.6583 -0.2433  2.7636
  525MPD2    H1 7852   2.594   0.280  14.562 -0.9407 -0.0475  0.3513
  525MPD2    H2 7853   2.614   4.613  14.662  2.5871 -1.1138 -2.0598
  525MPD2    H3 7854   2.518   0.055  14.544 -0.1183  0.7679  0.0040
  525MPD2     N 7855   2.814   0.367  14.666  0.5069  0.2671  0.1006
  525MPD2    H5 7856   2.737   0.429  14.642 -0.9064 -1.5822 -0.1714
  525MPD2    N1 7857   2.855   4.628  14.784  0.4149 -0.7291  0.1761
  525MPD2    H7 7858   2.949   4.645  14.818 -0.3102 -1.1818  2.4525
  526TMC3    C1 7859   2.878   4.418  14.896  0.0258 -0.1345  0.3731
  526TMC3    C2 7860   2.818   4.336  14.991 -0.7028  0.3126 -0.1074
  526TMC3    C3 7861   2.894   4.236  15.039 -0.6695 -0.4160  0.1771
  526TMC3    C4 7862   3.008   4.407  14.851  0.1343  0.3000 -0.0244
  526TMC3    C5 7863   3.069   4.292  14.892  0.1430  0.5260  0.3900
  526TMC3    C6 7864   3.016   4.198  14.983  0.5019 -0.6036  0.5576
  526TMC3     C 7865   2.795   4.516  14.827 -0.4796 -0.4680 -0.5995
  526TMC3     O 7866   2.674   4.487  14.839 -0.4468  0.0728  0.3983
  526TMC3     H 7867   2.715   4.356  15.016 -0.9745 -1.3265  0.1242
  526TMC3    H1 7868   3.043   4.469  14.769  0.4323  0.3286  0.1280
  526TMC3    H2 7869   3.088   4.137  15.035  0.3109 -0.0401  1.4965
  526TMC3    C7 7870   3.198   4.260  14.844 -0.2764  1.3745 -0.4226
  526TMC3    C8 7871   2.890   4.230  15.179 -0.2453  0.3181  0.3613
  526TMC3    O1 7872   3.249   4.153  14.869  0.6501  0.1087 -0.0733
  526TMC3    O2 7873   2.994   4.204  15.231 -0.0787 -0.2195  0.4116
  527MPD2     C 7874   1.656   2.993   1.488 -0.3065 -0.2064 -0.4493
  527MPD2    C1 7875   1.745   3.020   1.385 -0.2836 -0.3291  0.2201
  527MPD2    C2 7876   1.819   2.917   1.328  0.4066 -0.1012 -0.0060
  527MPD2    C3 7877   1.800   2.784   1.363  0.1672  0.2040  0.3606
  527MPD2    C4 7878   1.711   2.760   1.469  0.5524  0.1827  0.1806
  527MPD2    C5 7879   1.642   2.864   1.526  0.2900 -0.1187  0.8665
  527MPD2     H 7880   1.880   2.939   1.242  0.0935  2.4607  0.4313
  527MPD2    H1 7881   1.682   2.663   1.508  0.6053 -0.2115 -0.7585
  527MPD2    H2 7882   1.609   3.070   1.548  1.1638 -0.2289  0.7242
  527MPD2    H3 7883   1.580   2.845   1.613 -0.6897  1.8016  0.5788
  527MPD2     N 7884   1.874   2.680   1.298  0.0747 -0.5105 -0.6860
  527MPD2    H5 7885   1.929   2.701   1.216  1.5309 -2.0445 -0.1090
  527MPD2    N1 7886   1.755   3.145   1.327  0.3840 -0.4401  0.7162
  527MPD2    H7 7887   1.829   3.161   1.259  0.9234  0.5162  1.5378
  528TMC3    C1 7888   1.735   3.373   1.286 -1.2853  0.9548  0.1726
  528TMC3    C2 7889   1.762   3.363   1.152  0.6268 -1.0003  0.0900
  528TMC3    C3 7890   1.787   3.481   1.086 -0.1370 -0.4210 -0.5241
  528TMC3    C4 7891   1.737   3.491   1.351 -0.5172  0.5590  0.7402
  528TMC3    C5 7892   1.743   3.606   1.282 -0.5807 -0.6188 -0.0196
  528TMC3    C6 7893   1.772   3.603   1.145 -0.4155 -0.2333 -0.9773
  528TMC3     C 7894   1.695   3.259   1.366  0.5775 -0.1198 -0.0497
  528TMC3     O 7895   1.610   3.282   1.454  0.4087  0.0919 -0.0562
  528TMC3     H 7896   1.748   3.272   1.094 -1.6931 -0.4834 -0.1240
  528TMC3    H1 7897   1.709   3.504   1.455 -0.2103 -0.1510  0.9134
  528TMC3    H2 7898   1.806   3.696   1.100 -1.4121  0.3554 -0.5243
  528TMC3    C7 7899   1.649   3.709   1.305  0.2744  1.0599 -0.9679
  528TMC3    C8 7900   1.731   3.483   0.956  0.3344 -0.2822 -0.1612
  528TMC3    O1 7901   1.631   3.751   1.416 -1.3002  0.3139  0.4162
  528TMC3    O2 7902   1.657   3.583   0.937 -0.2981  0.4038 -0.0134
  529MPD2     C 7903   3.169   0.864   0.952  0.0486  0.7727 -0.1613
  529MPD2    C1 7904   3.276   0.882   0.868 -0.2570 -1.1791  0.2490
  529MPD2    C2 7905   3.250   0.916   0.737  0.2340  0.3242 -0.1918
  529MPD2    C3 7906   3.121   0.933   0.680  0.3006 -0.0344 -0.6807
  529MPD2    C4 7907   3.019   0.929   0.773 -0.2376  0.1405  0.1802
  529MPD2    C5 7908   3.045   0.878   0.897  0.5764  0.2122 -0.4280
  529MPD2     H 7909   3.333   0.918   0.667  1.2874  0.2829  1.0493
  529MPD2    H1 7910   2.918   0.949   0.739  0.4657  1.4134 -1.1542
  529MPD2    H2 7911   3.171   0.848   1.059 -1.1647  0.2543 -0.2274
  529MPD2    H3 7912   2.970   0.872   0.976  1.4656  2.4228  0.5869
  529MPD2     N 7913   3.090   0.946   0.540 -0.1214 -0.0046 -0.4141
  529MPD2    H5 7914   2.991   0.953   0.520 -0.1013 -1.6138 -1.0803
  529MPD2    N1 7915   3.408   0.874   0.915  0.0115 -0.5688 -0.2071
  529MPD2    H7 7916   3.480   0.924   0.865 -0.5343 -2.4249 -2.8231
  530TMC3    C1 7917   3.584   0.782   1.034 -0.1061 -0.1798  0.7493
  530TMC3    C2 7918   3.657   0.899   1.044  0.2117  0.5542  0.4158
  530TMC3    C3 7919   3.779   0.896   1.097  0.9963 -0.0702 -0.2907
  530TMC3    C4 7920   3.639   0.656   1.070  0.6419  0.2351 -0.2252
  530TMC3    C5 7921   3.763   0.663   1.130 -0.8432 -0.1370 -0.4872
  530TMC3    C6 7922   3.835   0.780   1.140  0.0768  0.4376  0.0613
  530TMC3     C 7923   3.447   0.773   1.001  0.4437 -0.0717 -0.5968
  530TMC3     O 7924   3.389   0.684   1.057  0.0100 -0.5364  0.0713
  530TMC3     H 7925   3.599   0.990   1.033 -1.3012 -0.4252  0.2013
  530TMC3    H1 7926   3.585   0.563   1.056  1.9263 -0.5189 -0.1261
  530TMC3    H2 7927   3.932   0.775   1.188  0.2637 -3.2331 -0.6776
  530TMC3    C7 7928   3.839   0.538   1.173 -0.0517 -0.2841  0.5350
  530TMC3    C8 7929   3.833   1.022   1.142 -0.3154  0.7868  0.0776
  530TMC3    O1 7930   3.952   0.568   1.214 -0.3884 -0.1659  0.2852
  530TMC3    O2 7931   3.756   1.115   1.173  0.7403 -0.5249 -0.5368
  531MPD2     C 7932   1.260   3.058  13.522 -0.9041  0.6771 -0.0961
  531MPD2    C1 7933   1.314   3.179  13.491 -0.2228 -0.2068  0.1650
  531MPD2    C2 7934   1.392   3.199  13.376  0.4852  0.0555  0.4519
  531MPD2    C3 7935   1.385   3.100  13.277  0.1228 -0.5597  0.3621
  531MPD2    C4 7936   1.314   2.981  13.299 -0.7631  0.8570  0.1821
  531MPD2    C5 7937   1.266   2.955  13.427 -0.2799  0.6469 -0.1910
  531MPD2     H 7938   1.430   3.297  13.349 -1.9814  1.4260  1.9799
  531MPD2    H1 7939   1.324   2.901  13.227  1.1686  0.4016  0.9643
  531MPD2    H2 7940   1.201   3.036  13.610 -1.7781  4.3384  0.2153
  531MPD2    H3 7941   1.229   2.857  13.456  0.0749  0.7316  0.5466
  531MPD2     N 7942   1.444   3.112  13.148 -0.2095 -0.4509  0.2789
  531MPD2    H5 7943   1.430   3.026  13.096  2.7600 -1.0786  0.5315
  531MPD2    N1 7944   1.281   3.289  13.580  0.8723 -0.1427 -0.0611
  531MPD2    H7 7945   1.248   3.267  13.673 -0.9697  0.4565 -0.5818
  532TMC3    C1 7946   1.226   3.496  13.649  0.6131  0.2035 -0.4001
  532TMC3    C2 7947   1.139   3.554  13.561 -0.0770 -0.1082  0.4893
  532TMC3    C3 7948   1.127   3.691  13.544  0.1746  0.2017 -0.1891
  532TMC3    C4 7949   1.299   3.585  13.724  0.2490 -0.2618 -0.1224
  532TMC3    C5 7950   1.285   3.722  13.704  0.2628  0.7775 -0.6512
  532TMC3    C6 7951   1.198   3.780  13.615 -0.6042 -0.1285 -0.3156
  532TMC3     C 7952   1.307   3.421  13.563 -0.4550  0.0593  0.2658
  532TMC3     O 7953   1.349   3.480  13.463 -1.1371  1.0057 -0.2225
  532TMC3     H 7954   1.081   3.484  13.503 -0.7307  0.4176  0.5070
  532TMC3    H1 7955   1.380   3.560  13.792  1.0874  0.0968 -0.9944
  532TMC3    H2 7956   1.232   3.879  13.585 -0.3702 -0.6486 -1.7688
  532TMC3    C7 7957   1.406   3.789  13.719 -0.3210 -0.5469  0.0860
  532TMC3    C8 7958   1.120   3.734  13.402  0.5657  1.0277  0.3398
  532TMC3    O1 7959   1.412   3.877  13.799 -0.0958  0.3040 -0.2862
  532TMC3    O2 7960   1.123   3.856  13.375 -0.1585 -0.3976 -0.1194
  533TMC3    C1 7961   2.935   0.551  14.727  0.0993  0.5668 -0.0392
  533TMC3    C2 7962   3.054   0.614  14.714 -0.1322 -0.1848 -1.0190
  533TMC3    C3 7963   3.056   0.747  14.751  0.2154  0.1640 -0.7174
  533TMC3    C4 7964   2.825   0.616  14.776  0.4389 -0.0428  0.3136
  533TMC3    C5 7965   2.841   0.741  14.833 -0.0255 -0.4453  0.2142
  533TMC3    C6 7966   2.956   0.811  14.819 -0.1623  0.3939  0.6187
  533TMC3     C 7967   2.938   0.414  14.691 -0.1792  0.4913 -0.4615
  533TMC3     O 7968   3.045   0.358  14.691 -0.0371 -0.2103  0.6933
  533TMC3     H 7969   3.139   0.573  14.660 -0.2746 -3.0364  0.9200
  533TMC3    H1 7970   2.728   0.574  14.798  0.9740 -0.2612  2.2640
  533TMC3    H2 7971   2.946   0.916  14.843 -0.1730  0.4777  0.2454
  533TMC3    C7 7972   2.784   0.747  14.962  0.5614 -0.7639  0.0060
  533TMC3    C8 7973   3.187   0.808  14.736  0.1218 -0.2424  0.1014
  533TMC3    O1 7974   2.694   0.668  14.990 -0.4629 -1.2307  0.4701
  533TMC3    O2 7975   3.281   0.728  14.716 -0.0995 -0.5184 -0.2660
  534MPD2     C 7976   1.292   0.835   1.038  0.0486 -0.0314 -0.0924
  534MPD2    C1 7977   1.236   0.950   1.082  0.1120 -0.7773  0.2223
  534MPD2    C2 7978   1.140   1.011   1.006  0.0545  0.3926 -0.3429
  534MPD2    C3 7979   1.093   0.941   0.896  0.1599 -0.4839 -0.3934
  534MPD2    C4 7980   1.153   0.825   0.849  0.0604 -0.5970  0.6940
  534MPD2    C5 7981   1.261   0.775   0.922  0.0091 -0.0613  0.9465
  534MPD2     H 7982   1.082   1.090   1.053  2.3065  1.1185  1.2190
  534MPD2    H1 7983   1.106   0.779   0.763  1.3950 -1.0412  0.2055
  534MPD2    H2 7984   1.378   0.791   1.086 -0.0318  2.1172  2.0242
  534MPD2    H3 7985   1.328   0.698   0.886 -0.3658  0.1102 -0.1412
  534MPD2     N 7986   0.972   0.992   0.830 -0.0019 -0.1245  0.2001
  534MPD2    H5 7987   0.938   0.948   0.745 -0.5728  0.5798  0.0730
  534MPD2    N1 7988   1.268   1.014   1.207 -0.3879  0.2757  0.3362
  534MPD2    H7 7989   1.216   1.097   1.234 -0.0678  0.3874  0.6061
  535TMC3    C1 7990   0.793   1.123   0.761 -0.7185 -0.9227  0.1506
  535TMC3    C2 7991   0.690   1.206   0.789  0.3088 -0.2326  0.1508
  535TMC3    C3 7992   0.618   1.272   0.688 -0.1360 -0.1662  0.0365
  535TMC3    C4 7993   0.829   1.114   0.631  0.2020  0.0776  0.2976
  535TMC3    C5 7994   0.758   1.177   0.529  0.2619 -0.2490  0.4612
  535TMC3    C6 7995   0.651   1.262   0.560 -0.5917 -0.0517 -0.1707
  535TMC3     C 7996   0.901   1.107   0.859 -0.3208 -0.1560 -0.3238
  535TMC3     O 7997   0.929   1.193   0.941 -0.3192  0.2980 -0.0799
  535TMC3     H 7998   0.662   1.221   0.893  1.2456  0.9550  0.2270
  535TMC3    H1 7999   0.931   1.082   0.610  0.5449  1.5074 -0.2177
  535TMC3    H2 8000   0.592   1.315   0.486  0.1783 -0.7367 -1.2810
  535TMC3    C7 8001   0.829   1.202   0.409 -0.1176 -0.5446 -0.2497
  535TMC3    C8 8002   0.490   1.333   0.710 -0.1718  0.1289 -0.4686
  535TMC3    O1 8003   0.951   1.198   0.418  0.3539  0.4771 -0.7377
  535TMC3    O2 8004   0.398   1.325   0.627 -0.0169 -0.0723  0.2670
  536MPD2     C 8005   4.674   4.082  16.462  0.5493 -0.4735  0.3806
  536MPD2    C1 8006   4.564   4.008  16.452  0.4111  0.1908  0.1614
  536MPD2    C2 8007   4.513   3.993  16.319  0.1448 -0.7167  0.6911
  536MPD2    C3 8008   4.558   4.061  16.208  0.5504 -0.2264 -0.4703
  536MPD2    C4 8009   4.670   4.136  16.227  0.5452  0.9603 -0.2690
  536MPD2    C5 8010   4.724   4.146  16.352  0.0451 -0.1866 -0.2322
  536MPD2     H 8011   4.422   3.934  16.311  0.7976 -1.6356 -0.0325
  536MPD2    H1 8012   4.711   4.184  16.138  1.4728  2.6159  1.0601
  536MPD2    H2 8013   4.727   4.090  16.557 -0.8342  0.8369  1.0435
  536MPD2    H3 8014   0.070   4.214  16.368  0.6318 -0.0566 -3.8038
  536MPD2     N 8015   4.497   4.072  16.087 -0.1969 -0.2233  0.1181
  536MPD2    H5 8016   4.524   4.149  16.027  0.3742 -2.0892 -2.0315
  536MPD2    N1 8017   4.512   3.944  16.568  0.4435 -0.6674  0.5951
  536MPD2    H7 8018   4.565   3.958  16.653  2.4894 -0.6296 -0.6965
  537TMC3    C1 8019   4.351   3.831  16.710 -0.5868  0.5194  0.9405
  537TMC3    C2 8020   4.416   3.879  16.819 -0.4448 -0.5426 -0.0101
  537TMC3    C3 8021   4.409   3.798  16.929  0.0729  0.6089  0.2351
  537TMC3    C4 8022   4.263   3.730  16.714  0.1249  0.3350 -0.6760
  537TMC3    C5 8023   4.239   3.677  16.840 -0.3156 -0.0490 -0.0726
  537TMC3    C6 8024   4.309   3.702  16.952 -0.0916  0.2274 -0.0246
  537TMC3     C 8025   4.397   3.869  16.577 -0.4080  0.4739  0.4099
  537TMC3     O 8026   4.321   3.838  16.490 -0.1406 -0.3836  0.3063
  537TMC3     H 8027   4.488   3.958  16.805 -0.3753 -0.4361  0.9264
  537TMC3    H1 8028   4.219   3.696  16.621 -1.9048  1.1809 -0.0268
  537TMC3    H2 8029   4.287   3.656  17.048 -1.0431  3.4878  1.3124
  537TMC3    C7 8030   4.140   3.573  16.844  0.0955  0.2409 -0.4198
  537TMC3    C8 8031   4.468   3.847  17.051  0.1106 -0.3520 -0.1182
  537TMC3    O1 8032   4.040   3.583  16.769  0.4517  0.2845  0.2052
  537TMC3    O2 8033   4.484   3.964  17.060  0.1509  0.1950  0.1344
  538TMC3    C1 8034   0.158   2.630  11.344 -0.3062 -0.9969 -0.5898
  538TMC3    C2 8035   0.290   2.603  11.318 -0.2858  0.1025  0.6089
  538TMC3    C3 8036   0.333   2.643  11.195 -0.1801  0.8788  0.1224
  538TMC3    C4 8037   0.077   2.685  11.253 -0.3258 -0.0536 -0.4352
  538TMC3    C5 8038   0.123   2.725  11.127  0.8724  0.1343 -0.2688
  538TMC3    C6 8039   0.247   2.696  11.096  0.9259  0.1499  0.5600
  538TMC3     C 8040   0.100   2.608  11.478 -1.4022 -0.3782 -0.1258
  538TMC3     O 8041   4.731   2.557  11.487  0.4796 -0.1374 -0.1114
  538TMC3     H 8042   0.367   2.570  11.386 -0.6354 -3.3717 -0.7195
  538TMC3    H1 8043   4.711   2.702  11.278 -0.6567 -2.6061 -0.0786
  538TMC3    H2 8044   0.284   2.726  10.998 -1.0539  1.9385  0.3594
  538TMC3    C7 8045   0.043   2.804  11.039 -0.5614 -0.2089 -0.9330
  538TMC3    C8 8046   0.439   2.548  11.142 -0.7677  0.9865  0.5635
  538TMC3    O1 8047   0.109   2.888  10.982 -0.2481  0.1776 -0.4686
  538TMC3    O2 8048   0.455   2.441  11.201  0.0960  0.7808 -0.0332
  539MPD2     C 8049   4.467   2.086  12.090  0.0721  0.6259  0.1168
  539MPD2    C1 8050   4.523   2.122  11.969 -0.7545 -0.9540 -0.0194
  539MPD2    C2 8051   4.499   2.251  11.927 -0.0286 -0.4723  0.4344
  539MPD2    C3 8052   4.436   2.346  12.008  0.8454 -0.4386 -0.2551
  539MPD2    C4 8053   4.377   2.309  12.124  1.2770 -0.4687  0.1979
  539MPD2    C5 8054   4.402   2.182  12.160  0.0097  0.3294 -0.1109
  539MPD2     H 8055   4.562   2.284  11.845 -0.2439  0.4175  0.6266
  539MPD2    H1 8056   4.315   2.373  12.186  1.1679 -0.8267  0.4636
  539MPD2    H2 8057   4.477   1.986  12.131 -0.3111  0.5709  0.0799
  539MPD2    H3 8058   4.346   2.138  12.242 -0.7839  0.1390 -0.7596
  539MPD2     N 8059   4.419   2.483  11.973 -0.0792  0.2647  0.0185
  539MPD2    H5 8060   4.383   2.544  12.045 -1.1657 -2.2854  1.6401
  539MPD2    N1 8061   4.614   2.047  11.888 -0.7232 -0.2039  0.6438
  539MPD2    H7 8062   4.635   2.083  11.796  1.9496  0.1173  1.3909
  540TMC3    C1 8063   4.397   2.663  11.827 -0.6277 -0.7672 -0.9342
  540TMC3    C2 8064   4.395   2.698  11.694 -0.2610  0.2302  0.3682
  540TMC3    C3 8065   4.354   2.825  11.667  0.0157  0.6176 -0.1961
  540TMC3    C4 8066   4.332   2.734  11.921 -0.5206 -0.1088 -0.5303
  540TMC3    C5 8067   4.279   2.852  11.887 -0.0835  0.0390  0.4686
  540TMC3    C6 8068   4.287   2.901  11.761  0.5556  0.3218 -0.0027
  540TMC3     C 8069   4.421   2.523  11.843 -0.0223  0.3949  0.7329
  540TMC3     O 8070   4.454   2.459  11.747  0.4564 -0.2087 -0.2219
  540TMC3     H 8071   4.468   2.660  11.624  0.6387  1.5965  0.5542
  540TMC3    H1 8072   4.325   2.691  12.021 -0.1668  1.0843  0.0007
  540TMC3    H2 8073   4.248   2.997  11.730  0.5286 -0.1320 -1.3723
  540TMC3    C7 8074   4.186   2.912  11.971 -0.2888  0.1883  0.3579
  540TMC3    C8 8075   4.306   2.855  11.527  0.0934 -0.8082 -1.1863
  540TMC3    O1 8076   4.095   2.977  11.930  0.3298 -0.5620 -0.2811
  540TMC3    O2 8077   4.259   2.965  11.512  0.0053 -0.0540  0.1807
  541MPD2     C 8078   3.150   3.526  13.408 -0.4408  0.5031 -1.2581
  541MPD2    C1 8079   3.023   3.508  13.367  0.7134  0.7619  0.5212
  541MPD2    C2 8080   2.978   3.569  13.253 -0.0546  0.2867  1.1360
  541MPD2    C3 8081   3.065   3.645  13.181 -0.1664  0.2459 -0.3989
  541MPD2    C4 8082   3.196   3.664  13.223 -0.5642  0.0052 -0.6240
  541MPD2    C5 8083   3.236   3.606  13.339 -0.6644 -0.8222  0.4104
  541MPD2     H 8084   2.874   3.565  13.222  0.3802 -0.8867 -0.1838
  541MPD2    H1 8085   3.264   3.733  13.174 -0.1639  0.9858  1.3057
  541MPD2    H2 8086   3.187   3.488  13.502 -0.9928  0.2162 -1.1526
  541MPD2    H3 8087   3.333   3.631  13.379 -0.0720 -1.1157 -0.8501
  541MPD2     N 8088   3.024   3.718  13.069 -0.3984 -0.1349  0.1539
  541MPD2    H5 8089   3.099   3.766  13.020 -1.8719  1.2580 -0.7877
  541MPD2    N1 8090   2.938   3.433  13.456 -0.1271 -0.1813  0.0052
  541MPD2    H7 8091   2.842   3.434  13.422  0.4968  1.3141 -1.7051
  542TMC3    C1 8092   2.896   3.813  12.908  0.3472 -0.1597 -0.1906
  542TMC3    C2 8093   2.979   3.761  12.815 -0.1341 -0.4641 -0.3724
  542TMC3    C3 8094   2.988   3.852  12.716  0.2464 -0.3644 -0.1509
  542TMC3    C4 8095   2.825   3.930  12.915 -0.7548  0.3880  0.5402
  542TMC3    C5 8096   2.831   4.013  12.807  1.0214  0.2198  0.2767
  542TMC3    C6 8097   2.930   3.975  12.714 -0.2387 -0.9563  0.6284
  542TMC3     C 8098   2.897   3.734  13.029  0.3833  0.7783  0.3187
  542TMC3     O 8099   2.784   3.714  13.080 -0.2092 -0.5346 -0.4072
  542TMC3     H 8100   3.035   3.669  12.818  0.3062 -0.2047 -0.7687
  542TMC3    H1 8101   2.755   3.955  12.994  1.0100 -0.1623  2.2793
  542TMC3    H2 8102   2.958   4.045  12.637  1.7821 -1.9747  0.4329
  542TMC3    C7 8103   2.770   4.140  12.810  1.0366 -0.2350  0.5906
  542TMC3    C8 8104   3.061   3.825  12.599  0.6290  0.0277  0.6983
  542TMC3    O1 8105   2.710   4.169  12.908 -0.5433  0.0173  0.1178
  542TMC3    O2 8106   3.108   3.924  12.549 -0.1043 -0.3284  0.0111
  543TMC3    C1 8107   3.205   0.070  17.267  0.0290  0.4691  0.1778
  543TMC3    C2 8108   3.251   4.704  17.349 -0.1840  0.7094  0.9029
  543TMC3    C3 8109   3.212   4.715  17.482 -0.0884  0.8102 -0.0242
  543TMC3    C4 8110   3.147   0.189  17.308  0.3283  0.4627  0.3409
  543TMC3    C5 8111   3.128   0.199  17.445 -0.7787 -0.7669  0.0605
  543TMC3    C6 8112   3.153   0.089  17.531  0.2156 -0.6392  0.3563
  543TMC3     C 8113   3.235   0.051  17.128  0.5105 -0.2759  0.8179
  543TMC3     O 8114   3.224   4.669  17.101  0.1823  0.2044  0.6368
  543TMC3     H 8115   3.299   4.617  17.306 -1.6744 -0.2566  1.1646
  543TMC3    H1 8116   3.120   0.264  17.234 -2.5954 -1.3072 -0.3537
  543TMC3    H2 8117   3.142   0.108  17.637  0.6604  1.0257  0.1106
  543TMC3    C7 8118   3.029   0.293  17.491 -0.8123  0.4752 -0.4067
  543TMC3    C8 8119   3.273   4.605  17.567 -0.1901  0.2807 -0.4991
  543TMC3    O1 8120   2.980   0.269  17.599 -0.1599 -0.1780  0.0686
  543TMC3    O2 8121   3.337   4.511  17.516  0.3387 -0.3305  0.3245
  544MPD2     C 8122   3.274   4.365   0.269  0.0784  0.3723 -0.4075
  544MPD2    C1 8123   3.298   4.316   0.145  0.6568  0.2490 -0.2233
  544MPD2    C2 8124   3.292   4.401   0.033 -0.4998  0.0508  0.2047
  544MPD2    C3 8125   3.262   4.532   0.054 -0.0417  0.4458 -0.2943
  544MPD2    C4 8126   3.249   4.576   0.186  0.2438  0.0323  0.2055
  544MPD2    C5 8127   3.265   4.497   0.294  0.6865 -0.6005 -0.4109
  544MPD2     H 8128   3.301   4.354  17.685  0.4326  2.2505 -0.7725
  544MPD2    H1 8129   3.240   4.681   0.212 -2.0608 -0.4820  1.5092
  544MPD2    H2 8130   3.269   4.306   0.360  2.2747  2.1366  0.8591
  544MPD2    H3 8131   3.247   4.527   0.396 -1.8021 -0.4016 -0.9244
  544MPD2     N 8132   3.240   4.625  17.700 -0.0633 -0.3970 -1.0440
  544MPD2    H5 8133   3.211   4.720  17.721  0.0313 -0.9865  1.7933
  544MPD2    N1 8134   3.310   4.176   0.131 -0.2569 -0.4671  0.0232
  544MPD2    H7 8135   3.291   4.116   0.210  1.4566  0.5655  1.2296
  545TMC3    C1 8136   3.311   3.973   0.015 -0.1995  0.0072  0.1737
  545TMC3    C2 8137   3.288   3.919  17.634  0.1169 -0.4266  0.0787
  545TMC3    C3 8138   3.290   3.783  17.609 -0.0449  0.3474 -0.4628
  545TMC3    C4 8139   3.346   3.882   0.111  0.2563 -0.2834 -0.6189
  545TMC3    C5 8140   3.349   3.751   0.083 -0.4396  0.0718  0.2824
  545TMC3    C6 8141   3.329   3.696  17.707 -0.7447 -0.3177  0.0538
  545TMC3     C 8142   3.344   4.111   0.012 -0.2202  0.0956 -0.7743
  545TMC3     O 8143   3.374   4.148  17.649  0.1097  0.7255  0.6300
  545TMC3     H 8144   3.262   3.986  17.554  1.5031 -1.1743 -0.9892
  545TMC3    H1 8145   3.380   3.919   0.207  0.3356 -0.2678 -0.6530
  545TMC3    H2 8146   3.314   3.589  17.695  0.2402 -0.4705  0.1494
  545TMC3    C7 8147   3.354   3.668   0.209 -0.0038  0.5076  0.4970
  545TMC3    C8 8148   3.220   3.729  17.491  0.7681 -0.5984 -0.0100
  545TMC3    O1 8149   3.330   3.725   0.310 -0.2001  0.0535  0.0905
  545TMC3    O2 8150   3.157   3.627  17.500  0.1473 -0.8798  0.2201
  546MPD2     C 8151   4.636   4.697  17.324 -0.0665  0.0015  0.2523
  546MPD2    C1 8152   4.505   4.720  17.286  0.0729 -0.6111 -0.5644
  546MPD2    C2 8153   4.471   0.099  17.217 -0.2495  0.0487 -0.8744
  546MPD2    C3 8154   4.568   0.195  17.194  0.2138 -0.1116  0.3871
  546MPD2    C4 8155   4.701   0.177  17.232 -0.4694 -1.0124  0.2080
  546MPD2    C5 8156   4.734   0.058  17.297  1.3057  1.0051  0.0186
  546MPD2     H 8157   4.369   0.123  17.187 -0.9819 -0.8724  0.8971
  546MPD2    H1 8158   0.039   0.254  17.231 -2.1550  0.5925 -1.8769
  546MPD2    H2 8159   4.670   4.612  17.382 -0.4930  0.4589  1.1714
  546MPD2    H3 8160   0.100   0.050  17.327  1.2292 -0.4434 -0.1454
  546MPD2     N 8161   4.547   0.316  17.121 -0.2878  0.0237 -0.0685
  546MPD2    H5 8162   4.628   0.378  17.123  0.2989 -0.7432 -0.0799
  546MPD2    N1 8163   4.414   4.620  17.316  0.8027  0.1266 -0.0141
  546MPD2    H7 8164   4.445   4.538  17.367 -1.3357 -1.4730 -1.2681
  547TMC3    C1 8165   4.208   4.532  17.357  0.0859 -0.2401 -0.3591
  547TMC3    C2 8166   4.100   4.482  17.290  0.3179  0.1503 -0.2889
  547TMC3    C3 8167   4.067   4.350  17.310  0.3140  0.5582 -0.2422
  547TMC3    C4 8168   4.269   4.460  17.451 -0.0559  0.4470 -0.1069
  547TMC3    C5 8169   4.232   4.333  17.475 -0.4863  0.4627  0.3535
  547TMC3    C6 8170   4.131   4.273  17.400 -0.2947 -0.0743  0.1637
  547TMC3     C 8171   4.279   4.627  17.284 -0.0684  0.3999  0.3942
  547TMC3     O 8172   4.223   4.693  17.200  0.6643  0.1195 -0.5610
  547TMC3     H 8173   4.040   4.536  17.218  0.7934  1.5565  0.3825
  547TMC3    H1 8174   4.342   4.510  17.513  0.1661  0.3748 -0.3136
  547TMC3    H2 8175   4.098   4.171  17.418  1.3520 -0.6564 -0.0368
  547TMC3    C7 8176   4.295   4.253  17.579 -0.2782  0.5135  0.3654
  547TMC3    C8 8177   3.963   4.296  17.223 -0.3025 -0.5490 -0.1396
  547TMC3    O1 8178   4.364   4.309  17.663 -0.2521  0.3138 -0.0977
  547TMC3    O2 8179   3.894   4.379  17.164 -0.1345 -0.4452  0.1616
  548MPD2     C 8180   3.391   0.720  13.187  0.4197 -0.2123 -0.6929
  548MPD2    C1 8181   3.360   0.606  13.108  0.5148  0.6126  0.0516
  548MPD2    C2 8182   3.474   0.550  13.045 -0.7887 -0.0645  0.0216
  548MPD2    C3 8183   3.606   0.577  13.081  0.4293  0.0794 -0.1634
  548MPD2    C4 8184   3.626   0.682  13.164 -0.4501  0.4642 -0.2331
  548MPD2    C5 8185   3.519   0.757  13.212 -0.1775  0.7997  0.3500
  548MPD2     H 8186   3.459   0.466  12.978 -0.2363  0.6997 -1.0631
  548MPD2    H1 8187   3.725   0.703  13.204 -1.0112  1.2411  0.7659
  548MPD2    H2 8188   3.313   0.779  13.235 -0.1509 -0.5867 -1.1612
  548MPD2    H3 8189   3.549   0.837  13.278  1.0600  1.2325 -0.7287
  548MPD2     N 8190   3.716   0.503  13.031 -0.2385 -0.0706  0.1458
  548MPD2    H5 8191   3.681   0.439  12.960  1.0155  0.2336 -0.7438
  548MPD2    N1 8192   3.226   0.554  13.095  0.2772 -0.7998  0.2373
  548MPD2    H7 8193   3.162   0.599  13.159 -1.3375 -1.8500 -0.6400
  549TMC3    C1 8194   3.053   0.412  13.058  0.3365  0.0076  0.6194
  549TMC3    C2 8195   2.962   0.507  13.029  0.0291 -0.1573  0.3003
  549TMC3    C3 8196   2.839   0.469  13.080  0.1366 -0.3745  0.0395
  549TMC3    C4 8197   3.027   0.286  13.091 -0.6567 -0.6872  0.8278
  549TMC3    C5 8198   2.904   0.251  13.129 -0.3879  0.1795  0.2176
  549TMC3    C6 8199   2.805   0.341  13.120 -0.8768  0.0216  0.5167
  549TMC3     C 8200   3.189   0.441  13.026  1.0349 -0.5883 -0.4751
  549TMC3     O 8201   3.266   0.348  12.997  0.0965 -0.6316  0.1669
  549TMC3     H 8202   2.992   0.611  13.020 -0.7358  0.0482  0.1131
  549TMC3    H1 8203   3.118   0.230  13.112 -0.7151 -2.0785 -2.6168
  549TMC3    H2 8204   2.705   0.320  13.158 -0.8414  1.2266  1.2691
  549TMC3    C7 8205   2.865   0.115  13.152  0.1574  0.4887 -0.2226
  549TMC3    C8 8206   2.731   0.550  13.033 -0.0308 -0.3122  0.7135
  549TMC3    O1 8207   2.755   0.091  13.197 -0.4901  0.1331  0.4240
  549TMC3    O2 8208   2.641   0.559  13.109 -0.1140 -0.1728  0.1676
  550TMC3    C1 8209   2.935   3.519  11.959  0.5870 -0.1550 -0.1307
  550TMC3    C2 8210   2.923   3.586  12.073 -0.3021  0.2799  0.3327
  550TMC3    C3 8211   2.825   3.534  12.159 -0.6086  0.3298  0.2758
  550TMC3    C4 8212   2.868   3.398  11.933 -0.0239 -0.0797  0.6815
  550TMC3    C5 8213   2.774   3.349  12.029  0.3616  0.1527  0.9046
  550TMC3    C6 8214   2.757   3.418  12.138  0.4729  0.2333 -0.2112
  550TMC3     C 8215   2.999   3.590  11.851  0.8078  0.0207 -0.7155
  550TMC3     O 8216   3.115   3.624  11.865 -0.4967  0.1612 -0.0855
  550TMC3     H 8217   2.972   3.682  12.089 -1.8284  1.4473 -1.8445
  550TMC3    H1 8218   2.877   3.361  11.831 -0.2031 -0.2176  0.7171
  550TMC3    H2 8219   2.678   3.393  12.209  3.0871  0.1292  2.6400
  550TMC3    C7 8220   2.660   3.267  11.985  0.5721  0.2945 -0.4487
  550TMC3    C8 8221   2.787   3.617  12.276  0.7068  1.6729 -0.6914
  550TMC3    O1 8222   2.567   3.251  12.054  0.6988  0.5027  0.4117
  550TMC3    O2 8223   2.806   3.739  12.260 -0.9243  0.1517  0.1629
  551TMC3    C1 8224   4.568   1.348  13.613  0.3728 -0.7962  0.1795
  551TMC3    C2 8225   4.610   1.221  13.620  0.6711 -0.5862 -0.3684
  551TMC3    C3 8226   4.717   1.192  13.704 -0.1442 -0.6178  0.8578
  551TMC3    C4 8227   4.620   1.447  13.689 -0.3534  1.0293 -0.4269
  551TMC3    C5 8228   4.709   1.414  13.787  0.1496  0.0908  0.2787
  551TMC3    C6 8229   0.021   1.287  13.796 -0.4380  0.1667 -0.0455
  551TMC3     C 8230   4.462   1.376  13.506 -0.2712  0.7440  0.1620
  551TMC3     O 8231   4.390   1.286  13.471  0.2303 -0.2008 -0.2639
  551TMC3     H 8232   4.567   1.146  13.554 -0.9724 -1.6038  1.8559
  551TMC3    H1 8233   4.579   1.546  13.675  0.5540  0.8762 -4.1344
  551TMC3    H2 8234   0.091   1.252  13.871 -0.1227 -2.3424 -1.4958
  551TMC3    C7 8235   0.056   1.518  13.841  0.2166 -0.0342  0.1382
  551TMC3    C8 8236   0.091   1.155  13.617 -0.2916  0.5563 -0.1745
  551TMC3    O1 8237   0.152   1.466  13.892  0.2559 -0.8800 -0.2416
  551TMC3    O2 8238   0.065   1.066  13.532  0.2975  0.1262  0.8636
  552MPD2     C 8239   2.104   3.635  14.094 -0.0384 -0.1310 -0.2935
  552MPD2    C1 8240   2.134   3.504  14.099 -0.5081 -0.3007 -0.4537
  552MPD2    C2 8241   2.252   3.457  14.153 -0.0762 -0.9830 -0.5767
  552MPD2    C3 8242   2.344   3.548  14.196 -0.5293  0.2538  0.4569
  552MPD2    C4 8243   2.316   3.684  14.198  0.1621  0.5764  0.4041
  552MPD2    C5 8244   2.196   3.723  14.152  0.3031  0.2830 -0.1811
  552MPD2     H 8245   2.275   3.352  14.134  1.6198 -0.2331 -2.7415
  552MPD2    H1 8246   2.387   3.750  14.247  0.4526 -0.2758  1.1251
  552MPD2    H2 8247   2.015   3.684  14.057 -0.3471 -1.3240 -1.1295
  552MPD2    H3 8248   2.156   3.824  14.153 -0.7425 -0.1427  1.0643
  552MPD2     N 8249   2.472   3.515  14.242  0.3567  0.0935  0.0934
  552MPD2    H5 8250   2.522   3.592  14.284  3.5466 -1.2516 -1.2420
  552MPD2    N1 8251   2.041   3.400  14.059  0.0691 -0.1636  0.4517
  552MPD2    H7 8252   2.063   3.301  14.059  0.3208 -0.1069  0.4350
  553TMC3    C1 8253   1.839   3.311  13.988  0.2025  0.6997 -0.7676
  553TMC3    C2 8254   1.743   3.321  13.890  0.2469  0.2673 -0.6871
  553TMC3    C3 8255   1.674   3.208  13.857  0.4114 -0.2351  1.1679
  553TMC3    C4 8256   1.869   3.204  14.062  0.0111  0.7869 -0.6308
  553TMC3    C5 8257   1.797   3.096  14.028 -0.0827  0.6012  0.1116
  553TMC3    C6 8258   1.702   3.095  13.930  0.2123 -0.0890 -0.0847
  553TMC3     C 8259   1.915   3.429  14.020 -0.2538  0.1580  0.0721
  553TMC3     O 8260   1.852   3.532  14.004 -0.4148  0.0611  0.3365
  553TMC3     H 8261   1.728   3.407  13.826  0.9406  1.6705  1.0499
  553TMC3    H1 8262   1.933   3.211  14.149  0.5450 -0.7503 -0.9077
  553TMC3    H2 8263   1.686   2.993  13.897 -1.9343  0.2122  0.0660
  553TMC3    C7 8264   1.815   2.971  14.101 -0.2775 -0.0546 -0.4383
  553TMC3    C8 8265   1.674   3.188  13.712 -0.1578 -0.0073 -0.5233
  553TMC3    O1 8266   1.718   2.897  14.097 -1.2847  0.4402  0.0585
  553TMC3    O2 8267   1.753   3.257  13.647  0.1995 -0.0534 -0.0975
  554TMC3    C1 8268   3.938   2.791  11.484 -0.1737 -0.1476  0.2228
  554TMC3    C2 8269   3.852   2.717  11.404 -0.2963  0.1619 -0.6902
  554TMC3    C3 8270   3.776   2.777  11.310 -0.2208  0.2849  0.1406
  554TMC3    C4 8271   3.946   2.925  11.483 -0.6926  0.4675 -0.3582
  554TMC3    C5 8272   3.887   2.984  11.369 -0.8629 -0.6665 -1.0173
  554TMC3    C6 8273   3.800   2.913  11.289  0.3261  0.2794 -0.2472
  554TMC3     C 8274   3.968   2.746  11.623  0.3693 -0.5054 -0.6742
  554TMC3     O 8275   3.994   2.836  11.704 -0.3399  0.1564 -0.1128
  554TMC3     H 8276   3.821   2.616  11.425 -0.6097  0.0488 -1.7360
  554TMC3    H1 8277   4.018   2.984  11.538 -2.6472  2.9041 -0.4250
  554TMC3    H2 8278   3.753   2.967  11.208  2.8237 -1.5074 -2.9140
  554TMC3    C7 8279   3.951   3.094  11.292  0.5772  0.8207 -0.4726
  554TMC3    C8 8280   3.726   2.711  11.203 -0.1997  0.2989  0.3864
  554TMC3    O1 8281   3.918   3.114  11.177  0.4398 -0.3132 -0.3025
  554TMC3    O2 8282   3.640   2.767  11.132  0.0968 -0.1638  0.1990
  555TMC3    C1 8283   3.552   2.057  15.392 -0.5873 -1.0117 -0.1951
  555TMC3    C2 8284   3.582   2.090  15.522 -0.6127 -0.9569  0.4171
  555TMC3    C3 8285   3.626   1.991  15.612  0.5774  0.0700  0.5333
  555TMC3    C4 8286   3.579   1.932  15.342 -0.2258  0.4377 -0.0672
  555TMC3    C5 8287   3.629   1.841  15.432  0.2172  0.4745  0.1059
  555TMC3    C6 8288   3.652   1.867  15.566  0.0209 -0.4063  0.0239
  555TMC3     C 8289   3.517   2.164  15.305  0.7311 -0.6024 -0.0114
  555TMC3     O 8290   3.550   2.273  15.347  0.1670  0.2643  0.2342
  555TMC3     H 8291   3.574   2.194  15.552 -0.0739 -0.9804  0.6377
  555TMC3    H1 8292   3.576   1.922  15.234 -1.3307 -0.0993  0.0134
  555TMC3    H2 8293   3.701   1.793  15.628  1.1513 -0.8704 -1.4237
  555TMC3    C7 8294   3.662   1.705  15.397  0.7314 -0.1087  0.6233
  555TMC3    C8 8295   3.654   2.031  15.746  0.2359 -0.6376  0.0466
  555TMC3    O1 8296   3.705   1.630  15.480  0.5107 -0.3158  0.3853
  555TMC3    O2 8297   3.658   2.150  15.769  0.0710 -0.1691 -0.2666
  556MPD2     C 8298   1.417   3.466  10.894 -0.2848 -0.3405  0.7954
  556MPD2    C1 8299   1.304   3.420  10.956  0.4148 -1.1469 -0.6391
  556MPD2    C2 8300   1.254   3.301  10.911  0.1309  0.1711  0.6304
  556MPD2    C3 8301   1.314   3.232  10.802  0.3296 -0.7584 -0.2311
  556MPD2    C4 8302   1.437   3.274  10.749  0.5838  0.1517 -0.0862
  556MPD2    C5 8303   1.475   3.398  10.792 -0.8111  0.0556 -0.3278
  556MPD2     H 8304   1.158   3.268  10.950 -1.4547  2.8125 -1.0705
  556MPD2    H1 8305   1.500   3.219  10.680 -0.0347  2.2886 -2.3670
  556MPD2    H2 8306   1.466   3.559  10.923  0.3048 -1.0350  2.0353
  556MPD2    H3 8307   1.567   3.432  10.747 -0.6313  1.5342  1.1292
  556MPD2     N 8308   1.239   3.119  10.754 -0.5695  0.5280  0.0503
  556MPD2    H5 8309   1.146   3.110  10.792  0.3929  0.5502  2.4208
  556MPD2    N1 8310   1.242   3.477  11.068  0.1315  0.6690  0.9060
  556MPD2    H7 8311   1.177   3.423  11.124  1.4840 -0.0959  1.7302
  557TMC3    C1 8312   1.177   2.950  10.590  0.2636 -0.7925 -1.2050
  557TMC3    C2 8313   1.212   2.882  10.476 -0.4607  0.1378 -0.0702
  557TMC3    C3 8314   1.160   2.752  10.441  0.0130 -0.5983 -0.0220
  557TMC3    C4 8315   1.074   2.899  10.659 -0.3066  0.3081 -0.3209
  557TMC3    C5 8316   1.011   2.782  10.624  0.2720  0.6165  0.1486
  557TMC3    C6 8317   1.053   2.706  10.513 -0.8840  0.2490 -0.4757
  557TMC3     C 8318   1.279   3.035  10.650  0.1691 -0.5287 -0.3529
  557TMC3     O 8319   1.392   3.029  10.601  0.0473  0.6954 -0.1563
  557TMC3     H 8320   1.287   2.926  10.410 -2.0564  2.0989 -0.5747
  557TMC3    H1 8321   1.053   2.944  10.755 -3.0496  1.4347 -1.4473
  557TMC3    H2 8322   0.999   2.617  10.484 -0.9594 -0.4620  1.8360
  557TMC3    C7 8323   0.901   2.737  10.714 -0.1602 -0.1008  0.5365
  557TMC3    C8 8324   1.228   2.681  10.336  0.4538 -0.0755 -0.3041
  557TMC3    O1 8325   0.840   2.821  10.773 -0.0733 -0.7101 -0.1749
  557TMC3    O2 8326   1.311   2.748  10.273 -0.0355  0.4169  0.5986
  558TMC3    C1 8327   3.240   1.924  10.120  0.1548 -0.2813  0.4240
  558TMC3    C2 8328   3.125   1.883  10.177  0.5919 -0.2817 -0.8030
  558TMC3    C3 8329   3.008   1.938  10.126  0.1247  0.2275 -0.0701
  558TMC3    C4 8330   3.242   2.017  10.021  0.4994 -0.5533  0.2045
  558TMC3    C5 8331   3.122   2.063   9.972 -0.0245 -0.4810 -0.6145
  558TMC3    C6 8332   3.003   2.028  10.026 -0.4330  0.2927 -0.5694
  558TMC3     C 8333   3.360   1.887  10.189  0.4638  0.1842 -0.2708
  558TMC3     O 8334   3.466   1.904  10.128  0.1269 -0.3693  0.2318
  558TMC3     H 8335   3.122   1.786  10.225 -3.2558  0.3054  0.1281
  558TMC3    H1 8336   3.332   2.058   9.978  0.0737  0.3176  0.1534
  558TMC3    H2 8337   2.909   2.069   9.991 -1.0720  1.4705  2.5685
  558TMC3    C7 8338   3.123   2.047   9.828 -0.4585 -0.2457 -0.2253
  558TMC3    C8 8339   2.885   1.873  10.144 -0.3111  0.5673 -0.3208
  558TMC3    O1 8340   3.206   2.111   9.763  0.1092  0.0729  0.1744
  558TMC3    O2 8341   2.799   1.890  10.059 -0.2510 -0.2691 -0.0827
  559MPD2     C 8342   3.534   2.159  10.540  0.2122 -0.4451 -0.1289
  559MPD2    C1 8343   3.455   2.113  10.643  0.0622 -0.1206 -0.5603
  559MPD2    C2 8344   3.509   2.036  10.748 -0.1117 -0.2388 -0.3291
  559MPD2    C3 8345   3.643   2.014  10.755  0.9074 -0.2816 -0.0494
  559MPD2    C4 8346   3.730   2.072  10.663  0.4508 -0.3348  0.0760
  559MPD2    C5 8347   3.671   2.134  10.558  0.0956  0.8639  0.7547
  559MPD2     H 8348   3.438   1.974  10.802  0.9368 -0.5002  0.7361
  559MPD2    H1 8349   3.836   2.050  10.659  0.7280  0.8558  0.7254
  559MPD2    H2 8350   3.495   2.221  10.460 -0.7354  0.9515  1.4190
  559MPD2    H3 8351   3.727   2.170  10.473 -1.0446  2.7983  0.8171
  559MPD2     N 8352   3.685   1.921  10.850  0.4436  0.4143 -0.4129
  559MPD2    H5 8353   3.611   1.865  10.891 -0.0368  0.8786 -0.6346
  559MPD2    N1 8354   3.319   2.143  10.624  0.2074 -0.3020 -0.0329
  559MPD2    H7 8355   3.295   2.209  10.551 -1.7749  0.5762  1.3862
  560TMC3    C1 8356   3.818   1.791  10.992  0.4504  0.3497 -0.0761
  560TMC3    C2 8357   3.723   1.692  10.971 -0.0170 -0.4185  0.2577
  560TMC3    C3 8358   3.718   1.595  11.064  0.7874  0.1860  0.2436
  560TMC3    C4 8359   3.907   1.793  11.090 -0.5660 -0.1557  0.1203
  560TMC3    C5 8360   3.906   1.694  11.183 -0.2197 -0.4691  0.1474
  560TMC3    C6 8361   3.805   1.592  11.175 -0.0173 -0.5800  0.7490
  560TMC3     C 8362   3.814   1.905  10.899  0.8597 -0.4360 -0.6873
  560TMC3     O 8363   3.903   1.990  10.894 -0.1899  0.3091 -0.4441
  560TMC3     H 8364   3.659   1.694  10.884  1.1223  1.0399 -0.5511
  560TMC3    H1 8365   3.975   1.877  11.085  0.0624 -0.6418  0.5225
  560TMC3    H2 8366   3.809   1.506  11.240 -0.7237 -2.2097 -1.3820
  560TMC3    C7 8367   3.988   1.707  11.308 -0.3600  0.0030 -0.0421
  560TMC3    C8 8368   3.605   1.502  11.048 -0.0838  0.0305  0.3741
  560TMC3    O1 8369   3.949   1.642  11.401 -0.1210 -0.4003  0.2991
  560TMC3    O2 8370   3.555   1.507  10.938 -0.5719  0.5025 -0.1737
  561TMC3    C1 8371   1.589   0.932  11.442  0.3569  0.6634 -0.0395
  561TMC3    C2 8372   1.505   0.850  11.517  0.0070  0.2280  0.4834
  561TMC3    C3 8373   1.457   0.902  11.631 -0.0371 -0.1119  0.7598
  561TMC3    C4 8374   1.621   1.061  11.477 -0.9237 -0.8609 -0.6289
  561TMC3    C5 8375   1.570   1.102  11.597 -0.6734 -0.3748  0.3899
  561TMC3    C6 8376   1.492   1.025  11.676 -0.8350 -0.3641  0.4919
  561TMC3     C 8377   1.611   0.882  11.304 -0.2316 -0.6291 -0.6022
  561TMC3     O 8378   1.545   0.785  11.267 -0.0600 -0.2325  0.1286
  561TMC3     H 8379   1.476   0.751  11.486  0.9363  0.6669 -1.8110
  561TMC3    H1 8380   1.617   1.127  11.392  1.7923  0.0001 -0.0864
  561TMC3    H2 8381   1.431   1.061  11.758  0.0643 -0.5844  1.2488
  561TMC3    C7 8382   1.554   1.241  11.618 -0.3726 -0.0780  0.5307
  561TMC3    C8 8383   1.361   0.811  11.696 -0.0500 -0.3075  1.5853
  561TMC3    O1 8384   1.489   1.291  11.706  0.9016 -0.5879 -0.5674
  561TMC3    O2 8385   1.349   0.698  11.646  0.3837 -0.4593 -0.5126
  562TMC3    C1 8386   2.999   2.025  16.156  0.5925  0.2339 -0.3921
  562TMC3    C2 8387   2.942   2.136  16.097 -0.4635  0.4692  0.1186
  562TMC3    C3 8388   2.973   2.157  15.964 -0.0840  0.3347 -0.3025
  562TMC3    C4 8389   3.104   1.962  16.096  0.2760  0.0512  0.4665
  562TMC3    C5 8390   3.146   1.992  15.968 -0.3873  0.8237  0.2811
  562TMC3    C6 8391   3.075   2.089  15.901  1.2672  0.7063  0.2727
  562TMC3     C 8392   2.963   2.013  16.298 -0.6968 -0.0554  0.1751
  562TMC3     O 8393   2.937   2.114  16.364  0.4965 -0.1670 -0.3167
  562TMC3     H 8394   2.878   2.196  16.161  0.3501 -0.5215  1.8379
  562TMC3    H1 8395   3.148   1.878  16.149 -0.5302 -0.4393  0.3570
  562TMC3    H2 8396   3.105   2.126  15.803  2.1534 -2.2472 -0.5703
  562TMC3    C7 8397   3.225   1.906  15.886 -0.4557  0.5553  0.2454
  562TMC3    C8 8398   2.893   2.262  15.894 -0.3876 -0.2911  0.3726
  562TMC3    O1 8399   3.276   1.953  15.783 -0.5554  0.4058  0.0204
  562TMC3    O2 8400   2.797   2.305  15.954  0.1932 -0.6137 -0.1586
  563MPD2     C 8401   0.540   3.352  15.937  0.6001 -0.3065  1.2935
  563MPD2    C1 8402   0.611   3.364  16.047 -0.9361  0.2562 -0.2787
  563MPD2    C2 8403   0.680   3.249  16.096 -0.1609 -0.1561 -0.6107
  563MPD2    C3 8404   0.690   3.132  16.020  0.0395  0.2689  0.3821
  563MPD2    C4 8405   0.627   3.122  15.899  0.3141 -0.3433  0.1169
  563MPD2    C5 8406   0.545   3.232  15.863  0.0712  0.3836 -0.0413
  563MPD2     H 8407   0.723   3.259  16.195  0.5110  2.6456 -1.1924
  563MPD2    H1 8408   0.607   3.030  15.846  1.0618  0.1695 -1.0617
  563MPD2    H2 8409   0.475   3.428  15.895 -1.0170 -1.6614  1.3591
  563MPD2    H3 8410   0.482   3.227  15.775  2.2425 -1.1669 -1.5096
  563MPD2     N 8411   0.766   3.031  16.083  0.7390 -0.2030  0.5812
  563MPD2    H5 8412   0.800   3.051  16.177  3.3985 -0.7023 -0.2586
  563MPD2    N1 8413   0.597   3.485  16.123 -0.5864 -0.2818 -0.5523
  563MPD2    H7 8414   0.523   3.549  16.097 -1.4315 -1.3087 -0.6751
  564TMC3    C1 8415   0.628   3.570  16.346 -0.2140 -0.0998  0.2780
  564TMC3    C2 8416   0.493   3.579  16.356 -0.2798 -0.1446 -0.0720
  564TMC3    C3 8417   0.427   3.514  16.456 -0.1195 -0.2605 -0.0734
  564TMC3    C4 8418   0.698   3.504  16.438 -0.3707  0.3864  0.8741
  564TMC3    C5 8419   0.636   3.438  16.542  0.3294 -1.3003  0.5386
  564TMC3    C6 8420   0.500   3.456  16.557  0.6141  0.4653  0.3563
  564TMC3     C 8421   0.684   3.524  16.218 -0.4698 -0.0281  0.2336
  564TMC3     O 8422   0.800   3.487  16.219  0.3639 -0.0254  0.5826
  564TMC3     H 8423   0.438   3.637  16.282 -0.4017 -0.5804 -0.3257
  564TMC3    H1 8424   0.802   3.476  16.429 -0.3555  1.5542 -2.5804
  564TMC3    H2 8425   0.456   3.410  16.645 -1.0190  1.8989  0.2733
  564TMC3    C7 8426   0.672   3.300  16.545  0.6551  0.0004  0.0543
  564TMC3    C8 8427   0.305   3.441  16.436 -0.5766 -0.5160 -0.0680
  564TMC3    O1 8428   0.789   3.272  16.534  0.4619  0.0099  0.8194
  564TMC3    O2 8429   0.288   3.347  16.514 -0.4099 -0.5121  0.1736
  565TMC3    C1 8430   1.098   0.227   9.735 -0.1398 -0.1458  0.4237
  565TMC3    C2 8431   1.076   0.093   9.774  0.2154 -0.4867 -0.2540
  565TMC3    C3 8432   1.132   4.732   9.694  0.3304 -0.1641 -0.5826
  565TMC3    C4 8433   1.174   0.253   9.628 -0.1083 -0.8924  0.3489
  565TMC3    C5 8434   1.234   0.149   9.554  0.6559  0.6710 -0.3640
  565TMC3    C6 8435   1.225   0.019   9.595 -0.6131 -0.2071  0.2315
  565TMC3     C 8436   1.074   0.341   9.829 -0.4323 -0.6069  0.2110
  565TMC3     O 8437   1.103   0.455   9.793 -0.0743 -0.6703 -0.3511
  565TMC3     H 8438   1.016   0.061   9.858 -0.9852 -0.0027 -0.9384
  565TMC3    H1 8439   1.193   0.355   9.597 -1.8426 -1.1980 -1.6748
  565TMC3    H2 8440   1.261   4.680   9.527  3.3936 -0.2193  2.3456
  565TMC3    C7 8441   1.351   0.179   9.476 -0.1544 -0.4106 -0.1926
  565TMC3    C8 8442   1.087   4.599   9.722  0.4448 -0.5011 -0.3794
  565TMC3    O1 8443   1.442   0.096   9.493 -0.7174 -0.5916 -0.6384
  565TMC3    O2 8444   1.023   4.575   9.821 -0.1272 -0.6501 -0.3217
  566MPD2     C 8445   3.262   2.033  14.675 -0.0321  0.8300  0.1362
  566MPD2    C1 8446   3.285   2.047  14.543  0.3410 -0.2597 -0.1186
  566MPD2    C2 8447   3.189   1.995  14.461  0.1265 -0.1514 -1.6690
  566MPD2    C3 8448   3.085   1.918  14.505 -0.3509  0.3241  0.0262
  566MPD2    C4 8449   3.067   1.895  14.638  0.4009 -0.5086 -0.3514
  566MPD2    C5 8450   3.152   1.962  14.726 -0.7134 -1.1251 -0.2511
  566MPD2     H 8451   3.204   2.018  14.356 -2.8903 -0.8420 -2.2515
  566MPD2    H1 8452   2.986   1.834  14.677 -0.5290 -0.8833 -2.8265
  566MPD2    H2 8453   3.316   2.088  14.751  0.7403 -0.9328  0.8727
  566MPD2    H3 8454   3.129   1.953  14.831 -3.5592  1.2050 -0.6747
  566MPD2     N 8455   2.995   1.850  14.416  0.0617 -0.0347 -0.7423
  566MPD2    H5 8456   2.916   1.803  14.457  0.1807  0.2510 -0.1853
  566MPD2    N1 8457   3.402   2.117  14.506 -0.0738 -0.4530  0.4680
  566MPD2    H7 8458   3.451   2.174  14.573 -0.2686  1.2956 -0.8895
  567TMC3    C1 8459   3.423   2.024  14.281  0.0973  0.2809 -0.1777
  567TMC3    C2 8460   3.418   2.073  14.154  1.0964  0.5640  0.2480
  567TMC3    C3 8461   3.399   1.979  14.054 -0.0630  0.0213  0.2419
  567TMC3    C4 8462   3.433   1.892  14.309  0.0291  0.1630  0.8675
  567TMC3    C5 8463   3.422   1.799  14.214 -0.1832 -0.5930 -0.7278
  567TMC3    C6 8464   3.396   1.841  14.084 -0.8019 -0.4552 -0.3603
  567TMC3     C 8465   3.461   2.121  14.380 -0.8077 -0.2495 -0.3872
  567TMC3     O 8466   3.550   2.196  14.337 -0.2831  1.1801  0.1412
  567TMC3     H 8467   3.436   2.177  14.129  0.7433  0.3778 -0.7731
  567TMC3    H1 8468   3.464   1.868  14.410 -0.2965 -1.8751  0.4909
  567TMC3    H2 8469   3.364   1.765  14.014 -1.1385  0.4191 -1.1618
  567TMC3    C7 8470   3.372   1.666  14.241 -0.0316  0.8073 -0.0804
  567TMC3    C8 8471   3.365   2.032  13.926  0.6778  0.0229  0.1523
  567TMC3    O1 8472   3.361   1.591  14.147  0.6356 -0.0533 -0.3734
  567TMC3    O2 8473   3.341   2.151  13.919 -0.2620  0.5876 -0.1606
  568MPD2     C 8474   0.654   2.195  16.338 -0.7329 -0.9009 -0.1234
  568MPD2    C1 8475   0.628   2.233  16.470 -0.2713  0.3023 -1.0332
  568MPD2    C2 8476   0.515   2.316  16.501 -0.3925  0.1298 -0.1669
  568MPD2    C3 8477   0.440   2.367  16.394 -0.1339 -0.1644 -0.3630
  568MPD2    C4 8478   0.469   2.335  16.264 -0.2316  0.2230 -0.4406
  568MPD2    C5 8479   0.569   2.242  16.240  0.0687  0.3287  0.4760
  568MPD2     H 8480   0.486   2.350  16.599  0.9669 -0.3336  0.3978
  568MPD2    H1 8481   0.417   2.379  16.179  1.4082  2.3027 -0.3665
  568MPD2    H2 8482   0.737   2.128  16.315 -1.4747 -1.6838 -0.5380
  568MPD2    H3 8483   0.585   2.201  16.141 -1.2258  0.7486  0.0933
  568MPD2     N 8484   0.348   2.466  16.426  0.6078 -0.3320  0.0664
  568MPD2    H5 8485   0.350   2.482  16.526 -2.2904  2.1806 -0.2951
  568MPD2    N1 8486   0.724   2.188  16.565  0.4091 -0.1051 -0.4304
  568MPD2    H7 8487   0.791   2.120  16.531 -0.2235 -1.4199  0.9586
  569TMC3    C1 8488   0.191   2.639  16.409 -0.2084  0.3479  1.0482
  569TMC3    C2 8489   0.236   2.693  16.530  0.8463  0.4613 -0.0296
  569TMC3    C3 8490   0.170   2.806  16.571 -0.5906 -0.0865 -0.9534
  569TMC3    C4 8491   0.089   2.687  16.340 -0.1610 -0.5835  0.2342
  569TMC3    C5 8492   0.022   2.795  16.386  0.1486 -0.4535  0.6654
  569TMC3    C6 8493   0.061   2.853  16.507  0.5289  0.2197 -0.4003
  569TMC3     C 8494   0.268   2.536  16.343 -0.0767 -0.3844  0.2684
  569TMC3     O 8495   0.261   2.532  16.226  0.1570 -0.0104  0.0738
  569TMC3     H 8496   0.325   2.660  16.582  1.4481  3.8930  1.1153
  569TMC3    H1 8497   0.070   2.646  16.242  0.2637  2.3721 -1.1005
  569TMC3    H2 8498   0.009   2.937  16.551  0.3982 -0.9298  1.6658
  569TMC3    C7 8499   0.002   2.897  16.290  0.1169 -0.6126  0.0712
  569TMC3    C8 8500   0.209   2.877  16.693  0.2771  0.0009  0.1298
  569TMC3    O1 8501   4.693   2.855  16.184 -0.8310 -0.3016  0.2432
  569TMC3    O2 8502   0.118   2.947  16.736  0.0971 -0.1951 -0.3401
  570TMC3    C1 8503   4.169   0.920  16.170 -0.5757 -0.2211 -0.7730
  570TMC3    C2 8504   4.244   0.925  16.059  0.9484  0.3807 -0.4280
  570TMC3    C3 8505   4.243   1.034  15.983 -0.6269 -0.0555  0.5874
  570TMC3    C4 8506   4.079   1.020  16.195 -0.0656 -0.1571  0.5338
  570TMC3    C5 8507   4.074   1.127  16.103  0.8494  0.5658 -0.3892
  570TMC3    C6 8508   4.164   1.141  15.999  0.7122  0.2724 -0.3799
  570TMC3     C 8509   4.145   0.788  16.229 -0.5499 -0.0820  0.1679
  570TMC3     O 8510   4.176   0.691  16.162 -0.5929  0.9750 -0.0740
  570TMC3     H 8511   4.313   0.844  16.037  1.2079 -0.0192  1.8621
  570TMC3    H1 8512   4.013   1.021  16.281 -1.4313 -0.8246 -0.5056
  570TMC3    H2 8513   4.158   1.222  15.927  0.5937 -0.4777 -1.2179
  570TMC3    C7 8514   4.027   1.253  16.161 -0.5579 -0.1442  0.8621
  570TMC3    C8 8515   4.370   1.061  15.911  0.6141 -0.3507 -0.1331
  570TMC3    O1 8516   4.024   1.267  16.283  0.0808 -0.0686 -0.0572
  570TMC3    O2 8517   4.391   1.180  15.901 -0.2280 -0.4349 -0.2725
  571MPD2     C 8518   2.189   2.509   0.023 -0.3235 -0.0648 -0.4733
  571MPD2    C1 8519   2.230   2.452   0.141  0.1914  0.2535  0.3903
  571MPD2    C2 8520   2.265   2.546   0.237 -0.5980 -0.3444 -0.0319
  571MPD2    C3 8521   2.260   2.686   0.231  0.8636  0.4300 -0.0719
  571MPD2    C4 8522   2.236   2.733   0.102  0.0306 -0.0940  0.4802
  571MPD2    C5 8523   2.197   2.651  17.747 -0.1284  0.1430  0.6023
  571MPD2     H 8524   2.289   2.512   0.337 -1.0839  0.3692  0.3241
  571MPD2    H1 8525   2.252   2.839   0.089  1.6463 -0.5716 -1.3524
  571MPD2    H2 8526   2.166   2.449  17.684 -1.7743 -0.9023  0.4818
  571MPD2    H3 8527   2.179   2.684  17.645  2.4602 -2.7028 -0.7862
  571MPD2     N 8528   2.300   2.772   0.334  0.4312 -0.8268 -0.3941
  571MPD2    H5 8529   2.291   2.873   0.324  1.1429 -0.8661 -1.3195
  571MPD2    N1 8530   2.221   2.313   0.166  0.2061 -0.2084  0.0459
  571MPD2    H7 8531   2.179   2.256   0.094 -1.1006 -1.6687  1.9646
  572TMC3    C1 8532   2.307   2.828   0.563 -0.1234 -0.0456 -0.4188
  572TMC3    C2 8533   2.359   2.804   0.687  0.0653  0.5300 -0.1484
  572TMC3    C3 8534   2.302   2.868   0.793 -0.0906 -0.4396  0.2222
  572TMC3    C4 8535   2.221   2.931   0.539  0.7216  0.1716 -0.1118
  572TMC3    C5 8536   2.170   2.996   0.646 -0.2942  0.1310 -0.0632
  572TMC3    C6 8537   2.199   2.962   0.776 -0.9817  0.4370 -0.3661
  572TMC3     C 8538   2.343   2.735   0.461 -0.6156  0.3207  0.3216
  572TMC3     O 8539   2.379   2.627   0.500  0.0656  0.4327  0.1993
  572TMC3     H 8540   2.435   2.728   0.703 -0.9648 -0.1672  1.4595
  572TMC3    H1 8541   2.193   2.965   0.440 -0.6616  1.9174  0.8838
  572TMC3    H2 8542   2.149   3.020   0.852  0.2685 -3.3604  3.3488
  572TMC3    C7 8543   2.101   3.122   0.611 -0.6517  0.9806  0.3493
  572TMC3    C8 8544   2.318   2.796   0.919 -0.1076 -0.0824 -0.2390
  572TMC3    O1 8545   2.040   3.135   0.501 -0.2847  0.3531  0.5677
  572TMC3    O2 8546   2.384   2.689   0.908 -0.0580 -0.6854 -0.0697
  573MPD2     C 8547   4.440   2.977   0.783  0.1511 -0.2484  0.6055
  573MPD2    C1 8548   4.433   3.081   0.694  0.0704 -0.5921 -0.3973
  573MPD2    C2 8549   4.347   3.069   0.590 -0.4048 -0.1720  0.0072
  573MPD2    C3 8550   4.264   2.963   0.577 -0.5191  0.2520 -0.4420
  573MPD2    C4 8551   4.275   2.856   0.664  0.6861 -0.1169 -0.0639
  573MPD2    C5 8552   4.357   2.868   0.767 -0.6156  0.2279 -0.6397
  573MPD2     H 8553   4.354   3.143   0.511 -2.1430  0.6154  0.5964
  573MPD2    H1 8554   4.225   2.766   0.632  2.0353 -1.3571  1.3106
  573MPD2    H2 8555   4.515   2.982   0.862  1.9305 -1.3500 -0.9935
  573MPD2    H3 8556   4.355   2.793   0.846  2.6024  1.3645  0.5121
  573MPD2     N 8557   4.173   2.943   0.473  0.6182 -0.1176 -0.6506
  573MPD2    H5 8558   4.110   2.864   0.468 -1.1189  1.1371  1.4064
  573MPD2    N1 8559   4.515   3.193   0.719  0.3760 -0.0849 -0.7706
  573MPD2    H7 8560   4.575   3.185   0.800  2.3005  1.0009 -2.0768
  574TMC3    C1 8561   4.041   3.006   0.286 -0.0068 -0.2549  0.7474
  574TMC3    C2 8562   3.921   2.977   0.349  0.0257  0.3253  0.4980
  574TMC3    C3 8563   3.805   2.984   0.280  0.1289  0.2946  0.1938
  574TMC3    C4 8564   4.041   3.048   0.160  0.6273  0.0213  0.2801
  574TMC3    C5 8565   3.922   3.058   0.088  0.3963 -0.1173 -0.0456
  574TMC3    C6 8566   3.803   3.035   0.154 -0.0200  0.3477 -0.0709
  574TMC3     C 8567   4.160   3.028   0.359 -0.0094 -0.2805  0.0270
  574TMC3     O 8568   4.230   3.119   0.317 -0.8780 -0.0154 -0.0499
  574TMC3     H 8569   3.914   2.940   0.451  0.8442 -1.5177 -0.1304
  574TMC3    H1 8570   4.133   3.082   0.116 -1.2265 -0.6531 -4.0798
  574TMC3    H2 8571   3.708   3.040   0.102  0.6426  1.2263 -1.2143
  574TMC3    C7 8572   3.929   3.036  17.700  0.3081  0.1130 -0.1763
  574TMC3    C8 8573   3.694   3.046   0.365 -0.9587 -0.3438 -0.1461
  574TMC3    O1 8574   4.028   3.090  17.642  0.2742  0.4599 -0.0227
  574TMC3    O2 8575   3.661   3.004   0.475 -0.4159  0.0165 -0.0297
  575TMC3    C1 8576   0.608   4.106  10.172 -0.1363  0.6162 -0.4982
  575TMC3    C2 8577   0.657   3.988  10.219  0.5549  0.2146  0.1672
  575TMC3    C3 8578   0.737   3.916  10.137 -0.2098  0.8007  0.0555
  575TMC3    C4 8579   0.626   4.150  10.045  0.1695 -0.2845 -0.1599
  575TMC3    C5 8580   0.717   4.087   9.967 -0.0048 -0.2541  0.7236
  575TMC3    C6 8581   0.770   3.968  10.013  0.9670  0.4557 -0.3865
  575TMC3     C 8582   0.548   4.203  10.258 -0.6863 -0.3380 -0.8498
  575TMC3     O 8583   0.467   4.281  10.210  0.1075 -0.1905 -0.1743
  575TMC3     H 8584   0.625   3.949  10.315  2.5033 -1.1820  0.2367
  575TMC3    H1 8585   0.595   4.252  10.026  1.2930  0.3862  1.5932
  575TMC3    H2 8586   0.851   3.916   9.964  0.3605 -0.2491 -0.6554
  575TMC3    C7 8587   0.794   4.171   9.880  0.1685 -0.0419  1.1787
  575TMC3    C8 8588   0.774   3.778  10.175  0.0377 -0.2532 -0.1734
  575TMC3    O1 8589   0.750   4.283   9.871 -0.1516 -0.0776 -0.0178
  575TMC3    O2 8590   0.745   3.738  10.285  0.2164  0.3988 -0.0036
  576MPD2     C 8591   0.240   1.131  12.611  0.1832 -0.3262 -0.8466
  576MPD2    C1 8592   0.353   1.203  12.627  0.6826 -0.0679  0.9229
  576MPD2    C2 8593   0.366   1.294  12.734 -0.3580 -0.0950 -0.1117
  576MPD2    C3 8594   0.264   1.299  12.823 -0.2550 -0.1247 -0.1063
  576MPD2    C4 8595   0.147   1.230  12.804  0.0211  0.8491 -0.3369
  576MPD2    C5 8596   0.136   1.151  12.696  0.3836  0.1652 -0.3215
  576MPD2     H 8597   0.459   1.346  12.756 -1.5783  1.9607  0.1673
  576MPD2    H1 8598   0.068   1.239  12.878 -0.0250 -0.6965 -0.1881
  576MPD2    H2 8599   0.215   1.058  12.535  0.4040  1.2875 -2.4853
  576MPD2    H3 8600   0.049   1.089  12.683  1.3347 -1.2002 -0.1919
  576MPD2     N 8601   0.285   1.384  12.937  1.1775 -0.1915 -0.3869
  576MPD2    H5 8602   0.366   1.444  12.947  1.3092 -0.2655 -0.9994
  576MPD2    N1 8603   0.465   1.193  12.544  0.4499 -0.3370  0.4307
  576MPD2    H7 8604   0.544   1.255  12.558  0.3060  0.6257 -2.9775
  577TMC3    C1 8605   0.612   1.105  12.383 -0.6080 -0.0018 -0.1778
  577TMC3    C2 8606   0.668   0.993  12.329  0.6002 -0.6971  0.0266
  577TMC3    C3 8607   0.789   1.002  12.264 -0.1720 -0.2450 -0.5131
  577TMC3    C4 8608   0.672   1.224  12.359  0.1527 -0.2607 -0.3773
  577TMC3    C5 8609   0.790   1.225  12.292 -0.1487 -0.2391  0.4453
  577TMC3    C6 8610   0.861   1.113  12.254  0.2220 -0.2299  0.2892
  577TMC3     C 8611   0.488   1.083  12.463  0.1223 -0.2504  0.1660
  577TMC3     O 8612   0.437   0.973  12.446 -0.6779  0.8707  0.3488
  577TMC3     H 8613   0.613   0.900  12.331  0.9430 -0.8981  0.2543
  577TMC3    H1 8614   0.616   1.313  12.385  0.0602 -0.6599  0.8045
  577TMC3    H2 8615   0.950   1.126  12.194  1.4703  0.2404  2.2474
  577TMC3    C7 8616   0.835   1.347  12.225  0.1547 -0.3006 -0.5991
  577TMC3    C8 8617   0.844   0.881  12.203  0.3184  0.0491  0.2744
  577TMC3    O1 8618   0.957   1.366  12.219 -0.8052 -0.0540 -0.0852
  577TMC3    O2 8619   0.785   0.773  12.230 -0.4532 -0.0419  0.4599
  578MPD2     C 8620   3.689   1.482   0.693  0.5450 -0.7292 -0.7700
  578MPD2    C1 8621   3.746   1.394   0.602  0.1642  0.8766  0.0599
  578MPD2    C2 8622   3.863   1.329   0.631  0.1618 -0.3225 -0.2326
  578MPD2    C3 8623   3.922   1.342   0.759  0.5453  0.4249 -0.0227
  578MPD2    C4 8624   3.855   1.421   0.854  0.1182 -0.3883 -0.1070
  578MPD2    C5 8625   3.742   1.492   0.818  0.0545 -0.4979  0.7767
  578MPD2     H 8626   3.903   1.263   0.555  0.7038  0.0152 -0.2356
  578MPD2    H1 8627   3.903   1.431   0.951 -1.0056  0.2897  0.3801
  578MPD2    H2 8628   3.600   1.536   0.664  0.4467  1.0441  2.8360
  578MPD2    H3 8629   3.696   1.541   0.903 -1.3920  1.6154 -1.2156
  578MPD2     N 8630   4.049   1.282   0.776  0.2573 -0.6535  0.1471
  578MPD2    H5 8631   4.069   1.210   0.707 -1.2265 -0.3649 -0.5897
  578MPD2    N1 8632   3.683   1.387   0.477 -0.4436  0.1476  0.4180
  578MPD2    H7 8633   3.590   1.427   0.468  0.2426  1.9780  1.6063
  579TMC3    C1 8634   4.275   1.277   0.872  0.6098 -0.5004  0.0775
  579TMC3    C2 8635   4.383   1.350   0.928 -0.1514 -0.4652  0.2473
  579TMC3    C3 8636   4.500   1.281   0.935  0.0837  0.0717  0.2307
  579TMC3    C4 8637   4.286   1.154   0.814 -0.2480  0.6295 -0.2434
  579TMC3    C5 8638   4.414   1.097   0.807 -0.2107 -0.4192 -0.4023
  579TMC3    C6 8639   4.518   1.164   0.871 -0.6829  0.0591 -0.2058
  579TMC3     C 8640   4.139   1.333   0.865  0.2252 -0.8679  0.0313
  579TMC3     O 8641   4.122   1.425   0.944  0.4074  0.0300 -0.0146
  579TMC3     H 8642   4.368   1.439   0.989  1.1500  0.6670 -1.0742
  579TMC3    H1 8643   4.199   1.100   0.777 -0.3038  0.6329 -0.1182
  579TMC3    H2 8644   4.614   1.113   0.871 -1.5531 -1.5858 -1.4328
  579TMC3    C7 8645   4.438   0.986   0.726  0.2254  0.3542  0.3850
  579TMC3    C8 8646   4.613   1.349   0.979  0.8084 -0.0740 -0.6065
  579TMC3    O1 8647   4.556   0.961   0.721 -0.2062 -0.1935  0.0315
  579TMC3    O2 8648   4.595   1.397   1.090 -0.0183 -0.0854  0.5649
  580TMC3    C1 8649   3.348   0.699  12.693 -0.2474  0.9578 -0.4907
  580TMC3    C2 8650   3.479   0.738  12.702  0.7047 -0.3323 -0.2750
  580TMC3    C3 8651   3.579   0.644  12.678  0.0084  0.4097 -0.0485
  580TMC3    C4 8652   3.314   0.566  12.657 -0.7483 -0.8666 -0.1525
  580TMC3    C5 8653   3.419   0.481  12.637 -0.3678 -0.1195  0.0681
  580TMC3    C6 8654   3.549   0.513  12.658 -0.0197  0.2916  0.2882
  580TMC3     C 8655   3.264   0.806  12.635  0.4533  0.1247  0.2752
  580TMC3     O 8656   3.310   0.918  12.629  0.2230  0.2784 -0.5997
  580TMC3     H 8657   3.500   0.841  12.726  2.2113 -0.6136 -0.3910
  580TMC3    H1 8658   3.213   0.529  12.644 -1.3549  0.5856  0.3327
  580TMC3    H2 8659   3.624   0.436  12.652  0.7243  0.9754  0.7901
  580TMC3    C7 8660   3.384   0.339  12.614 -0.4804  0.9428  0.7983
  580TMC3    C8 8661   3.663   0.682  12.567 -0.5590 -0.4880 -0.0893
  580TMC3    O1 8662   3.420   0.256  12.695  0.1189 -0.2984 -0.0786
  580TMC3    O2 8663   3.675   0.594  12.485 -0.0756  0.4050  0.3504
  581MPD2     C 8664   0.857   0.150  15.096 -0.0805  0.0107 -0.2463
  581MPD2    C1 8665   0.775   0.242  15.159 -0.2545  0.8219 -0.1815
  581MPD2    C2 8666   0.686   0.317  15.082 -0.4320 -0.5082 -0.2874
  581MPD2    C3 8667   0.683   0.298  14.944 -0.5300 -0.1939 -0.2687
  581MPD2    C4 8668   0.756   0.196  14.885 -0.9208  0.1410 -0.5198
  581MPD2    C5 8669   0.835   0.117  14.962 -0.0399  0.4671 -1.0876
  581MPD2     H 8670   0.631   0.402  15.120  2.2027  1.6694 -1.3993
  581MPD2    H1 8671   0.747   0.163  14.783 -2.1301 -1.7383  0.1897
  581MPD2    H2 8672   0.924   0.088  15.155  0.8655  2.5347  1.3436
  581MPD2    H3 8673   0.894   0.038  14.917  3.1792  1.7028  0.9777
  581MPD2     N 8674   0.595   0.383  14.873  0.1121  0.1828  0.6235
  581MPD2    H5 8675   0.549   0.459  14.923 -2.1803 -1.5459  1.1715
  581MPD2    N1 8676   0.811   0.273  15.290  0.2007 -0.2260 -0.2947
  581MPD2    H7 8677   0.888   0.218  15.327  0.4429 -0.2235 -0.8033
  582TMC3    C1 8678   0.828   0.359  15.503  0.3918 -0.1946  0.6817
  582TMC3    C2 8679   0.920   0.267  15.544 -0.6239 -0.1382  0.2333
  582TMC3    C3 8680   0.938   0.246  15.676  0.3256 -0.1252 -0.2363
  582TMC3    C4 8681   0.771   0.439  15.601  0.0928 -0.1243  0.3701
  582TMC3    C5 8682   0.788   0.414  15.732  0.0142  0.6358 -0.7587
  582TMC3    C6 8683   0.865   0.312  15.772 -0.2060  0.0573 -0.0527
  582TMC3     C 8684   0.764   0.367  15.376  0.2390  0.4018 -0.4949
  582TMC3     O 8685   0.675   0.446  15.361 -0.0817 -0.7489 -0.3624
  582TMC3     H 8686   0.965   0.187  15.485 -2.2006 -1.7742  1.2596
  582TMC3    H1 8687   0.703   0.519  15.575  1.7114  1.7462  1.8916
  582TMC3    H2 8688   0.891   0.306  15.877  1.3900 -1.0593 -0.5058
  582TMC3    C7 8689   0.823   0.528  15.800  0.3414  0.3453 -0.0472
  582TMC3    C8 8690   1.076   0.214  15.717  0.3384  0.1842 -0.5079
  582TMC3    O1 8691   0.746   0.562  15.888 -0.7938  0.4024  0.6293
  582TMC3    O2 8692   1.119   0.285  15.811 -0.0149  0.1476  0.0782
  583MPD2     C 8693   1.750   1.330  16.864  0.1242 -0.1666 -0.6813
  583MPD2    C1 8694   1.711   1.449  16.802  0.4445 -0.1492 -0.5517
  583MPD2    C2 8695   1.635   1.548  16.865  0.1089  0.3148  0.6270
  583MPD2    C3 8696   1.592   1.527  16.997 -0.0020  0.9640 -0.6510
  583MPD2    C4 8697   1.646   1.410  17.061 -0.1539  0.7179  0.9911
  583MPD2    C5 8698   1.722   1.310  16.998 -0.1214 -0.1172  0.1551
  583MPD2     H 8699   1.610   1.641  16.816 -0.6280  0.4200  1.1950
  583MPD2    H1 8700   1.620   1.386  17.163 -0.4491 -0.7233  0.5755
  583MPD2    H2 8701   1.820   1.258  16.822 -1.0279 -0.7441 -1.6104
  583MPD2    H3 8702   1.759   1.226  17.056  1.1310 -0.0751 -0.5852
  583MPD2     N 8703   1.527   1.632  17.077  0.5329 -0.5720  0.0306
  583MPD2    H5 8704   1.506   1.714  17.020  0.7209 -0.6808 -0.1976
  583MPD2    N1 8705   1.736   1.471  16.666  0.3953 -0.0315 -0.3904
  583MPD2    H7 8706   1.683   1.546  16.624  1.0911  1.0304  0.6306
  584TMC3    C1 8707   1.420   1.737  17.260  0.3795  0.0949 -0.3243
  584TMC3    C2 8708   1.413   1.858  17.199 -0.1949  0.3223 -0.4084
  584TMC3    C3 8709   1.344   1.961  17.256  0.1316 -0.0487 -0.2304
  584TMC3    C4 8710   1.373   1.722  17.389 -0.5219 -0.4716 -0.5467
  584TMC3    C5 8711   1.325   1.837  17.453 -0.4616  0.3053 -0.7006
  584TMC3    C6 8712   1.305   1.955  17.384 -0.1944 -0.4899  0.7794
  584TMC3     C 8713   1.479   1.613  17.205 -0.3715  0.0334 -0.6730
  584TMC3     O 8714   1.490   1.516  17.281  0.3403  0.1048  0.3194
  584TMC3     H 8715   1.445   1.867  17.096 -0.3196  2.6916 -0.2416
  584TMC3    H1 8716   1.388   1.632  17.447 -0.9275 -0.5204 -0.5199
  584TMC3    H2 8717   1.266   2.042  17.436 -1.2534  0.6036 -1.8724
  584TMC3    C7 8718   1.304   1.825  17.597  0.1358  0.9055 -0.1625
  584TMC3    C8 8719   1.366   2.085  17.190  0.0470  0.3072  0.1518
  584TMC3    O1 8720   1.307   1.712  17.634 -0.4278  0.3859  0.0510
  584TMC3    O2 8721   1.357   2.089  17.067 -0.1412  0.5430  0.4649
  585MPD2     C 8722   0.885   0.817   0.154  1.0050  0.0580 -0.2299
  585MPD2    C1 8723   0.990   0.748   0.107 -0.5474 -0.7145  0.0118
  585MPD2    C2 8724   0.974   0.617   0.066  0.1537  0.1512  0.1595
  585MPD2    C3 8725   0.850   0.554   0.079 -0.2419  0.4460  0.1992
  585MPD2    C4 8726   0.748   0.618   0.142 -0.8340  0.0339 -0.1191
  585MPD2    C5 8727   0.768   0.751   0.175  0.0918  0.2396  0.2734
  585MPD2     H 8728   1.060   0.564   0.028 -0.5387  0.2530 -1.5250
  585MPD2    H1 8729   0.653   0.568   0.154 -0.8392  0.1276  0.2182
  585MPD2    H2 8730   0.889   0.916   0.199  0.1858 -0.8003  1.7218
  585MPD2    H3 8731   0.687   0.806   0.220 -0.2390 -1.9072  2.2688
  585MPD2     N 8732   0.820   0.428   0.024 -0.8449 -0.2076  0.1025
  585MPD2    H5 8733   0.728   0.388   0.041  0.3133 -3.3343 -1.2615
  585MPD2    N1 8734   1.114   0.812   0.102 -0.1900  0.1087  0.1125
  585MPD2    H7 8735   1.106   0.908   0.135 -0.7653  0.0262  0.2212
  586TMC3    C1 8736   0.854   0.217  17.667 -0.5506  0.3827  0.8403
  586TMC3    C2 8737   0.941   0.116  17.633 -0.4459  0.4254  0.3547
  586TMC3    C3 8738   0.894   4.738  17.578  0.3369 -0.1325  0.2104
  586TMC3    C4 8739   0.714   0.194  17.664 -0.4255  0.0471 -0.4594
  586TMC3    C5 8740   0.679   0.063  17.620  0.5575  0.1198  0.0372
  586TMC3    C6 8741   0.766   4.701  17.582 -0.4890  0.0043 -0.0988
  586TMC3     C 8742   0.905   0.350  17.705 -0.1226 -0.2369 -0.7817
  586TMC3     O 8743   1.023   0.371  17.674  0.1419 -0.3951 -0.1991
  586TMC3     H 8744   1.048   0.126  17.647 -0.1141 -1.4738 -0.7306
  586TMC3    H1 8745   0.638   0.267  17.689  0.0395  0.1232  0.7204
  586TMC3    H2 8746   0.727   4.609  17.542 -1.5803 -0.1641  1.3480
  586TMC3    C7 8747   0.532   0.043  17.589 -0.3108  0.2021  0.2114
  586TMC3    C8 8748   0.994   4.637  17.546 -0.8296  0.3057 -0.2615
  586TMC3    O1 8749   0.498   4.670  17.547 -0.4122 -0.1017 -0.0516
  586TMC3    O2 8750   1.000   4.530  17.608 -0.0584 -0.7918 -0.7101
  587TMC3    C1 8751   2.903   3.775  16.678 -0.8615 -0.2743 -0.1289
  587TMC3    C2 8752   2.993   3.866  16.721  1.0446  0.0590 -0.1987
  587TMC3    C3 8753   3.117   3.815  16.745 -0.0403 -0.2990 -0.4527
  587TMC3    C4 8754   2.914   3.639  16.682  0.1698 -0.3773 -0.7035
  587TMC3    C5 8755   3.040   3.596  16.719 -0.5228  0.4921 -0.4639
  587TMC3    C6 8756   3.144   3.682  16.744  0.0095 -0.0223  0.0781
  587TMC3     C 8757   2.810   3.824  16.578  0.3403  0.4495 -0.3535
  587TMC3     O 8758   2.845   3.928  16.524  0.2516 -0.5403 -0.4508
  587TMC3     H 8759   2.972   3.973  16.719 -1.3001 -0.3870  0.6229
  587TMC3    H1 8760   2.831   3.573  16.661  0.7351 -1.7039  1.1816
  587TMC3    H2 8761   3.245   3.650  16.765  0.1828 -0.3854 -1.3177
  587TMC3    C7 8762   3.054   3.450  16.729 -0.2284  0.5590  0.6252
  587TMC3    C8 8763   3.208   3.890  16.828  0.7006  0.4269 -0.1824
  587TMC3    O1 8764   2.969   3.387  16.666  0.1320 -0.6578 -0.5060
  587TMC3    O2 8765   3.293   3.830  16.896 -0.2749  0.1782 -0.1491
  588TMC3    C1 8766   0.290   2.142  10.033  0.2616  0.0001  0.5629
  588TMC3    C2 8767   0.246   2.016  10.005  0.1479  0.8564 -0.0582
  588TMC3    C3 8768   0.340   1.918  10.018  0.0311  0.9639 -0.5136
  588TMC3    C4 8769   0.419   2.166  10.063  0.0050  0.1071  0.6067
  588TMC3    C5 8770   0.505   2.062  10.076  0.6477  0.5050  0.1955
  588TMC3    C6 8771   0.474   1.932  10.057 -0.9171  0.9684  0.3048
  588TMC3     C 8772   0.199   2.257  10.042 -0.1470 -0.1159 -0.2972
  588TMC3     O 8773   0.095   2.251   9.975 -0.3905 -0.3356 -0.1683
  588TMC3     H 8774   0.150   2.005   9.954  0.2188 -0.1640  0.0327
  588TMC3    H1 8775   0.454   2.268  10.060 -1.7299  0.6642 -0.4166
  588TMC3    H2 8776   0.534   1.843  10.074 -1.9530  0.0599 -0.7220
  588TMC3    C7 8777   0.643   2.090  10.108  0.1708 -0.2054  0.0563
  588TMC3    C8 8778   0.285   1.783  10.002  0.6127 -0.0054  0.0511
  588TMC3    O1 8779   0.726   2.018  10.052  0.2546  0.7178  0.8751
  588TMC3    O2 8780   0.187   1.763   9.939  0.5470 -0.5703  0.6521
  589TMC3    C1 8781   0.080   4.516   1.077  0.4924 -0.1307  0.4516
  589TMC3    C2 8782   0.123   4.621   1.157  0.5961 -0.0331 -0.3425
  589TMC3    C3 8783   0.239   4.612   1.225  0.4152  0.7744  0.3512
  589TMC3    C4 8784   0.159   4.401   1.076 -0.5844 -0.4196  0.2155
  589TMC3    C5 8785   0.277   4.397   1.152 -0.3284 -0.2837  0.2957
  589TMC3    C6 8786   0.315   4.499   1.233 -0.7743  0.3110  0.0241
  589TMC3     C 8787   4.703   4.518   0.988  0.4807  0.3178  0.1897
  589TMC3     O 8788   4.678   4.413   0.931  0.5253 -0.0021  0.3742
  589TMC3     H 8789   0.063   4.711   1.164  0.3446 -0.2137 -0.1746
  589TMC3    H1 8790   0.108   4.318   1.028  1.6851 -1.7521  0.1126
  589TMC3    H2 8791   0.404   4.484   1.294 -1.1598  2.6143  1.1309
  589TMC3    C7 8792   0.381   4.323   1.085 -0.0745  0.1432 -0.6295
  589TMC3    C8 8793   0.270   4.726   1.311 -0.6163 -0.5679 -0.4199
  589TMC3    O1 8794   0.487   4.290   1.140  0.2787 -0.2288  0.8029
  589TMC3    O2 8795   0.195   0.083   1.317 -0.0840  0.9080  0.2273
  590MPD2     C 8796   3.842   2.161  16.940  0.3111  0.5765 -0.0857
  590MPD2    C1 8797   3.796   2.200  16.811  0.0461  0.5623  0.4495
  590MPD2    C2 8798   3.866   2.303  16.746 -0.2369 -0.1926  0.6232
  590MPD2    C3 8799   3.981   2.361  16.797 -0.9761 -0.3740  0.2375
  590MPD2    C4 8800   4.027   2.312  16.917 -0.1362 -0.1716 -0.2860
  590MPD2    C5 8801   3.964   2.208  16.983  0.4155 -0.1520  0.2140
  590MPD2     H 8802   3.833   2.339  16.650  0.8961 -1.2103 -0.1514
  590MPD2    H1 8803   4.116   2.355  16.963 -0.3035  0.2127 -0.3209
  590MPD2    H2 8804   3.790   2.099  17.012  1.3654  0.8622  0.9252
  590MPD2    H3 8805   3.995   2.179  17.082  0.3388 -1.2501 -0.0845
  590MPD2     N 8806   4.039   2.474  16.740 -0.2079 -0.3887 -0.6325
  590MPD2    H5 8807   3.987   2.527  16.670  0.5695  1.5999  0.3029
  590MPD2    N1 8808   3.672   2.146  16.763 -0.5836 -0.6480  0.1112
  590MPD2    H7 8809   3.623   2.081  16.823 -0.3078 -0.5841  0.4028
  591TMC3    C1 8810   4.200   2.628  16.676  0.5064  0.6123 -0.0453
  591TMC3    C2 8811   4.336   2.630  16.652 -0.0755  0.0759 -0.5891
  591TMC3    C3 8812   4.380   2.695  16.537 -0.4643  0.7134  0.4224
  591TMC3    C4 8813   4.114   2.682  16.582 -0.0297  0.5912  0.1447
  591TMC3    C5 8814   4.166   2.768  16.489  0.6587  0.0276  0.3761
  591TMC3    C6 8815   4.306   2.783  16.469 -0.4650 -0.5356  0.2720
  591TMC3     C 8816   4.159   2.528  16.774 -0.0421  0.0744 -0.2836
  591TMC3     O 8817   4.250   2.489  16.847 -0.1117  0.2978 -0.3339
  591TMC3     H 8818   4.403   2.562  16.703  0.9144  1.2146 -0.3712
  591TMC3    H1 8819   4.006   2.674  16.591  0.1583 -0.8410  1.1658
  591TMC3    H2 8820   4.355   2.853  16.402  0.9101  0.8172  2.7001
  591TMC3    C7 8821   4.080   2.778  16.376 -0.5118  0.6442  0.5803
  591TMC3    C8 8822   4.471   2.614  16.446 -0.1489 -0.6295  0.3987
  591TMC3    O1 8823   3.971   2.720  16.384  0.4224 -0.2341 -0.7444
  591TMC3    O2 8824   4.439   2.622  16.331 -0.4208 -0.1747  0.5322
  592MPD2     C 8825   3.913   0.417  11.768 -0.0972  0.0052 -0.6371
  592MPD2    C1 8826   3.877   0.427  11.901  0.1683 -0.9199 -0.4757
  592MPD2    C2 8827   3.794   0.322  11.955  0.1141 -0.3782  0.1191
  592MPD2    C3 8828   3.760   0.217  11.875 -0.6630 -0.2540  0.6493
  592MPD2    C4 8829   3.797   0.210  11.744 -0.4067 -0.9513  0.1211
  592MPD2    C5 8830   3.871   0.314  11.692 -0.3020 -0.3298 -0.2637
  592MPD2     H 8831   3.771   0.318  12.061  1.6466  1.8276  0.5400
  592MPD2    H1 8832   3.777   0.131  11.672 -1.8975 -0.3399 -0.1340
  592MPD2    H2 8833   3.975   0.488  11.713  3.8058 -2.7498  0.1934
  592MPD2    H3 8834   3.886   0.318  11.585  1.1932 -0.7192 -0.0668
  592MPD2     N 8835   3.686   0.114  11.928  0.5994 -0.2936  0.1059
  592MPD2    H5 8836   3.645   0.130  12.020  1.2358  0.5502  0.2452
  592MPD2    N1 8837   3.939   0.526  11.975  0.3552 -0.0571  0.2338
  592MPD2    H7 8838   3.987   0.592  11.916 -0.0717 -1.1139 -1.2895
  593TMC3    C1 8839   4.007   0.663  12.140  0.5642 -0.4022  0.1499
  593TMC3    C2 8840   4.006   0.700  12.275  0.0634  0.2578  0.8319
  593TMC3    C3 8841   4.091   0.804  12.315 -0.3106 -0.2652 -0.0177
  593TMC3    C4 8842   4.051   0.750  12.040  0.6288  0.2583 -0.5238
  593TMC3    C5 8843   4.129   0.851  12.088  0.3126  0.2050  0.7070
  593TMC3    C6 8844   4.166   0.868  12.219  0.7200  0.4111  0.3491
  593TMC3     C 8845   3.936   0.545  12.108 -0.4551  0.9222  0.8046
  593TMC3     O 8846   3.881   0.477  12.191  0.7806 -0.2781  0.1856
  593TMC3     H 8847   3.954   0.638  12.348  1.0591 -1.2192  0.2732
  593TMC3    H1 8848   4.052   0.732  11.933 -1.7908  0.9276 -0.6568
  593TMC3    H2 8849   4.239   0.941  12.251  0.8568  0.4044  0.0429
  593TMC3    C7 8850   4.180   0.948  11.990  0.4558 -0.0726  0.2675
  593TMC3    C8 8851   4.164   0.777  12.436  1.0438  0.0900 -1.0421
  593TMC3    O1 8852   4.119   0.958  11.883  0.0620 -0.3140 -0.3611
  593TMC3    O2 8853   4.103   0.747  12.531  0.4691 -0.3587  0.1436
  594MPD2     C 8854   3.094   3.495  13.972 -0.2433 -0.0371  0.6991
  594MPD2    C1 8855   3.094   3.540  14.108 -0.3431  0.0497  0.4710
  594MPD2    C2 8856   3.210   3.598  14.159  0.0558 -0.0873  0.1456
  594MPD2    C3 8857   3.317   3.625  14.079 -0.1113  0.0896 -0.1825
  594MPD2    C4 8858   3.329   3.567  13.959  0.5386 -0.4464 -0.5807
  594MPD2    C5 8859   3.215   3.504  13.914  0.3193 -0.0565  0.1611
  594MPD2     H 8860   3.215   3.642  14.258 -0.5929  0.3949 -0.0381
  594MPD2    H1 8861   3.423   3.550  13.908  1.4837  2.8887  0.0520
  594MPD2    H2 8862   3.014   3.434  13.933  1.2727 -0.6713 -1.3612
  594MPD2    H3 8863   3.211   3.460  13.815 -4.3082 -0.9013  0.7012
  594MPD2     N 8864   3.416   3.704  14.144  0.2544  0.0815  0.3375
  594MPD2    H5 8865   3.389   3.747  14.232  1.9170  1.3066  0.2510
  594MPD2    N1 8866   2.986   3.517  14.189 -0.1550  0.0082  0.4058
  594MPD2    H7 8867   2.905   3.475  14.145  1.3350 -0.2822 -2.0725
  595TMC3    C1 8868   3.793   3.892  14.307 -0.2067 -0.3101 -0.0145
  595TMC3    C2 8869   3.739   3.833  14.192 -0.3812  0.2280 -0.6993
  595TMC3    C3 8870   3.603   3.840  14.183 -1.1686 -0.1299  0.9388
  595TMC3    C4 8871   3.717   3.945  14.399 -0.0758 -0.2083  0.4427
  595TMC3    C5 8872   3.579   3.951  14.384  0.1636 -0.2016 -0.4454
  595TMC3    C6 8873   3.516   3.903  14.273  0.5929  0.7805 -0.9251
  595TMC3     C 8874   3.931   3.867  14.340 -0.0807 -0.4238 -0.2890
  595TMC3     O 8875   3.953   3.847  14.460  0.1463 -0.1799  0.0646
  595TMC3     H 8876   3.798   3.791  14.112 -1.5314 -1.1943 -0.8179
  595TMC3    H1 8877   3.776   3.974  14.485  1.2439  0.4431 -0.6949
  595TMC3    H2 8878   3.412   3.912  14.243  0.5165 -0.7253 -1.1475
  595TMC3    C7 8879   3.509   4.044  14.468 -0.4869  0.3549  0.4804
  595TMC3    C8 8880   3.539   3.743  14.099 -0.1103 -0.0133 -0.7522
  595TMC3    O1 8881   3.397   4.074  14.434 -0.0112  0.1379 -0.3588
  595TMC3    O2 8882   3.593   3.725  13.992  0.9780 -0.0463  0.7623
  596MPD2     C 8883   2.547   1.392  16.749  0.8209 -0.3865 -0.3328
  596MPD2    C1 8884   2.521   1.511  16.682  0.2430  0.1513  0.2685
  596MPD2    C2 8885   2.563   1.512  16.554 -0.7043 -0.4589  0.8158
  596MPD2    C3 8886   2.615   1.400  16.489  0.5226 -0.1114  0.3171
  596MPD2    C4 8887   2.628   1.284  16.552 -0.1407 -0.2190 -0.0295
  596MPD2    C5 8888   2.606   1.287  16.686 -0.6934  0.1618  0.0428
  596MPD2     H 8889   2.551   1.608  16.507  0.5850 -1.2652 -1.1861
  596MPD2    H1 8890   2.672   1.199  16.502 -1.7743 -0.4499 -1.0859
  596MPD2    H2 8891   2.533   1.384  16.856  1.3859  0.1204 -0.2225
  596MPD2    H3 8892   2.630   1.201  16.748 -0.7286  0.0561 -0.0908
  596MPD2     N 8893   2.646   1.403  16.351 -0.6087  0.3725  0.1219
  596MPD2    H5 8894   2.690   1.321  16.310  0.8639  1.3410 -0.2211
  596MPD2    N1 8895   2.464   1.629  16.736  0.1912 -0.6542 -0.4537
  596MPD2    H7 8896   2.450   1.710  16.676  1.3793 -1.5216 -1.8938
  597TMC3    C1 8897   2.381   1.782  16.900  0.0377 -0.0687 -0.4211
  597TMC3    C2 8898   2.392   1.887  16.813  0.0938  0.5713  0.3467
  597TMC3    C3 8899   2.333   2.008  16.857 -0.7146 -0.7073 -0.7317
  597TMC3    C4 8900   2.290   1.788  17.007 -0.2807  0.6631  0.3517
  597TMC3    C5 8901   2.226   1.903  17.034 -0.2874  0.0361 -0.6756
  597TMC3    C6 8902   2.256   2.021  16.967  0.7185  0.3952  0.7521
  597TMC3     C 8903   2.421   1.645  16.868  0.2862 -0.3755 -0.6662
  597TMC3     O 8904   2.407   1.561  16.959  0.0235  0.4281 -0.5235
  597TMC3     H 8905   2.456   1.886  16.726 -0.1114 -1.2419  0.2192
  597TMC3    H1 8906   2.269   1.701  17.069 -2.4185  1.1050  0.2422
  597TMC3    H2 8907   2.228   2.120  17.002 -1.7797 -0.5119  1.2967
  597TMC3    C7 8908   2.120   1.910  17.130 -0.6713 -0.4641  0.2671
  597TMC3    C8 8909   2.367   2.133  16.787  0.4976  0.7173  0.1971
  597TMC3    O1 8910   2.100   1.811  17.199 -0.3498 -0.1590 -0.1392
  597TMC3    O2 8911   2.333   2.236  16.841  0.1034 -0.4469 -0.8039
  598TMC3    C1 8912   0.302   2.942  15.373  0.0358 -0.0545 -0.2470
  598TMC3    C2 8913   0.190   2.883  15.338 -0.5707  0.4927 -0.3438
  598TMC3    C3 8914   0.169   2.877  15.205 -0.8607  0.9790 -0.0214
  598TMC3    C4 8915   0.399   2.988  15.290 -0.5804  0.1684  0.0704
  598TMC3    C5 8916   0.384   2.966  15.152 -0.3628 -0.4785  0.4566
  598TMC3    C6 8917   0.261   2.913  15.112  0.7055  0.0101  0.1389
  598TMC3     C 8918   0.324   2.949  15.521 -0.1716 -0.0535 -0.2741
  598TMC3     O 8919   0.405   3.036  15.552 -0.2195  0.0689 -0.3326
  598TMC3     H 8920   0.106   2.875  15.406  0.9846  0.1670  1.5392
  598TMC3    H1 8921   0.487   3.029  15.339 -0.9564  1.0224  0.0197
  598TMC3    H2 8922   0.235   2.905  15.007  3.1271 -0.2557 -0.4437
  598TMC3    C7 8923   0.451   3.060  15.063  0.4286  0.0894  0.6605
  598TMC3    C8 8924   0.052   2.825  15.150  0.6306 -0.4019 -0.6712
  598TMC3    O1 8925   0.451   3.028  14.946 -0.0468 -0.1550 -0.1315
  598TMC3    O2 8926   0.028   2.852  15.035 -0.5473  0.1390  0.1729
  599MPD2     C 8927   0.402   0.356  15.775  0.2483 -0.3274 -0.1604
  599MPD2    C1 8928   0.382   0.258  15.875 -0.1261  0.7149 -0.0198
  599MPD2    C2 8929   0.288   0.283  15.971  0.1695  0.3669 -0.0999
  599MPD2    C3 8930   0.219   0.410  15.971 -0.0815  0.2820  0.3123
  599MPD2    C4 8931   0.257   0.502  15.879 -0.9666 -0.7118 -0.1325
  599MPD2    C5 8932   0.341   0.471  15.779 -1.0382  0.0565  0.3636
  599MPD2     H 8933   0.258   0.207  16.043  0.6257 -1.0972 -1.4615
  599MPD2    H1 8934   0.207   0.598  15.870 -0.1793 -0.1414  1.7350
  599MPD2    H2 8935   0.484   0.339  15.707  0.9271  0.1533  0.5327
  599MPD2    H3 8936   0.368   0.543  15.702 -1.0917 -1.9841 -1.5781
  599MPD2     N 8937   0.113   0.449  16.062  0.3431  0.1994  0.3219
  599MPD2    H5 8938   0.090   0.548  16.066  0.9324  0.4364 -2.5320
  599MPD2    N1 8939   0.459   0.139  15.877 -0.0747  0.1861 -0.0370
  599MPD2    H7 8940   0.523   0.126  15.799 -1.5174 -0.7466 -1.0648
  600TMC3    C1 8941   4.666   0.431  16.210  0.0187 -0.0605  0.2757
  600TMC3    C2 8942   4.601   0.347  16.303  0.2208  0.1507  0.3402
  600TMC3    C3 8943   4.508   0.400  16.377 -0.2654  0.6994  0.0851
  600TMC3    C4 8944   4.630   0.567  16.199 -0.5047 -0.1081  0.4365
  600TMC3    C5 8945   4.533   0.619  16.283 -0.3026  0.7843 -0.0346
  600TMC3    C6 8946   4.476   0.532  16.373  0.5359  0.5665 -0.9242
  600TMC3     C 8947   0.025   0.362  16.122 -0.2418  0.1341 -0.4271
  600TMC3     O 8948   0.013   0.240  16.105 -1.0342  0.0102  0.7182
  600TMC3     H 8949   4.644   0.249  16.320 -2.0043 -0.5767  1.6993
  600TMC3    H1 8950   4.659   0.620  16.109  0.3511  1.2923  1.5324
  600TMC3    H2 8951   4.407   0.572  16.446 -0.6591 -1.8130 -0.7426
  600TMC3    C7 8952   4.523   0.760  16.318  0.2441  0.1321 -0.3657
  600TMC3    C8 8953   4.501   0.336  16.507  0.4278  0.1239 -0.1867
  600TMC3    O1 8954   4.440   0.790  16.405  0.1392 -0.0847 -0.2618
  600TMC3    O2 8955   4.510   0.416  16.596 -0.2632 -0.5020  0.7426
  601MPD2     C 8956   1.994   3.609   0.724 -0.3786  0.2711  0.1323
  601MPD2    C1 8957   1.964   3.537   0.609 -0.1422 -0.0390  0.2519
  601MPD2    C2 8958   2.009   3.405   0.605 -0.2703  0.2096 -0.2264
  601MPD2    C3 8959   2.090   3.351   0.702  0.5914 -0.1652 -0.5038
  601MPD2    C4 8960   2.127   3.426   0.811  0.5109  0.3729 -0.1722
  601MPD2    C5 8961   2.069   3.555   0.828 -0.7454 -0.3941  0.8086
  601MPD2     H 8962   1.992   3.352   0.512  0.1275 -2.3866  1.1671
  601MPD2    H1 8963   2.185   3.379   0.889  2.0617 -0.2884 -1.7306
  601MPD2    H2 8964   1.958   3.709   0.746 -0.6289  0.0248  0.8444
  601MPD2    H3 8965   2.092   3.615   0.915  0.6628  2.2537 -1.3932
  601MPD2     N 8966   2.135   3.217   0.706  0.8917  0.3696  0.0112
  601MPD2    H5 8967   2.188   3.195   0.790  0.5340 -0.1828  0.0931
  601MPD2    N1 8968   1.906   3.601   0.498  0.5990  0.0539  0.0011
  601MPD2    H7 8969   1.906   3.550   0.411  2.6210  2.0473 -1.1495
  602TMC3    C1 8970   1.794   3.764   0.364 -0.6193 -0.3191  0.4967
  602TMC3    C2 8971   1.830   3.893   0.341  0.5052  0.5746  0.0097
  602TMC3    C3 8972   1.859   3.926   0.216 -0.8378 -0.2140  0.6860
  602TMC3    C4 8973   1.793   3.662   0.270 -0.0108 -0.5026  0.0560
  602TMC3    C5 8974   1.824   3.704   0.140  0.2615  0.1003 -0.0060
  602TMC3    C6 8975   1.858   3.833   0.113  0.0672 -0.1310 -0.1964
  602TMC3     C 8976   1.843   3.724   0.499 -0.0578  0.5943  0.2873
  602TMC3     O 8977   1.820   3.810   0.586 -0.0140 -0.2596 -0.0461
  602TMC3     H 8978   1.820   3.967   0.419 -0.0639  1.4498 -0.8991
  602TMC3    H1 8979   1.760   3.560   0.286  0.1429 -0.4946  0.4191
  602TMC3    H2 8980   1.861   3.864   0.010 -0.8513  1.2316  0.1894
  602TMC3    C7 8981   1.809   3.603   0.034 -0.3102 -0.6299  0.2435
  602TMC3    C8 8982   1.867   4.069   0.174  0.7835  0.3682  0.2705
  602TMC3    O1 8983   1.727   3.515   0.045 -0.3557  0.0636 -0.6981
  602TMC3    O2 8984   1.824   4.148   0.258 -0.2859 -0.7057  0.6720
  603TMC3    C1 8985   0.312   4.160  10.861  0.1293  0.2794 -0.4120
  603TMC3    C2 8986   0.411   4.180  10.958  0.0810 -0.0527 -0.5755
  603TMC3    C3 8987   0.408   4.294  11.034 -0.0757 -0.0173  0.4118
  603TMC3    C4 8988   0.210   4.248  10.845  0.5298 -0.0853  0.1678
  603TMC3    C5 8989   0.204   4.353  10.930 -0.0902 -0.1409 -0.2979
  603TMC3    C6 8990   0.307   4.391  11.019 -0.1056  0.3802  0.2911
  603TMC3     C 8991   0.357   4.070  10.748 -0.2653 -0.1327 -0.4919
  603TMC3     O 8992   0.440   3.985  10.773  0.2840 -0.5988 -0.8145
  603TMC3     H 8993   0.485   4.101  10.963  1.2013  1.1393  1.8098
  603TMC3    H1 8994   0.129   4.221  10.777  0.8012 -0.7330  0.1024
  603TMC3    H2 8995   0.297   4.474  11.088  2.1331  2.0131 -1.3731
  603TMC3    C7 8996   0.084   4.438  10.933 -0.5075  0.2924 -0.1209
  603TMC3    C8 8997   0.452   4.277  11.172 -0.7781 -0.4491 -0.3320
  603TMC3    O1 8998   0.083   4.531  11.015 -0.2443  0.3623  0.1588
  603TMC3    O2 8999   0.469   4.162  11.210 -0.1539  0.4408 -0.0879
  604MPD2     C 9000   1.293   2.089  16.477  0.3018  0.9577 -0.3356
  604MPD2    C1 9001   1.219   2.192  16.433  0.5892  0.3082  0.5442
  604MPD2    C2 9002   1.262   2.249  16.308  0.2084  0.2575 -0.5721
  604MPD2    C3 9003   1.372   2.204  16.239  0.3443 -0.1829  0.8327
  604MPD2    C4 9004   1.430   2.082  16.284 -0.1331  0.7546 -0.2684
  604MPD2    C5 9005   1.400   2.034  16.408 -0.2084 -0.4577  0.6963
  604MPD2     H 9006   1.218   2.342  16.274 -0.0446  0.5903  0.6871
  604MPD2    H1 9007   1.517   2.035  16.240  1.4298  1.0258  2.5450
  604MPD2    H2 9008   1.269   2.038  16.570 -0.1795  2.1101  0.1731
  604MPD2    H3 9009   1.444   1.943  16.446  0.2592 -0.2567  0.6318
  604MPD2     N 9010   1.412   2.272  16.121 -0.1145 -0.1789  0.4644
  604MPD2    H5 9011   1.364   2.356  16.092  0.5234 -0.0943 -0.3395
  604MPD2    N1 9012   1.125   2.259  16.521 -0.6489  0.2533  0.3685
  604MPD2    H7 9013   1.124   2.226  16.617  0.9438 -0.9041 -0.0086
  605TMC3    C1 9014   0.986   2.437  16.594 -1.4740 -0.7329  0.9547
  605TMC3    C2 9015   1.053   2.443  16.713  0.1093 -0.2157  0.1567
  605TMC3    C3 9016   1.044   2.558  16.792 -0.9241  0.1971  0.1045
  605TMC3    C4 9017   0.906   2.543  16.555 -0.0559 -0.1634 -0.9866
  605TMC3    C5 9018   0.893   2.645  16.642  0.6751  0.0140 -0.2040
  605TMC3    C6 9019   0.950   2.651  16.766  0.4068 -0.2128  0.2389
  605TMC3     C 9020   1.035   2.358  16.485 -0.6656 -0.0648  0.6620
  605TMC3     O 9021   1.006   2.394  16.370 -0.2140 -0.0797  0.2013
  605TMC3     H 9022   1.124   2.364  16.733  0.4010 -0.2873 -1.1037
  605TMC3    H1 9023   0.874   2.551  16.451 -1.0890 -2.9747 -0.9119
  605TMC3    H2 9024   0.938   2.737  16.831  1.4186  1.7157 -2.1338
  605TMC3    C7 9025   0.829   2.773  16.602 -0.7545  0.4356 -0.4287
  605TMC3    C8 9026   1.180   2.612  16.823  0.0768 -0.7838 -0.0615
  605TMC3    O1 9027   0.863   2.869  16.670 -0.2796 -0.6518 -0.5634
  605TMC3    O2 9028   1.267   2.544  16.768 -0.5563 -0.0530 -0.0115
  606TMC3    C1 9029   2.323   1.510  17.400  0.5679  0.1368  0.1986
  606TMC3    C2 9030   2.284   1.477  17.529 -0.4332 -0.2718  0.5979
  606TMC3    C3 9031   2.274   1.346  17.560  0.0985 -0.2208 -0.3513
  606TMC3    C4 9032   2.352   1.419  17.305 -0.5776  0.2500 -0.3836
  606TMC3    C5 9033   2.334   1.287  17.335 -0.5400 -0.0090  0.4515
  606TMC3    C6 9034   2.301   1.249  17.466 -0.4988 -0.1512  0.3344
  606TMC3     C 9035   2.343   1.649  17.371 -0.4292  0.2961 -0.2018
  606TMC3     O 9036   2.288   1.741  17.429 -0.4785 -0.3117  0.1617
  606TMC3     H 9037   2.264   1.555  17.602 -1.0520  0.0173  0.1254
  606TMC3    H1 9038   2.358   1.450  17.201 -2.1871 -1.4265 -0.9797
  606TMC3    H2 9039   2.297   1.147  17.502 -2.5305 -0.5402 -0.9833
  606TMC3    C7 9040   2.386   1.186  17.241  0.1092  0.4688 -0.3310
  606TMC3    C8 9041   2.273   1.316  17.702 -0.5540  0.1373 -0.3317
  606TMC3    O1 9042   2.438   1.233  17.140  0.3341  0.1666 -0.2644
  606TMC3    O2 9043   2.207   1.392   0.024 -0.4958 -0.5185  0.6336
  607MPD2     C 9044   3.931   4.430  11.919  0.5206  0.0666  0.3533
  607MPD2    C1 9045   3.993   4.543  11.961 -0.4871 -0.2818  0.7038
  607MPD2    C2 9046   4.029   4.571  12.090  0.3867 -0.7957  0.2067
  607MPD2    C3 9047   3.999   4.482  12.191  0.7618 -0.0022  0.2973
  607MPD2    C4 9048   3.936   4.365  12.153  0.4881  0.0768 -0.6380
  607MPD2    C5 9049   3.903   4.341  12.021  0.9526  0.3659 -0.2123
  607MPD2     H 9050   4.086   4.662  12.108 -0.3995 -0.8153  2.7799
  607MPD2    H1 9051   3.902   4.294  12.228  0.3195  0.0713 -0.7188
  607MPD2    H2 9052   3.889   4.408  11.822  0.4526  0.9543  0.1770
  607MPD2    H3 9053   3.855   4.244  12.013  3.0994 -0.7097  0.0490
  607MPD2     N 9054   4.050   4.511  12.317  0.1737  0.0244  0.1882
  607MPD2    H5 9055   4.112   4.592  12.323 -0.4608  0.5192  0.1267
  607MPD2    N1 9056   4.031   4.641  11.875 -0.2132 -0.5498 -0.9050
  607MPD2    H7 9057   4.074   4.719  11.923 -0.7819  0.8903 -2.7346
  608TMC3    C1 9058   4.108   0.006  11.681  0.0135 -0.3595 -0.6987
  608TMC3    C2 9059   4.199   0.070  11.758 -0.2224 -0.7210  0.3974
  608TMC3    C3 9060   4.258   0.185  11.723  0.3319  0.3102 -0.0047
  608TMC3    C4 9061   4.082   0.054  11.553  0.1277  0.7649 -0.5096
  608TMC3    C5 9062   4.142   0.173  11.521  0.5600 -0.4953  0.1949
  608TMC3    C6 9063   4.233   0.239  11.599  0.0259  0.0913  0.2059
  608TMC3     C 9064   4.020   4.642  11.735  0.4995 -0.0436 -0.6826
  608TMC3     O 9065   3.971   4.560  11.657 -0.5998  0.0975  0.4497
  608TMC3     H 9066   4.235   0.014  11.844 -0.3256 -0.3633  0.6747
  608TMC3    H1 9067   4.014   0.007  11.484  0.0072  0.4519 -0.1768
  608TMC3    H2 9068   4.275   0.333  11.564  1.2660 -0.1001  1.1886
  608TMC3    C7 9069   4.177   0.184  11.378  0.0860 -0.1715 -0.2132
  608TMC3    C8 9070   4.339   0.258  11.812  0.3927  0.3631 -0.1188
  608TMC3    O1 9071   4.295   0.210  11.362  0.4489  0.2731 -0.0642
  608TMC3    O2 9072   4.419   0.341  11.766  0.0333  0.3037  1.3475
  609TMC3    C1 9073   2.601   3.351   9.215  0.2270  0.8756  0.1429
  609TMC3    C2 9074   2.584   3.344   9.078  0.5061  0.0765 -0.7404
  609TMC3    C3 9075   2.686   3.329   8.984  0.3100 -0.0313  0.2493
  609TMC3    C4 9076   2.724   3.331   9.258 -0.0663 -0.4296 -0.3920
  609TMC3    C5 9077   2.822   3.317   9.166  0.4297  0.6357  0.5074
  609TMC3    C6 9078   2.811   3.336   9.033  0.6195 -0.0449  0.2464
  609TMC3     C 9079   2.485   3.364   9.305 -0.1862 -0.0081  0.1846
  609TMC3     O 9080   2.509   3.333   9.423  0.1039  0.2478  0.0499
  609TMC3     H 9081   2.482   3.338   9.041  0.2085 -2.3431  0.5077
  609TMC3    H1 9082   2.743   3.324   9.364 -0.9688 -0.9896 -0.2603
  609TMC3    H2 9083   2.899   3.345   8.970 -0.6067 -0.1078 -1.4901
  609TMC3    C7 9084   2.955   3.296   9.220 -0.3196 -0.4228 -0.3128
  609TMC3    C8 9085   2.664   3.373   8.848 -0.5277 -0.2898 -0.0722
  609TMC3    O1 9086   2.969   3.339   9.336 -0.0247 -0.4597 -0.3366
  609TMC3    O2 9087   2.555   3.423   8.826  0.2761  0.2914  0.1129
  610TMC3    C1 9088   4.704   4.278  12.697  0.4790 -0.0065 -0.3700
  610TMC3    C2 9089   0.016   4.362  12.601  0.4846  0.4026  0.0073
  610TMC3    C3 9090   0.128   4.328  12.538  0.2148 -0.1439 -1.0597
  610TMC3    C4 9091   0.009   4.151  12.700 -0.2432 -0.3871  0.1936
  610TMC3    C5 9092   0.123   4.115  12.632  0.0389 -0.5499 -0.1085
  610TMC3    C6 9093   0.194   4.210  12.558 -0.7008  0.2043  0.0460
  610TMC3     C 9094   4.631   4.331  12.807 -0.8244 -0.2073  0.7074
  610TMC3     O 9095   4.573   4.433  12.783 -0.2230  0.6858  0.1157
  610TMC3     H 9096   4.721   4.466  12.596 -1.5489 -0.2339 -0.1048
  610TMC3    H1 9097   4.711   4.085  12.779  0.6180 -2.1284 -0.8881
  610TMC3    H2 9098   0.289   4.188  12.511 -0.3192 -1.2145  1.4616
  610TMC3    C7 9099   0.188   3.981  12.656  0.6058 -0.4609  0.4286
  610TMC3    C8 9100   0.166   4.395  12.418 -0.1398  0.0927 -0.1157
  610TMC3    O1 9101   0.308   3.974  12.641 -0.0970  0.0020 -0.2740
  610TMC3    O2 9102   0.284   4.394  12.392 -0.2533 -0.1224  0.3567
  611MPD2     C 9103   3.354   4.179  10.728 -0.6124  0.2578 -0.2476
  611MPD2    C1 9104   3.399   4.127  10.608  0.2786 -1.0312 -0.5472
  611MPD2    C2 9105   3.513   4.180  10.550  0.8117  0.2740 -0.4660
  611MPD2    C3 9106   3.597   4.267  10.610  0.2677  0.6211  0.3119
  611MPD2    C4 9107   3.557   4.308  10.736 -1.0524 -0.5926  0.0207
  611MPD2    C5 9108   3.438   4.269  10.793 -0.0362 -0.1907  0.8253
  611MPD2     H 9109   3.542   4.129  10.459  0.6885 -1.7174  0.6075
  611MPD2    H1 9110   3.619   4.374  10.794  0.1650 -3.1560  1.6323
  611MPD2    H2 9111   3.265   4.153  10.784  0.2858  0.8798  1.4474
  611MPD2    H3 9112   3.395   4.315  10.881  1.6147  1.9504  0.5008
  611MPD2     N 9113   3.715   4.317  10.559 -0.3424 -0.3729  0.2428
  611MPD2    H5 9114   3.765   4.384  10.617  0.3737 -1.1413  0.5100
  611MPD2    N1 9115   3.311   4.036  10.546  0.0833  0.0933 -0.4349
  611MPD2    H7 9116   3.241   3.996  10.607 -0.4935  0.5733 -0.7765
  612TMC3    C1 9117   3.899   4.345  10.418  0.1272 -0.7488 -0.1663
  612TMC3    C2 9118   3.966   4.385  10.529  0.1084 -0.1242 -0.1033
  612TMC3    C3 9119   4.095   4.421  10.509 -0.8265 -0.4064  0.0107
  612TMC3    C4 9120   3.959   4.344  10.295 -0.0076 -0.1844 -1.0162
  612TMC3    C5 9121   4.091   4.374  10.284  0.0108  0.5745 -0.6254
  612TMC3    C6 9122   4.160   4.417  10.395  0.3825  0.4410 -0.3270
  612TMC3     C 9123   3.772   4.284  10.439  0.4645 -0.0815  0.0938
  612TMC3     O 9124   3.719   4.227  10.342 -0.2080 -0.3625  0.2261
  612TMC3     H 9125   3.926   4.369  10.628 -0.1802 -0.4613 -0.2762
  612TMC3    H1 9126   3.909   4.307  10.206 -2.1376  0.7261 -0.2047
  612TMC3    H2 9127   4.260   4.460  10.389  0.3363  0.6244  0.2219
  612TMC3    C7 9128   4.151   4.411  10.160 -0.3981  0.1038 -0.6928
  612TMC3    C8 9129   4.161   4.473  10.628 -0.2519 -0.1453 -0.7773
  612TMC3    O1 9130   4.260   4.367  10.139  0.2174 -0.7407 -0.0204
  612TMC3    O2 9131   4.095   4.519  10.717 -0.0603  0.0334  0.3329
  613MPD2     C 9132   3.512   1.069  16.881  0.3429 -0.7630 -0.5100
  613MPD2    C1 9133   3.498   1.178  16.797  0.4110  0.1126 -0.4886
  613MPD2    C2 9134   3.444   1.157  16.672 -0.3554 -0.1807 -0.2627
  613MPD2    C3 9135   3.445   1.031  16.621  0.0726 -0.0621 -0.1574
  613MPD2    C4 9136   3.473   0.925  16.703  0.5463 -0.9767  0.5868
  613MPD2    C5 9137   3.495   0.943  16.836 -0.2880  0.7129  0.2649
  613MPD2     H 9138   3.408   1.237  16.608 -1.3668 -0.2795  0.1827
  613MPD2    H1 9139   3.478   0.825  16.661 -2.4596 -1.6283  1.7948
  613MPD2    H2 9140   3.552   1.075  16.981  1.5703 -0.4217 -1.0282
  613MPD2    H3 9141   3.530   0.861  16.897 -0.5500  0.5845  0.2413
  613MPD2     N 9142   3.422   1.009  16.482 -0.0843  0.2792  0.4757
  613MPD2    H5 9143   3.411   0.911  16.456 -0.2273  0.0743  1.3153
  613MPD2    N1 9144   3.538   1.309  16.851 -0.1632 -0.3917  0.0031
  613MPD2    H7 9145   3.549   1.319  16.951  0.5809  2.0823 -0.3219
  614TMC3    C1 9146   3.603   1.422  16.636 -0.6024 -0.1622  0.2912
  614TMC3    C2 9147   3.669   1.317  16.576 -0.1043 -0.3381 -0.3922
  614TMC3    C3 9148   3.707   1.331  16.448  0.2553  0.0819 -0.0981
  614TMC3    C4 9149   3.581   1.539  16.571 -0.5932  0.4502 -0.2269
  614TMC3    C5 9150   3.629   1.556  16.441  0.2985  0.5789  0.0584
  614TMC3    C6 9151   3.691   1.453  16.376  0.0068 -0.1806  0.6108
  614TMC3     C 9152   3.579   1.424  16.779 -0.0560 -0.9336  0.6664
  614TMC3     O 9153   3.601   1.534  16.831  0.2287  0.1968 -0.1377
  614TMC3     H 9154   3.683   1.223  16.628  2.2936 -0.1523 -0.7057
  614TMC3    H1 9155   3.534   1.623  16.622  0.5492 -0.9414  3.1486
  614TMC3    H2 9156   3.740   1.467  16.280 -2.0966  0.1137 -0.4144
  614TMC3    C7 9157   3.641   1.698  16.390  0.7011  0.1096 -0.3342
  614TMC3    C8 9158   3.729   1.218  16.364 -0.7309 -0.0169  0.0514
  614TMC3    O1 9159   3.630   1.785  16.472  0.1819 -0.0652 -0.3924
  614TMC3    O2 9160   3.686   1.220  16.252 -0.0819  0.0333  0.3318
  615MPD2     C 9161   2.448   2.831  15.671 -0.3025  0.2546  0.1574
  615MPD2    C1 9162   2.473   2.958  15.715 -0.1268  0.3770  0.7327
  615MPD2    C2 9163   2.441   3.065  15.636 -0.6080 -0.3024 -0.4943
  615MPD2    C3 9164   2.378   3.056  15.514  0.5787  0.7149 -0.4760
  615MPD2    C4 9165   2.349   2.926  15.472  0.4968 -0.5741  0.3572
  615MPD2    C5 9166   2.379   2.818  15.554 -0.1294  0.5069  0.5034
  615MPD2     H 9167   2.467   3.165  15.667 -0.6735 -1.0044  1.8128
  615MPD2    H1 9168   2.284   2.908  15.387  0.7614 -0.9667  0.2364
  615MPD2    H2 9169   2.458   2.738  15.726 -0.1197 -0.5082 -1.1737
  615MPD2    H3 9170   2.335   2.723  15.526  0.9751  0.5290 -1.2566
  615MPD2     N 9171   2.352   3.175  15.436  0.1765  0.3462  0.0242
  615MPD2    H5 9172   2.370   3.259  15.490 -0.7240  1.2342 -1.0666
  615MPD2    N1 9173   2.518   2.982  15.850 -0.0052 -0.3332 -0.4844
  615MPD2    H7 9174   2.534   3.077  15.882 -0.0197 -0.4227 -0.2155
  616TMC3    C1 9175   2.611   2.956  16.059  0.1373 -0.1710 -0.2322
  616TMC3    C2 9176   2.656   2.872  16.161  0.5942 -0.4189 -0.4752
  616TMC3    C3 9177   2.732   2.932  16.260  0.0650 -0.6332  0.2063
  616TMC3    C4 9178   2.660   3.087  16.046  0.6362  0.0870  0.2150
  616TMC3    C5 9179   2.749   3.132  16.140 -0.3857  0.0212 -0.1568
  616TMC3    C6 9180   2.788   3.057  16.246 -0.6070  0.3726  0.4811
  616TMC3     C 9181   2.551   2.890  15.942  0.4850 -0.1351 -0.0374
  616TMC3     O 9182   2.548   2.767  15.940  0.3637 -0.0844  0.0073
  616TMC3     H 9183   2.620   2.770  16.162  0.6817 -0.4438  0.7116
  616TMC3    H1 9184   2.645   3.144  15.955 -0.2750 -0.6150 -0.0712
  616TMC3    H2 9185   2.868   3.092  16.310 -0.2353 -2.6875  1.6791
  616TMC3    C7 9186   2.812   3.259  16.111 -0.3935  0.5187  0.1956
  616TMC3    C8 9187   2.767   2.834  16.368  0.1061  0.3500 -0.3048
  616TMC3    O1 9188   2.810   3.284  15.988  1.0457  0.0512  0.0722
  616TMC3    O2 9189   2.719   2.722  16.360 -0.1831  0.1807  0.4766
  617MPD2     C 9190   1.023   1.329  13.287 -0.0272 -0.6058  0.1725
  617MPD2    C1 9191   1.022   1.346  13.422  0.6164  0.1615  0.0109
  617MPD2    C2 9192   0.923   1.280  13.495 -0.3991 -0.5899 -0.6132
  617MPD2    C3 9193   0.835   1.188  13.436 -0.1691  0.1552  0.2341
  617MPD2    C4 9194   0.844   1.168  13.298  0.6143  0.0679  0.3518
  617MPD2    C5 9195   0.941   1.231  13.228  0.3439 -0.3315  0.3249
  617MPD2     H 9196   0.921   1.304  13.601 -1.9286 -0.7261 -0.6093
  617MPD2    H1 9197   0.782   1.093  13.252  0.7735  0.3777 -0.3747
  617MPD2    H2 9198   1.097   1.376  13.223  1.4090 -0.4263  1.9762
  617MPD2    H3 9199   0.942   1.220  13.121 -1.0772  0.6560  0.2094
  617MPD2     N 9200   0.735   1.115  13.501 -0.5102  0.4862 -0.2987
  617MPD2    H5 9201   0.674   1.057  13.444 -0.6269 -0.1601  0.4757
  617MPD2    N1 9202   1.119   1.434  13.473 -0.1042  0.2408 -0.2566
  617MPD2    H7 9203   1.183   1.470  13.402 -0.7109  0.3692 -0.7394
  618TMC3    C1 9204   1.243   1.549  13.638  0.3457 -0.0278  0.2332
  618TMC3    C2 9205   1.299   1.532  13.760  0.0931  0.0038 -0.2757
  618TMC3    C3 9206   1.396   1.617  13.815 -0.0323 -0.0124  0.4721
  618TMC3    C4 9207   1.276   1.657  13.560 -0.0383 -0.1610 -0.2894
  618TMC3    C5 9208   1.376   1.733  13.609 -0.0766 -0.0828  0.4909
  618TMC3    C6 9209   1.433   1.725  13.732  0.4637 -0.8759 -0.1980
  618TMC3     C 9210   1.152   1.450  13.604 -0.2917 -0.1512  0.6631
  618TMC3     O 9211   1.108   1.375  13.692  0.3375  0.3884 -0.1178
  618TMC3     H 9212   1.271   1.454  13.830 -0.7416  2.0523  1.6415
  618TMC3    H1 9213   1.231   1.676  13.464 -0.4427  0.7855  0.0875
  618TMC3    H2 9214   1.499   1.806  13.762 -0.9300 -0.1802  0.9887
  618TMC3    C7 9215   1.422   1.838  13.519  0.0432  0.5079 -0.1438
  618TMC3    C8 9216   1.453   1.587  13.942 -0.2754  0.5616 -0.8652
  618TMC3    O1 9217   1.343   1.928  13.484 -0.0285 -0.4060  0.2780
  618TMC3    O2 9218   1.506   1.681  13.996 -0.3474  0.1630  0.1932
  619MPD2     C 9219   2.043   2.779  13.880  0.7693  0.9593  0.9325
  619MPD2    C1 9220   1.942   2.808  13.783  0.9099  0.0844  0.4199
  619MPD2    C2 9221   1.826   2.733  13.779 -0.2892  0.9590  0.4899
  619MPD2    C3 9222   1.792   2.652  13.888  0.0712 -0.3255  0.0998
  619MPD2    C4 9223   1.881   2.633  13.985 -0.3527 -0.4179 -0.0136
  619MPD2    C5 9224   2.004   2.691  13.980  0.4825 -0.6349 -0.5657
  619MPD2     H 9225   1.754   2.754  13.701  0.0283  0.9185  0.1894
  619MPD2    H1 9226   1.866   2.571  14.072  0.7732 -2.9348 -1.5921
  619MPD2    H2 9227   2.142   2.824  13.882  0.6949  1.0784  1.7208
  619MPD2    H3 9228   2.064   2.678  14.069 -0.4688 -0.5831  0.0776
  619MPD2     N 9229   1.674   2.573  13.907 -0.0179 -0.3338 -0.0312
  619MPD2    H5 9230   1.665   2.513  13.989 -0.3992 -0.9922 -0.5503
  619MPD2    N1 9231   1.954   2.906  13.680 -0.1066  0.4410 -0.7587
  619MPD2    H7 9232   1.887   2.903  13.603  1.7790  1.6665 -2.4493
  620TMC3    C1 9233   2.046   3.103  13.587  0.2082  0.3870  0.2866
  620TMC3    C2 9234   1.988   3.070  13.466  0.4870 -0.2761  0.6572
  620TMC3    C3 9235   1.962   3.166  13.371 -0.5297 -0.2799  0.1507
  620TMC3    C4 9236   2.084   3.233  13.611  0.8062  0.3197 -0.1720
  620TMC3    C5 9237   2.063   3.324  13.515 -0.0682  0.2386 -0.7451
  620TMC3    C6 9238   1.994   3.294  13.398 -0.1152  0.1487 -0.2008
  620TMC3     C 9239   2.039   3.015  13.702  0.6404 -0.1357  0.3918
  620TMC3     O 9240   2.111   3.047  13.796  0.0149  0.0042  0.8403
  620TMC3     H 9241   1.987   2.965  13.439  0.7327 -1.1089  3.7857
  620TMC3    H1 9242   2.147   3.260  13.695  0.1785 -1.0649  0.7492
  620TMC3    H2 9243   1.961   3.370  13.329 -0.2623 -0.1411 -0.4530
  620TMC3    C7 9244   2.045   3.453  13.571  0.2318 -0.0961  0.0104
  620TMC3    C8 9245   1.911   3.121  13.237  0.0823  0.1773  0.2286
  620TMC3    O1 9246   2.129   3.512  13.634 -0.3830 -0.1711  0.6662
  620TMC3    O2 9247   1.994   3.140  13.146  0.3641 -0.2797 -0.2158
  621MPD2     C 9248   2.531   2.349  10.482 -0.4122  0.2519 -0.2313
  621MPD2    C1 9249   2.513   2.339  10.342 -0.0463 -0.0907 -0.5138
  621MPD2    C2 9250   2.503   2.454  10.266  0.3828  0.5091 -0.2587
  621MPD2    C3 9251   2.487   2.578  10.327  0.1573  0.4732 -0.7880
  621MPD2    C4 9252   2.489   2.590  10.464 -0.4554  0.7854 -0.0251
  621MPD2    C5 9253   2.523   2.478  10.538  0.3528 -0.0042  0.0867
  621MPD2     H 9254   2.507   2.450  10.157 -1.8807  1.1333 -0.3735
  621MPD2    H1 9255   2.481   2.686  10.514 -0.3646 -0.2114  1.9464
  621MPD2    H2 9256   2.550   2.269  10.553 -0.1948  0.3997 -0.1236
  621MPD2    H3 9257   2.543   2.489  10.644 -1.1207 -0.7594  0.4480
  621MPD2     N 9258   2.465   2.686  10.239  0.3366 -0.2223  0.1551
  621MPD2    H5 9259   2.460   2.663  10.140 -0.3025 -1.5729  0.5091
  621MPD2    N1 9260   2.519   2.215  10.274 -0.3391 -0.0157  0.8247
  621MPD2    H7 9261   2.492   2.209  10.177  0.0979 -0.3552  0.7207
  622TMC3    C1 9262   2.507   1.974  10.258  0.1265 -0.2328  0.1144
  622TMC3    C2 9263   2.453   1.869  10.325 -0.1223 -0.3853  1.1925
  622TMC3    C3 9264   2.341   1.808  10.274  0.2689  0.4009  0.4106
  622TMC3    C4 9265   2.472   1.995  10.126 -0.0291  0.1009 -0.2467
  622TMC3    C5 9266   2.374   1.921  10.068  0.2772 -0.5728  0.8066
  622TMC3    C6 9267   2.302   1.836  10.144 -0.6750  0.5840  0.0868
  622TMC3     C 9268   2.552   2.091  10.334  0.4146  0.2167  0.1097
  622TMC3     O 9269   2.594   2.067  10.445  0.4797  0.6855  0.4149
  622TMC3     H 9270   2.497   1.849  10.422 -1.6385 -3.1564  1.3133
  622TMC3    H1 9271   2.534   2.058  10.064  1.3485 -1.0332 -0.0292
  622TMC3    H2 9272   2.212   1.782  10.120 -0.8611  1.6246 -1.5548
  622TMC3    C7 9273   2.311   2.003   9.966  0.3684  0.0050 -0.2108
  622TMC3    C8 9274   2.236   1.769  10.364  0.1571  0.5463 -0.5820
  622TMC3    O1 9275   2.339   2.122   9.971  0.0718 -0.4890  0.0298
  622TMC3    O2 9276   2.137   1.717  10.317  0.4879 -0.5792 -0.2974
  623MPD2     C 9277   1.395   2.928  15.946 -0.4041 -0.8677  0.2050
  623MPD2    C1 9278   1.364   2.809  16.014 -0.2329 -0.0894  0.2221
  623MPD2    C2 9279   1.448   2.759  16.112  0.4488  0.1672  0.3811
  623MPD2    C3 9280   1.578   2.819  16.128 -0.1529 -1.0873 -0.0853
  623MPD2    C4 9281   1.609   2.940  16.059  0.0147 -0.2522 -0.4836
  623MPD2    C5 9282   1.516   2.986  15.971  0.0535 -0.6937  0.5344
  623MPD2     H 9283   1.412   2.675  16.170  1.6054  0.0417  0.9162
  623MPD2    H1 9284   1.693   3.007  16.070  0.3553 -0.9045  0.7861
  623MPD2    H2 9285   1.340   2.968  15.861 -0.5504 -1.2445  0.1239
  623MPD2    H3 9286   1.536   3.076  15.913  1.4248 -0.8831  0.7068
  623MPD2     N 9287   1.655   2.779  16.243 -0.7255 -0.4231  0.3762
  623MPD2    H5 9288   1.625   2.703  16.303 -0.7789  0.8372  1.9311
  623MPD2    N1 9289   1.232   2.754  15.984 -0.4498  0.1187 -0.0423
  623MPD2    H7 9290   1.163   2.808  15.934 -0.7976 -0.7870 -0.5400
  624TMC3    C1 9291   1.978   2.859  16.578  0.5722 -0.3867  0.5176
  624TMC3    C2 9292   1.899   2.814  16.679  0.3496 -0.2453  0.2151
  624TMC3    C3 9293   1.783   2.753  16.638  0.4881 -0.0444 -0.2668
  624TMC3    C4 9294   1.947   2.854  16.444 -0.3491 -0.9741  0.2868
  624TMC3    C5 9295   1.828   2.784  16.411 -0.3125 -0.4684  0.5537
  624TMC3    C6 9296   1.740   2.736  16.510 -0.3933 -0.0067  0.8091
  624TMC3     C 9297   2.109   2.896  16.621 -0.7683  0.2391 -0.2430
  624TMC3     O 9298   2.143   2.841  16.724  0.3548 -0.1785  0.2097
  624TMC3     H 9299   1.927   2.819  16.783 -1.3459 -3.1736  0.7973
  624TMC3    H1 9300   2.009   2.880  16.359  0.2058 -1.9307  0.3958
  624TMC3    H2 9301   1.640   2.700  16.491 -0.6748  1.3391 -0.2567
  624TMC3    C7 9302   1.768   2.845  16.294  0.5293 -0.3586 -0.4983
  624TMC3    C8 9303   1.691   2.716  16.735 -0.9273  0.4428 -0.1891
  624TMC3    O1 9304   1.840   2.919  16.224 -0.0090  0.0707 -0.2925
  624TMC3    O2 9305   1.619   2.619  16.710  0.0826 -0.4753  1.0131
  625MPD2     C 9306   2.726   4.320   0.414  0.4374 -0.8265  1.1008
  625MPD2    C1 9307   2.698   4.438   0.488  0.1002 -0.2857  0.2850
  625MPD2    C2 9308   2.801   4.496   0.557  0.5505 -0.0518  0.0746
  625MPD2    C3 9309   2.914   4.424   0.576 -0.3532  0.4655  0.0654
  625MPD2    C4 9310   2.937   4.300   0.512 -0.1168  0.4538 -0.1418
  625MPD2    C5 9311   2.846   4.255   0.420 -0.4714  0.5680 -0.3990
  625MPD2     H 9312   2.784   4.589   0.611 -0.0188 -0.7981  1.1698
  625MPD2    H1 9313   3.030   4.248   0.530  0.4679  2.1729  1.8607
  625MPD2    H2 9314   2.658   4.275   0.343  0.1512  1.1167  0.1385
  625MPD2    H3 9315   2.860   4.161   0.366  0.9247  1.6895 -1.9982
  625MPD2     N 9316   2.994   4.477   0.677 -0.4116 -0.5638 -0.7757
  625MPD2    H5 9317   2.957   4.567   0.707 -0.1807 -0.3710 -1.0673
  625MPD2    N1 9318   2.578   4.511   0.497  0.4371  0.5961 -0.0351
  625MPD2    H7 9319   2.584   4.596   0.552  2.4471  0.6864 -0.4149
  626TMC3    C1 9320   2.354   4.566   0.472 -0.3470  0.2911 -0.1502
  626TMC3    C2 9321   2.275   4.601   0.374 -0.2007 -0.5421 -0.2008
  626TMC3    C3 9322   2.228   4.728   0.369 -0.4216  0.2671  0.0691
  626TMC3    C4 9323   2.386   4.646   0.575 -0.3207 -0.1059  0.5129
  626TMC3    C5 9324   2.321   0.032   0.580 -0.0297 -0.2564  0.1825
  626TMC3    C6 9325   2.245   0.079   0.475 -0.2579 -0.0038 -0.5106
  626TMC3     C 9326   2.462   4.478   0.434  0.2195 -0.2523  0.8163
  626TMC3     O 9327   2.443   4.390   0.351 -0.2619 -0.6334  0.2327
  626TMC3     H 9328   2.253   4.534   0.291 -1.6415  2.0629 -1.9295
  626TMC3    H1 9329   2.439   4.608   0.661  2.0622 -1.0327 -1.3740
  626TMC3    H2 9330   2.231   0.185   0.463 -0.1244  0.0781  0.0654
  626TMC3    C7 9331   2.338   0.114   0.695  0.1888 -0.2842  0.5447
  626TMC3    C8 9332   2.127   0.016   0.275 -0.2785  0.1110 -0.2978
  626TMC3    O1 9333   2.435   0.091   0.764 -0.0886 -0.2349  0.4640
  626TMC3    O2 9334   2.101   4.667   0.191  0.1081  0.3225 -0.7464
  627MPD2     C 9335   4.692   0.258  14.365 -0.6259 -0.1400 -0.5562
  627MPD2    C1 9336   0.046   0.203  14.447 -0.0044 -0.2290 -0.1734
  627MPD2    C2 9337   0.045   0.069  14.473  0.3314  0.1501  0.3897
  627MPD2    C3 9338   4.686   4.720  14.426  0.0859  0.4051  0.5087
  627MPD2    C4 9339   4.594   0.037  14.342 -0.2936  0.2817 -0.1334
  627MPD2    C5 9340   4.605   0.169  14.307  0.5638  0.0995 -0.1185
  627MPD2     H 9341   0.125   0.030  14.535 -0.3398 -0.2206  1.0144
  627MPD2    H1 9342   4.520   4.712  14.293 -0.2555  0.1889 -0.0729
  627MPD2    H2 9343   4.681   0.360  14.328  1.5698 -0.3046 -1.6598
  627MPD2    H3 9344   4.540   0.193  14.224 -0.3598 -0.6395  0.3831
  627MPD2     N 9345   4.685   4.593  14.471  0.0547 -0.2216 -0.2640
  627MPD2    H5 9346   0.024   4.552  14.524  0.7814  1.9278  0.3299
  627MPD2    N1 9347   0.148   0.288  14.505  0.5242 -0.8812 -0.6501
  627MPD2    H7 9348   0.214   0.251  14.572 -0.9159 -0.5615  0.9561
  628TMC3    C1 9349   0.275   0.472  14.552  0.3016 -1.0107 -0.7441
  628TMC3    C2 9350   0.345   0.398  14.646  0.4571 -1.1311  1.2825
  628TMC3    C3 9351   0.450   0.458  14.708 -0.0009  0.6434  0.5630
  628TMC3    C4 9352   0.303   0.610  14.536 -0.3023 -0.8113  0.4619
  628TMC3    C5 9353   0.410   0.664  14.606 -0.1992 -0.4934 -0.8381
  628TMC3    C6 9354   0.488   0.588  14.688 -0.6182  0.4651 -0.3020
  628TMC3     C 9355   0.169   0.417  14.473 -0.3700 -0.5852  0.2640
  628TMC3     O 9356   0.088   0.498  14.426  0.1998  0.6546 -0.0670
  628TMC3     H 9357   0.324   0.300  14.687 -0.0755 -2.6087 -2.5260
  628TMC3    H1 9358   0.251   0.667  14.460  2.0945 -0.7668 -1.1514
  628TMC3    H2 9359   0.580   0.628  14.730  0.4827 -2.9971  0.5505
  628TMC3    C7 9360   0.475   0.784  14.554 -0.4562  0.0008  0.2206
  628TMC3    C8 9361   0.551   0.368  14.744  0.2498 -0.2612 -0.1724
  628TMC3    O1 9362   0.563   0.829  14.629  0.2442 -0.2037 -0.3719
  628TMC3    O2 9363   0.587   0.292  14.659 -0.2422  0.1139 -0.2783
  629MPD2     C 9364   3.144   2.614  16.638 -0.8510  0.2673  0.6265
  629MPD2    C1 9365   3.183   2.745  16.607 -0.1914 -0.6430  0.0194
  629MPD2    C2 9366   3.088   2.824  16.540 -0.3915  0.1389 -0.0484
  629MPD2    C3 9367   2.963   2.777  16.507  0.1932 -0.0412  0.3393
  629MPD2    C4 9368   2.924   2.650  16.539  0.3561 -0.5302  0.2349
  629MPD2    C5 9369   3.015   2.569  16.603 -0.0528  0.0630  0.5002
  629MPD2     H 9370   3.118   2.925  16.516  0.2250  0.1935  0.9333
  629MPD2    H1 9371   2.835   2.599  16.506  0.3103 -1.5026  1.8497
  629MPD2    H2 9372   3.217   2.546  16.680 -1.8265 -0.6561  0.8281
  629MPD2    H3 9373   2.992   2.465  16.626  0.5681 -0.0849  0.4409
  629MPD2     N 9374   2.879   2.871  16.437  0.1815  0.3269  0.1450
  629MPD2    H5 9375   2.922   2.962  16.422  1.7368 -0.5508 -0.7175
  629MPD2    N1 9376   3.317   2.786  16.619  0.1585  0.2311 -0.3070
  629MPD2    H7 9377   3.386   2.721  16.655 -0.7732  0.1583  1.3620
  630TMC3    C1 9378   3.524   2.893  16.578  0.4210  0.2278 -0.5614
  630TMC3    C2 9379   3.589   2.962  16.483 -0.3384 -1.1297  0.4503
  630TMC3    C3 9380   3.728   2.972  16.505 -0.2151  0.0357 -0.2841
  630TMC3    C4 9381   3.571   2.813  16.679 -0.3156 -0.2282  0.2723
  630TMC3    C5 9382   3.709   2.820  16.685 -0.6983 -0.3161 -0.0763
  630TMC3    C6 9383   3.791   2.903  16.607  0.3784 -0.0866 -0.2393
  630TMC3     C 9384   3.378   2.901  16.570  0.6005  0.7117  1.1083
  630TMC3     O 9385   3.333   2.992  16.505  0.2888  0.2055  0.1607
  630TMC3     H 9386   3.539   3.030  16.415  0.0956  1.4633  2.7012
  630TMC3    H1 9387   3.525   2.788  16.774  0.1923 -2.4064 -0.0427
  630TMC3    H2 9388   3.899   2.912  16.607  0.4478 -0.8447  1.5968
  630TMC3    C7 9389   3.781   2.769  16.802  0.4480 -0.0376  0.3300
  630TMC3    C8 9390   3.815   3.076  16.455  0.1711 -0.2545  0.5863
  630TMC3    O1 9391   3.874   2.840  16.836  0.5170 -0.4265  0.2816
  630TMC3    O2 9392   3.911   3.117  16.522 -0.5915 -0.5695  0.1878
  631MPD2     C 9393   1.802   3.935  15.711 -0.8551  0.6840  0.9109
  631MPD2    C1 9394   1.932   3.969  15.701 -0.2255  0.1044  0.5905
  631MPD2    C2 9395   2.026   3.881  15.648 -0.4560  0.4452  0.1288
  631MPD2    C3 9396   1.979   3.764  15.587  0.7368 -0.4252 -0.4033
  631MPD2    C4 9397   1.850   3.715  15.616  0.5058  0.0021  0.0555
  631MPD2    C5 9398   1.760   3.806  15.676  0.8475  0.1697  0.5565
  631MPD2     H 9399   2.124   3.917  15.619 -0.2129  1.3938  2.1308
  631MPD2    H1 9400   1.802   3.627  15.575 -0.7543  1.2829 -1.2193
  631MPD2    H2 9401   1.731   4.001  15.759  0.4527  1.3629  1.9282
  631MPD2    H3 9402   1.654   3.785  15.687 -0.1628  3.9681 -2.0442
  631MPD2     N 9403   2.068   3.682  15.518  0.4913  0.2945 -0.0421
  631MPD2    H5 9404   2.166   3.711  15.513  0.2098  1.4405  1.1050
  631MPD2    N1 9405   1.953   4.099  15.735 -0.0346  0.4708  0.3834
  631MPD2    H7 9406   1.868   4.155  15.742  0.4145  1.0719  0.9910
  632TMC3    C1 9407   2.056   4.304  15.741 -0.2010 -0.2641  0.2303
  632TMC3    C2 9408   1.925   4.338  15.746 -0.2826 -0.1158  0.0324
  632TMC3    C3 9409   1.867   4.399  15.641 -0.6401  0.0546 -0.0776
  632TMC3    C4 9410   2.133   4.357  15.643  0.0238 -0.9093  0.3324
  632TMC3    C5 9411   2.075   4.413  15.534  0.5716  0.1903  0.0236
  632TMC3    C6 9412   1.943   4.439  15.532 -0.3558 -0.4182  0.3531
  632TMC3     C 9413   2.075   4.158  15.736  0.0491 -0.6171  0.2098
  632TMC3     O 9414   2.189   4.114  15.726 -0.3578  0.1045  0.0527
  632TMC3     H 9415   1.871   4.303  15.833 -1.0531 -1.3680 -0.9482
  632TMC3    H1 9416   2.238   4.341  15.664  0.3172  0.1243 -0.3660
  632TMC3    H2 9417   1.901   4.476  15.440  2.7146  1.9311 -0.0975
  632TMC3    C7 9418   2.137   4.382  15.409 -0.4189  0.6393 -0.4864
  632TMC3    C8 9419   1.735   4.339  15.616 -0.4447 -0.0146  0.9150
  632TMC3    O1 9420   2.080   4.426  15.309  0.5980 -0.0042  0.2015
  632TMC3    O2 9421   1.705   4.255  15.702  0.0535 -0.3370 -0.9061
  633MPD2     C 9422   1.958   1.143  17.308  0.8896 -0.0679  0.7489
  633MPD2    C1 9423   1.980   1.109  17.176  0.4112  0.6969  0.4780
  633MPD2    C2 9424   1.951   0.980  17.133  0.2308 -0.1349 -0.3696
  633MPD2    C3 9425   1.903   0.880  17.225 -0.3586 -1.2459  0.2739
  633MPD2    C4 9426   1.859   0.923  17.346 -0.4567 -0.1108  0.0511
  633MPD2    C5 9427   1.891   1.049  17.383  0.5795 -0.5072  0.6841
  633MPD2     H 9428   1.974   0.952  17.031 -1.7618  1.8567 -1.3711
  633MPD2    H1 9429   1.809   0.866  17.423 -0.4255  0.7129  0.6769
  633MPD2    H2 9430   1.958   1.243  17.348 -2.5751 -0.6570  2.2023
  633MPD2    H3 9431   1.854   1.076  17.481 -0.9649 -0.0452 -0.0204
  633MPD2     N 9432   1.899   0.738  17.193  0.3844 -0.1371  0.9944
  633MPD2    H5 9433   1.886   0.682  17.276  0.1786 -1.2707  0.2019
  633MPD2    N1 9434   2.035   1.200  17.085 -0.5729  0.2699  0.3205
  633MPD2    H7 9435   2.058   1.159  16.996  1.9394  1.2449  0.5096
  634TMC3    C1 9436   2.088   1.404  16.991 -0.3151  0.0677  0.1142
  634TMC3    C2 9437   2.157   1.336  16.902  0.4110  0.1602  0.3995
  634TMC3    C3 9438   2.180   1.386  16.781 -0.6428  0.0090  0.0073
  634TMC3    C4 9439   2.033   1.523  16.966  0.3494  0.0082 -0.0192
  634TMC3    C5 9440   2.050   1.570  16.841 -0.9606  0.2886  0.5546
  634TMC3    C6 9441   2.117   1.505  16.742  0.7018 -0.6024  0.0140
  634TMC3     C 9442   2.055   1.332  17.110 -0.7448 -0.3860 -0.5204
  634TMC3     O 9443   2.027   1.409  17.200  0.1659  0.2970  0.0605
  634TMC3     H 9444   2.210   1.244  16.926 -0.0335 -0.9395 -2.9081
  634TMC3    H1 9445   1.974   1.575  17.042 -0.5869  0.0617 -0.7797
  634TMC3    H2 9446   2.105   1.531  16.638 -3.4392  1.6175  1.0486
  634TMC3    C7 9447   1.987   1.697  16.799 -0.3723  0.1062  0.1380
  634TMC3    C8 9448   2.225   1.298  16.674 -0.7894 -0.2344 -0.7507
  634TMC3    O1 9449   1.996   1.720  16.679  0.0889 -0.2746  0.3887
  634TMC3    O2 9450   2.255   1.180  16.706  0.3295  0.6011 -0.2310
  635TMC3    C1 9451   2.231   2.111   0.288  0.2423 -0.0339  0.4640
  635TMC3    C2 9452   2.203   2.037   0.177 -0.1120  0.2105  0.3526
  635TMC3    C3 9453   2.152   1.914   0.191  0.5728 -0.6955  0.4915
  635TMC3    C4 9454   2.219   2.063   0.412 -0.5493  0.3729  0.4476
  635TMC3    C5 9455   2.175   1.934   0.422  0.0800 -0.6585  0.5841
  635TMC3    C6 9456   2.134   1.858   0.315 -1.4661 -0.3094  0.8286
  635TMC3     C 9457   2.266   2.250   0.284 -0.0764 -0.3513  0.1913
  635TMC3     O 9458   2.323   2.289   0.386  0.1505  0.2182  0.0987
  635TMC3     H 9459   2.213   2.076   0.076  3.3866 -0.7343  0.3409
  635TMC3    H1 9460   2.225   2.125   0.501  0.1315  0.2562  0.4810
  635TMC3    H2 9461   2.086   1.762   0.333 -0.0306 -0.8036  2.0410
  635TMC3    C7 9462   2.155   1.890   0.560  1.0268  0.2363  0.1644
  635TMC3    C8 9463   2.111   1.838   0.069  0.1585  0.6949  0.4633
  635TMC3    O1 9464   2.154   1.968   0.659 -0.0763  0.1421 -0.2689
  635TMC3    O2 9465   2.085   1.915  17.727 -0.0273  0.3921  0.2314
  636MPD2     C 9466   3.366   1.681  15.748  0.0039  0.1627  0.3601
  636MPD2    C1 9467   3.294   1.670  15.870 -0.3728 -0.0789 -0.3258
  636MPD2    C2 9468   3.285   1.545  15.936  0.1270 -0.4212 -0.4635
  636MPD2    C3 9469   3.352   1.438  15.875 -0.4125 -0.1054 -0.6138
  636MPD2    C4 9470   3.419   1.454  15.757  0.4599 -0.2776  0.2064
  636MPD2    C5 9471   3.428   1.574  15.693 -0.0075  0.7643  0.1092
  636MPD2     H 9472   3.232   1.531  16.029  1.9550 -3.2369  0.1514
  636MPD2    H1 9473   3.479   1.376  15.710  0.7287  1.1547 -1.8308
  636MPD2    H2 9474   3.383   1.776  15.698 -0.4245  0.1663  0.2169
  636MPD2    H3 9475   3.483   1.583  15.601  2.1348 -1.6591  1.1709
  636MPD2     N 9476   3.359   1.315  15.943 -0.0821 -0.1101  0.5017
  636MPD2    H5 9477   3.298   1.316  16.023 -0.4038  0.4203  0.2524
  636MPD2    N1 9478   3.236   1.782  15.940 -0.1066  0.3849  0.4702
  636MPD2    H7 9479   3.174   1.755  16.016  1.4827 -0.9326  1.3209
  637TMC3    C1 9480   3.417   1.092  16.020 -0.2303  0.0785 -0.3834
  637TMC3    C2 9481   3.368   1.125  16.146 -0.6214  0.3080 -0.1358
  637TMC3    C3 9482   3.382   1.036  16.251 -0.3431  0.0333  0.2655
  637TMC3    C4 9483   3.507   0.987  16.004  0.1253  0.5796  0.3978
  637TMC3    C5 9484   3.509   0.895  16.112 -0.8043  0.6256 -0.4461
  637TMC3    C6 9485   3.444   0.917  16.229 -0.1014 -0.1796  0.2693
  637TMC3     C 9486   3.432   1.199  15.920  0.3070  0.6117  0.2345
  637TMC3     O 9487   3.505   1.181  15.823 -0.0391  0.3345  0.2406
  637TMC3     H 9488   3.344   1.230  16.154 -1.7138 -0.0695  1.4707
  637TMC3    H1 9489   3.551   0.964  15.908 -0.9066 -1.4039  0.3907
  637TMC3    H2 9490   3.431   0.838  16.301  2.3276  0.2938  1.2214
  637TMC3    C7 9491   3.578   0.765  16.087 -0.4623  0.0909 -0.1412
  637TMC3    C8 9492   3.387   1.099  16.384 -0.2897 -0.2788 -0.1326
  637TMC3    O1 9493   3.547   0.705  15.985 -0.3825 -0.4293  0.4544
  637TMC3    O2 9494   3.366   1.223  16.390 -0.4041 -0.0847 -0.3649
  638MPD2     C 9495   3.055   0.824  15.182 -0.3739 -0.0365 -0.8415
  638MPD2    C1 9496   2.955   0.746  15.132 -0.3759  0.7142 -0.5793
  638MPD2    C2 9497   2.955   0.610  15.150  0.4016  0.0461 -0.5513
  638MPD2    C3 9498   3.047   0.546  15.229  0.2526  0.1905 -0.0251
  638MPD2    C4 9499   3.141   0.627  15.290  0.1758  0.4900  0.5396
  638MPD2    C5 9500   3.141   0.769  15.273 -0.8141 -0.1879  0.0286
  638MPD2     H 9501   2.877   0.551  15.103 -1.7840  1.2303  1.6397
  638MPD2    H1 9502   3.227   0.594  15.347  0.6798  1.2168  0.1866
  638MPD2    H2 9503   3.057   0.931  15.169  2.6721 -0.2492 -2.0256
  638MPD2    H3 9504   3.210   0.836  15.325  0.2950 -2.1071  1.0451
  638MPD2     N 9505   3.048   0.401  15.238  0.5965 -0.0702  0.9921
  638MPD2    H5 9506   2.975   0.353  15.187 -0.3412  2.0434  0.3317
  638MPD2    N1 9507   2.871   0.814  15.045 -0.3351 -0.1118 -0.0829
  638MPD2    H7 9508   2.895   0.907  15.011 -0.3255 -0.5575 -1.2957
  639TMC3    C1 9509   3.098   0.191  15.329 -0.5034 -0.0939 -0.1444
  639TMC3    C2 9510   2.969   0.153  15.328  0.3644  0.5223  0.0537
  639TMC3    C3 9511   2.943   0.025  15.292  0.0888 -0.1144 -0.3565
  639TMC3    C4 9512   3.199   0.104  15.307 -0.0132  0.5181 -1.0490
  639TMC3    C5 9513   3.166   4.713  15.282  0.1919  0.0288 -0.1742
  639TMC3    C6 9514   3.040   4.672  15.268 -0.4884 -0.2087  0.5262
  639TMC3     C 9515   3.132   0.332  15.322 -0.1120  0.2730 -0.4066
  639TMC3     O 9516   3.236   0.368  15.377 -0.3290  0.3916  0.6378
  639TMC3     H 9517   2.880   0.214  15.339 -0.8500 -0.6203 -3.4220
  639TMC3    H1 9518   3.303   0.129  15.328 -0.2903  0.1754  0.7731
  639TMC3    H2 9519   3.020   4.570  15.237 -0.2412  0.4311 -1.7711
  639TMC3    C7 9520   3.266   4.614  15.271 -0.4415 -0.4229 -0.0402
  639TMC3    C8 9521   2.818   0.011  15.214 -0.4002 -0.1542 -0.1274
  639TMC3    O1 9522   3.235   4.516  15.328  0.0494  0.7553 -0.1344
  639TMC3    O2 9523   2.828   4.728  15.093  0.1761  0.0987 -0.0595
  640MPD2     C 9524   2.340   4.208  10.051 -0.0673 -0.0468  0.4043
  640MPD2    C1 9525   2.439   4.269   9.969  0.1437 -0.2897 -1.0232
  640MPD2    C2 9526   2.466   4.399   9.989  0.1367  0.4773 -0.3588
  640MPD2    C3 9527   2.397   4.473  10.079 -0.6967  0.2513 -0.4282
  640MPD2    C4 9528   2.302   4.413  10.161 -1.3401  0.6500 -0.0933
  640MPD2    C5 9529   2.270   4.285  10.141  0.7022 -0.2697 -0.0463
  640MPD2     H 9530   2.556   4.435   9.941  1.4194 -1.6623  0.4448
  640MPD2    H1 9531   2.247   4.467  10.237 -0.2196  2.9078 -0.8526
  640MPD2    H2 9532   2.310   4.104  10.045  3.3592 -1.1337  2.1241
  640MPD2    H3 9533   2.188   4.240  10.196 -1.0022  1.7933 -0.9114
  640MPD2     N 9534   2.408   4.606  10.101 -0.1359  0.0038  0.1210
  640MPD2    H5 9535   2.345   4.641  10.172  1.7345 -0.6469  2.1214
  640MPD2    N1 9536   2.512   4.186   9.884 -0.5780 -0.2496 -0.5174
  640MPD2    H7 9537   2.483   4.090   9.874 -2.4383  0.0856  1.7528
  641TMC3    C1 9538   2.684   4.109   9.741  0.5761 -0.1570  0.0300
  641TMC3    C2 9539   2.806   4.061   9.775 -0.2067 -0.0357  0.1917
  641TMC3    C3 9540   2.855   3.948   9.713 -0.0071 -0.5411  0.7323
  641TMC3    C4 9541   2.598   4.034   9.672  0.2230 -0.2675 -0.0089
  641TMC3    C5 9542   2.651   3.923   9.609 -0.2253  0.1344 -0.8391
  641TMC3    C6 9543   2.782   3.878   9.622 -0.0143 -0.4772  0.2032
  641TMC3     C 9544   2.637   4.215   9.833  0.2969 -0.4940  0.3482
  641TMC3     O 9545   2.714   4.310   9.851 -0.3323  0.0823  0.0602
  641TMC3     H 9546   2.867   4.124   9.840 -3.8082  2.2621  1.3127
  641TMC3    H1 9547   2.493   4.055   9.656  0.8634  2.3997 -0.7627
  641TMC3    H2 9548   2.814   3.781   9.586 -0.6832 -0.6995  0.1987
  641TMC3    C7 9549   2.576   3.879   9.495  0.3012  0.6132 -0.1001
  641TMC3    C8 9550   2.993   3.900   9.736 -0.0131 -0.2745 -0.5526
  641TMC3    O1 9551   2.457   3.899   9.488 -0.0327  0.2074 -0.5019
  641TMC3    O2 9552   3.017   3.789   9.685 -0.0441  0.0694  0.1622
  642TMC3    C1 9553   3.935   0.452  12.950  0.5150 -0.0353  0.8077
  642TMC3    C2 9554   4.071   0.483  12.943 -0.1285  0.3184  0.2090
  642TMC3    C3 9555   4.149   0.427  12.845  0.2489  0.3880  0.1821
  642TMC3    C4 9556   3.877   0.366  12.859  0.0313  0.8305 -0.3846
  642TMC3    C5 9557   3.962   0.307  12.766  0.0435  0.0323 -0.0434
  642TMC3    C6 9558   4.097   0.336  12.752 -0.4807  0.4727 -0.0593
  642TMC3     C 9559   3.850   0.522  13.053  0.4491 -0.8780 -0.4838
  642TMC3     O 9560   3.911   0.589  13.135 -0.4250  0.3353 -0.2960
  642TMC3     H 9561   4.116   0.552  13.013  1.7925 -1.7506  1.0025
  642TMC3    H1 9562   3.777   0.327  12.874 -0.2553  2.3736  1.7646
  642TMC3    H2 9563   4.160   0.293  12.676  0.6857  1.5236  0.3043
  642TMC3    C7 9564   3.905   0.217  12.661  1.0196 -0.7715 -0.3649
  642TMC3    C8 9565   4.273   0.386  12.901 -0.1152 -0.0683 -0.5386
  642TMC3    O1 9566   3.954   0.205  12.547 -0.7733  0.1805  0.5273
  642TMC3    O2 9567   4.278   0.406  13.020  0.3199 -0.0834  0.4442
  643TMC3    C1 9568   4.435   4.297   0.478  0.6600  0.1332 -0.2808
  643TMC3    C2 9569   4.299   4.270   0.478 -0.1633 -0.5071  0.0025
  643TMC3    C3 9570   4.262   4.142   0.449  0.0055 -0.2444 -0.7458
  643TMC3    C4 9571   4.530   4.203   0.450  0.1113 -0.5181  0.2913
  643TMC3    C5 9572   4.487   4.078   0.415  0.9615 -0.2838  0.9608
  643TMC3    C6 9573   4.355   4.045   0.428 -0.8343 -0.2465  0.0438
  643TMC3     C 9574   4.457   4.437   0.477 -0.2875  0.8489  0.2596
  643TMC3     O 9575   4.369   4.511   0.438 -0.3707 -0.3820  0.1675
  643TMC3     H 9576   4.229   4.353   0.483  1.0523  0.5970 -1.2321
  643TMC3    H1 9577   4.629   4.242   0.431  0.4396 -0.9129  1.2249
  643TMC3    H2 9578   4.331   3.940   0.415 -2.1551  0.3479 -2.3780
  643TMC3    C7 9579   4.511   4.066   0.274  0.6037  0.5316  0.4629
  643TMC3    C8 9580   4.163   4.145   0.350  0.3130  0.5870  0.0508
  643TMC3    O1 9581   4.570   4.154   0.208  0.7200 -0.2814 -0.4581
  643TMC3    O2 9582   4.097   4.041   0.324 -0.6504  0.2568 -0.1995
  644MPD2     C 9583   3.410   0.233   9.979 -0.2629  0.1230 -0.5536
  644MPD2    C1 9584   3.306   0.166   9.911 -0.0191  0.0778  0.1733
  644MPD2    C2 9585   3.201   0.245   9.869 -0.2122 -0.7255  0.1969
  644MPD2    C3 9586   3.206   0.382   9.881  0.1435 -0.4584 -0.0246
  644MPD2    C4 9587   3.317   0.442   9.928  0.1264  0.2519  0.6040
  644MPD2    C5 9588   3.415   0.365   9.991  0.6747  0.0651 -0.5889
  644MPD2     H 9589   3.121   0.208   9.807 -1.7584  3.9547 -0.6007
  644MPD2    H1 9590   3.334   0.550   9.929  1.2384  0.0949 -1.2527
  644MPD2    H2 9591   3.497   0.182  10.020 -0.8651  0.6046  1.3128
  644MPD2    H3 9592   3.499   0.409  10.043  1.1722 -2.4564  0.7713
  644MPD2     N 9593   3.090   0.450   9.825  0.8041 -0.3619  0.4606
  644MPD2    H5 9594   3.014   0.392   9.794  3.4076 -1.3460 -4.0306
  644MPD2    N1 9595   3.327   0.024   9.882  0.5553  0.2899  0.2483
  644MPD2    H7 9596   3.413   4.725   9.922  0.2422  2.5952  3.1088
  645TMC3    C1 9597   2.957   0.620   9.739  0.0001  0.4359  0.7057
  645TMC3    C2 9598   2.849   0.552   9.781  0.6356 -0.8412  0.7663
  645TMC3    C3 9599   2.724   0.597   9.727  0.4372 -0.9388 -0.3429
  645TMC3    C4 9600   2.953   0.741   9.669  0.1334  0.0403 -0.4347
  645TMC3    C5 9601   2.829   0.766   9.607  0.0555  0.4121 -0.8733
  645TMC3    C6 9602   2.714   0.698   9.629  0.2450 -0.7243  0.2547
  645TMC3     C 9603   3.088   0.588   9.797  0.4769 -0.4188  0.1353
  645TMC3     O 9604   3.179   0.671   9.792  0.2602  0.0187  0.0965
  645TMC3     H 9605   2.844   0.476   9.859  2.2474 -1.9851 -0.2607
  645TMC3    H1 9606   3.040   0.797   9.638 -2.4718  4.4772  0.3290
  645TMC3    H2 9607   2.624   0.707   9.570  1.2594 -0.3393 -1.2282
  645TMC3    C7 9608   2.836   0.878   9.509 -0.1777  0.6301 -0.4810
  645TMC3    C8 9609   2.608   0.514   9.751  0.2639  0.2752 -0.2789
  645TMC3    O1 9610   2.947   0.908   9.459 -0.5104  0.1335 -0.0012
  645TMC3    O2 9611   2.618   0.392   9.765 -0.4146  0.1079  0.1069
  646MPD2     C 9612   3.087   4.024  14.639  0.6838  0.0204  0.6791
  646MPD2    C1 9613   2.993   3.982  14.730  0.0075  0.0789  0.1990
  646MPD2    C2 9614   2.870   4.045  14.741  0.5372 -0.4139  0.0669
  646MPD2    C3 9615   2.833   4.144  14.653  0.0468 -0.7982  0.1557
  646MPD2    C4 9616   2.928   4.189  14.560 -0.1601  0.0656  0.1923
  646MPD2    C5 9617   3.050   4.125  14.563 -0.0463 -0.0185 -0.0933
  646MPD2     H 9618   2.804   4.022  14.824  0.6222  2.4892  0.9080
  646MPD2    H1 9619   2.916   4.274  14.494  2.0720  0.3580  0.1700
  646MPD2    H2 9620   3.190   3.989  14.637  0.6220  0.0077 -1.6312
  646MPD2    H3 9621   3.130   4.140  14.492  0.1503  2.3374  0.6207
  646MPD2     N 9622   2.703   4.207  14.676 -0.3332 -0.1914  0.1924
  646MPD2    H5 9623   2.652   4.174  14.757 -1.5286  1.9413  0.2818
  646MPD2    N1 9624   3.035   3.870  14.808 -0.8668 -0.3495  0.4902
  646MPD2    H7 9625   3.132   3.842  14.801 -0.8078 -0.1948  0.7068
  647TMC3    C1 9626   3.032   3.685  14.961 -0.0461  0.2789  0.8250
  647TMC3    C2 9627   2.966   3.619  15.060  0.2232  0.7162  0.3738
  647TMC3    C3 9628   3.039   3.552  15.159 -0.4887 -0.0397  0.2049
  647TMC3    C4 9629   3.172   3.680  14.952 -0.9376 -0.2192  0.1980
  647TMC3    C5 9630   3.241   3.610  15.050 -0.4749 -0.2560  0.1914
  647TMC3    C6 9631   3.171   3.547  15.156  0.4802  0.2967 -0.0345
  647TMC3     C 9632   2.955   3.788  14.888 -0.4242  0.1012 -0.0656
  647TMC3     O 9633   2.832   3.786  14.894  0.5122 -0.4143 -0.1086
  647TMC3     H 9634   2.858   3.612  15.065 -0.0193  1.8272 -3.0512
  647TMC3    H1 9635   3.219   3.689  14.855 -0.2865 -0.8133  0.4589
  647TMC3    H2 9636   3.230   3.487  15.225 -0.5943 -1.8801 -0.9810
  647TMC3    C7 9637   3.369   3.554  15.029 -0.1291  0.4093  0.1330
  647TMC3    C8 9638   2.986   3.448  15.246  0.0593  0.8859 -0.6580
  647TMC3    O1 9639   3.392   3.447  15.090  0.5230 -0.4588  0.0069
  647TMC3    O2 9640   3.036   3.441  15.359  0.5401  0.2459 -0.3244
  648TMC3    C1 9641   2.639   1.501  16.124  0.7623  0.1545 -0.0767
  648TMC3    C2 9642   2.729   1.416  16.073 -0.0961 -0.4213  0.1842
  648TMC3    C3 9643   2.760   1.423  15.937  0.3274 -0.0559  0.1949
  648TMC3    C4 9644   2.572   1.586  16.038  0.7704  0.6793 -0.2869
  648TMC3    C5 9645   2.603   1.583  15.907 -0.0568 -0.0833 -0.9343
  648TMC3    C6 9646   2.694   1.505  15.847  0.0288  0.1011 -0.3519
  648TMC3     C 9647   2.607   1.510  16.266  0.7520  0.0922 -0.2716
  648TMC3     O 9648   2.557   1.615  16.294  0.0264 -0.0622  0.1170
  648TMC3     H 9649   2.789   1.356  16.141  1.7192 -0.5645 -1.5370
  648TMC3    H1 9650   2.508   1.663  16.079  1.8455  2.1450 -1.3563
  648TMC3    H2 9651   2.718   1.513  15.741 -0.7732  0.1899 -0.5248
  648TMC3    C7 9652   2.514   1.653  15.818 -0.3405 -0.5784  0.5534
  648TMC3    C8 9653   2.861   1.335  15.881  0.3783  0.2066  0.0668
  648TMC3    O1 9654   2.549   1.675  15.702  0.1475  0.5142 -0.1055
  648TMC3    O2 9655   2.920   1.378  15.779 -0.0924  0.0189  0.5868
  649TMC3    C1 9656   1.208   2.673  12.718 -0.0309  0.0446  0.0978
  649TMC3    C2 9657   1.321   2.747  12.740 -0.2786 -0.0527 -0.1515
  649TMC3    C3 9658   1.359   2.780  12.869  0.3657  0.3429  0.1698
  649TMC3    C4 9659   1.122   2.650  12.820 -1.2859  0.0136 -0.4045
  649TMC3    C5 9660   1.161   2.675  12.945 -0.5612 -0.2123 -0.3857
  649TMC3    C6 9661   1.282   2.738  12.971 -0.3792  0.5733  0.4702
  649TMC3     C 9662   1.138   2.695  12.591  0.1262  0.7108 -0.7860
  649TMC3     O 9663   1.021   2.723  12.596 -0.3207  0.9769  0.1540
  649TMC3     H 9664   1.355   2.785  12.645 -1.0675 -1.3991 -0.9710
  649TMC3    H1 9665   1.035   2.591  12.797 -0.6710 -0.4290 -1.6007
  649TMC3    H2 9666   1.297   2.774  13.072 -0.9548  2.5001 -0.1288
  649TMC3    C7 9667   1.077   2.633  13.055  0.0435  0.1688  0.2970
  649TMC3    C8 9668   1.478   2.844  12.908 -0.3964 -0.0037  0.3579
  649TMC3    O1 9669   0.958   2.620  13.034 -0.5875 -0.4265  0.2779
  649TMC3    O2 9670   1.499   2.864  13.026  0.6371  0.5225  0.6334
  650TMC3    C1 9671   3.388   4.150  12.579  0.6156 -0.5737 -0.3700
  650TMC3    C2 9672   3.299   4.154  12.682 -0.3042  0.0741  0.0635
  650TMC3    C3 9673   3.227   4.262  12.705  0.1085  0.3428 -0.0640
  650TMC3    C4 9674   3.382   4.257  12.491  0.5985  0.0726  0.4991
  650TMC3    C5 9675   3.299   4.361  12.518  0.0088 -0.3711 -0.6728
  650TMC3    C6 9676   3.237   4.377  12.633 -0.3080 -0.5770  0.6869
  650TMC3     C 9677   3.454   4.026  12.540 -0.2774  1.0556  0.2420
  650TMC3     O 9678   3.492   4.018  12.423  0.1589 -0.1826 -0.5183
  650TMC3     H 9679   3.285   4.060  12.734  1.9414  0.7988  1.9911
  650TMC3    H1 9680   3.441   4.260  12.401 -2.2331 -0.6064 -1.3889
  650TMC3    H2 9681   3.175   4.465  12.648 -0.7325 -0.6631 -0.5897
  650TMC3    C7 9682   3.294   4.456  12.412  0.0649 -1.1548 -0.2298
  650TMC3    C8 9683   3.139   4.261  12.822  0.0151 -0.1260  1.1063
  650TMC3    O1 9684   3.287   4.417  12.299 -0.2323  0.0274 -0.4179
  650TMC3    O2 9685   3.111   4.152  12.879  0.6435 -0.2605  0.1868
  651MPD2     C 9686   2.453   1.709  10.726  0.0799 -0.2632  0.7919
  651MPD2    C1 9687   2.436   1.823  10.804  0.5363  0.5391 -0.5496
  651MPD2    C2 9688   2.534   1.922  10.798 -0.0083  0.1544  0.2473
  651MPD2    C3 9689   2.647   1.909  10.722 -0.1147 -0.5982 -0.3040
  651MPD2    C4 9690   2.666   1.788  10.651 -0.5962 -0.7273 -0.3785
  651MPD2    C5 9691   2.568   1.690  10.657  0.9507  0.1149  0.3459
  651MPD2     H 9692   2.524   2.010  10.860  2.1316  0.0449  0.7601
  651MPD2    H1 9693   2.751   1.764  10.588  1.3105  1.5332  1.3493
  651MPD2    H2 9694   2.388   1.622  10.721 -0.6486  0.2996  0.5152
  651MPD2    H3 9695   2.592   1.599  10.603 -1.2488  0.0519 -0.5372
  651MPD2     N 9696   2.751   2.007  10.708  0.3204 -0.2218 -0.5103
  651MPD2    H5 9697   2.828   1.980  10.647 -0.0573  0.9388 -1.5028
  651MPD2    N1 9698   2.320   1.850  10.884  0.1748 -0.0969  0.5490
  651MPD2    H7 9699   2.332   1.936  10.937 -3.0103  1.7724 -1.7092
  652TMC3    C1 9700   3.103   2.192  10.697 -0.1806  0.0956 -0.2550
  652TMC3    C2 9701   2.982   2.138  10.734  0.2855  0.0201 -0.1309
  652TMC3    C3 9702   2.865   2.208  10.726 -0.6164 -0.1894 -0.5856
  652TMC3    C4 9703   3.109   2.312  10.632 -0.1287  0.4773  0.6371
  652TMC3    C5 9704   2.994   2.380  10.614 -0.1077 -0.0686 -0.2070
  652TMC3    C6 9705   2.873   2.333  10.663  0.0445  0.0692  0.2251
  652TMC3     C 9706   3.219   2.113  10.715  0.1994  0.5857  0.8698
  652TMC3     O 9707   3.216   2.049  10.820  0.2068 -0.3386  0.0619
  652TMC3     H 9708   2.978   2.035  10.768 -2.2663  1.0253  2.6547
  652TMC3    H1 9709   3.204   2.359  10.611  0.0673  0.1061  0.6993
  652TMC3    H2 9710   2.780   2.380  10.634 -0.5094 -1.1373  0.0717
  652TMC3    C7 9711   3.002   2.504  10.549 -1.0275  0.4020 -1.0106
  652TMC3    C8 9712   2.738   2.137  10.749  0.0499  0.4909 -0.3448
  652TMC3    O1 9713   2.895   2.573  10.553  0.1930  0.6880  0.1613
  652TMC3    O2 9714   2.663   2.197  10.820 -0.0968  0.0016 -0.0170
  653MPD2     C 9715   1.584   1.403   0.131  0.1995  0.5373  0.2512
  653MPD2    C1 9716   1.564   1.501   0.034 -0.1182  0.1669 -0.1565
  653MPD2    C2 9717   1.525   1.452  17.651 -0.2081 -0.6037  0.1217
  653MPD2    C3 9718   1.531   1.319  17.613  0.4119 -0.6414  0.3823
  653MPD2    C4 9719   1.544   1.217  17.712  0.1302  0.3005  0.0293
  653MPD2    C5 9720   1.566   1.266   0.095 -0.0109  0.1868  0.7963
  653MPD2     H 9721   1.519   1.532  17.578  1.7651 -1.8337 -1.3792
  653MPD2    H1 9722   1.555   1.114  17.682 -1.3683 -0.1466  1.0334
  653MPD2    H2 9723   1.607   1.417   0.236 -0.3977  0.9331  0.3221
  653MPD2    H3 9724   1.572   1.198   0.179 -1.4939  0.5335  1.1876
  653MPD2     N 9725   1.516   1.289  17.479 -0.1737  0.3225 -0.1720
  653MPD2    H5 9726   1.485   1.365  17.420 -1.1232 -0.6776 -0.9603
  653MPD2    N1 9727   1.594   1.635   0.051 -0.5043  0.1065 -0.2082
  653MPD2    H7 9728   1.591   1.700  17.722 -1.1382  0.1329 -0.1608
  654TMC3    C1 9729   1.492   1.139  17.290 -0.0776  0.3443  0.2268
  654TMC3    C2 9730   1.394   1.225  17.255 -0.1829 -0.1016 -0.3111
  654TMC3    C3 9731   1.351   1.230  17.123 -0.6333  0.2810  0.7477
  654TMC3    C4 9732   1.546   1.044  17.207 -0.3837  0.4847 -0.4218
  654TMC3    C5 9733   1.483   1.031  17.090 -0.7359  0.4993 -0.1503
  654TMC3    C6 9734   1.385   1.123  17.041  0.1098 -0.1967 -0.4051
  654TMC3     C 9735   1.546   1.164  17.421  0.4098  0.5983 -0.0927
  654TMC3     O 9736   1.606   1.068  17.467 -0.3793  0.0840  0.4308
  654TMC3     H 9737   1.363   1.315  17.307 -2.4532 -0.4160 -1.1337
  654TMC3    H1 9738   1.634   0.987  17.233 -1.2645 -0.4544  0.5334
  654TMC3    H2 9739   1.336   1.107  16.946  0.2979  0.5224 -0.6187
  654TMC3    C7 9740   1.537   0.939  16.995 -0.3318 -0.0110  0.1967
  654TMC3    C8 9741   1.266   1.342  17.079 -0.6287 -0.4463 -0.0960
  654TMC3    O1 9742   1.538   0.992  16.887 -0.3938  0.8077 -0.0408
  654TMC3    O2 9743   1.217   1.422  17.159  0.3493  0.4655 -0.0227
  655MPD2     C 9744   2.978   1.704  15.713  1.0649  0.1497 -0.0129
  655MPD2    C1 9745   2.916   1.811  15.658 -0.2444 -0.0176  0.2889
  655MPD2    C2 9746   2.931   1.824  15.519 -0.6771  0.5028 -0.5346
  655MPD2    C3 9747   2.987   1.727  15.437 -0.4303  0.5498 -0.2484
  655MPD2    C4 9748   3.058   1.626  15.499  0.6698 -0.2969 -0.0416
  655MPD2    C5 9749   3.046   1.621  15.631 -0.0436 -0.1181 -0.2062
  655MPD2     H 9750   2.891   1.918  15.482  0.9014  1.0290 -0.9088
  655MPD2    H1 9751   3.119   1.550  15.451  2.1117  0.0810  1.2140
  655MPD2    H2 9752   2.985   1.684  15.819 -0.8076 -0.4926 -0.0138
  655MPD2    H3 9753   3.109   1.545  15.676  0.2456 -0.5412 -1.3287
  655MPD2     N 9754   2.984   1.733  15.292  0.4326  0.3801  0.0553
  655MPD2    H5 9755   3.028   1.656  15.243 -2.4681 -1.6803  0.7319
  655MPD2    N1 9756   2.826   1.891  15.729  0.0922  0.1364  0.5520
  655MPD2    H7 9757   2.774   1.957  15.671  2.3054  0.8922 -0.5828
  656TMC3    C1 9758   2.674   1.970  15.890  0.3518  0.5025  0.5295
  656TMC3    C2 9759   2.638   1.960  16.020  1.0629 -0.1446  0.1766
  656TMC3    C3 9760   2.545   2.055  16.064  0.2032 -0.3339 -0.0841
  656TMC3    C4 9761   2.637   2.077  15.811 -0.0603 -0.1596  0.0701
  656TMC3    C5 9762   2.547   2.167  15.860 -0.2503  0.2148 -0.0660
  656TMC3    C6 9763   2.505   2.161  15.989 -0.1280 -0.0211  0.0905
  656TMC3     C 9764   2.787   1.886  15.866  0.6267  0.7926 -0.4245
  656TMC3     O 9765   2.821   1.799  15.946 -0.1679  0.2423 -0.8835
  656TMC3     H 9766   2.657   1.870  16.079  1.3588 -0.8306 -0.9613
  656TMC3    H1 9767   2.676   2.086  15.711 -0.6279 -1.9349 -0.3158
  656TMC3    H2 9768   2.423   2.224  16.019  0.9441  2.0104 -1.2592
  656TMC3    C7 9769   2.475   2.237  15.758  0.3380  0.3047 -0.4500
  656TMC3    C8 9770   2.446   1.997  16.161  0.0752  0.9324  0.4921
  656TMC3    O1 9771   2.523   2.230  15.642 -0.2690 -0.5080  0.2731
  656TMC3    O2 9772   2.450   1.878  16.178  0.2341 -0.5313 -0.2308
  657TMC3    C1 9773   1.558   0.891  15.083 -0.2095  0.4004 -0.1206
  657TMC3    C2 9774   1.614   0.921  15.203 -0.4821  0.2397 -0.2299
  657TMC3    C3 9775   1.530   0.984  15.289  0.6301 -0.6051 -0.8577
  657TMC3    C4 9776   1.426   0.897  15.056 -0.1656  0.0084  0.0566
  657TMC3    C5 9777   1.344   0.959  15.142  0.1432  0.1674 -0.3684
  657TMC3    C6 9778   1.398   1.012  15.253 -0.0224  0.5664 -0.0117
  657TMC3     C 9779   1.634   0.811  14.988 -0.3370 -1.0228  1.3200
  657TMC3     O 9780   1.569   0.743  14.910 -0.0160  0.2740 -0.0869
  657TMC3     H 9781   1.715   0.905  15.239 -0.5849 -0.2776 -0.1648
  657TMC3    H1 9782   1.394   0.853  14.963 -2.6306  0.6323  0.6113
  657TMC3    H2 9783   1.342   1.052  15.337 -0.3478  1.1969 -0.5336
  657TMC3    C7 9784   1.207   0.995  15.115 -0.1319  0.2618 -0.6017
  657TMC3    C8 9785   1.599   1.057  15.393  0.1530  0.1182 -0.5198
  657TMC3    O1 9786   1.155   1.063  15.202 -0.0771  0.0614 -0.4506
  657TMC3    O2 9787   1.691   1.000  15.450 -0.2120  0.1433 -0.4356
  658MPD2     C 9788   3.020   1.406  14.519  0.1590 -0.2336  0.7276
  658MPD2    C1 9789   3.067   1.511  14.596  0.0330  0.2366  0.3925
  658MPD2    C2 9790   3.167   1.594  14.547  0.1212  0.3952  0.2237
  658MPD2    C3 9791   3.231   1.564  14.425  0.2416 -0.3149  0.5619
  658MPD2    C4 9792   3.179   1.457  14.355  0.3785  0.6737  0.0668
  658MPD2    C5 9793   3.074   1.379  14.396  0.1676  0.4894 -0.4163
  658MPD2     H 9794   3.182   1.687  14.601 -2.4446 -0.1530  1.9086
  658MPD2    H1 9795   3.235   1.431  14.266  1.1454  0.5050  0.5924
  658MPD2    H2 9796   2.946   1.341  14.564  0.6014  0.7862  2.9311
  658MPD2    H3 9797   3.040   1.295  14.337 -1.5366  0.4743  0.5759
  658MPD2     N 9798   3.322   1.658  14.368 -0.5694 -0.7039  0.0907
  658MPD2    H5 9799   3.341   1.740  14.424  0.9840  0.5899 -2.3594
  658MPD2    N1 9800   3.010   1.526  14.728 -0.5869 -0.2364  0.6129
  658MPD2    H7 9801   2.931   1.466  14.750 -1.6582  0.8448 -0.2594
  659TMC3    C1 9802   2.957   1.633  14.923 -0.0166 -0.9167  0.5378
  659TMC3    C2 9803   2.995   1.710  15.031  0.1225 -0.5743  0.1554
  659TMC3    C3 9804   2.899   1.795  15.082  0.6642 -0.8357  0.0404
  659TMC3    C4 9805   2.832   1.634  14.865  0.0685  0.1412 -0.2893
  659TMC3    C5 9806   2.744   1.713  14.934  0.4048  0.2762  0.1517
  659TMC3    C6 9807   2.772   1.806  15.027  0.2695  0.1004  0.3386
  659TMC3     C 9808   3.056   1.611  14.822  0.0295 -0.0415 -0.5166
  659TMC3     O 9809   3.168   1.652  14.845 -0.3586  0.0407 -0.0470
  659TMC3     H 9810   3.099   1.722  15.060  0.4273 -2.0356 -0.3558
  659TMC3    H1 9811   2.792   1.567  14.791  0.4516  0.0488 -0.4115
  659TMC3    H2 9812   2.692   1.862  15.074  0.3063 -1.0873  1.8262
  659TMC3    C7 9813   2.611   1.659  14.959  0.2529 -0.3409 -0.0575
  659TMC3    C8 9814   2.906   1.822  15.222  0.5545 -0.5885 -0.3286
  659TMC3    O1 9815   2.569   1.671  15.075 -0.0439  0.4115  0.3137
  659TMC3    O2 9816   2.815   1.893  15.257 -0.3794  0.6472  0.4441
  660MPD2     C 9817   0.568   0.135  12.557  0.3589 -0.0634  0.0339
  660MPD2    C1 9818   0.436   0.106  12.522  0.5233 -0.7321 -0.4850
  660MPD2    C2 9819   0.352   0.031  12.603  0.9132 -0.0194 -0.1632
  660MPD2    C3 9820   0.409   4.715  12.718  0.3277  0.2998 -0.0187
  660MPD2    C4 9821   0.544   4.724  12.740 -0.1297 -0.3837  0.3954
  660MPD2    C5 9822   0.620   0.065  12.659  0.5081  0.3780  0.3126
  660MPD2     H 9823   0.250   0.016  12.569  1.0006  3.0654 -1.8013
  660MPD2    H1 9824   0.591   4.687  12.830 -1.0732 -1.3013  0.5129
  660MPD2    H2 9825   0.620   0.205  12.493  0.2897 -2.5225 -2.7333
  660MPD2    H3 9826   0.725   0.070  12.686  0.8756 -0.1875 -0.9719
  660MPD2     N 9827   0.347   4.631  12.809  0.2904 -0.4088 -0.0310
  660MPD2    H5 9828   0.405   4.608  12.888  0.6112 -0.8284 -0.3877
  660MPD2    N1 9829   0.380   0.177  12.407  0.0730 -0.3923  0.3759
  660MPD2    H7 9830   0.446   0.232  12.353  0.9793 -4.2570 -2.4766
  661TMC3    C1 9831   0.239   0.307  12.289 -0.5549  0.0552 -0.3188
  661TMC3    C2 9832   0.329   0.326  12.191  0.1813  0.1365  0.2386
  661TMC3    C3 9833   0.307   0.443  12.127 -0.4010 -0.2215  0.5594
  661TMC3    C4 9834   0.151   0.401  12.341 -0.6830  0.1181 -0.5889
  661TMC3    C5 9835   0.143   0.521  12.282  0.2956 -0.1504 -0.6514
  661TMC3    C6 9836   0.213   0.538  12.166  0.0102 -0.4974 -0.2983
  661TMC3     C 9837   0.247   0.192  12.377 -0.0725 -0.0329  0.2798
  661TMC3     O 9838   0.143   0.153  12.427 -0.3930  0.0148  0.1623
  661TMC3     H 9839   0.394   0.246  12.159 -0.0378 -0.2045  0.6392
  661TMC3    H1 9840   0.102   0.376  12.435 -0.5844 -1.5365 -0.9776
  661TMC3    H2 9841   0.193   0.625  12.104  1.0782  0.7430  1.0891
  661TMC3    C7 9842   0.042   0.622  12.320  0.4841 -0.1089  0.6787
  661TMC3    C8 9843   0.414   0.481  12.033 -0.2832 -0.3270 -0.2307
  661TMC3    O1 9844   4.718   0.669  12.224 -0.4341 -0.1504  0.1479
  661TMC3    O2 9845   0.455   0.393  11.955  0.1215 -0.2524 -0.3318
  662MPD2     C 9846   1.436   4.587  17.300  0.6048 -0.0377 -0.0758
  662MPD2    C1 9847   1.403   4.527  17.419 -0.3373  0.5113 -0.3930
  662MPD2    C2 9848   1.277   4.562  17.475 -0.0511 -0.3729 -0.6862
  662MPD2    C3 9849   1.190   4.646  17.404 -0.2990  0.1769 -0.9703
  662MPD2    C4 9850   1.229   4.688  17.282  0.6723  0.2082  0.2273
  662MPD2    C5 9851   1.346   4.658  17.229 -0.4674 -0.3321 -0.4920
  662MPD2     H 9852   1.237   4.509  17.560 -0.5507  3.4947  1.4769
  662MPD2    H1 9853   1.165   0.019  17.227 -0.0946 -1.1800 -0.6156
  662MPD2    H2 9854   1.535   4.585  17.257 -0.5734  0.6250 -2.8420
  662MPD2    H3 9855   1.372   4.696  17.131  0.0761  0.5956  0.0016
  662MPD2     N 9856   1.065   4.690  17.446  0.4565  0.2128 -0.3098
  662MPD2    H5 9857   1.033   0.029  17.388  1.4480  1.7794  1.2031
  662MPD2    N1 9858   1.476   4.424  17.484  0.1395 -0.5543 -0.2116
  662MPD2    H7 9859   1.435   4.384  17.567  1.7392  0.1294  0.9006
  663TMC3    C1 9860   1.625   4.224  17.484 -0.0264 -0.3015  0.4929
  663TMC3    C2 9861   1.545   4.185  17.589 -0.3574  0.1500  0.5710
  663TMC3    C3 9862   1.540   4.051  17.602 -0.1067  0.6275 -0.3907
  663TMC3    C4 9863   1.690   4.144  17.393  0.8220  0.1980  0.5092
  663TMC3    C5 9864   1.677   4.007  17.402  0.1460  0.2173 -0.3096
  663TMC3    C6 9865   1.615   3.964  17.519  0.8093 -0.0751  0.0416
  663TMC3     C 9866   1.587   4.355  17.427 -0.6083 -0.8008  0.0487
  663TMC3     O 9867   1.657   4.399  17.336  0.1872  0.4652 -0.2291
  663TMC3     H 9868   1.534   4.254  17.673 -1.5789 -0.2814  0.7663
  663TMC3    H1 9869   1.733   4.180  17.300  1.5909 -1.6672  0.1426
  663TMC3    H2 9870   1.600   3.858  17.531  0.1064 -0.1036 -1.0945
  663TMC3    C7 9871   1.638   3.950  17.275 -0.1405 -0.0069  0.5571
  663TMC3    C8 9872   1.536   4.011  17.743 -0.4376  0.4327  0.6381
  663TMC3    O1 9873   1.689   4.002  17.181 -0.1283  0.0936  0.6336
  663TMC3    O2 9874   1.587   3.900   0.013  0.0969  0.2931  0.5944
  664MPD2     C 9875   4.309   2.753   0.159 -1.0367 -0.1884  0.4258
  664MPD2    C1 9876   4.349   2.866   0.091  0.2703 -0.2154  0.4592
  664MPD2    C2 9877   4.440   2.949   0.140 -0.8399 -0.3900  0.6002
  664MPD2    C3 9878   4.493   2.915   0.267 -0.3304  0.2821  0.2358
  664MPD2    C4 9879   4.453   2.798   0.334  0.2938 -0.5083 -0.5599
  664MPD2    C5 9880   4.350   2.725   0.287  0.0926  0.3425  0.2069
  664MPD2     H 9881   4.485   3.027   0.080  0.0159 -1.2386  0.1591
  664MPD2    H1 9882   4.477   2.778   0.438  0.5047 -3.3938 -1.1775
  664MPD2    H2 9883   4.228   2.699   0.111 -1.1332  0.4089 -0.0830
  664MPD2    H3 9884   4.307   2.650   0.352 -0.2962 -0.9324 -1.5248
  664MPD2     N 9885   4.593   3.001   0.313  0.0433  0.5101  0.1066
  664MPD2    H5 9886   4.619   3.076   0.249  1.3019  0.1789  0.2311
  664MPD2    N1 9887   4.292   2.888  17.711  0.4058 -0.2373  0.1455
  664MPD2    H7 9888   4.333   2.965  17.659  0.9227 -1.1181 -0.7649
  665TMC3    C1 9889   0.020   3.099   0.451 -0.2995  0.4214  0.2835
  665TMC3    C2 9890   0.128   3.055   0.525  0.2624 -0.5454 -0.4096
  665TMC3    C3 9891   0.223   3.140   0.563  0.9089 -0.3533  0.9592
  665TMC3    C4 9892   0.016   3.225   0.397  0.3564  0.1907  0.2713
  665TMC3    C5 9893   0.114   3.308   0.442 -0.1934  0.7905  0.3356
  665TMC3    C6 9894   0.214   3.271   0.526  0.3023 -0.1378  0.4491
  665TMC3     C 9895   4.667   2.991   0.427 -0.2355  0.2307  0.0918
  665TMC3     O 9896   4.663   2.899   0.510 -0.2847 -0.6965  0.0018
  665TMC3     H 9897   0.142   2.948   0.538 -1.1793 -0.7986 -0.9879
  665TMC3    H1 9898   4.670   3.252   0.334  1.1604 -0.3859 -1.0425
  665TMC3    H2 9899   0.298   3.337   0.545  0.0852  0.4370 -0.5833
  665TMC3    C7 9900   0.078   3.444   0.458  0.3735  0.0512  0.1177
  665TMC3    C8 9901   0.241   3.132   0.698 -0.6571 -1.4085 -0.1210
  665TMC3    O1 9902   4.730   3.485   0.384  0.8916 -0.0667 -0.2287
  665TMC3    O2 9903   0.205   3.235   0.755  0.4627  0.2749  0.3832
  666TMC3    C1 9904   2.426   2.894  10.149 -0.0864 -0.2733  0.0897
  666TMC3    C2 9905   2.457   2.838  10.022 -0.2351 -0.0930 -0.0770
  666TMC3    C3 9906   2.508   2.918   9.922 -0.5263 -0.2054 -0.0070
  666TMC3    C4 9907   2.446   3.029  10.170 -0.1328  0.5651 -0.7834
  666TMC3    C5 9908   2.507   3.101  10.069  0.1620 -0.9079  0.2094
  666TMC3    C6 9909   2.536   3.046   9.944 -0.4791  0.1715 -0.1675
  666TMC3     C 9910   2.445   2.817  10.269  0.4446 -0.1227  0.1696
  666TMC3     O 9911   2.474   2.876  10.371 -0.1190  0.0273 -0.5089
  666TMC3     H 9912   2.436   2.734  10.002 -0.4224  0.2370 -1.5611
  666TMC3    H1 9913   2.421   3.071  10.267  2.1089 -0.1769  0.1211
  666TMC3    H2 9914   2.579   3.109   9.866  0.8003  0.1208  0.5017
  666TMC3    C7 9915   2.512   3.242  10.084 -0.7033 -0.2988  0.0765
  666TMC3    C8 9916   2.570   2.864   9.801 -0.3615  0.2193  0.0588
  666TMC3    O1 9917   2.464   3.295  10.184 -0.1047  0.4747  0.0421
  666TMC3    O2 9918   2.627   2.754   9.810 -0.6160 -0.2183  0.2554
  667MPD2     C 9919   0.232   3.070  14.701 -0.4289  0.7304  0.1893
  667MPD2    C1 9920   0.117   3.071  14.785  0.4299 -0.3505 -0.7561
  667MPD2    C2 9921   0.013   2.984  14.767 -0.5127 -0.0883  0.0629
  667MPD2    C3 9922   0.015   2.896  14.664 -0.5835 -0.0645 -0.4976
  667MPD2    C4 9923   0.132   2.889  14.580  0.4155  0.2371 -0.0259
  667MPD2    C5 9924   0.236   2.977  14.602  0.0783 -0.1554  1.1050
  667MPD2     H 9925   4.669   2.988  14.839 -0.5141  0.7428  0.0217
  667MPD2    H1 9926   0.133   2.829  14.489  0.2787  0.8269 -0.4198
  667MPD2    H2 9927   0.316   3.137  14.709  1.2632 -1.4061  0.4327
  667MPD2    H3 9928   0.319   2.975  14.534 -0.8439  0.6670 -0.0523
  667MPD2     N 9929   4.651   2.801  14.637 -0.4809  0.4027 -0.0639
  667MPD2    H5 9930   4.662   2.730  14.565 -2.9405 -1.1304  1.0754
  667MPD2    N1 9931   0.114   3.163  14.893 -0.4336 -0.1067 -0.2892
  667MPD2    H7 9932   0.036   3.163  14.958 -0.8109 -1.0999 -0.7494
  668TMC3    C1 9933   0.176   3.356  15.010 -0.3509 -0.5158 -0.9326
  668TMC3    C2 9934   0.233   3.478  15.002  0.2183  0.0616  0.1291
  668TMC3    C3 9935   0.254   3.548  15.119 -0.1804 -0.3777 -0.0764
  668TMC3    C4 9936   0.137   3.299  15.131  0.1387  0.4286  0.6195
  668TMC3    C5 9937   0.164   3.362  15.244 -1.0523  0.6867  0.1388
  668TMC3    C6 9938   0.233   3.483  15.235 -0.2161  0.0304  0.2341
  668TMC3     C 9939   0.189   3.276  14.894  0.5870  0.3507 -0.0853
  668TMC3     O 9940   0.264   3.322  14.810 -0.2747 -0.0201 -0.3214
  668TMC3     H 9941   0.257   3.510  14.901  1.3497  1.0144  0.7075
  668TMC3    H1 9942   0.119   3.192  15.135  1.2034  0.2485  0.6173
  668TMC3    H2 9943   0.258   3.539  15.324 -1.0542 -0.5590  0.8423
  668TMC3    C7 9944   0.140   3.303  15.374  0.4550 -0.2113  0.3981
  668TMC3    C8 9945   0.315   3.679  15.133 -0.7253 -0.0693 -0.3520
  668TMC3    O1 9946   0.193   3.344  15.479 -0.3275 -0.2105 -0.4464
  668TMC3    O2 9947   0.302   3.751  15.226  0.1180 -0.1718  0.2360
  669TMC3    C1 9948   2.781   3.279  14.496  0.3181  0.2449 -0.0678
  669TMC3    C2 9949   2.664   3.279  14.429 -1.0590 -0.4568  0.1745
  669TMC3    C3 9950   2.652   3.380  14.331 -0.3525  0.4068  0.3631
  669TMC3    C4 9951   2.889   3.367  14.478 -0.5003  0.3959 -0.4924
  669TMC3    C5 9952   2.861   3.459  14.376  0.2919  0.1808 -1.0130
  669TMC3    C6 9953   2.744   3.471  14.299 -0.4822  0.5193 -0.1646
  669TMC3     C 9954   2.790   3.224  14.623  0.3223  0.3853 -0.6920
  669TMC3     O 9955   2.899   3.207  14.674  0.3686  0.1692 -0.8705
  669TMC3     H 9956   2.584   3.208  14.448 -0.6157 -1.5558 -2.1039
  669TMC3    H1 9957   2.980   3.371  14.535  0.0506  1.5024 -1.4593
  669TMC3    H2 9958   2.730   3.548  14.224 -0.9127  1.5286  0.9402
  669TMC3    C7 9959   2.986   3.511  14.324 -0.0602 -0.3879  0.8449
  669TMC3    C8 9960   2.519   3.385  14.273 -0.0372 -1.2461 -0.9763
  669TMC3    O1 9961   3.063   3.540  14.416 -0.3698 -0.0165 -0.1394
  669TMC3    O2 9962   2.458   3.279  14.257  0.1290  0.1519  0.3952
  670MPD2     C 9963   0.897   0.795  13.449 -0.2484 -0.4250  0.6217
  670MPD2    C1 9964   0.956   0.862  13.553  0.2099 -0.2804 -0.8762
  670MPD2    C2 9965   0.914   0.837  13.682  0.1985 -0.4594  0.0091
  670MPD2    C3 9966   0.801   0.758  13.704 -0.0350 -0.5604 -0.0368
  670MPD2    C4 9967   0.736   0.699  13.599  0.4404  0.2140 -0.0005
  670MPD2    C5 9968   0.784   0.718  13.469  0.1891  0.2628  0.0892
  670MPD2     H 9969   0.970   0.882  13.763 -0.0880  0.5683 -0.3531
  670MPD2    H1 9970   0.650   0.635  13.615  1.4766 -1.7971 -2.4820
  670MPD2    H2 9971   0.928   0.811  13.346  0.2865  0.1419  0.8734
  670MPD2    H3 9972   0.725   0.678  13.387  0.1489  1.1815 -0.3274
  670MPD2     N 9973   0.752   0.751  13.837  0.2002 -0.3658  0.7272
  670MPD2    H5 9974   0.802   0.806  13.906 -0.0634  1.1939 -0.3372
  670MPD2    N1 9975   1.078   0.938  13.539 -0.2379 -0.4283  0.1381
  670MPD2    H7 9976   1.121   0.977  13.623 -0.9554  2.6401 -0.9205
  671TMC3    C1 9977   0.637   0.691  14.035 -0.2739  0.1968 -0.6930
  671TMC3    C2 9978   0.758   0.690  14.107  0.5302 -0.3009  0.1550
  671TMC3    C3 9979   0.745   0.627  14.227  0.5524  0.9709 -0.2184
  671TMC3    C4 9980   0.512   0.655  14.083 -0.0181  1.0987  0.2995
  671TMC3    C5 9981   0.509   0.596  14.208 -0.2420 -0.0014 -0.6416
  671TMC3    C6 9982   0.628   0.578  14.279  0.3909  0.1790 -0.4551
  671TMC3     C 9983   0.642   0.684  13.890  0.1699 -0.1296 -0.2726
  671TMC3     O 9984   0.549   0.620  13.837  0.0246  0.4684 -0.1092
  671TMC3     H 9985   0.852   0.701  14.055  0.2118 -0.5101 -0.4719
  671TMC3    H1 9986   0.425   0.682  14.025  1.3483  3.1806 -0.7730
  671TMC3    H2 9987   0.634   0.500  14.355 -1.5393 -0.9696 -1.4732
  671TMC3    C7 9988   0.444   0.463  14.197  0.2309  0.4931 -0.6383
  671TMC3    C8 9989   0.872   0.572  14.265 -0.1303  0.5727 -0.4037
  671TMC3    O1 9990   0.509   0.363  14.223 -0.4030  0.7537 -0.1932
  671TMC3    O2 9991   0.946   0.537  14.173  0.0885 -0.7102  0.3635
  672MPD2     C 9992   1.829   0.846   1.227 -0.2992 -0.2424  0.5556
  672MPD2    C1 9993   1.915   0.850   1.121  0.7805  0.4861  0.1476
  672MPD2    C2 9994   2.007   0.953   1.110 -0.5841  0.3568 -0.0932
  672MPD2    C3 9995   2.006   1.058   1.199  0.3953 -0.0792 -0.2405
  672MPD2    C4 9996   1.918   1.050   1.307  1.0677  0.3078 -0.2739
  672MPD2    C5 9997   1.834   0.947   1.314  0.6813 -0.1437 -0.2652
  672MPD2     H 9998   2.066   0.962   1.019  1.9261  0.6523  1.5413
  672MPD2    H1 9999   1.904   1.131   1.378  1.4414 -0.7205  0.9922
  672MPD2    H210000   1.759   0.769   1.261 -1.2909 -0.1675 -1.3296
  672MPD2    H310001   1.773   0.948   1.404 -1.6766 -2.3608 -1.8379
  672MPD2     N10002   2.097   1.168   1.207 -0.3232 -0.1192 -0.2698
  672MPD2    H510003   2.082   1.224   1.291  0.2525 -0.8222  0.2997
  672MPD2    N110004   1.911   0.760   1.011  0.0672  0.4196  0.4341
  672MPD2    H710005   1.995   0.771   0.954  0.8776 -1.5172  1.2341
  673TMC3    C110006   1.793   0.658   0.827  0.4035 -0.2390  0.1696
  673TMC3    C210007   1.911   0.616   0.768 -0.0411 -0.0826  0.2744
  673TMC3    C310008   1.909   0.607   0.631  0.7086  0.1144  0.6785
  673TMC3    C410009   1.679   0.684   0.761  0.2067  0.9050 -0.8793
  673TMC3    C510010   1.676   0.653   0.629 -0.0956  0.7240  0.5209
  673TMC3    C610011   1.789   0.608   0.564 -0.5503  0.4581  0.2241
  673TMC3     C10012   1.795   0.706   0.964 -0.4150  0.0533  0.8608
  673TMC3     O10013   1.688   0.702   1.018 -0.7299 -0.4571  0.0216
  673TMC3     H10014   1.998   0.608   0.832  0.3134  3.0518  0.1740
  673TMC3    H110015   1.587   0.705   0.815 -0.6132 -3.0489 -0.7514
  673TMC3    H210016   1.786   0.586   0.458 -1.0088 -0.5792  0.4528
  673TMC3    C710017   1.552   0.671   0.554 -0.3610  0.0767  0.2177
  673TMC3    C810018   2.026   0.579   0.550 -0.3977 -0.3241  0.6028
  673TMC3    O110019   1.541   0.619   0.441  0.1159 -0.1018 -0.0726
  673TMC3    O210020   2.009   0.556   0.428  0.1751 -0.0541  1.2485
  674MPD2     C10021   1.341   0.279  17.336  0.7718 -0.9675  0.2348
  674MPD2    C110022   1.339   0.292  17.473  0.4473  0.4996  0.6015
  674MPD2    C210023   1.320   0.418  17.525  0.9028 -0.3330 -0.3799
  674MPD2    C310024   1.315   0.531  17.445 -0.9150  0.1542  0.5358
  674MPD2    C410025   1.326   0.511  17.311 -0.1050 -0.7998  0.5660
  674MPD2    C510026   1.334   0.390  17.260 -0.2851  0.0685 -0.3097
  674MPD2     H10027   1.309   0.435  17.631 -0.6787  0.3052 -0.6482
  674MPD2    H110028   1.341   0.590  17.238  0.4596 -2.1807 -0.8013
  674MPD2    H210029   1.346   0.186  17.281 -1.5362 -1.2732  0.5358
  674MPD2    H310030   1.340   0.371  17.153  1.7702 -1.9287  0.1669
  674MPD2     N10031   1.319   0.660  17.499 -0.2790 -0.2809  0.1413
  674MPD2    H510032   1.314   0.666  17.600  1.9947 -0.0808  0.2518
  674MPD2    N110033   1.359   0.162  17.544  0.0023  0.0173  0.2436
  674MPD2    H710034   1.359   0.074  17.493 -2.4846 -0.7702  1.6307
  675TMC3    C110035   1.401   0.255   0.017  0.0156 -0.5385  0.7764
  675TMC3    C210036   1.321   0.254   0.123 -0.2558  0.5563 -0.0107
  675TMC3    C310037   1.342   0.357   0.215 -0.1197 -0.1447 -0.0232
  675TMC3    C410038   1.506   0.341  17.746  0.0587 -0.3453 -0.2500
  675TMC3    C510039   1.518   0.441   0.089 -0.0698  0.5592  0.9178
  675TMC3    C610040   1.438   0.447   0.201  0.2184  0.0903 -0.0691
  675TMC3     C10041   1.386   0.143  17.684 -0.6200  0.5303  1.1562
  675TMC3     O10042   1.383   0.031  17.742  1.2022 -0.9773  0.2156
  675TMC3     H10043   1.245   0.180   0.145 -0.1985  1.0801  1.9208
  675TMC3    H110044   1.548   0.344  17.646 -2.5834 -1.0328 -1.3797
  675TMC3    H210045   1.442   0.529   0.273  0.6059  0.1330 -0.1365
  675TMC3    C710046   1.580   0.563   0.051  0.1908 -0.2299 -0.7865
  675TMC3    C810047   1.250   0.367   0.327  0.0446 -0.3964 -1.0925
  675TMC3    O110048   1.600   0.568  17.678  0.2422 -0.1695  0.6331
  675TMC3    O210049   1.137   0.319   0.319 -0.3832  0.1933  0.3606
  676MPD2     C10050   3.562   4.415  11.214 -0.2798  0.1817 -0.1312
  676MPD2    C110051   3.441   4.360  11.258  0.1957  0.4945 -0.0995
  676MPD2    C210052   3.412   4.234  11.206 -0.4534 -0.2330  0.6337
  676MPD2    C310053   3.488   4.166  11.116 -0.2933 -0.6255 -0.4618
  676MPD2    C410054   3.601   4.221  11.078 -0.5783  0.1588 -0.1930
  676MPD2    C510055   3.646   4.338  11.135  0.7051  0.3414  0.9708
  676MPD2     H10056   3.319   4.188  11.235  0.9044 -2.8404  0.8506
  676MPD2    H110057   3.653   4.163  11.002 -1.8785 -0.8588 -0.3087
  676MPD2    H210058   3.588   4.515  11.247 -0.4195  0.1399  0.1083
  676MPD2    H310059   3.744   4.375  11.108  0.7489  0.6299  1.5212
  676MPD2     N10060   3.452   4.037  11.070  0.5249 -0.2470  0.3154
  676MPD2    H510061   3.515   3.991  11.006 -1.7066  1.1564 -2.8976
  676MPD2    N110062   3.338   4.413  11.345  0.2019  0.1350  0.6494
  676MPD2    H710063   3.267   4.344  11.370 -2.5534  0.8514 -5.0479
  677TMC3    C110064   3.223   4.560  11.493 -0.4817 -0.5507 -0.0222
  677TMC3    C210065   3.119   4.468  11.493 -0.1160  0.5103 -0.3305
  677TMC3    C310066   3.021   4.491  11.584  0.0412 -0.1605  0.2096
  677TMC3    C410067   3.230   4.668  11.583  0.2370  0.2784  0.5020
  677TMC3    C510068   3.120   4.685  11.665 -0.0554 -0.0354  0.3147
  677TMC3    C610069   3.018   4.597  11.663  0.0565 -0.1618  0.9929
  677TMC3     C10070   3.335   4.534  11.408 -0.5784 -0.3052 -0.4387
  677TMC3     O10071   3.419   4.624  11.411  0.0525 -0.5579 -0.3993
  677TMC3     H10072   3.104   4.399  11.411 -1.4583  1.0109 -0.4911
  677TMC3    H110073   3.320   4.728  11.593 -0.3232  1.3771 -1.0382
  677TMC3    H210074   2.933   4.609  11.730  0.9984 -0.5225  2.2542
  677TMC3    C710075   3.114   0.047  11.767 -0.3636 -0.0695  0.2827
  677TMC3    C810076   2.914   4.397  11.580  0.3158  0.4056  0.1731
  677TMC3    O110077   3.017   0.050  11.840 -0.4971  0.0154 -0.1311
  677TMC3    O210078   2.883   4.359  11.469  0.4165  0.0367  0.2303
  678MPD2     C10079   0.557   0.177   1.696  0.1615  0.7031  0.2251
  678MPD2    C110080   0.638   0.107   1.609 -0.4048  0.4788  0.0028
  678MPD2    C210081   0.579   0.048   1.498  0.3007 -0.1411  0.2866
  678MPD2    C310082   0.444   0.052   1.480 -0.1279 -0.4792 -0.8650
  678MPD2    C410083   0.366   0.145   1.557  0.7485 -0.1034  0.3403
  678MPD2    C510084   0.429   0.208   1.666  0.3584 -0.3785 -0.2571
  678MPD2     H10085   0.643   4.732   1.429  0.9585  2.8720 -1.4749
  678MPD2    H110086   0.264   0.172   1.536  0.6402 -1.6135 -1.1747
  678MPD2    H210087   0.591   0.222   1.788  2.1162 -2.6389  1.1413
  678MPD2    H310088   0.376   0.280   1.727  0.3987 -0.4950 -0.0867
  678MPD2     N10089   0.392   4.711   1.379 -0.6798 -0.6392  0.9594
  678MPD2    H510090   0.457   4.640   1.348  0.2879  0.6116  0.1284
  678MPD2    N110091   0.780   0.100   1.607  0.5130 -0.0323  0.7554
  678MPD2    H710092   0.820   0.049   1.529  1.3285  1.3849  0.2605
  679TMC3    C110093   1.226   0.154   1.749 -0.0471 -0.1344 -0.4760
  679TMC3    C210094   1.094   0.139   1.775  0.1414  0.5729 -0.5472
  679TMC3    C310095   1.004   0.139   1.667 -0.1806 -0.0725 -0.7145
  679TMC3    C410096   1.266   0.188   1.624  0.0541  0.2089  0.3614
  679TMC3    C510097   1.171   0.205   1.523 -0.5289 -0.0619  0.6207
  679TMC3    C610098   1.038   0.181   1.545  0.3148 -0.0664  0.3971
  679TMC3     C10099   1.294   0.038   1.802 -0.0169  0.4958  0.2490
  679TMC3     O10100   1.261   4.724   1.910 -0.0240  0.0062  0.6082
  679TMC3     H10101   1.054   0.109   1.871  2.8133 -1.4714 -0.0623
  679TMC3    H110102   1.369   0.219   1.610  0.0181  0.8110  1.3923
  679TMC3    H210103   0.960   0.193   1.471 -0.8199  1.1996  1.7759
  679TMC3    C710104   1.205   0.182   1.388  0.2408 -0.2054 -0.8194
  679TMC3    C810105   0.865   0.148   1.703 -0.0492 -0.1196 -0.7366
  679TMC3    O110106   1.114   0.177   1.309 -0.4346  0.2934 -0.4221
  679TMC3    O210107   0.842   0.193   1.812  0.5161 -0.1383 -0.0682
  680MPD2     C10108   0.544   3.138  13.462 -0.0853 -0.4816  0.5481
  680MPD2    C110109   0.543   3.061  13.576  0.3680  0.7345 -0.5819
  680MPD2    C210110   0.583   3.123  13.692  0.7267  0.1764 -0.1136
  680MPD2    C310111   0.608   3.261  13.701  0.1311 -0.2559 -0.3358
  680MPD2    C410112   0.602   3.333  13.587  0.8931  0.5726 -1.1107
  680MPD2    C510113   0.570   3.274  13.463  0.2959 -0.2784 -0.1731
  680MPD2     H10114   0.605   3.066  13.782 -1.3299  0.9239  0.8665
  680MPD2    H110115   0.621   3.440  13.581  1.2783  0.5980  0.6571
  680MPD2    H210116   0.529   3.098  13.363 -0.4895  0.1667  0.3465
  680MPD2    H310117   0.557   3.333  13.373 -0.0942  0.5704  0.4320
  680MPD2     N10118   0.641   3.321  13.828  0.0429 -0.0353 -0.6718
  680MPD2    H510119   0.683   3.413  13.826  1.5196 -0.6911  0.1280
  680MPD2    N110120   0.519   2.922  13.578 -0.1729  0.5048 -0.1980
  680MPD2    H710121   0.525   2.883  13.672  1.2844 -0.1322 -0.5607
  681TMC3    C110122   0.453   2.716  13.527  0.2337 -0.0298 -0.4464
  681TMC3    C210123   0.397   2.725  13.653  0.1562 -0.4109  0.4497
  681TMC3    C310124   0.420   2.616  13.743  0.7641  0.5780 -0.0600
  681TMC3    C410125   0.529   2.608  13.488  0.4290 -0.2346  0.1211
  681TMC3    C510126   0.567   2.515  13.575  0.1468  0.0550 -0.1727
  681TMC3    C610127   0.509   2.520  13.704  0.4007 -0.7374 -0.0599
  681TMC3     C10128   0.496   2.845  13.471 -0.1185 -0.0403  0.4028
  681TMC3     O10129   0.488   2.874  13.354  0.3280  0.0089 -0.0718
  681TMC3     H10130   0.331   2.804  13.684  0.7957  0.2812  0.0384
  681TMC3    H110131   0.571   2.617  13.388 -0.2324 -0.6754 -0.1995
  681TMC3    H210132   0.535   2.433  13.763  2.7463  1.2766  1.8491
  681TMC3    C710133   0.711   2.471  13.579 -0.5728 -0.4269 -0.1093
  681TMC3    C810134   0.360   2.631  13.873 -0.3212 -0.1176 -0.3738
  681TMC3    O110135   0.761   2.453  13.688  0.1294 -0.1489 -0.0182
  681TMC3    O210136   0.278   2.724  13.881  0.0126 -0.3284 -0.0943
  682MPD2     C10137   2.629   4.513  10.591  0.1016  0.3132  0.6561
  682MPD2    C110138   2.511   4.446  10.607  0.8658 -0.7571 -0.7410
  682MPD2    C210139   2.434   4.491  10.712 -0.6572  0.6911  0.2205
  682MPD2    C310140   2.474   4.593  10.797 -0.4958  0.7509  0.4569
  682MPD2    C410141   2.595   4.650  10.785 -0.4197 -0.0080  0.5022
  682MPD2    C510142   2.670   4.612  10.673 -0.3234 -0.4345  0.1280
  682MPD2     H10143   2.342   4.440  10.738 -1.3080  1.5165 -0.4506
  682MPD2    H110144   2.622   4.731  10.853 -1.0177  0.4931  0.1404
  682MPD2    H210145   2.700   4.484  10.514  0.2180  1.7100  0.2261
  682MPD2    H310146   2.773   4.645  10.666 -0.7672  1.3890  2.1848
  682MPD2     N10147   2.396   4.638  10.912 -0.4435  0.3140  0.3592
  682MPD2    H510148   2.426   4.726  10.952 -0.8911  0.1541  1.0456
  682MPD2    N110149   2.468   4.339  10.529  0.6220  0.0922  0.7916
  682MPD2    H710150   2.370   4.316  10.548 -0.1500  1.7580 -1.1744
  683TMC3    C110151   2.254   4.573  11.296 -0.5837  0.7821  0.2352
  683TMC3    C210152   2.119   4.552  11.304  0.5426  0.9513 -0.2168
  683TMC3    C310153   2.035   4.581  11.199 -0.1397  0.2989  0.6903
  683TMC3    C410154   2.315   4.623  11.179 -0.2117  0.6520 -1.0842
  683TMC3    C510155   2.231   4.644  11.073  0.1428  0.6402  0.9909
  683TMC3    C610156   2.094   4.625  11.084  0.1042 -0.3631 -0.1371
  683TMC3     C10157   2.333   4.575  11.418 -0.5279  0.1292 -0.0860
  683TMC3     O10158   2.435   4.643  11.421 -0.0469  0.4025 -0.5009
  683TMC3     H10159   2.079   4.543  11.404  1.2430  1.2000  0.0902
  683TMC3    H110160   2.422   4.630  11.165 -0.1533  1.8069 -0.0392
  683TMC3    H210161   2.033   4.655  11.000  0.3685  0.1061 -0.1639
  683TMC3    C710162   2.277   4.584  10.950 -0.6861 -0.0027  0.0711
  683TMC3    C810163   1.948   4.470  11.162 -0.1287  0.4307  0.5640
  683TMC3    O110164   2.207   4.493  10.908  0.0160  0.3123 -0.0294
  683TMC3    O210165   1.885   4.472  11.059  0.5042  0.4921 -0.0309
  684MPD2     C10166   1.241   3.012  16.609 -0.3003  0.4227 -0.3906
  684MPD2    C110167   1.171   3.057  16.501  0.0293 -0.2198 -0.4410
  684MPD2    C210168   1.177   3.188  16.471 -0.4855  0.0774  0.5060
  684MPD2    C310169   1.264   3.271  16.529 -0.0768  0.1387 -0.3928
  684MPD2    C410170   1.347   3.226  16.631  0.0347  0.5261  0.1656
  684MPD2    C510171   1.332   3.096  16.673  0.2440 -1.1714  0.0324
  684MPD2     H10172   1.121   3.221  16.384  1.8491  0.1700 -0.9529
  684MPD2    H110173   1.405   3.295  16.692  0.4893 -0.8846  1.3223
  684MPD2    H210174   1.243   2.908  16.639  3.0632  0.9597  1.2563
  684MPD2    H310175   1.386   3.058  16.758  0.8460 -1.4473 -0.4759
  684MPD2     N10176   1.282   3.407  16.497 -0.2065  0.5045  0.3037
  684MPD2    H510177   1.359   3.459  16.536 -0.5057  0.5572  0.8329
  684MPD2    N110178   1.081   2.971  16.426  0.0329 -0.3466  0.1660
  684MPD2    H710179   1.024   3.027  16.363  0.3109 -1.4132 -1.0339
  685TMC3    C110180   1.007   2.782  16.311 -0.2152  0.1319  0.1463
  685TMC3    C210181   0.917   2.858  16.243  0.0501  0.3560 -0.9581
  685TMC3    C310182   0.910   2.845  16.105 -0.0181  0.1795  1.2029
  685TMC3    C410183   1.072   2.681  16.249  0.0811 -0.0803  0.2911
  685TMC3    C510184   1.059   2.670  16.116 -0.6389 -0.2489 -0.3697
  685TMC3    C610185   0.973   2.742  16.044  0.7786  0.6638 -0.0260
  685TMC3     C10186   1.081   2.831  16.422  0.4420  0.4574  0.0411
  685TMC3     O10187   1.138   2.754  16.496  0.2465 -0.9095  0.3177
  685TMC3     H10188   0.863   2.935  16.296 -1.0797 -1.7875  1.0179
  685TMC3    H110189   1.155   2.629  16.295  0.9792  1.5998  0.5459
  685TMC3    H210190   0.965   2.733  15.937  0.4538  0.0170  0.0517
  685TMC3    C710191   1.182   2.640  16.047 -0.2242 -0.0391  0.4146
  685TMC3    C810192   0.804   2.909  16.033 -0.4831  0.6894 -0.3409
  685TMC3    O110193   1.243   2.546  16.099  0.2270 -0.0616 -0.4788
  685TMC3    O210194   0.777   2.850  15.930  0.0512 -0.2144 -0.1089
  686MPD2     C10195   2.370   3.738  15.797 -0.3893 -0.0560 -0.2464
  686MPD2    C110196   2.354   3.625  15.730  0.0640  1.1605 -0.0263
  686MPD2    C210197   2.433   3.594  15.614  0.8994  0.8549  0.7957
  686MPD2    C310198   2.493   3.705  15.552  0.2703 -0.1006 -0.0910
  686MPD2    C410199   2.500   3.822  15.621 -0.2169 -0.0286 -0.3295
  686MPD2    C510200   2.440   3.837  15.741  0.8509 -0.1184 -0.3883
  686MPD2     H10201   2.468   3.494  15.593 -1.9460  0.3755 -1.5689
  686MPD2    H110202   2.553   3.908  15.582  0.2282 -0.4559 -0.6799
  686MPD2    H210203   2.319   3.765  15.888  0.8983 -0.4277  0.5780
  686MPD2    H310204   2.444   3.932  15.794 -1.3279  0.7703 -1.8280
  686MPD2     N10205   2.554   3.687  15.426 -0.4824 -0.8116  0.4738
  686MPD2    H510206   2.624   3.750  15.388  0.4781 -1.6986  0.7569
  686MPD2    N110207   2.272   3.525  15.784 -0.5213 -0.5874  0.3559
  686MPD2    H710208   2.219   3.559  15.864  0.1690  1.3724 -0.0134
  687TMC3    C110209   2.386   3.529  15.331 -0.3746 -0.6994 -0.2897
  687TMC3    C210210   2.273   3.601  15.364 -0.6492  0.7462  0.0517
  687TMC3    C310211   2.153   3.529  15.366  0.0744 -0.1773 -0.2087
  687TMC3    C410212   2.385   3.397  15.299 -0.1963  0.2280  0.0865
  687TMC3    C510213   2.265   3.331  15.290  0.3713  0.1561  0.2764
  687TMC3    C610214   2.146   3.397  15.323  0.9271  0.3183  0.0493
  687TMC3     C10215   2.527   3.582  15.342  0.7719 -0.2506 -0.3022
  687TMC3     O10216   2.601   3.540  15.252 -0.0366  0.0903 -0.4571
  687TMC3     H10217   2.289   3.704  15.392 -0.9218  1.0384 -0.8715
  687TMC3    H110218   2.477   3.341  15.285 -1.1262 -1.1701 -0.5084
  687TMC3    H210219   2.049   3.348  15.317 -0.1684  2.6688 -1.3451
  687TMC3    C710220   2.268   3.192  15.328  0.0376  0.9823  0.5660
  687TMC3    C810221   2.037   3.570  15.443 -0.4029 -0.0152 -0.4944
  687TMC3    O110222   2.202   3.111  15.265  0.1339  0.1149  0.8984
  687TMC3    O210223   1.931   3.511  15.433  0.1387 -0.1108 -0.1818
  688MPD2     C10224   1.763   2.181  17.380 -0.1863 -0.5040 -0.8902
  688MPD2    C110225   1.830   2.065  17.420 -0.3649  0.3821 -0.9470
  688MPD2    C210226   1.919   2.005  17.330 -0.0888  0.0910  0.5062
  688MPD2    C310227   1.952   2.075  17.209  0.3955  0.0656  0.4070
  688MPD2    C410228   1.885   2.189  17.177 -0.1177 -0.0947  0.8629
  688MPD2    C510229   1.787   2.241  17.263  0.2522  0.5940 -0.5194
  688MPD2     H10230   1.970   1.918  17.369  0.1377  0.4568  1.0183
  688MPD2    H110231   1.906   2.247  17.087 -1.4925 -0.9916 -0.0371
  688MPD2    H210232   1.672   2.212  17.431  0.1345 -1.5520  0.3443
  688MPD2    H310233   1.736   2.333  17.236  0.3321  0.5961 -0.6651
  688MPD2     N10234   2.042   2.025  17.114  0.1581  0.1301  0.1587
  688MPD2    H510235   2.067   2.086  17.036  0.9390 -1.7169 -1.0304
  688MPD2    N110236   1.800   2.003  17.543  0.4392 -0.4867 -0.1590
  688MPD2    H710237   1.844   1.913  17.562 -1.0908 -1.2417 -0.1568
  689TMC3    C110238   1.768   2.010   0.033 -0.6005  0.0206 -0.2520
  689TMC3    C210239   1.814   2.081   0.144 -0.3623  0.2719  0.3836
  689TMC3    C310240   1.786   2.023   0.270  0.4022  0.1541  0.0910
  689TMC3    C410241   1.736   1.874   0.038 -0.1986 -0.8775 -0.7874
  689TMC3    C510242   1.708   1.816   0.158 -0.1412  0.1857  0.2972
  689TMC3    C610243   1.738   1.893   0.276  0.5781  0.2240  0.1601
  689TMC3     C10244   1.766   2.080  17.655  0.4283 -0.0969 -0.2600
  689TMC3     O10245   1.745   2.202  17.661  0.2211 -0.0363 -0.0852
  689TMC3     H10246   1.833   2.188   0.134 -0.1049  0.0038 -1.9822
  689TMC3    H110247   1.706   1.834  17.691 -1.3830 -2.6994  0.3591
  689TMC3    H210248   1.733   1.846   0.373  1.3668 -1.9243 -0.8245
  689TMC3    C710249   1.643   1.690   0.169 -0.0725  0.3567 -0.2196
  689TMC3    C810250   1.815   2.097   0.393 -0.6976 -0.4020  0.2497
  689TMC3    O110251   1.653   1.633   0.277  0.4187  0.4065 -0.0641
  689TMC3    O210252   1.815   2.039   0.502 -0.3581  0.5005 -0.1722
  690MPD2     C10253   4.301   3.797  15.784  0.3931  0.7017 -0.2945
  690MPD2    C110254   4.225   3.855  15.686 -0.3899 -0.0079  0.9869
  690MPD2    C210255   4.280   3.933  15.587  0.0887  0.1875  0.3106
  690MPD2    C310256   4.413   3.967  15.593  0.3996 -0.1178 -0.0503
  690MPD2    C410257   4.496   3.907  15.690  0.4388 -0.5532  0.5200
  690MPD2    C510258   4.440   3.828  15.785 -0.0897  0.6384  0.2582
  690MPD2     H10259   4.224   3.984  15.509  0.1643  1.4464  1.0739
  690MPD2    H110260   4.598   3.941  15.703  1.1798 -2.4268 -0.3994
  690MPD2    H210261   4.250   3.737  15.858 -0.1133 -0.0842 -1.2890
  690MPD2    H310262   4.505   3.781  15.857 -0.9018  0.3385  0.7927
  690MPD2     N10263   4.456   4.072  15.508 -0.1526  0.3280  0.0923
  690MPD2    H510264   4.393   4.098  15.432 -1.7136  0.6463  1.5014
  690MPD2    N110265   4.082   3.827  15.679 -0.1265 -0.5341 -0.1466
  690MPD2    H710266   4.037   3.833  15.588  0.3695  0.1907 -0.3468
  691TMC3    C110267   3.882   3.710  15.735  0.3678  0.1787  0.3213
  691TMC3    C210268   3.819   3.750  15.616 -0.6000  0.3289  0.3358
  691TMC3    C310269   3.715   3.679  15.571 -0.2286 -0.0411  0.0631
  691TMC3    C410270   3.829   3.605  15.812  0.1367 -0.7952 -0.4169
  691TMC3    C510271   3.713   3.547  15.760 -0.3025  0.3534  0.6754
  691TMC3    C610272   3.655   3.578  15.635 -0.1021 -0.2006 -0.9547
  691TMC3     C10273   4.010   3.766  15.778 -0.8466  0.3037 -0.2143
  691TMC3     O10274   4.034   3.774  15.896 -0.3647 -0.2686 -0.4157
  691TMC3     H10275   3.857   3.835  15.561 -0.6536 -0.1102 -0.3813
  691TMC3    H110276   3.875   3.588  15.909  2.6219 -0.7065 -1.5776
  691TMC3    H210277   3.571   3.523  15.594  0.1305  0.5184 -2.3956
  691TMC3    C710278   3.620   3.508  15.864 -0.0233  1.1048  0.1445
  691TMC3    C810279   3.636   3.740  15.461  0.4702 -0.4849  0.2815
  691TMC3    O110280   3.650   3.547  15.976 -0.5627 -0.6436 -0.5180
  691TMC3    O210281   3.571   3.669  15.391  0.4029 -0.7666  0.3081
  692TMC3    C110282   0.554   4.679  15.958  0.0051  0.4130  0.0001
  692TMC3    C210283   0.688   4.717  15.938  0.7813 -0.1702  0.1627
  692TMC3    C310284   0.787   4.662  16.007  0.1810  0.0761 -0.5898
  692TMC3    C410285   0.532   4.561  16.034 -0.1818  0.3872 -0.0104
  692TMC3    C510286   0.633   4.500  16.093 -0.3977  0.5996 -0.9228
  692TMC3    C610287   0.758   4.548  16.076  0.3356 -0.5781  0.0313
  692TMC3     C10288   0.454   0.041  15.974  0.2219  0.1048 -0.4508
  692TMC3     O10289   0.389   0.023  16.079 -0.0956  0.2996 -0.3551
  692TMC3     H10290   0.711   0.073  15.887  1.4023 -1.1858 -1.4168
  692TMC3    H110291   0.431   4.532  16.059  1.0311 -4.1433 -0.3906
  692TMC3    H210292   0.840   4.522  16.143 -0.4563 -0.6465  0.9798
  692TMC3    C710293   0.601   4.362  16.127 -0.0997 -0.2009  0.2187
  692TMC3    C810294   0.869   0.019  16.073 -0.8830 -0.3565  0.3189
  692TMC3    O110295   0.484   4.323  16.116  0.7647 -0.2294 -0.3381
  692TMC3    O210296   0.972   4.725  16.133  0.8982 -0.0921 -0.3782
  693MPD2     C10297   4.382   2.883  10.745  0.2311  0.3699  0.2174
  693MPD2    C110298   4.490   2.961  10.774  0.1463  0.3145  0.1692
  693MPD2    C210299   4.578   2.923  10.871 -0.2621  0.4915 -0.1328
  693MPD2    C310300   4.573   2.798  10.923  0.0915 -0.1507 -0.1057
  693MPD2    C410301   4.470   2.717  10.883 -0.0895  0.3378 -0.4113
  693MPD2    C510302   4.379   2.757  10.797 -0.4980  0.2519  0.5926
  693MPD2     H10303   4.662   2.988  10.892 -1.3021  1.3422  1.4280
  693MPD2    H110304   4.463   2.615  10.919  0.4409  0.3978 -0.1456
  693MPD2    H210305   4.313   2.908  10.666 -0.8303 -0.8100  0.7600
  693MPD2    H310306   4.299   2.697  10.756 -0.1142  0.1635 -0.0364
  693MPD2     N10307   4.663   2.752  11.022  0.0556 -0.2857 -0.0597
  693MPD2    H510308   4.638   2.661  11.060 -0.7086 -1.2033 -2.7260
  693MPD2    N110309   4.495   3.084  10.710  0.1843  0.2813  0.1181
  693MPD2    H710310   4.416   3.113  10.653  0.3998 -0.1187 -0.3904
  694TMC3    C110311   4.525   3.306  10.708 -0.9831  0.7705 -0.1261
  694TMC3    C210312   4.428   3.299  10.615  0.5206 -0.1291  0.0547
  694TMC3    C310313   4.313   3.374  10.625 -0.2281  0.2128 -0.2053
  694TMC3    C410314   4.520   3.402  10.806 -0.2490  0.1926 -0.4178
  694TMC3    C510315   4.398   3.467  10.828 -0.0461  0.3094  0.6774
  694TMC3    C610316   4.295   3.451  10.740 -0.1676 -0.3292  0.1359
  694TMC3     C10317   4.592   3.179  10.727  0.1100 -0.1278  0.4908
  694TMC3     O10318   4.705   3.169  10.776 -1.0787 -0.1512  0.0229
  694TMC3     H10319   4.437   3.242  10.523 -1.3230  1.0679 -0.8661
  694TMC3    H110320   4.594   3.386  10.884 -0.4105  0.7485 -0.1499
  694TMC3    H210321   4.198   3.497  10.754 -0.5236 -1.1498  0.3565
  694TMC3    C710322   4.368   3.501  10.966  0.0308 -0.0612  0.8923
  694TMC3    C810323   4.198   3.296  10.579 -0.1339  0.9203  0.5922
  694TMC3    O110324   4.419   3.600  11.020  0.3656  0.1099 -0.1558
  694TMC3    O210325   4.194   3.179  10.618 -0.1820  0.3261 -0.2428
  695MPD2     C10326   1.296   4.578  13.726  0.4308  0.5460  1.1303
  695MPD2    C110327   1.221   4.634  13.828 -0.1049  0.5616  0.2108
  695MPD2    C210328   1.093   4.674  13.795  0.5773  0.3607  0.0376
  695MPD2    C310329   1.030   4.660  13.671  0.2173 -0.0629 -0.8850
  695MPD2    C410330   1.115   4.604  13.572  0.2118  0.0198 -0.4978
  695MPD2    C510331   1.243   4.570  13.598 -0.2995 -0.0547 -0.5582
  695MPD2     H10332   1.043   4.731  13.872 -1.4707 -1.9096  0.3968
  695MPD2    H110333   1.079   4.582  13.472 -0.8045 -0.8304  0.0622
  695MPD2    H210334   1.401   4.552  13.728  0.5153  0.9386  1.8110
  695MPD2    H310335   1.299   4.527  13.515  0.2589  0.1240 -0.2770
  695MPD2     N10336   0.895   4.700  13.655  0.0530  1.0126 -0.9487
  695MPD2    H510337   0.852   0.008  13.734 -0.8429 -0.4016 -0.6093
  695MPD2    N110338   1.261   4.676  13.956 -1.2186 -0.3449  0.2325
  695MPD2    H710339   1.194   4.731  14.008 -0.1045 -0.5304  1.8792
  696TMC3    C110340   0.685   4.734  13.545  0.2056  1.0250  0.4168
  696TMC3    C210341   0.625   0.019  13.666 -0.4239  0.4194  0.3180
  696TMC3    C310342   0.501   0.069  13.667 -1.0839  0.4276  0.0077
  696TMC3    C410343   0.630   0.042  13.430 -0.6199 -0.0914 -0.5292
  696TMC3    C510344   0.523   0.120  13.438 -0.9856 -0.1885 -0.2043
  696TMC3    C610345   0.450   0.121  13.554 -0.0806  0.4733  0.1846
  696TMC3     C10346   0.831   4.691  13.537  0.0787 -0.9521  0.9328
  696TMC3     O10347   0.882   4.663  13.430 -0.3546  0.9005  0.1371
  696TMC3     H10348   0.665   4.724  13.761  0.7450  1.3717  0.1462
  696TMC3    H110349   0.687   0.041  13.338  1.9898  2.2017  1.0506
  696TMC3    H210350   0.354   0.168  13.564 -0.4472 -0.4323  0.9677
  696TMC3    C710351   0.509   0.225  13.337 -0.0455  0.3741  0.3208
  696TMC3    C810352   0.443   0.102  13.799  0.0782  0.1121 -0.3660
  696TMC3    O110353   0.547   0.196  13.223  0.2430 -0.4569  0.5028
  696TMC3    O210354   0.522   0.115  13.894  0.3559 -0.6453 -0.4326
  697MPD2     C10355   4.487   1.911  15.408  0.1106 -0.1561 -0.7498
  697MPD2    C110356   4.596   1.871  15.332 -0.2024  0.2817  0.1433
  697MPD2    C210357   4.629   1.938  15.215  0.2990  0.1832  0.9999
  697MPD2    C310358   4.562   2.043  15.173 -0.7162  0.1302 -0.3795
  697MPD2    C410359   4.454   2.090  15.247 -0.0236  0.1975  0.0829
  697MPD2    C510360   4.416   2.020  15.360 -0.6417 -0.1811 -0.3949
  697MPD2     H10361   4.721   1.916  15.162 -0.2276 -2.8560  1.3971
  697MPD2    H110362   4.387   2.171  15.219  1.7244  1.5250 -0.2870
  697MPD2    H210363   4.446   1.865  15.497 -0.0667 -1.4639 -1.4918
  697MPD2    H310364   4.333   2.058  15.419  0.5973 -1.6808  2.3385
  697MPD2     N10365   4.614   2.118  15.065  0.5570 -0.8526  0.2354
  697MPD2    H510366   4.693   2.078  15.015  1.2676  0.9806 -0.0990
  697MPD2    N110367   4.677   1.762  15.367 -0.4835 -0.0290 -0.1149
  697MPD2    H710368   0.006   1.730  15.297 -1.1546 -0.3849 -0.5905
  698TMC3    C110369   4.681   2.323  14.970  0.7455 -0.0996 -0.0721
  698TMC3    C210370   4.732   2.437  15.031 -0.1014 -0.1446  1.0573
  698TMC3    C310371   0.123   2.457  15.002  0.7847 -0.1985  0.6747
  698TMC3    C410372   0.002   2.261  14.864  1.3274  0.1767 -0.1666
  698TMC3    C510373   0.138   2.285  14.843  0.2535 -0.3842 -0.1771
  698TMC3    C610374   0.197   2.386  14.909 -0.3915 -0.1974 -0.4681
  698TMC3     C10375   4.583   2.254  15.050 -0.2291 -1.4303  0.6078
  698TMC3     O10376   4.524   2.336  15.119  0.2604 -0.2593  0.7335
  698TMC3     H10377   4.688   2.478  15.121 -1.1638  1.3012 -0.1308
  698TMC3    H110378   4.693   2.170  14.827 -1.7474  1.6150  0.1179
  698TMC3    H210379   0.297   2.419  14.881 -0.6470  0.7413 -0.2709
  698TMC3    C710380   0.215   2.212  14.743 -0.5483 -0.2097  0.2692
  698TMC3    C810381   0.198   2.514  15.110 -0.2630  0.3151 -0.2501
  698TMC3    O110382   0.328   2.180  14.767  0.2606 -0.5960 -0.2908
  698TMC3    O210383   0.155   2.496  15.221 -0.5093  0.1635  0.6906
  699TMC3    C110384   0.155   4.543  12.931  0.6718  0.2950  0.3825
  699TMC3    C210385   0.234   4.533  13.039  0.0759 -0.1477  0.3889
  699TMC3    C310386   0.174   4.549  13.158 -0.4380 -0.0065 -0.9285
  699TMC3    C410387   0.025   4.586  12.945 -0.5068 -0.2481  0.1943
  699TMC3    C510388   4.704   4.598  13.064 -0.1808  0.4608 -0.2643
  699TMC3    C610389   0.041   4.585  13.177 -0.5332  0.6247 -0.1073
  699TMC3     C10390   0.212   4.598  12.808  0.1709 -0.2486 -0.6223
  699TMC3     O10391   0.131   4.607  12.716  0.3152  0.0441  0.3072
  699TMC3     H10392   0.333   4.492  13.022 -0.1147 -0.7028  0.6036
  699TMC3    H110393   4.709   4.612  12.855 -0.8686  0.9725  0.7582
  699TMC3    H210394   4.730   4.595  13.274  2.6363  1.4653  1.3905
  699TMC3    C710395   4.571   4.661  13.086 -0.1680  0.4883  0.2769
  699TMC3    C810396   0.252   4.550  13.280 -0.2642 -0.0265  0.2533
  699TMC3    O110397   4.522   4.694  13.196 -0.5471 -0.0841  0.8230
  699TMC3    O210398   0.196   4.564  13.385  0.6539 -0.4807  0.1995
  700TMC3    C110399   0.401   1.804  17.533  0.1118  0.0573  0.3819
  700TMC3    C210400   0.534   1.773  17.519  0.8156 -0.0209  0.6565
  700TMC3    C310401   0.631   1.829  17.595  0.5230 -0.3782 -0.4404
  700TMC3    C410402   0.370   1.881  17.648  0.3433  0.0594  0.7814
  700TMC3    C510403   0.474   1.932  17.728 -1.1781  0.5131 -0.3628
  700TMC3    C610404   0.599   1.909  17.701  0.1738  0.4047 -0.4671
  700TMC3     C10405   0.336   1.829  17.415 -0.2851  0.9248 -0.0012
  700TMC3     O10406   0.332   1.729  17.347  0.1433  0.3440  0.2014
  700TMC3     H10407   0.558   1.716  17.430 -0.7508 -0.0526  0.2648
  700TMC3    H110408   0.271   1.922  17.661  0.4075  1.0785 -2.0409
  700TMC3    H210409   0.678   1.946   0.016  0.7237  0.0532 -0.9371
  700TMC3    C710410   0.461   2.076  17.721  0.8819  0.0090 -0.0525
  700TMC3    C810411   0.753   1.866  17.514  0.0063  0.5485  0.0990
  700TMC3    O110412   0.411   2.125  17.622 -0.3070 -0.0030  0.3577
  700TMC3    O210413   0.762   1.819  17.398 -0.7805 -0.3446 -0.7934
  701TMC3    C110414   4.369   1.071  15.529 -0.1185  0.5837  0.7364
  701TMC3    C210415   4.468   1.045  15.438  0.0759 -0.0044 -0.6369
  701TMC3    C310416   4.567   1.140  15.413  0.5943 -0.5233  0.0425
  701TMC3    C410417   4.372   1.190  15.605 -0.3917 -0.2040 -0.5298
  701TMC3    C510418   4.468   1.280  15.570  0.3845 -0.0716  0.5149
  701TMC3    C610419   4.550   1.260  15.468  0.3501  0.4267 -0.4531
  701TMC3     C10420   4.262   0.976  15.555 -0.0662 -0.1389  0.1316
  701TMC3     O10421   4.273   0.862  15.508  0.4733 -0.0328 -0.0137
  701TMC3     H10422   4.468   0.948  15.392  2.3426 -0.0057 -0.6241
  701TMC3    H110423   4.294   1.212  15.678  0.8325 -1.3662  1.1251
  701TMC3    H210424   4.630   1.329  15.445 -1.3883  1.7628 -2.5072
  701TMC3    C710425   4.449   1.419  15.616  1.2133 -0.2478  0.7711
  701TMC3    C810426   4.625   1.156  15.279  0.3824  0.2299  0.6532
  701TMC3    O110427   4.467   1.509  15.539 -0.4756 -0.0144  0.0789
  701TMC3    O210428   4.722   1.230  15.258 -0.4663  0.1256 -0.4142
  702MPD2     C10429   3.518   3.592  10.446  0.1345  0.1907 -0.7551
  702MPD2    C110430   3.387   3.611  10.495 -0.2331  0.4885 -0.6356
  702MPD2    C210431   3.281   3.601  10.407  0.3482  0.1124 -0.3977
  702MPD2    C310432   3.303   3.565  10.278 -0.2158  0.1694  0.3912
  702MPD2    C410433   3.431   3.523  10.240  0.3890  0.3394  0.2293
  702MPD2    C510434   3.540   3.554  10.323 -0.5624  0.3590 -0.0612
  702MPD2     H10435   3.182   3.632  10.439  0.6065  0.4583  0.0679
  702MPD2    H110436   3.458   3.487  10.142 -1.1543 -1.9735  0.6587
  702MPD2    H210437   3.615   3.607  10.492  0.5277 -0.8582 -1.2468
  702MPD2    H310438   3.643   3.543  10.293 -0.1919  0.6993  1.1062
  702MPD2     N10439   3.216   3.571  10.171  0.0622 -0.4022 -0.4224
  702MPD2    H510440   3.241   3.504  10.099  1.1185 -1.1024  0.5990
  702MPD2    N110441   3.367   3.653  10.625 -0.3934 -0.3915  0.3967
  702MPD2    H710442   3.273   3.637  10.661  0.6896 -2.4372  2.3744
  703TMC3    C110443   3.096   3.769  10.226 -0.0722  0.5010 -0.5947
  703TMC3    C210444   2.975   3.807  10.270 -0.5707  0.3462  0.0436
  703TMC3    C310445   2.967   3.895  10.367  0.6828 -0.6513 -0.2132
  703TMC3    C410446   3.206   3.838  10.265  0.2573  0.8093 -0.4466
  703TMC3    C510447   3.197   3.925  10.368  0.3143  0.3358  0.6278
  703TMC3    C610448   3.076   3.954  10.425  0.3555 -0.4133  0.5449
  703TMC3     C10449   3.106   3.645  10.148  0.3767 -0.1388  0.3900
  703TMC3     O10450   3.007   3.617  10.081 -0.8337 -0.1857  0.1052
  703TMC3     H10451   2.886   3.767  10.224 -0.7090  1.6270 -0.8075
  703TMC3    H110452   3.297   3.821  10.207 -0.3686 -0.4463 -1.0514
  703TMC3    H210453   3.059   4.020  10.509 -1.7009  0.0809 -0.2354
  703TMC3    C710454   3.324   3.990  10.413  0.5772  0.0576  0.6477
  703TMC3    C810455   2.856   3.861  10.454 -0.7290  0.1622 -1.1035
  703TMC3    O110456   3.406   4.026  10.326 -0.1636 -0.0631 -0.0830
  703TMC3    O210457   2.801   3.756  10.423 -0.1338 -0.2658  0.6413
  704TMC3    C110458   1.595   1.868  13.063 -0.8410  0.3474 -0.0032
  704TMC3    C210459   1.679   1.902  12.965  0.4732 -0.1579  0.5824
  704TMC3    C310460   1.774   1.817  12.923  0.7513  0.3873  0.2917
  704TMC3    C410461   1.615   1.752  13.146 -1.0097  0.4309 -0.3658
  704TMC3    C510462   1.720   1.675  13.106  0.1197 -0.1347  0.2582
  704TMC3    C610463   1.801   1.708  13.001  0.2288  0.5652  0.2286
  704TMC3     C10464   1.457   1.893  13.034  0.3983  0.4966  0.5874
  704TMC3     O10465   1.378   1.886  13.127  0.0124  0.0033 -0.2802
  704TMC3     H10466   1.657   1.989  12.904  0.1807 -1.4191 -1.0973
  704TMC3    H110467   1.538   1.714  13.211 -0.5752 -0.9867 -0.6871
  704TMC3    H210468   1.868   1.634  12.958 -1.4780 -0.4395 -0.6934
  704TMC3    C710469   1.711   1.540  13.136 -0.0403 -0.6362 -0.1218
  704TMC3    C810470   1.763   1.779  12.785 -0.6466 -0.6106 -0.6131
  704TMC3    O110471   1.600   1.489  13.147  0.1325 -0.3106 -0.1570
  704TMC3    O210472   1.658   1.814  12.727 -1.0644 -0.1970  0.0453
  705MPD2     C10473   1.425   4.569  16.543 -0.1788  0.1768 -0.1306
  705MPD2    C110474   1.414   4.691  16.474 -0.3304 -0.2600  0.0348
  705MPD2    C210475   1.292   0.018  16.487 -0.1931  0.5151  0.1400
  705MPD2    C310476   1.182   4.716  16.568 -0.4033 -0.2889 -0.8941
  705MPD2    C410477   1.203   4.603  16.630 -1.1568  0.3342 -0.3600
  705MPD2    C510478   1.318   4.534  16.620 -0.7464  0.2903  0.1961
  705MPD2     H10479   1.278   0.106  16.426 -0.6636  0.7124  0.5276
  705MPD2    H110480   1.134   4.565  16.705  0.1663 -0.2789  0.5277
  705MPD2    H210481   1.517   4.511  16.545  0.2741  0.9601  2.9733
  705MPD2    H310482   1.330   4.443  16.678 -0.1051  0.1993 -0.0786
  705MPD2     N10483   1.057   0.027  16.569  0.6721 -0.0551  0.5263
  705MPD2    H510484   0.982   4.705  16.601  0.7806  0.3653  1.5816
  705MPD2    N110485   1.512   0.004  16.386  1.0947  0.2064  0.2572
  705MPD2    H710486   1.502   0.099  16.350 -0.5200 -0.6671 -1.6045
  706TMC3    C110487   1.719   0.073  16.046 -0.6276  0.2485 -0.0399
  706TMC3    C210488   1.706   0.207  16.062 -0.0021 -0.1434  0.2188
  706TMC3    C310489   1.699   0.254  16.190 -0.7823  0.1451  0.1861
  706TMC3    C410490   1.727   4.720  16.150  0.3067 -0.1419 -0.5905
  706TMC3    C510491   1.714   0.030  16.270 -0.6406 -0.8411 -0.1107
  706TMC3    C610492   1.692   0.168  16.296  0.7453  0.9843  0.1700
  706TMC3     C10493   1.676   0.015  15.925 -0.5042  0.2621  0.0352
  706TMC3     O10494   1.714   4.641  15.894 -0.9339  0.1709  0.2490
  706TMC3     H10495   1.723   0.266  15.973  0.5991 -0.8271 -0.1277
  706TMC3    H110496   1.710   4.613  16.142  0.6208 -0.2838  0.6160
  706TMC3    H210497   1.678   0.212  16.394 -1.5857 -3.1494  1.6834
  706TMC3    C710498   1.634   4.681  16.359 -0.0299  0.4356  0.7279
  706TMC3    C810499   1.670   0.397  16.207 -0.4242 -0.1978 -0.1191
  706TMC3    O110500   1.684   4.573  16.396  0.2464 -0.3531  0.2232
  706TMC3    O210501   1.629   0.457  16.110  0.1290  0.0824  0.4726
  707TMC3    C110502   3.775   3.817   1.073 -0.1411 -0.3098  0.5290
  707TMC3    C210503   3.808   3.834   1.203 -0.1236 -0.0298  0.0923
  707TMC3    C310504   3.734   3.772   1.295 -0.3603 -0.2256  0.9115
  707TMC3    C410505   3.669   3.741   1.033  0.3314  0.8559 -0.6182
  707TMC3    C510506   3.592   3.682   1.130  0.6271  0.4217 -0.8154
  707TMC3    C610507   3.618   3.706   1.262 -0.5808 -0.6155 -1.3332
  707TMC3     C10508   3.891   3.823   0.986  0.5182  0.5722  0.5677
  707TMC3     O10509   3.999   3.829   1.039  0.2093  0.1975  0.5355
  707TMC3     H10510   3.881   3.900   1.247  1.3321 -1.5459 -0.0680
  707TMC3    H110511   3.661   3.713   0.929 -1.3639 -1.4353  0.1155
  707TMC3    H210512   3.565   3.644   1.334  0.7139  1.3699  1.3159
  707TMC3    C710513   3.462   3.634   1.108 -0.9602  0.4476 -0.1651
  707TMC3    C810514   3.796   3.738   1.418  0.5549 -0.6450 -0.1566
  707TMC3    O110515   3.391   3.597   1.201 -0.3141  0.7894 -0.4812
  707TMC3    O210516   3.726   3.736   1.514 -0.3109  0.0726 -0.0664
  708MPD2     C10517   4.345   3.692  13.972 -0.5442 -0.3805  0.3143
  708MPD2    C110518   4.273   3.582  14.012  0.0903  0.2752  0.2320
  708MPD2    C210519   4.341   3.481  14.080  0.0819 -0.3136 -0.3463
  708MPD2    C310520   4.478   3.479  14.076 -0.5043 -0.2927  0.1413
  708MPD2    C410521   4.547   3.584  14.022 -0.0797  0.2159 -0.0122
  708MPD2    C510522   4.483   3.682  13.954  0.3119  0.2412 -0.1124
  708MPD2     H10523   4.289   3.396  14.123 -1.5795  0.0536 -1.6279
  708MPD2    H110524   4.655   3.596  14.024 -0.0667  0.1454 -0.2493
  708MPD2    H210525   4.296   3.778  13.928 -0.8739 -1.1703 -0.8729
  708MPD2    H310526   4.541   3.765  13.916  1.9454 -0.1173  1.5955
  708MPD2     N10527   4.542   3.377  14.158 -0.1077  0.3250  0.4139
  708MPD2    H510528   4.471   3.324  14.207  1.1943 -0.2683  1.6696
  708MPD2    N110529   4.136   3.597  14.022  0.1917 -0.2343  1.0606
  708MPD2    H710530   4.093   3.688  14.008 -0.0788 -0.2352  1.8942
  709TMC3    C110531   3.917   3.524  14.071  0.0293  1.0799  0.4453
  709TMC3    C210532   3.814   3.449  14.018  0.2324  0.3886 -0.3867
  709TMC3    C310533   3.727   3.392  14.109 -0.4922  0.6152 -0.5801
  709TMC3    C410534   3.929   3.550  14.203  0.2895  0.0066  0.4867
  709TMC3    C510535   3.846   3.486  14.288  0.5851 -0.1217 -0.8527
  709TMC3    C610536   3.744   3.403  14.249 -0.1514  0.2632 -0.9299
  709TMC3     C10537   4.048   3.491  14.019 -0.5201  0.2232  0.6642
  709TMC3     O10538   4.072   3.370  14.004  0.1755 -0.6685 -0.0374
  709TMC3     H10539   3.820   3.414  13.916  2.6059  0.2973 -0.2321
  709TMC3    H110540   4.006   3.616  14.241 -0.0565  0.2759  0.7209
  709TMC3    H210541   3.693   3.332  14.313  2.4133  0.6494  1.5616
  709TMC3    C710542   3.918   3.430  14.400  0.0519  0.1994  0.2642
  709TMC3    C810543   3.626   3.301  14.057  0.6827 -0.3684 -0.3257
  709TMC3    O110544   3.926   3.308  14.413  0.2962 -0.5631  0.3202
  709TMC3    O210545   3.588   3.209  14.128 -0.1830 -0.1089 -0.1630
  710TMC3    C110546   1.038   4.621   0.619 -0.2702 -0.4307 -0.9634
  710TMC3    C210547   1.072   4.517   0.533 -0.1806  0.5143 -0.0311
  710TMC3    C310548   1.194   4.456   0.549 -0.6350  0.3281 -0.5908
  710TMC3    C410549   1.134   4.660   0.717  0.0386 -0.1293 -0.0043
  710TMC3    C510550   1.250   4.586   0.729  0.3120  0.1527  0.2206
  710TMC3    C610551   1.284   4.492   0.638 -0.3452 -0.4670 -0.3815
  710TMC3     C10552   0.908   4.672   0.626 -0.4593  0.0812  0.7376
  710TMC3     O10553   0.814   4.593   0.598 -0.1450  0.5289 -0.6248
  710TMC3     H10554   0.994   4.484   0.465  0.3769 -0.1234 -0.3659
  710TMC3    H110555   1.117   0.008   0.782 -2.2757 -0.5454 -0.0741
  710TMC3    H210556   1.388   4.464   0.645  0.0411  1.0626  0.0385
  710TMC3    C710557   1.356   4.635   0.812 -0.3638  0.3629  0.4280
  710TMC3    C810558   1.233   4.355   0.447 -0.2299  0.7563 -0.1093
  710TMC3    O110559   1.473   4.625   0.777  0.1449 -0.3108 -0.2807
  710TMC3    O210560   1.165   4.363   0.346  0.2016 -0.5481 -0.1454
  711TMC3    C110561   0.629   0.724  15.187 -0.0885  0.4098  0.3620
  711TMC3    C210562   0.615   0.783  15.308  0.0655 -0.3495 -0.4297
  711TMC3    C310563   0.727   0.788  15.386 -0.8725 -0.7700 -0.1441
  711TMC3    C410564   0.742   0.670  15.142  0.0132  0.1479  0.1440
  711TMC3    C510565   0.857   0.689  15.211 -0.0362  0.4823 -0.1940
  711TMC3    C610566   0.848   0.745  15.338  0.1412  0.4299  0.4214
  711TMC3     C10567   0.512   0.703  15.097  0.2959 -0.6307 -0.2348
  711TMC3     O10568   0.514   0.608  15.014 -0.3576  0.4345 -0.5732
  711TMC3     H10569   0.515   0.816  15.336 -0.6405 -1.9851 -1.0323
  711TMC3    H110570   0.747   0.610  15.052  2.6366 -0.2221  0.5507
  711TMC3    H210571   0.932   0.759  15.405 -0.4191  1.9586  0.8141
  711TMC3    C710572   0.977   0.621  15.158  0.5222 -0.2681  0.1907
  711TMC3    C810573   0.702   0.836  15.521 -0.0392  0.1105  1.4727
  711TMC3    O110574   0.970   0.562  15.051 -0.1509 -0.0832  0.6170
  711TMC3    O210575   0.583   0.866  15.554  0.5842 -0.2478 -0.0316
  712MPD2     C10576   1.545   1.912  14.413  0.1066 -0.6644  0.4252
  712MPD2    C110577   1.423   1.931  14.347 -0.2569 -0.7107  0.0279
  712MPD2    C210578   1.399   2.050  14.285  0.2940  0.9734  0.0430
  712MPD2    C310579   1.488   2.156  14.294 -0.3344  0.5116  0.0729
  712MPD2    C410580   1.606   2.140  14.370  0.4280 -0.1726 -0.0024
  712MPD2    C510581   1.631   2.020  14.425  0.0204 -0.7938  0.1219
  712MPD2     H10582   1.315   2.055  14.216 -0.1784  0.6800  0.5946
  712MPD2    H110583   1.680   2.219  14.377 -1.0477  1.0697  1.4618
  712MPD2    H210584   1.577   1.820  14.461  2.1984 -0.9651 -1.5720
  712MPD2    H310585   1.725   2.015  14.479  1.4094  1.8471 -2.0500
  712MPD2     N10586   1.463   2.270  14.214  0.2774 -0.1184  0.2884
  712MPD2    H510587   1.543   2.325  14.186  0.4471  0.2686  1.5518
  712MPD2    N110588   1.320   1.840  14.352 -0.1018  0.1166  0.1514
  712MPD2    H710589   1.232   1.879  14.321 -0.4974 -1.8949 -1.2732
  713TMC3    C110590   1.347   2.416  14.066 -0.3752 -0.0387  0.5417
  713TMC3    C210591   1.452   2.431  13.980  0.1861 -0.1497  0.1462
  713TMC3    C310592   1.442   2.519  13.877 -0.6531 -0.2591 -0.1269
  713TMC3    C410593   1.229   2.488  14.047 -0.3376  0.2152  0.2992
  713TMC3    C510594   1.229   2.579  13.942  0.5928 -0.1796 -0.4598
  713TMC3    C610595   1.329   2.597  13.857 -0.8302  0.1342  0.0763
  713TMC3     C10596   1.336   2.302  14.165 -0.3060 -0.4910 -0.3072
  713TMC3     O10597   1.228   2.265  14.199 -0.3625  0.1193  0.1319
  713TMC3     H10598   1.543   2.374  13.997  0.2847 -0.9571 -3.0314
  713TMC3    H110599   1.150   2.484  14.121 -1.7812  0.2369 -1.2392
  713TMC3    H210600   1.334   2.681  13.789 -0.7810  0.8854  1.0119
  713TMC3    C710601   1.118   2.674  13.936  0.4414 -0.0676  0.4169
  713TMC3    C810602   1.558   2.577  13.820  0.1471 -0.1780  0.0800
  713TMC3    O110603   1.060   2.709  14.036 -0.2262  0.5001 -0.5369
  713TMC3    O210604   1.542   2.628  13.714  0.4275 -0.1374  0.0416
  714MPD2     C10605   4.250   1.296   1.256 -0.0904  0.1293 -0.5743
  714MPD2    C110606   4.301   1.171   1.213  0.1251 -0.2902 -0.0590
  714MPD2    C210607   4.208   1.078   1.171 -0.3786  0.3454 -0.7805
  714MPD2    C310608   4.064   1.110   1.177  0.4021  0.0871 -0.8342
  714MPD2    C410609   4.022   1.225   1.235  0.1183  0.1294  0.5985
  714MPD2    C510610   4.118   1.317   1.274  0.2051  0.2180 -0.4731
  714MPD2     H10611   4.236   0.978   1.140  1.6517  0.7093 -0.1130
  714MPD2    H110612   3.917   1.252   1.241  0.0863  0.7572 -2.3903
  714MPD2    H210613   4.314   1.380   1.281  1.0262 -0.3968 -1.6737
  714MPD2    H310614   4.085   1.412   1.314 -0.5516 -0.5081  0.6267
  714MPD2     N10615   3.969   1.012   1.133  0.3262 -0.3868  0.0711
  714MPD2    H510616   4.014   0.937   1.083  0.7743 -0.5366  0.6938
  714MPD2    N110617   4.443   1.149   1.212 -0.3202  0.1814  0.4072
  714MPD2    H710618   4.494   1.228   1.250  0.6572 -0.8949  1.3457
  715TMC3    C110619   4.655   1.037   1.196 -0.1694  0.1226  1.1107
  715TMC3    C210620   4.717   0.922   1.154  0.2174 -0.7489 -0.2181
  715TMC3    C310621   0.115   0.907   1.154 -0.3808  0.3203 -0.0589
  715TMC3    C410622   4.731   1.145   1.242 -0.1946 -0.1458 -0.4928
  715TMC3    C510623   0.129   1.120   1.249  0.3387 -0.0274 -0.3216
  715TMC3    C610624   0.191   1.004   1.207  0.1872  0.7680  0.5021
  715TMC3     C10625   4.510   1.032   1.203 -0.1703  0.1405  0.2768
  715TMC3     O10626   4.461   0.925   1.218 -0.0448 -0.2729  0.3052
  715TMC3     H10627   4.659   0.845   1.104 -2.3795  0.8889  0.2530
  715TMC3    H110628   4.684   1.239   1.267  0.1565  0.3490 -1.7052
  715TMC3    H210629   0.299   0.999   1.210  0.0875 -1.2516  0.7752
  715TMC3    C710630   0.209   1.206   1.330  0.6460  0.1050 -1.0468
  715TMC3    C810631   0.160   0.769   1.137 -0.0921  0.7070 -0.5082
  715TMC3    O110632   0.327   1.168   1.339  0.3000  1.0665  0.6994
  715TMC3    O210633   0.102   0.682   1.071  0.2362  0.2105  0.2118
  716MPD2     C10634   3.250   4.041   9.956  0.1010  0.0809 -0.0865
  716MPD2    C110635   3.195   3.956   9.868  0.1442  0.0437  0.3089
  716MPD2    C210636   3.258   3.839   9.833 -0.0345  0.5522 -0.6386
  716MPD2    C310637   3.387   3.808   9.865  0.2340 -0.7399  0.0554
  716MPD2    C410638   3.454   3.905   9.938  0.0974  0.3481 -0.1433
  716MPD2    C510639   3.381   4.012   9.994 -0.0233  0.7960 -0.1733
  716MPD2     H10640   3.215   3.770   9.762  0.0798 -1.1717  0.9707
  716MPD2    H110641   3.558   3.891   9.965 -1.0199 -2.5474  2.7271
  716MPD2    H210642   3.192   4.125   9.994  0.0176 -0.2349  0.4854
  716MPD2    H310643   3.436   4.078  10.060  0.3590 -2.4357  2.7186
  716MPD2     N10644   3.432   3.682   9.836  0.7040 -0.5122 -0.4215
  716MPD2    H510645   3.364   3.618   9.797  0.4860 -0.8744  0.5471
  716MPD2    N110646   3.065   3.980   9.820 -0.0039  0.5081  0.0676
  716MPD2    H710647   3.016   4.060   9.859 -2.1232 -1.4060  1.3324
  717TMC3    C110648   3.572   3.508   9.773  0.1432  0.0318 -0.2839
  717TMC3    C210649   3.496   3.484   9.664 -0.3555 -0.9957  0.0000
  717TMC3    C310650   3.526   3.387   9.576 -0.0403 -0.4553 -0.4312
  717TMC3    C410651   3.682   3.427   9.801 -0.0232  0.4869 -0.1861
  717TMC3    C510652   3.700   3.322   9.712 -0.0328  0.4362  0.0824
  717TMC3    C610653   3.634   3.306   9.594  0.5901 -0.5468  0.2751
  717TMC3     C10654   3.561   3.638   9.833 -0.3131 -0.3725  0.6685
  717TMC3     O10655   3.658   3.679   9.900  0.4140 -0.0647 -0.2726
  717TMC3     H10656   3.418   3.554   9.636  2.3641  2.5053  1.0766
  717TMC3    H110657   3.738   3.440   9.892 -0.1769 -1.1274  0.1428
  717TMC3    H210658   3.650   3.213   9.541 -0.3878  0.0747 -1.0957
  717TMC3    C710659   3.806   3.232   9.747  1.0001  0.6385 -0.5369
  717TMC3    C810660   3.417   3.347   9.492 -0.1073 -0.2340 -0.0775
  717TMC3    O110661   3.848   3.233   9.863  0.2714 -0.1492 -0.6175
  717TMC3    O210662   3.305   3.369   9.534  0.5166  0.5049 -0.6368
  718MPD2     C10663   3.120   1.863  13.207 -0.2311 -0.8242 -0.8428
  718MPD2    C110664   3.053   1.798  13.107  0.0524 -0.2620 -0.0026
  718MPD2    C210665   2.949   1.716  13.150 -0.5407 -0.3937 -1.0654
  718MPD2    C310666   2.902   1.691  13.279 -1.1499  0.4452  0.3461
  718MPD2    C410667   2.966   1.762  13.373  0.2355 -0.3108  0.8002
  718MPD2    C510668   3.077   1.839  13.337 -0.7046 -0.4986  0.7698
  718MPD2     H10669   2.884   1.677  13.072  1.9101 -3.1783 -1.7129
  718MPD2    H110670   2.931   1.752  13.475 -0.6262 -0.3043  0.5072
  718MPD2    H210671   3.209   1.921  13.188 -1.5586  1.1904 -0.8600
  718MPD2    H310672   3.125   1.898  13.414  1.0931 -0.7556 -0.1589
  718MPD2     N10673   2.779   1.620  13.290 -0.1782 -0.1023 -0.1098
  718MPD2    H510674   2.753   1.577  13.202 -2.9732  0.3840  0.4584
  718MPD2    N110675   3.070   1.797  12.966  0.8276  0.1390  0.1628
  718MPD2    H710676   3.014   1.733  12.911 -1.3386  1.7452  0.4950
  719TMC3    C110677   3.147   1.864  12.759  1.3702  0.2600 -0.0327
  719TMC3    C210678   3.080   1.758  12.719 -0.2512 -0.3825  0.7771
  719TMC3    C310679   2.958   1.771  12.647 -0.6923 -0.0001 -0.2925
  719TMC3    C410680   3.108   1.989  12.722  0.3532 -0.8177 -0.2126
  719TMC3    C510681   2.999   1.993  12.631  1.0039  0.3025 -0.1917
  719TMC3    C610682   2.911   1.890  12.604  0.0609 -0.1037 -0.4986
  719TMC3     C10683   3.175   1.862  12.901 -0.6084 -0.5099  0.2171
  719TMC3     O10684   3.247   1.941  12.951 -0.3053 -0.4214  0.4584
  719TMC3     H10685   3.104   1.655  12.742 -1.3384 -1.2430 -2.0145
  719TMC3    H110686   3.156   2.078  12.761  0.4104 -0.5488 -0.9074
  719TMC3    H210687   2.821   1.910  12.548  0.1887 -1.7146 -1.2717
  719TMC3    C710688   2.947   2.124  12.614  0.8306  0.3625 -0.5826
  719TMC3    C810689   2.861   1.675  12.697 -0.5629 -0.3073 -1.0555
  719TMC3    O110690   2.825   2.133  12.624  0.0660  0.0361  0.2617
  719TMC3    O210691   2.905   1.610  12.795  0.1577 -0.7601  0.2770
  720MPD2     C10692   1.444   4.255  14.226 -0.2171 -0.4674  0.5836
  720MPD2    C110693   1.544   4.189  14.159 -0.6039 -0.0096 -0.0616
  720MPD2    C210694   1.653   4.138  14.227  0.5501 -0.2030 -0.1224
  720MPD2    C310695   1.663   4.145  14.362 -0.8896 -0.8542  0.4608
  720MPD2    C410696   1.555   4.198  14.436 -0.1132  0.8212 -0.6765
  720MPD2    C510697   1.448   4.250  14.365 -0.1352 -0.1568  0.3112
  720MPD2     H10698   1.723   4.083  14.166  1.8758  1.1901  0.1754
  720MPD2    H110699   1.553   4.201  14.544 -0.4722  0.1403 -0.6621
  720MPD2    H210700   1.366   4.313  14.179 -0.0023 -0.1569  0.6104
  720MPD2    H310701   1.374   4.308  14.419  0.3380  0.0138  0.7759
  720MPD2     N10702   1.785   4.112  14.426 -0.5587  0.2839 -0.5211
  720MPD2    H510703   1.861   4.076  14.369 -0.2601 -1.1070  0.7420
  720MPD2    N110704   1.549   4.187  14.019 -0.8706 -0.5721 -0.2882
  720MPD2    H710705   1.631   4.139  13.982  0.7187  3.3010 -1.7394
  721TMC3    C110706   1.950   4.077  14.580 -0.4696 -0.1039 -0.6405
  721TMC3    C210707   1.997   4.078  14.711 -0.1031 -0.3380  0.4232
  721TMC3    C310708   2.127   4.112  14.736  0.4569  0.1319 -0.5190
  721TMC3    C410709   2.037   4.087  14.473  0.7201 -0.4791 -0.2795
  721TMC3    C510710   2.167   4.103  14.503 -0.1401 -0.6403  0.5365
  721TMC3    C610711   2.216   4.111  14.628 -0.2126 -0.4418 -0.1272
  721TMC3     C10712   1.812   4.112  14.558  0.0186  1.3048 -0.4122
  721TMC3     O10713   1.742   4.124  14.657 -0.4468  0.0752 -0.5283
  721TMC3     H10714   1.930   4.078  14.796  0.5003  0.0037  0.8986
  721TMC3    H110715   2.015   4.094  14.367  1.6801 -0.5680 -0.4795
  721TMC3    H210716   2.321   4.136  14.637 -0.4361 -0.4016  2.3467
  721TMC3    C710717   2.256   4.043  14.408 -0.1426  0.6498 -0.6506
  721TMC3    C810718   2.192   4.047  14.854  0.0731 -0.8220 -0.3493
  721TMC3    O110719   2.232   4.053  14.289  0.1172  0.5584  0.3222
  721TMC3    O210720   2.294   3.977  14.831 -0.0551 -0.8861  0.3936
  722MPD2     C10721   0.343   2.509  13.151 -0.0904 -0.4096 -0.1082
  722MPD2    C110722   0.343   2.643  13.118  0.2249 -0.2657 -0.0323
  722MPD2    C210723   0.223   2.709  13.117 -0.2887 -0.0258  0.7462
  722MPD2    C310724   0.106   2.649  13.150 -0.4286  0.1937  0.2121
  722MPD2    C410725   0.113   2.530  13.204  0.0056 -0.3516  0.2072
  722MPD2    C510726   0.224   2.457  13.200  0.0671  0.0407  0.1979
  722MPD2     H10727   0.211   2.809  13.077  1.5943  0.4722  1.4517
  722MPD2    H110728   0.023   2.475  13.230 -0.5101 -0.1076 -1.0539
  722MPD2    H210729   0.433   2.448  13.158  0.9372  0.8452 -2.5901
  722MPD2    H310730   0.229   2.355  13.235 -0.8539  0.0649  0.3965
  722MPD2     N10731   4.723   2.711  13.111  0.1251  0.3150  0.2455
  722MPD2    H510732   4.725   2.808  13.083 -0.5097  0.2560 -0.0009
  722MPD2    N110733   0.461   2.712  13.082 -0.3520  0.6182 -0.2856
  722MPD2    H710734   0.443   2.803  13.043 -2.5325  0.0191 -0.6916
  723TMC3    C110735   4.499   2.738  13.052 -0.1309 -0.0124 -0.0501
  723TMC3    C210736   4.412   2.695  12.958 -0.7672  0.3695 -0.0829
  723TMC3    C310737   4.338   2.789  12.896 -0.2430  0.2554  0.0071
  723TMC3    C410738   4.516   2.868  13.085 -0.4894  0.5624  0.1211
  723TMC3    C510739   4.433   2.960  13.025  0.4860 -0.0157  0.3940
  723TMC3    C610740   4.338   2.919  12.934  0.0880 -0.1912 -0.6502
  723TMC3     C10741   4.603   2.648  13.098 -0.7138  0.1694 -0.6385
  723TMC3     O10742   4.581   2.532  13.080 -0.6941 -0.1432  0.1157
  723TMC3     H10743   4.405   2.589  12.933 -1.2742  0.2954  0.3997
  723TMC3    H110744   4.568   2.896  13.176  0.1852 -0.2741 -0.0090
  723TMC3    H210745   4.277   2.994  12.886  0.3738  0.5488  0.1391
  723TMC3    C710746   4.456   3.097  13.065 -0.2009 -0.0123 -0.0897
  723TMC3    C810747   4.230   2.747  12.808  0.0482  0.4876 -0.3519
  723TMC3    O110748   4.567   3.125  13.109  0.7134  0.4628 -0.4251
  723TMC3    O210749   4.155   2.836  12.770 -0.2044  0.2644  0.1689
  724TMC3    C110750   0.537   0.520  10.587  0.0118  0.2608  0.5422
  724TMC3    C210751   0.561   0.585  10.473  0.0530 -0.7233  0.1503
  724TMC3    C310752   0.636   0.703  10.483 -0.0675  0.0629  0.1973
  724TMC3    C410753   0.613   0.545  10.697 -0.6761 -0.8624  0.5142
  724TMC3    C510754   0.688   0.657  10.696 -0.2334  0.1767 -0.4344
  724TMC3    C610755   0.695   0.741  10.595 -0.7388  0.3765  0.3391
  724TMC3     C10756   0.470   0.394  10.578 -0.2261 -0.3209  0.3555
  724TMC3     O10757   0.456   0.344  10.466  0.0260 -0.0506  0.0417
  724TMC3     H10758   0.482   0.580  10.398 -2.4865  1.5785  2.6315
  724TMC3    H110759   0.597   0.485  10.785 -0.7509  0.3921  1.3546
  724TMC3    H210760   0.741   0.838  10.609  0.6760 -0.6445  2.7128
  724TMC3    C710761   0.743   0.719  10.827  0.3169  0.0900 -0.1733
  724TMC3    C810762   0.629   0.792  10.370  0.3216 -0.7285 -0.0282
  724TMC3    O110763   0.847   0.780  10.809  0.3487  0.3186 -0.4551
  724TMC3    O210764   0.544   0.772  10.284 -0.0716 -0.1666  0.0474
  725TMC3    C110765   2.367   4.217  12.834  0.4478  1.1424 -0.0163
  725TMC3    C210766   2.316   4.308  12.748 -1.1904 -0.9257 -0.5149
  725TMC3    C310767   2.315   4.281  12.615 -0.2806  0.2284  0.1801
  725TMC3    C410768   2.431   4.101  12.783  0.3745 -0.0490 -0.1114
  725TMC3    C510769   2.441   4.084  12.644  0.1513  0.6037  0.0367
  725TMC3    C610770   2.375   4.174  12.561 -0.0340 -0.4136 -0.1379
  725TMC3     C10771   2.398   4.259  12.972 -0.0185 -0.4220 -0.7131
  725TMC3     O10772   2.364   4.375  13.001  0.1663  0.0566  0.1438
  725TMC3     H10773   2.272   4.395  12.796  1.5196 -0.2724  0.7642
  725TMC3    H110774   2.491   4.041  12.851 -1.1047  0.0398  1.2832
  725TMC3    H210775   2.374   4.165  12.453 -0.3736  0.8882 -0.2421
  725TMC3    C710776   2.525   3.987  12.582 -0.4990  0.4764 -0.5375
  725TMC3    C810777   2.226   4.365  12.540  0.0336  0.3409  0.0098
  725TMC3    O110778   2.590   4.022  12.480 -0.8899 -0.4436 -0.2459
  725TMC3    O210779   2.129   4.416  12.599 -0.2236 -0.0446  0.3355
  726MPD2     C10780   4.722   0.989  10.565  0.0113  0.4005 -0.2698
  726MPD2    C110781   4.630   1.089  10.532 -0.1516 -0.1387 -0.2681
  726MPD2    C210782   4.499   1.062  10.566  0.4275 -0.1517  0.2599
  726MPD2    C310783   4.463   0.956  10.648  0.2749  0.4030 -0.2775
  726MPD2    C410784   4.557   0.865  10.695  0.5168  0.0979  0.7700
  726MPD2    C510785   4.690   0.887  10.659 -0.0794  0.1886  0.9144
  726MPD2     H10786   4.426   1.130  10.525 -1.5674 -2.1692  0.4929
  726MPD2    H110787   4.516   0.785  10.755  3.5254 -2.5010 -0.6312
  726MPD2    H210788   0.090   0.978  10.542 -0.0873 -0.1496 -0.4684
  726MPD2    H310789   0.031   0.816  10.680 -2.3006 -2.1618  1.1798
  726MPD2     N10790   4.327   0.946  10.698 -0.4075 -0.1096 -0.6340
  726MPD2    H510791   4.309   0.878  10.772  1.6837  0.8315  0.7397
  726MPD2    N110792   4.653   1.201  10.447  0.2146  0.4517 -1.0428
  726MPD2    H710793   4.577   1.243  10.396 -1.9096 -0.7541  1.1020
  727TMC3    C110794   0.054   1.385  10.364  0.0349 -0.1151 -0.4863
  727TMC3    C210795   0.144   1.471  10.400  0.6273  0.1898  0.5071
  727TMC3    C310796   0.146   1.597  10.347  0.1813  0.6254 -0.5278
  727TMC3    C410797   4.687   1.420  10.282 -0.2036 -0.4998  0.9656
  727TMC3    C510798   4.686   1.546  10.220 -0.1658 -0.8108  0.1779
  727TMC3    C610799   0.044   1.641  10.259  0.7518  0.2514 -0.2025
  727TMC3     C10800   0.043   1.257  10.439  0.1037  0.2794 -0.2370
  727TMC3     O10801   0.139   1.221  10.513  0.3642 -0.5309  0.2818
  727TMC3     H10802   0.214   1.441  10.477  1.6979  0.9615 -0.1809
  727TMC3    H110803   4.632   1.348  10.222 -1.2367  0.1730  1.1005
  727TMC3    H210804   0.053   1.736  10.208  1.9508 -0.3443 -1.0986
  727TMC3    C710805   4.575   1.606  10.144 -0.7261 -0.1106 -0.1149
  727TMC3    C810806   0.206   1.688  10.441  0.3587  0.5490 -0.2919
  727TMC3    O110807   4.587   1.719  10.108  0.3884 -0.2984  0.0210
  727TMC3    O210808   0.295   1.645  10.512  0.4591  0.2311 -0.2713
  728TMC3    C110809   4.614   4.222  15.403  0.3339 -0.1869 -0.1144
  728TMC3    C210810   0.014   4.247  15.383  0.5648 -0.3827  0.7660
  728TMC3    C310811   0.053   4.320  15.276  0.4459  0.2189 -1.1021
  728TMC3    C410812   4.520   4.276  15.319 -0.1710  0.2018  0.5023
  728TMC3    C510813   4.569   4.349  15.214 -0.1233  0.1754  0.8193
  728TMC3    C610814   4.701   4.370  15.189 -0.2744  0.0248 -0.2387
  728TMC3     C10815   4.579   4.134  15.513  0.2739 -0.1313 -0.2064
  728TMC3     O10816   4.654   4.140  15.612  0.4871 -0.4506  0.2481
  728TMC3     H10817   0.083   4.201  15.453  1.1930 -0.6595 -0.0372
  728TMC3    H110818   4.413   4.268  15.332 -0.4018  1.6025 -0.5700
  728TMC3    H210819   4.735   4.445  15.119 -0.3115  0.1610 -0.1112
  728TMC3    C710820   4.475   4.394  15.109  0.3230 -0.1464  1.0547
  728TMC3    C810821   0.193   4.368  15.280  0.1977  0.3292 -0.4027
  728TMC3    O110822   4.362   4.340  15.109 -0.1582 -0.9560  0.4569
  728TMC3    O210823   0.237   4.373  15.393 -0.5801 -0.0113 -0.3005
  729MPD2     C10824   2.255   0.043  16.468 -0.1305  0.3290 -0.6198
  729MPD2    C110825   2.222   0.171  16.466  0.9260  0.0748  0.7565
  729MPD2    C210826   2.162   0.225  16.574 -0.5445 -0.0690 -0.3190
  729MPD2    C310827   2.138   0.143  16.688 -0.4681 -0.5983 -0.5562
  729MPD2    C410828   2.175   0.010  16.695  0.3776 -0.0089 -0.4875
  729MPD2    C510829   2.234   4.700  16.581 -0.1885  0.3673 -0.3472
  729MPD2     H10830   2.128   0.328  16.569 -1.2795 -0.3100 -0.3822
  729MPD2    H110831   2.149   4.688  16.782  1.0949  1.3008  0.6291
  729MPD2    H210832   2.297   4.735  16.379 -0.3029 -0.5284 -0.2602
  729MPD2    H310833   2.258   4.595  16.571  0.7565  0.7476 -2.1020
  729MPD2     N10834   2.080   0.197  16.801 -0.0915 -0.3761  0.1154
  729MPD2    H510835   2.087   0.142  16.886 -2.1672  1.5234  1.5188
  729MPD2    N110836   2.270   0.257  16.356  0.6216  0.6820 -0.0563
  729MPD2    H710837   2.354   0.222  16.311 -0.6618 -0.4397 -1.5697
  730TMC3    C110838   2.006   0.359  16.944 -0.1634  0.3448  0.1148
  730TMC3    C210839   2.103   0.331  17.035  0.7239 -0.1378 -0.3395
  730TMC3    C310840   2.114   0.418  17.142  0.6168 -0.1390 -0.7300
  730TMC3    C410841   1.927   0.473  16.955  0.5052  0.5138  0.4043
  730TMC3    C510842   1.937   0.539  17.074 -0.1875  0.0882 -0.3217
  730TMC3    C610843   2.017   0.508  17.174 -0.7939 -0.5555 -0.2911
  730TMC3     C10844   2.026   0.316  16.808  0.6670  0.3002 -0.2774
  730TMC3     O10845   1.960   0.376  16.725  0.6096 -0.1329  0.5261
  730TMC3     H10846   2.183   0.263  17.010 -0.8159 -1.5152 -1.5731
  730TMC3    H110847   1.861   0.525  16.887  1.9458  0.3566 -1.1149
  730TMC3    H210848   2.010   0.546  17.275 -2.3432  1.1176 -1.0335
  730TMC3    C710849   1.905   0.682  17.068  0.4248  0.2347 -0.2378
  730TMC3    C810850   2.241   0.485  17.106  0.3618  1.1183  0.1177
  730TMC3    O110851   1.909   0.742  16.963  0.1825  0.0063 -0.6700
  730TMC3    O210852   2.316   0.450  17.011 -0.2743 -0.3450  0.4116
  731MPD2     C10853   2.094   3.264  12.318 -0.6689 -0.1557  0.9021
  731MPD2    C110854   1.967   3.249  12.268  0.5170 -0.0509  0.2951
  731MPD2    C210855   1.863   3.282  12.354  0.1932 -0.2951 -0.1849
  731MPD2    C310856   1.879   3.308  12.487  0.3788  0.1776 -0.2759
  731MPD2    C410857   2.013   3.327  12.535  0.0207  0.8511  1.3271
  731MPD2    C510858   2.114   3.300  12.446  0.3298 -0.0566 -0.8414
  731MPD2     H10859   1.761   3.278  12.317  0.1653 -2.4862  0.1185
  731MPD2    H110860   2.041   3.362  12.633 -0.1711  1.1389  1.2797
  731MPD2    H210861   2.188   3.236  12.271 -0.8568  0.5741  0.0994
  731MPD2    H310862   2.216   3.315  12.480 -0.6262  2.0422  1.1161
  731MPD2     N10863   1.767   3.320  12.579 -0.2141 -0.2316  0.4098
  731MPD2    H510864   1.677   3.322  12.532 -0.0191 -0.5021  0.0233
  731MPD2    N110865   1.951   3.202  12.133  0.1983  0.2262  0.4789
  731MPD2    H710866   2.039   3.202  12.083  0.2568  1.9840  0.5880
  732TMC3    C110867   1.845   3.124  11.941  0.7318  0.0666 -0.0175
  732TMC3    C210868   1.737   3.154  11.864 -0.3890 -0.3406 -0.2103
  732TMC3    C310869   1.764   3.170  11.732 -0.3281  0.5994 -0.1696
  732TMC3    C410870   1.969   3.100  11.887 -0.6328  0.7300  0.8468
  732TMC3    C510871   1.986   3.121  11.757 -0.4372 -0.9373  0.0115
  732TMC3    C610872   1.883   3.154  11.675  0.0572 -0.5334 -0.2402
  732TMC3     C10873   1.832   3.160  12.082 -0.5452  0.0326  0.5916
  732TMC3     O10874   1.726   3.143  12.147 -1.0285 -0.8165 -0.1856
  732TMC3     H10875   1.646   3.167  11.920 -0.7791 -0.3176 -0.8479
  732TMC3    H110876   2.044   3.048  11.946 -0.6756 -0.8020 -0.4647
  732TMC3    H210877   1.889   3.150  11.567  0.5432 -3.4770 -0.1091
  732TMC3    C710878   2.106   3.074  11.692 -0.3306 -0.4286 -0.1264
  732TMC3    C810879   1.681   3.261  11.655  0.3659  0.3231 -0.4541
  732TMC3    O110880   2.091   3.046  11.574  0.1622 -0.2387  0.1273
  732TMC3    O210881   1.736   3.301  11.556  0.1790  0.2310 -1.0652
  733TMC3    C110882   2.340   1.594  13.430 -0.5406 -0.1779 -0.0190
  733TMC3    C210883   2.469   1.582  13.473 -0.9025  0.4189  0.3586
  733TMC3    C310884   2.563   1.545  13.380  1.0354 -0.3690  0.4594
  733TMC3    C410885   2.305   1.558  13.302  0.0813 -0.0742 -0.1332
  733TMC3    C510886   2.398   1.495  13.225 -0.3391 -0.9410 -0.4641
  733TMC3    C610887   2.536   1.496  13.256  0.2688  0.7154 -0.5635
  733TMC3     C10888   2.246   1.667  13.504  0.4504  0.3081 -0.4208
  733TMC3     O10889   2.161   1.722  13.432 -0.2980 -0.3233 -0.1301
  733TMC3     H10890   2.492   1.611  13.575 -0.1141  0.4238  0.1731
  733TMC3    H110891   2.202   1.542  13.272  0.7273  2.0974 -3.5429
  733TMC3    H210892   2.615   1.469  13.188 -0.6682 -3.0386 -0.1697
  733TMC3    C710893   2.372   1.484  13.082  0.1314 -0.5583 -0.4798
  733TMC3    C810894   2.698   1.606  13.401  0.5753 -0.2230  0.2821
  733TMC3    O110895   2.260   1.447  13.051 -0.0774 -0.6951 -0.4765
  733TMC3    O210896   2.720   1.645  13.514  0.6096  0.3352 -0.0398
  734MPD2     C10897   4.575   0.238  12.290 -0.3321  0.6563 -0.4849
  734MPD2    C110898   4.466   0.153  12.285  0.0025  0.9158 -0.4604
  734MPD2    C210899   4.387   0.153  12.169  0.8674 -0.0521 -0.1073
  734MPD2    C310900   4.415   0.226  12.055 -0.8499 -0.1339  0.2990
  734MPD2    C410901   4.526   0.308  12.058  0.3207 -0.1573  0.0857
  734MPD2    C510902   4.606   0.310  12.174  0.3208  0.5594 -0.9919
  734MPD2     H10903   4.301   0.087  12.172  2.1464 -1.7347 -0.3175
  734MPD2    H110904   4.560   0.363  11.971 -0.6002 -1.9467 -1.4074
  734MPD2    H210905   4.632   0.238  12.382 -0.2166 -0.7391 -0.5521
  734MPD2    H310906   4.690   0.377  12.169  0.6600  0.1071 -1.3710
  734MPD2     N10907   4.334   0.204  11.938  0.4627  0.1475 -0.1750
  734MPD2    H510908   4.250   0.148  11.943  1.2470 -0.8927  1.5564
  734MPD2    N110909   4.436   0.073  12.397  0.0387 -0.0321  0.4118
  734MPD2    H710910   4.507   0.069  12.469  1.3987 -0.2493 -0.9504
  735TMC3    C110911   4.315   4.646  12.516  0.6207 -0.6953  0.0212
  735TMC3    C210912   4.189   4.597  12.529  0.6473 -0.0242  0.2493
  735TMC3    C310913   4.150   4.459  12.520 -0.0685  0.5636  0.4246
  735TMC3    C410914   4.419   4.560  12.511 -0.4346 -0.1318 -0.6755
  735TMC3    C510915   4.378   4.427  12.509 -0.0722  0.9092  0.5780
  735TMC3    C610916   4.253   4.376  12.520 -0.4745  0.0240 -0.2420
  735TMC3     C10917   4.321   0.002  12.412 -0.1744 -0.4086  0.2110
  735TMC3     O10918   4.219   0.003  12.348  0.5568  0.1611 -0.0842
  735TMC3     H10919   4.109   4.670  12.520  1.7011  1.4037  2.3631
  735TMC3    H110920   4.520   4.584  12.481  0.1569  0.0096  1.4823
  735TMC3    H210921   4.227   4.272  12.507  0.4332 -0.0757 -1.2443
  735TMC3    C710922   4.465   4.342  12.442 -0.1516 -0.5862 -0.1518
  735TMC3    C810923   4.048   4.432  12.427  0.6074 -0.6191  0.3657
  735TMC3    O110924   4.535   4.394  12.352 -0.3394 -0.0468 -0.0866
  735TMC3    O210925   4.000   4.323  12.426  0.3109  0.5295 -0.8038
  736MPD2     C10926   4.482   3.985  12.489  0.8326  0.2827  0.2310
  736MPD2    C110927   4.525   4.109  12.441 -0.5770  0.0351  0.9565
  736MPD2    C210928   4.625   4.116  12.358 -0.3008 -0.2462  0.3670
  736MPD2    C310929   4.694   4.001  12.322 -0.1135  0.7616 -0.2390
  736MPD2    C410930   4.654   3.879  12.368  0.4286  0.0267  0.0097
  736MPD2    C510931   4.546   3.868  12.452  0.2487  0.6922  0.8118
  736MPD2     H10932   4.679   4.207  12.330  3.1768 -2.5745 -0.4704
  736MPD2    H110933   4.715   3.792  12.344  0.3426 -0.1487  0.4374
  736MPD2    H210934   4.386   3.977  12.538  0.3442  1.8676 -0.4594
  736MPD2    H310935   4.514   3.769  12.483 -1.8696  1.4222  0.9834
  736MPD2     N10936   0.060   3.999  12.219  0.3159  0.6867  0.0960
  736MPD2    H510937   0.111   3.912  12.209 -1.6836 -0.6661  1.7219
  736MPD2    N110938   4.455   4.215  12.489  0.6539  0.6223 -0.1320
  736MPD2    H710939   4.392   4.189  12.564  1.5616  3.1628  1.4990
  737TMC3    C110940   0.208   4.093  12.043  1.4608  0.6160  0.2967
  737TMC3    C210941   0.253   4.208  11.982  0.2486  0.2188 -0.3981
  737TMC3    C310942   0.354   4.196  11.889  0.5123 -0.7859  0.6714
  737TMC3    C410943   0.262   3.970  12.016  0.2208 -0.5689  0.4375
  737TMC3    C510944   0.374   3.976  11.935  0.4479  0.4507  0.4382
  737TMC3    C610945   0.427   4.081  11.873  0.1350 -0.3459 -0.0262
  737TMC3     C10946   0.097   4.111  12.138  0.3825  0.1122 -0.0449
  737TMC3     O10947   0.040   4.220  12.127 -0.1202 -0.7971 -0.4803
  737TMC3     H10948   0.214   4.306  12.008 -0.4597 -0.5025  1.2325
  737TMC3    H110949   0.231   3.878  12.066  0.0177  0.6219  2.5208
  737TMC3    H210950   0.521   4.085  11.819  0.2351 -3.1617 -0.0688
  737TMC3    C710951   0.462   3.858  11.943  0.2080 -1.3036  0.4770
  737TMC3    C810952   0.381   4.315  11.818  0.1308 -0.2311 -0.0742
  737TMC3    O110953   0.421   3.765  12.013 -0.4541  0.2020  0.0498
  737TMC3    O210954   0.327   4.420  11.846  0.0012 -0.0963  0.3150
  738MPD2     C10955   0.413   2.606  15.285  1.1508  0.2735 -0.0683
  738MPD2    C110956   0.423   2.610  15.146  0.9927  0.1035  0.6235
  738MPD2    C210957   0.543   2.650  15.086 -0.4139 -0.1183 -0.4484
  738MPD2    C310958   0.644   2.692  15.168  0.0047  0.5154 -0.4031
  738MPD2    C410959   0.639   2.689  15.300 -0.3983  0.3832 -0.1606
  738MPD2    C510960   0.521   2.650  15.361  0.4873 -0.1370  0.2422
  738MPD2     H10961   0.538   2.659  14.978  0.9578 -0.3308 -0.5243
  738MPD2    H110962   0.731   2.716  15.351  0.5346 -1.1594 -1.0229
  738MPD2    H210963   0.326   2.569  15.339  1.2789 -2.0777 -1.4878
  738MPD2    H310964   0.509   2.648  15.469 -1.2808 -3.0189 -0.0017
  738MPD2     N10965   0.772   2.719  15.110 -0.7611 -0.8015  0.4078
  738MPD2    H510966   0.852   2.726  15.172  0.3906  2.4731 -1.4224
  738MPD2    N110967   0.315   2.572  15.067 -0.1042 -0.3033 -0.1454
  738MPD2    H710968   0.330   2.560  14.968  1.6195  1.1861 -0.0749
  739TMC3    C110969   0.938   2.781  14.947 -0.4686 -0.0179  0.3265
  739TMC3    C210970   0.965   2.857  14.832 -1.0223 -0.4188  0.7629
  739TMC3    C310971   1.099   2.873  14.801 -1.4078 -0.7428  0.3616
  739TMC3    C410972   1.041   2.749  15.037  0.2596 -0.1214  0.3256
  739TMC3    C510973   1.170   2.785  15.000 -0.3526  0.4595  0.0323
  739TMC3    C610974   1.203   2.841  14.881 -0.1479 -0.3261  0.6840
  739TMC3     C10975   0.799   2.758  14.981 -0.0655 -0.1348  0.1716
  739TMC3     O10976   0.717   2.781  14.895  0.4022 -0.1900 -0.5784
  739TMC3     H10977   0.894   2.894  14.759  3.5564  3.4734 -1.7275
  739TMC3    H110978   1.034   2.687  15.126  0.6902 -0.6264  0.0024
  739TMC3    H210979   1.306   2.838  14.847 -0.3985  1.9154 -0.2486
  739TMC3    C710980   1.282   2.781  15.092  0.6316 -0.0649 -0.1555
  739TMC3    C810981   1.122   2.954  14.688 -0.2202 -0.0982 -0.2855
  739TMC3    O110982   1.388   2.819  15.048 -0.3933 -0.6100 -0.1008
  739TMC3    O210983   1.027   2.949  14.611 -0.4672 -0.6113  0.1368
  740TMC3    C110984   1.568   4.442  14.726 -0.2063 -0.1403  0.5060
  740TMC3    C210985   1.615   4.392  14.846 -0.0645  0.2832  0.3448
  740TMC3    C310986   1.751   4.370  14.863 -0.3879  0.0185  0.0015
  740TMC3    C410987   1.657   4.482  14.629  0.0309 -0.3083  0.3193
  740TMC3    C510988   1.790   4.467  14.650 -0.0397 -0.0237  0.2923
  740TMC3    C610989   1.839   4.411  14.763  0.0607 -0.0556 -0.1123
  740TMC3     C10990   1.425   4.471  14.710  0.5075 -0.4373 -0.3181
  740TMC3     O10991   1.403   4.562  14.627 -0.1094 -0.7034 -0.1407
  740TMC3     H10992   1.555   4.387  14.936 -2.4546  1.8342 -1.1391
  740TMC3    H110993   1.602   4.533  14.550  1.3784  1.0846  0.2855
  740TMC3    H210994   1.947   4.403  14.773  0.1633  1.0632 -0.3198
  740TMC3    C710995   1.878   4.438  14.531 -0.3854  0.0830 -0.4011
  740TMC3    C810996   1.800   4.300  14.979  0.7788 -0.2380 -0.3733
  740TMC3    O110997   1.996   4.420  14.554 -0.3543  0.1854 -0.6513
  740TMC3    O210998   1.919   4.301  14.994  0.0999  0.1833  0.5606
  741TMC3    C110999   1.043   3.508  14.618  0.1940 -0.3690  0.2883
  741TMC3    C211000   0.928   3.483  14.547  0.1068  0.4422  0.7687
  741TMC3    C311001   0.857   3.371  14.582  0.8322  0.5813  0.4481
  741TMC3    C411002   1.080   3.439  14.726 -0.7321  0.6581  0.4398
  741TMC3    C511003   1.000   3.332  14.763 -0.4550  0.4064  0.2829
  741TMC3    C611004   0.888   3.291  14.696 -0.5509  0.2593  0.0492
  741TMC3     C11005   1.132   3.610  14.556  0.4038 -0.0515  0.2653
  741TMC3     O11006   1.091   3.675  14.465  0.3558 -0.2062  0.4188
  741TMC3     H11007   0.909   3.535  14.454  1.8661 -1.5248 -0.6870
  741TMC3    H111008   1.170   3.468  14.780 -0.0358  0.1327 -0.4408
  741TMC3    H211009   0.826   3.206  14.723 -1.4048  0.6478 -0.6835
  741TMC3    C711010   1.052   3.269  14.880  0.4696  1.4071  0.2321
  741TMC3    C811011   0.741   3.345  14.502  0.3067  0.1581  0.4033
  741TMC3    O111012   1.162   3.302  14.919  0.9530  0.0025  0.0641
  741TMC3    O211013   0.690   3.438  14.441  0.0871  0.0154 -0.4258
  742TMC3    C111014   0.944   2.136  15.407 -0.2341 -0.0452 -0.4151
  742TMC3    C211015   0.868   2.096  15.303 -0.4636  0.4347 -0.4307
  742TMC3    C311016   0.926   2.016  15.207  0.2527  0.7153 -0.2996
  742TMC3    C411017   1.081   2.110  15.408  0.2523 -0.4932 -0.0357
  742TMC3    C511018   1.136   2.054  15.293 -0.2114  0.0177  0.1852
  742TMC3    C611019   1.061   1.997  15.192  0.2106  0.1290  0.4317
  742TMC3     C11020   0.868   2.169  15.526  1.1401  0.3857 -0.0319
  742TMC3     O11021   0.756   2.214  15.514  0.4588 -0.2085  0.0237
  742TMC3     H11022   0.760   2.101  15.312 -0.2879 -0.0278  1.8684
  742TMC3    H111023   1.142   2.143  15.492  2.3107 -0.3253 -1.5949
  742TMC3    H211024   1.101   1.938  15.110  0.3968  1.0809 -0.1591
  742TMC3    C711025   1.283   2.025  15.286 -0.0833  0.5046 -0.3140
  742TMC3    C811026   0.842   1.941  15.122  0.0196 -0.2163  0.4471
  742TMC3    O111027   1.326   1.951  15.195 -0.0633  0.1643 -0.0995
  742TMC3    O211028   0.893   1.861  15.049  0.0927 -0.3170 -0.0399
  743MPD2     C11029   0.079   3.536   1.903 -0.2961  0.4026 -0.2322
  743MPD2    C111030   0.146   3.478   1.796 -0.1852 -0.6857 -0.7679
  743MPD2    C211031   0.279   3.461   1.810 -0.5596  0.3123 -0.7474
  743MPD2    C311032   0.353   3.505   1.915 -0.2826  0.2253 -0.2617
  743MPD2    C411033   0.291   3.570   2.014 -0.0738  0.1848  0.5492
  743MPD2    C511034   0.155   3.591   2.004  0.4094 -0.4451 -0.1213
  743MPD2     H11035   0.334   3.413   1.729 -1.9161 -0.3932 -1.2465
  743MPD2    H111036   0.341   3.609   2.102  2.2107 -0.8402 -0.2954
  743MPD2    H211037   4.709   3.532   1.919 -0.6590 -0.6749 -2.9524
  743MPD2    H311038   0.112   3.625   2.097  0.1512 -2.9156  0.6468
  743MPD2     N11039   0.492   3.478   1.913 -0.3993 -0.5501  0.2291
  743MPD2    H511040   0.529   3.425   1.835  0.9504  0.0453  0.4674
  743MPD2    N111041   0.064   3.436   1.689  0.4191  1.1012 -0.2240
  743MPD2    H711042   4.701   3.449   1.691  0.3997  1.0145 -0.5969
  744TMC3    C111043   0.000   3.357   1.476 -0.3165 -0.9246  0.9425
  744TMC3    C211044   4.614   3.422   1.483  0.3073  0.0283 -0.6296
  744TMC3    C311045   4.518   3.390   1.389 -0.4900  0.5115 -0.1294
  744TMC3    C411046   0.022   3.258   1.381 -0.3875 -0.0955 -0.5221
  744TMC3    C511047   4.670   3.247   1.279 -0.2787  0.2357 -0.1020
  744TMC3    C611048   4.551   3.313   1.281 -0.2701 -0.1659 -0.6648
  744TMC3     C11049   0.098   3.356   1.584 -0.4793 -0.6936 -0.5877
  744TMC3     O11050   0.203   3.300   1.563  0.6485 -0.0378 -0.5249
  744TMC3     H11051   4.584   3.495   1.556  1.7278 -1.5606  1.5501
  744TMC3    H111052   0.111   3.196   1.388 -1.2848 -1.1499  1.5226
  744TMC3    H211053   4.477   3.293   1.205  1.7252  1.2280 -2.9753
  744TMC3    C711054   4.695   3.160   1.169  0.1470 -0.1232  0.4865
  744TMC3    C811055   4.387   3.450   1.392 -1.0196  0.3037 -0.0690
  744TMC3    O111056   4.630   3.178   1.065  0.6166 -0.4298 -0.0105
  744TMC3    O211057   4.344   3.477   1.281 -0.0363 -0.4975  0.9376
  745TMC3    C111058   1.193   1.656  14.353  0.2931 -0.0993  0.0136
  745TMC3    C211059   1.123   1.661  14.472  0.0431 -0.3936 -0.2240
  745TMC3    C311060   0.999   1.719  14.474  0.1901  0.0152 -0.0839
  745TMC3    C411061   1.149   1.720  14.241 -0.0109 -0.0378  0.6188
  745TMC3    C511062   1.023   1.770  14.243  0.3186  0.2611 -0.2388
  745TMC3    C611063   0.949   1.774  14.360 -0.1984  0.4981 -0.2131
  745TMC3     C11064   1.322   1.702  14.376 -0.0807  0.3296  0.9892
  745TMC3     O11065   1.407   1.634  14.436  0.1692 -0.0376  0.1578
  745TMC3     H11066   1.175   1.631  14.562 -3.0472 -2.8410  0.7366
  745TMC3    H111067   1.211   1.723  14.152 -1.3790  0.7016 -0.3084
  745TMC3    H211068   0.857   1.830  14.353 -0.5801 -0.0466  0.4440
  745TMC3    C711069   0.989   1.864  14.145  0.4193  0.2952  0.1569
  745TMC3    C811070   0.967   1.808  14.588  0.5387 -0.0815  0.2774
  745TMC3    O111071   0.876   1.905  14.139 -0.1764 -0.3142 -0.2442
  745TMC3    O211072   0.851   1.844  14.608 -0.0206 -0.1817 -0.4923
  746TMC3    C111073   3.325   3.851  11.025 -0.0701 -0.2191  0.1423
  746TMC3    C211074   3.406   3.837  10.912 -0.1282 -0.1307  0.0224
  746TMC3    C311075   3.406   3.717  10.849 -0.2108  1.0794 -0.0913
  746TMC3    C411076   3.258   3.755  11.088  1.1933 -0.0301  0.8135
  746TMC3    C511077   3.269   3.635  11.023 -0.2797 -0.1193 -0.6782
  746TMC3    C611078   3.331   3.619  10.897  0.7878  0.4503 -0.3135
  746TMC3     C11079   3.344   3.965  11.108  0.3204 -0.0892  0.5592
  746TMC3     O11080   3.260   3.982  11.195 -0.0931 -0.1716 -0.3175
  746TMC3     H11081   3.447   3.921  10.857  0.1848 -0.8082 -0.7848
  746TMC3    H111082   3.207   3.774  11.182 -0.4644  2.6782 -0.6402
  746TMC3    H211083   3.333   3.522  10.849  1.4068  1.8631 -3.1241
  746TMC3    C711084   3.162   3.542  11.042  0.2862  0.3869  0.2087
  746TMC3    C811085   3.451   3.709  10.711  0.6693 -0.2136  1.0911
  746TMC3    O111086   3.141   3.486  10.936  0.4254 -0.0265  0.4185
  746TMC3    O211087   3.548   3.780  10.689  0.1155 -0.6595 -0.3044
  747TMC3    C111088   1.199   3.659  11.219 -0.7615 -0.0863 -0.3868
  747TMC3    C211089   1.127   3.578  11.301  0.5074  0.2178  0.0638
  747TMC3    C311090   1.085   3.625  11.428 -0.2397 -0.0057  0.6641
  747TMC3    C411091   1.240   3.785  11.263 -0.2393 -0.5186  0.1159
  747TMC3    C511092   1.204   3.827  11.383  0.4390 -0.0690 -0.3203
  747TMC3    C611093   1.129   3.750  11.467 -0.5245 -0.4010 -0.8080
  747TMC3     C11094   1.273   3.606  11.103  0.3118  0.0897  0.1516
  747TMC3     O11095   1.340   3.695  11.046 -0.0398 -0.2558  0.2057
  747TMC3     H11096   1.096   3.476  11.280 -0.0470  0.1182  1.3179
  747TMC3    H111097   1.290   3.853  11.196  0.0897 -1.0752 -0.1996
  747TMC3    H211098   1.115   3.785  11.569 -0.9563 -0.4286 -0.8563
  747TMC3    C711099   1.258   3.950  11.433 -0.1331  0.2348  0.6331
  747TMC3    C811100   0.988   3.553  11.511  0.5284 -0.5082 -0.0072
  747TMC3    O111101   1.226   3.966  11.548 -0.0716  0.1795  0.4269
  747TMC3    O211102   0.989   3.432  11.521  0.9067  0.1400  0.2491
  748MPD2     C11103   3.395   3.993   1.265 -0.8303 -0.4035  0.0162
  748MPD2    C111104   3.404   4.035   1.132  0.0738 -0.4679  0.1857
  748MPD2    C211105   3.506   4.120   1.105 -0.0584  0.3220  0.3899
  748MPD2    C311106   3.615   4.137   1.187 -0.2796  1.1419  0.1433
  748MPD2    C411107   3.619   4.072   1.310  0.2783  0.0869 -0.4303
  748MPD2    C511108   3.512   3.999   1.343  0.0733 -0.9336  0.2301
  748MPD2     H11109   3.503   4.166   1.007  1.3620 -0.1946  0.1083
  748MPD2    H111110   3.704   4.083   1.377 -0.4014 -0.0813  0.4480
  748MPD2    H211111   3.316   3.935   1.310 -2.7699  1.2872 -1.2035
  748MPD2    H311112   3.520   3.950   1.439  1.3133  0.0632  0.6383
  748MPD2     N11113   3.707   4.237   1.143 -0.0219 -0.4763 -0.3223
  748MPD2    H511114   3.678   4.299   1.069 -1.2338  0.7748  1.2259
  748MPD2    N111115   3.297   4.007   1.045  0.8026  0.0024 -0.8231
  748MPD2    H711116   3.213   3.968   1.087  2.1276 -1.0137  0.8645
  749TMC3    C111117   3.929   4.350   1.143  0.2374  0.0399  0.3773
  749TMC3    C211118   4.048   4.369   1.216  0.2238 -0.1858  0.4069
  749TMC3    C311119   4.120   4.478   1.188 -0.2137 -0.1629 -0.3521
  749TMC3    C411120   3.893   4.429   1.035 -0.1706  0.3303 -0.0606
  749TMC3    C511121   3.974   4.533   1.008  0.6361 -0.6512  0.8354
  749TMC3    C611122   4.082   4.560   1.081  0.5605 -1.1127  0.2127
  749TMC3     C11123   3.833   4.254   1.205  0.1691  0.3144 -0.0820
  749TMC3     O11124   3.883   4.175   1.287 -1.2955  0.1189  0.5237
  749TMC3     H11125   4.064   4.305   1.302 -0.1055 -2.3629 -1.1458
  749TMC3    H111126   3.790   4.435   1.001 -0.1844  0.0810 -0.0668
  749TMC3    H211127   4.134   4.653   1.060  0.8408 -1.3191 -0.0134
  749TMC3    C711128   3.954   4.613   0.892 -0.3912  1.3334  0.5389
  749TMC3    C811129   4.237   4.523   1.263  0.1321 -0.2829 -0.0441
  749TMC3    O111130   3.995   4.728   0.891 -0.5625 -0.1935  0.2522
  749TMC3    O211131   4.238   4.643   1.288  0.5292 -0.6771 -0.0308
  750MPD2     C11132   3.654   1.086  11.531 -0.3037  0.5316 -0.2924
  750MPD2    C111133   3.546   1.031  11.591 -0.0612  1.2825  0.1783
  750MPD2    C211134   3.496   0.912  11.534  0.3479 -0.0420 -0.3085
  750MPD2    C311135   3.556   0.845  11.426 -0.2058 -0.4369 -0.8544
  750MPD2    C411136   3.659   0.911  11.362  0.3225 -0.6494  0.5189
  750MPD2    C511137   3.710   1.025  11.417 -0.1899 -0.2758 -0.2391
  750MPD2     H11138   3.408   0.868  11.581  0.1838  0.6614  0.0323
  750MPD2    H111139   3.712   0.862  11.282 -1.5039  0.9869 -1.7087
  750MPD2    H211140   3.697   1.177  11.572  1.9880 -1.0016  0.7296
  750MPD2    H311141   3.797   1.070  11.371 -0.6541  2.4255  1.5482
  750MPD2     N11142   3.515   0.719  11.373  0.4166  0.4764 -0.4839
  750MPD2    H511143   3.582   0.678  11.310  2.1239 -1.8735  2.8479
  750MPD2    N111144   3.482   1.099  11.697  0.9957  0.1125 -0.2914
  750MPD2    H711145   3.523   1.187  11.726  0.6460  0.0797  0.2911
  751TMC3    C111146   3.368   0.531  11.346  0.0639 -0.0267 -0.0091
  751TMC3    C211147   3.242   0.474  11.350 -0.3599 -0.3639 -0.2717
  751TMC3    C311148   3.201   0.373  11.272  0.4902 -0.1188  0.1557
  751TMC3    C411149   3.451   0.476  11.251  0.3244 -0.0543  0.3335
  751TMC3    C511150   3.408   0.374  11.174  0.5453 -0.3467 -0.1748
  751TMC3    C611151   3.285   0.316  11.183 -0.1469  0.3100  0.0185
  751TMC3     C11152   3.389   0.664  11.406 -0.0080 -0.9507  0.3093
  751TMC3     O11153   3.290   0.712  11.463  0.0152 -0.5733  0.2011
  751TMC3     H11154   3.168   0.506  11.423  0.7119  1.7981 -0.1372
  751TMC3    H111155   3.553   0.511  11.239  0.4590 -1.3419 -2.1123
  751TMC3    H211156   3.247   0.248  11.108  1.6350  0.8863 -1.4229
  751TMC3    C711157   3.499   0.318  11.079 -0.1277  0.2484  0.5744
  751TMC3    C811158   3.102   0.278  11.308 -0.0248  0.3170 -0.1856
  751TMC3    O111159   3.584   0.385  11.026 -0.4588  0.6557  0.3232
  751TMC3    O211160   3.126   0.158  11.295 -0.1114 -0.5607 -0.0458
  752TMC3    C111161   2.728   0.231  17.243 -0.6593  0.5307  0.0610
  752TMC3    C211162   2.791   0.136  17.319  0.1055 -0.2405 -0.0046
  752TMC3    C311163   2.721   0.086  17.414  0.2669 -0.5496 -0.8161
  752TMC3    C411164   2.601   0.291  17.274  0.0551 -0.0528  0.5128
  752TMC3    C511165   2.539   0.225  17.374 -0.6569 -0.4282  0.0668
  752TMC3    C611166   2.594   0.123  17.447  0.2232 -0.3416 -0.0816
  752TMC3     C11167   2.802   0.288  17.128  0.4370 -0.5847  0.2717
  752TMC3     O11168   2.922   0.267  17.116 -0.0745  0.3443  0.3137
  752TMC3     H11169   2.885   0.099  17.278  0.1563  0.2733 -0.3564
  752TMC3    H111170   2.543   0.368  17.225 -1.6715 -0.8082  1.3518
  752TMC3    H211171   2.537   0.064  17.517  0.5370  1.7289  1.9070
  752TMC3    C711172   2.408   0.270  17.421  0.2607 -0.4202 -0.2249
  752TMC3    C811173   2.769   4.712  17.493 -0.7733 -0.2539 -0.5574
  752TMC3    O111174   2.322   0.185  17.443  0.6262 -0.1717  0.4028
  752TMC3    O211175   2.746   4.705  17.615 -0.2291  0.1496 -0.2447
  753TMC3    C111176   4.028   1.832  13.206 -0.9728 -0.5608 -0.7958
  753TMC3    C211177   4.076   1.826  13.331 -0.2332  0.3430 -0.7025
  753TMC3    C311178   4.075   1.705  13.402  0.4083  0.3714  0.0156
  753TMC3    C411179   3.973   1.721  13.143 -0.1035  0.1082  0.1608
  753TMC3    C511180   3.978   1.605  13.213 -0.0817  0.2439 -0.2681
  753TMC3    C611181   4.032   1.598  13.341  0.7491  0.0381 -0.8709
  753TMC3     C11182   4.052   1.952  13.126  0.8404  0.2377 -0.5350
  753TMC3     O11183   4.018   1.943  13.008 -0.7292 -0.4813 -0.0742
  753TMC3     H11184   4.105   1.913  13.388 -2.4986 -0.9099  2.3638
  753TMC3    H111185   3.911   1.741  13.056  0.2442 -0.6532 -0.2575
  753TMC3    H211186   4.031   1.506  13.399 -1.4115  0.8763  0.4255
  753TMC3    C711187   3.924   1.487  13.152 -0.2644 -0.5274  0.5625
  753TMC3    C811188   4.153   1.691  13.524 -0.5258 -0.3315 -0.5057
  753TMC3    O111189   3.904   1.493  13.032  0.6339 -0.0785 -0.1666
  753TMC3    O211190   4.159   1.577  13.565  0.0056 -0.0902  0.1164
  754MPD2     C11191   3.300   0.457  13.430  0.6662  0.1148  0.1217
  754MPD2    C111192   3.264   0.336  13.372 -0.2600  0.3441 -0.0839
  754MPD2    C211193   3.157   0.272  13.414  0.0327 -0.4092 -0.6100
  754MPD2    C311194   3.066   0.328  13.507 -0.5304 -0.6250  0.3700
  754MPD2    C411195   3.100   0.452  13.566 -0.5515 -0.1438 -0.3156
  754MPD2    C511196   3.221   0.507  13.527 -0.3575  0.2507 -1.1442
  754MPD2     H11197   3.134   0.177  13.367  0.8208 -1.4434  1.0554
  754MPD2    H111198   3.040   0.487  13.650  0.4333  0.2008  0.2351
  754MPD2    H211199   3.391   0.507  13.400 -0.5456  1.5358 -1.1568
  754MPD2    H311200   3.234   0.613  13.548  0.7641 -0.7729  3.3473
  754MPD2     N11201   2.951   0.258  13.554  0.1507  1.0031  0.0163
  754MPD2    H511202   2.881   0.311  13.605 -1.0447 -1.2681  0.7129
  754MPD2    N111203   3.350   0.280  13.273 -0.6600  0.1178  0.0669
  754MPD2    H711204   3.412   0.345  13.224 -0.2413 -1.0429 -0.9341
  755MPD2     C11205   1.996   0.420  13.529 -0.1652 -0.0321 -0.4788
  755MPD2    C111206   2.100   0.471  13.603 -1.1974 -1.1999 -0.0299
  755MPD2    C211207   2.220   0.409  13.596  0.1607 -0.5617  0.7685
  755MPD2    C311208   2.236   0.288  13.532  0.2278  0.4810  0.3704
  755MPD2    C411209   2.133   0.235  13.457 -0.0751 -0.1624 -0.1230
  755MPD2    C511210   2.021   0.315  13.446 -0.6654  0.1470  0.1952
  755MPD2     H11211   2.298   0.454  13.657 -0.3283 -0.7686  1.5322
  755MPD2    H111212   2.150   0.140  13.407 -1.6093 -0.1981 -0.5846
  755MPD2    H211213   1.902   0.473  13.516 -1.2852 -1.8147  0.3259
  755MPD2    H311214   1.941   0.293  13.377 -0.3877  0.1467 -0.1275
  755MPD2     N11215   2.347   0.200  13.540 -0.2176  0.6774 -0.2167
  755MPD2    H511216   2.339   0.127  13.471 -0.3044 -0.8804  1.4532
  755MPD2    N111217   2.096   0.599  13.661 -0.5406 -0.1378  0.4505
  755MPD2    H711218   2.183   0.651  13.664 -0.8854  0.5180 -0.7319
  756MPD2     C11219   3.022   2.004   9.552  0.4274 -0.5669  0.3746
  756MPD2    C111220   2.996   1.920   9.658 -0.6627  0.6237 -0.3349
  756MPD2    C211221   2.916   1.808   9.637 -0.2996 -0.1988  0.3001
  756MPD2    C311222   2.850   1.787   9.513 -0.3018 -0.3506  0.4494
  756MPD2    C411223   2.880   1.876   9.409 -0.0858 -0.5432 -0.2296
  756MPD2    C511224   2.964   1.985   9.434  0.5444 -0.0080  0.6171
  756MPD2     H11225   2.886   1.745   9.720  0.4407  1.0525  1.5238
  756MPD2    H111226   2.833   1.867   9.312 -0.9407  0.3444  0.1080
  756MPD2    H211227   3.078   2.096   9.562  0.1768 -0.2049 -1.4390
  756MPD2    H311228   2.983   2.063   9.360  0.3854 -0.4602  0.0968
  756MPD2     N11229   2.771   1.675   9.501 -0.5714 -0.4403  0.5802
  756MPD2    H511230   2.760   1.614   9.581  0.7855  0.7164  1.6387
  756MPD2    N111231   3.036   1.953   9.789  0.0758  0.3212 -0.1173
  756MPD2    H711232   2.988   1.913   9.869  1.5712  1.8979  1.5805
  757MPD2     C11233   1.913   1.135   9.087  0.3061  0.5895 -0.1416
  757MPD2    C111234   1.946   1.091   9.217 -0.1344  0.0462  0.6723
  757MPD2    C211235   2.054   1.151   9.281 -1.3477 -1.1228  0.3446
  757MPD2    C311236   2.117   1.260   9.232  0.4611  0.1904 -0.0942
  757MPD2    C411237   2.086   1.300   9.102  0.8209 -0.0650 -0.1405
  757MPD2    C511238   1.984   1.238   9.036 -0.1300 -0.0079 -0.3601
  757MPD2     H11239   2.084   1.117   9.380 -0.3344 -0.6369  0.2066
  757MPD2    H111240   2.142   1.374   9.046  1.3440  0.2964  0.8635
  757MPD2    H211241   1.839   1.086   9.025  0.2743  0.7717 -0.2456
  757MPD2    H311242   1.966   1.263   8.932 -2.1436  0.7758  0.1845
  757MPD2     N11243   2.232   1.305   9.305 -0.4344  1.3364 -0.2032
  757MPD2    H511244   2.250   1.263   9.396  0.3568 -0.2492 -1.0913
  757MPD2    N111245   1.870   0.984   9.275  0.2703 -0.1709  0.2589
  757MPD2    H711246   1.778   0.965   9.235  0.0623 -0.2862  0.7995
  758MPD2     C11247   3.801   3.794  16.136 -0.5722  0.2913 -0.5299
  758MPD2    C111248   3.801   3.929  16.112  0.5681  0.1006  0.0412
  758MPD2    C211249   3.715   4.004  16.185 -0.2771  0.5171 -0.3848
  758MPD2    C311250   3.623   3.946  16.270  0.3429 -0.0854 -0.1340
  758MPD2    C411251   3.622   3.814  16.282  0.0629 -0.1334 -0.6779
  758MPD2    C511252   3.714   3.735  16.222  0.0560 -0.4909 -0.4838
  758MPD2     H11253   3.724   4.112  16.182  0.3265  0.4939  0.4110
  758MPD2    H111254   3.555   3.764  16.351  3.8041 -0.6590  2.5447
  758MPD2    H211255   3.874   3.738  16.077 -0.7838 -1.2520  0.6676
  758MPD2    H311256   3.717   3.628  16.239  1.9308 -0.0666  1.7766
  758MPD2     N11257   3.544   4.027  16.350  0.2160 -0.2593  0.4979
  758MPD2    H511258   3.510   3.988  16.438  1.0455 -0.1594  0.8597
  758MPD2    N111259   3.905   3.979  16.026  0.1422 -0.1000 -0.1908
  758MPD2    H711260   3.965   3.904  15.993  0.2455 -0.2690  0.3932
  759MPD2     C11261   2.134   2.667  10.165 -0.0657  0.1016  0.7205
  759MPD2    C111262   2.111   2.752  10.275  0.2007  0.1370 -0.6343
  759MPD2    C211263   2.095   2.882  10.244  0.4542 -1.0603 -0.5642
  759MPD2    C311264   2.096   2.930  10.113  0.2785  0.2094 -0.2136
  759MPD2    C411265   2.117   2.843  10.006  0.3631  0.3603 -0.2237
  759MPD2    C511266   2.141   2.712  10.032 -0.4325  0.3802  0.1227
  759MPD2     H11267   2.077   2.950  10.326  1.1137 -0.1848 -1.1477
  759MPD2    H111268   2.123   2.877   9.903 -0.7522 -0.4377 -0.5581
  759MPD2    H211269   2.136   2.559  10.180  1.7275 -0.3814 -2.7904
  759MPD2    H311270   2.161   2.639   9.954  0.5684  1.6804 -0.8438
  759MPD2     N11271   2.085   3.067  10.095  0.2356  0.4402 -0.0181
  759MPD2    H511272   2.074   3.125  10.178 -1.7433  0.7818 -0.5315
  759MPD2    N111273   2.106   2.714  10.413  0.3696  0.0044 -0.0968
  759MPD2    H711274   2.096   2.788  10.482 -0.1930 -0.1379 -0.0180
  760MPD2     C11275   1.577   0.357  11.734 -0.1520  0.7399  0.0439
  760MPD2    C111276   1.690   0.429  11.700 -0.2193 -0.1273 -0.9195
  760MPD2    C211277   1.803   0.364  11.641 -0.6371  0.3782 -0.4980
  760MPD2    C311278   1.799   0.227  11.624  0.3601 -0.4909 -0.3673
  760MPD2    C411279   1.686   0.155  11.667  0.5435  0.1257 -0.6124
  760MPD2    C511280   1.578   0.224  11.713  0.3107 -0.2175 -1.1943
  760MPD2     H11281   1.885   0.427  11.608  0.1963  0.3651  1.5690
  760MPD2    H111282   1.684   0.047  11.674 -0.4765  0.3645  2.9651
  760MPD2    H211283   1.487   0.409  11.767 -0.9153  0.9025 -2.2630
  760MPD2    H311284   1.488   0.170  11.743  0.3695  0.4277  0.1361
  760MPD2     N11285   1.911   0.155  11.595  0.4994 -0.0936 -0.4025
  760MPD2    H511286   1.906   0.054  11.587  1.5041 -0.1983  0.3757
  760MPD2    N111287   1.687   0.567  11.723 -0.3569 -0.1480  0.3063
  760MPD2    H711288   1.615   0.610  11.781  1.1134  3.2290 -0.3491
  761MPD2     C11289   2.599   0.167  11.353  0.5449 -0.3543  0.1715
  761MPD2    C111290   2.710   0.083  11.350  0.4788  0.6414  0.5170
  761MPD2    C211291   2.836   0.141  11.350  0.3617 -0.4568 -0.8160
  761MPD2    C311292   2.856   0.275  11.337 -0.2689 -0.3960 -1.1957
  761MPD2    C411293   2.743   0.350  11.328 -0.4047  0.4489  0.0457
  761MPD2    C511294   2.624   0.301  11.333 -0.0707  0.5959 -1.4155
  761MPD2     H11295   2.920   0.074  11.356 -0.5642 -1.5158  0.3670
  761MPD2    H111296   2.750   0.458  11.339 -0.0264  0.5640 -1.3228
  761MPD2    H211297   2.501   0.121  11.361 -0.3964  1.7718  0.8152
  761MPD2    H311298   2.536   0.365  11.329 -0.6695 -0.2267 -1.3253
  761MPD2     N11299   2.979   0.334  11.322  0.0012  0.4709 -0.5333
  761MPD2    H511300   2.976   0.435  11.313  1.0239  0.6368  1.1830
  761MPD2    N111301   2.695   4.682  11.333  0.2513 -0.3476  0.5845
  761MPD2    H711302   2.605   4.641  11.358 -0.2347  0.5124  0.2420
  762MPD2     C11303   2.494   3.970  10.794 -0.0916  0.8529 -0.7301
  762MPD2    C111304   2.584   4.079  10.792  0.0393  0.3648  0.1089
  762MPD2    C211305   2.691   4.071  10.704  0.4219  0.3172  0.0794
  762MPD2    C311306   2.710   3.968  10.618  0.0612  0.4938 -0.0325
  762MPD2    C411307   2.637   3.851  10.637  0.4664  0.2628  0.2273
  762MPD2    C511308   2.526   3.860  10.719  0.2091 -0.0682 -0.9101
  762MPD2     H11309   2.758   4.155  10.689  2.4604 -0.8888  2.4159
  762MPD2    H111310   2.650   3.751  10.599 -1.4390 -0.2293  0.8792
  762MPD2    H211311   2.406   3.981  10.857  0.6308  1.8407  0.1262
  762MPD2    H311312   2.468   3.768  10.725 -0.5404  0.4885  0.3614
  762MPD2     N11313   2.817   3.973  10.525 -0.2960 -0.2581 -0.2196
  762MPD2    H511314   2.867   4.060  10.508 -0.4463 -0.0457  0.4066
  762MPD2    N111315   2.561   4.187  10.881 -0.1409 -0.5717  0.0830
  762MPD2    H711316   2.477   4.181  10.939  0.1231 -2.8156  0.2275
  763MPD2     C11317   0.112   4.731  16.482  0.0115  0.5342  0.8700
  763MPD2    C111318   0.189   0.026  16.372 -0.0901 -0.4035 -0.2618
  763MPD2    C211319   0.233   0.157  16.363  0.1364  0.2021  0.2667
  763MPD2    C311320   0.195   0.252  16.451 -0.3678  0.1914  0.0626
  763MPD2    C411321   0.110   0.222  16.553 -0.6229 -0.1625  0.1435
  763MPD2    C511322   0.068   0.090  16.559 -0.0605 -0.2142  0.8168
  763MPD2     H11323   0.297   0.170  16.276  0.9920  0.9558  1.0199
  763MPD2    H111324   0.066   0.294  16.621  0.9145  1.2655 -0.3968
  763MPD2    H211325   0.064   4.634  16.492 -1.9474  1.1795 -2.2690
  763MPD2    H311326   0.019   0.062  16.652  1.2478  0.0026  1.5798
  763MPD2     N11327   0.234   0.384  16.429  0.4506 -0.4948 -0.1831
  763MPD2    H511328   0.311   0.400  16.365  0.2397  3.0838  0.4668
  763MPD2    N111329   0.212   4.679  16.262 -0.1379 -0.1299  0.2024
  763MPD2    H711330   0.283   4.707  16.195  1.2223 -0.3152  1.5794
  764MPD2     C11331   3.231   1.408  17.326 -0.2501 -0.5376  0.0122
  764MPD2    C111332   3.192   1.280  17.306  0.4662  0.0752 -0.1938
  764MPD2    C211333   3.186   1.185  17.408 -0.2886  0.0251 -0.6668
  764MPD2    C311334   3.215   1.225  17.535 -0.2323  0.3617  0.6586
  764MPD2    C411335   3.264   1.354  17.560 -0.0490  0.0689 -0.3988
  764MPD2    C511336   3.264   1.444  17.455 -0.4319 -0.4029  0.6481
  764MPD2     H11337   3.145   1.086  17.390  0.1068 -0.4259  0.8805
  764MPD2    H111338   3.281   1.394  17.659  0.3343  1.5881 -1.0779
  764MPD2    H211339   3.228   1.488  17.253  1.6364 -1.7875 -1.4240
  764MPD2    H311340   3.279   1.549  17.480  0.4791 -0.7581  1.5622
  764MPD2     N11341   3.188   1.127  17.633  0.0798  0.8416  0.2761
  764MPD2    H511342   3.133   1.045  17.610 -1.8747  2.1023  0.4355
  764MPD2    N111343   3.161   1.253  17.164  0.0697 -0.0084  0.6546
  764MPD2    H711344   3.180   1.329  17.099  1.4069 -0.0989  0.9429
  765MPD2     C11345   3.337   4.135  15.309  0.1437 -0.1998  0.6364
  765MPD2    C111346   3.390   4.169  15.429  0.1191  0.5568 -0.2529
  765MPD2    C211347   3.480   4.079  15.488  0.4164  0.2872  0.2493
  765MPD2    C311348   3.517   3.957  15.427 -0.6962  0.1408  0.7478
  765MPD2    C411349   3.466   3.932  15.298  0.1414 -0.7177  0.9653
  765MPD2    C511350   3.375   4.020  15.244  0.5345  0.5194 -0.5989
  765MPD2     H11351   3.523   4.100  15.585  0.4825  0.6719  0.1380
  765MPD2    H111352   3.495   3.843  15.243  0.8126  0.5814 -0.7840
  765MPD2    H211353   3.249   4.187  15.274 -1.2164 -2.2547  1.0149
  765MPD2    H311354   3.331   4.011  15.145  2.9310 -2.2022 -1.4231
  765MPD2     N11355   3.616   3.877  15.488 -0.1497 -0.3547  0.0010
  765MPD2    H511356   3.664   3.916  15.569  2.1752 -0.5473 -1.2965
  765MPD2    N111357   3.354   4.299  15.478  0.4087  0.8201  0.5245
  765MPD2    H711358   3.282   4.352  15.431  0.9880 -0.7673 -2.1311
  766MPD2     C11359   2.777   4.496  15.589  0.3239 -0.2308 -0.1603
  766MPD2    C111360   2.892   4.461  15.536 -0.5537 -0.1123 -0.0299
  766MPD2    C211361   2.889   4.399  15.419 -0.4601  0.5852 -0.3845
  766MPD2    C311362   2.778   4.358  15.355 -0.4706 -0.4215 -0.4528
  766MPD2    C411363   2.659   4.392  15.412  0.2644 -0.6049 -0.6470
  766MPD2    C511364   2.656   4.464  15.525 -0.5031  0.7691 -0.0626
  766MPD2     H11365   2.990   4.374  15.388  0.0127  1.0144  0.8273
  766MPD2    H111366   2.563   4.365  15.371  0.6037 -1.3374 -0.9589
  766MPD2    H211367   2.772   4.568  15.670 -0.0071 -1.6867  1.1122
  766MPD2    H311368   2.560   4.499  15.562 -0.4790  0.9355 -0.1587
  766MPD2     N11369   2.781   4.286  15.235  0.3511  0.0741 -0.2538
  766MPD2    H511370   2.696   4.280  15.180 -0.0770 -1.7321  0.6186
  766MPD2    N111371   3.016   4.483  15.593 -0.1698  0.0954  0.3825
  766MPD2    H711372   3.099   4.449  15.547  0.8653  0.9214  1.6274
  767MPD2     C11373   2.473   4.714  15.321  0.1346 -0.5809  0.3140
  767MPD2    C111374   2.582   4.687  15.248  0.9722  0.0320  0.1350
  767MPD2    C211375   2.570   4.618  15.127 -0.5171  0.5348  0.1297
  767MPD2    C311376   2.443   4.582  15.084  0.1279  0.5163  0.2975
  767MPD2    C411377   2.337   4.605  15.169  0.5109 -0.8316  0.1993
  767MPD2    C511378   2.353   4.669  15.286 -0.0708 -0.2301  0.7604
  767MPD2     H11379   2.646   4.595  15.053 -0.7204  1.3141 -0.3216
  767MPD2    H111380   2.235   4.574  15.147 -0.4583  1.0876  2.0506
  767MPD2    H211381   2.482   0.020  15.420  1.3963  0.6895 -0.3504
  767MPD2    H311382   2.266   4.695  15.345 -2.0537  0.2849 -2.4157
  767MPD2     N11383   2.435   4.525  14.962  0.5954 -0.3748  0.0416
  767MPD2    H511384   2.527   4.516  14.920  1.8592  3.0111  2.0981
  767MPD2    N111385   2.707   4.733  15.293  0.4845 -0.0051 -0.3305
  767MPD2    H711386   2.711   0.027  15.390  1.8658 -0.4778 -0.2380
  768MPD2     C11387   3.106   3.217  10.498  0.4199 -0.7748 -0.3655
  768MPD2    C111388   3.060   3.148  10.605 -0.1014 -0.2242  0.1766
  768MPD2    C211389   3.144   3.125  10.711 -0.0831  0.2242  0.0587
  768MPD2    C311390   3.270   3.194  10.720  0.2815  0.4507  0.1046
  768MPD2    C411391   3.304   3.273  10.617  0.0375 -0.6658 -0.2661
  768MPD2    C511392   3.227   3.270  10.501 -0.2544 -0.2392  0.2423
  768MPD2     H11393   3.114   3.072  10.801 -0.7825 -0.2105 -0.4353
  768MPD2    H111394   3.404   3.317  10.613 -0.3804  0.1704 -1.5850
  768MPD2    H211395   3.056   3.230  10.402  0.1219 -0.9343 -0.2324
  768MPD2    H311396   3.266   3.313  10.410  1.4926  2.2825  2.1979
  768MPD2     N11397   3.351   3.194  10.835 -0.1340  0.3485 -0.3618
  768MPD2    H511398   3.432   3.256  10.841  0.3087 -0.3942  1.4530
  768MPD2    N111399   2.934   3.091  10.613  1.2768 -0.0830 -0.3648
  768MPD2    H711400   2.912   3.024  10.686 -0.0621 -0.9896 -1.5942
  769MPD2     C11401   4.479   1.192  14.797 -0.2919 -0.5506  0.3531
  769MPD2    C111402   4.392   1.108  14.866 -0.0583  0.2611  0.2124
  769MPD2    C211403   4.424   1.058  14.986  0.1007 -0.4475  0.0776
  769MPD2    C311404   4.535   1.110  15.055 -0.5247  0.1133 -0.3398
  769MPD2    C411405   4.631   1.189  14.982  0.5973  1.0472  0.3371
  769MPD2    C511406   4.595   1.236  14.859 -0.5858  0.2672  0.3737
  769MPD2     H11407   4.356   1.001  15.049 -3.7043  2.4391 -1.4131
  769MPD2    H111408   4.724   1.226  15.022  1.4658 -1.5861  0.7448
  769MPD2    H211409   4.472   1.218  14.692  1.9079  1.4184  0.6965
  769MPD2    H311410   4.664   1.293  14.798 -1.0678 -0.4867 -0.8658
  769MPD2     N11411   4.547   1.088  15.189  0.3402  0.0409 -0.2096
  769MPD2    H511412   4.474   1.033  15.234  0.3969  0.0704 -0.0823
  769MPD2    N111413   4.270   1.066  14.813 -0.2643 -0.6585  0.4879
  769MPD2    H711414   4.210   1.006  14.869  0.0712 -0.7194  0.7862
  770MPD2     C11415   4.025   0.257  14.498 -0.1629  0.1380  0.8441
  770MPD2    C111416   4.055   0.304  14.626  0.1192 -0.4322  0.7705
  770MPD2    C211417   4.048   0.437  14.662  1.5707  0.1662 -0.2252
  770MPD2    C311418   4.020   0.525  14.569 -0.5953 -0.7530  0.5547
  770MPD2    C411419   3.997   0.483  14.434  0.1215 -0.7865 -0.0377
  770MPD2    C511420   4.009   0.352  14.400 -0.5996  0.4081  0.1543
  770MPD2     H11421   4.066   0.474  14.763  2.2916  1.1830 -0.7330
  770MPD2    H111422   3.978   0.552  14.353  0.8608 -0.9962 -0.3846
  770MPD2    H211423   4.035   0.154  14.466  0.0363  0.6173 -0.6375
  770MPD2    H311424   4.007   0.331  14.293  0.2322  0.2363  0.1726
  770MPD2     N11425   4.014   0.661  14.612  0.2054  0.5370 -0.1013
  770MPD2    H511426   4.023   0.687  14.710  0.6671  2.4686 -0.6433
  770MPD2    N111427   4.086   0.213  14.729  0.2038  0.2400 -0.1366
  770MPD2    H711428   4.047   0.120  14.718 -1.8060  0.9655  0.9153
  771MPD2     C11429   0.477   3.819  13.843  0.5350  0.4381 -0.7008
  771MPD2    C111430   0.387   3.919  13.813  0.2054 -0.6603 -0.8415
  771MPD2    C211431   0.328   3.913  13.691  0.5121  0.1299  0.7844
  771MPD2    C311432   0.353   3.816  13.594 -0.0524 -0.4348  0.1075
  771MPD2    C411433   0.430   3.713  13.632  0.0235  0.2628  0.8921
  771MPD2    C511434   0.489   3.710  13.756 -0.0368 -0.0613  0.0822
  771MPD2     H11435   0.266   3.999  13.668  1.2973  0.0755 -1.5884
  771MPD2    H111436   0.447   3.630  13.564  1.0785 -1.0792  2.7897
  771MPD2    H211437   0.533   3.818  13.935 -0.2984  1.0998 -0.1849
  771MPD2    H311438   0.548   3.625  13.789 -1.1377 -0.5214  0.8537
  771MPD2     N11439   0.299   3.826  13.461 -0.4128  0.2148  0.2077
  771MPD2    H511440   0.234   3.902  13.444 -1.4416 -0.3080  1.7711
  771MPD2    N111441   0.374   4.033  13.888 -0.0703  0.2103 -0.3008
  771MPD2    H711442   0.326   4.101  13.830 -1.0207 -0.6969 -0.5848
  772MPD2     C11443   4.716   4.615  13.861 -0.0093 -0.4036  0.0408
  772MPD2    C111444   4.721   4.516  13.955  0.0237 -0.5095  0.1931
  772MPD2    C211445   4.597   4.471  14.016  0.3255 -0.1612  0.0178
  772MPD2    C311446   4.475   4.510  13.969 -0.1484  0.1890  0.3392
  772MPD2    C411447   4.477   4.605  13.862  0.7508  0.2238 -0.0247
  772MPD2    C511448   4.595   4.662  13.824  0.4829 -0.8678 -0.0535
  772MPD2     H11449   4.604   4.389  14.088  0.2483 -1.1394 -1.0818
  772MPD2    H111450   4.387   4.629  13.807  0.4635  1.7176  1.0905
  772MPD2    H211451   0.067   4.654  13.812  0.2487 -1.6415 -0.4855
  772MPD2    H311452   4.595   0.002  13.748  1.3772 -2.7807 -1.9831
  772MPD2     N11453   4.358   4.448  14.007 -0.1601  0.1362 -0.0933
  772MPD2    H511454   4.275   4.498  13.976  0.3570  0.6009 -0.7311
  772MPD2    N111455   0.106   4.466  13.996  0.2075 -0.1606 -0.1681
  772MPD2    H711456   0.114   4.409  14.079  2.8928 -2.3579 -1.9214
  773MPD2     C11457   4.526   0.390   0.246  0.6366 -1.0975 -0.7067
  773MPD2    C111458   4.494   0.259   0.207 -0.3404 -0.2218 -0.0563
  773MPD2    C211459   4.587   0.162   0.211 -0.0481 -0.6492 -0.4307
  773MPD2    C311460   4.713   0.188   0.261 -0.5001 -0.2717 -0.0580
  773MPD2    C411461   0.006   0.314   0.295  0.4092  0.9536  0.4246
  773MPD2    C511462   4.653   0.417   0.286  0.3662  0.5762 -0.1720
  773MPD2     H11463   4.563   0.067   0.165 -1.9437 -0.6397  0.5314
  773MPD2    H111464   0.103   0.341   0.335  2.0540 -1.3136 -2.0654
  773MPD2    H211465   4.471   0.483   0.236  1.4576 -0.3699  1.4771
  773MPD2    H311466   4.684   0.517   0.314  0.6766  0.7280 -1.0529
  773MPD2     N11467   0.077   0.089   0.254  1.1328 -0.0982  0.0653
  773MPD2    H511468   0.045   4.732   0.233 -2.3865  0.6922  1.8066
  773MPD2    N111469   4.374   0.229   0.145 -0.3353  0.1121  0.2470
  773MPD2    H711470   4.387   0.142   0.094  1.0876  0.1937  0.4798
  774MPD2     C11471   2.961   4.004  13.374 -0.5561 -0.0607  0.0361
  774MPD2    C111472   2.961   4.076  13.491  0.4475 -0.2459 -0.0585
  774MPD2    C211473   2.999   4.211  13.489  0.1031 -0.2271  0.3141
  774MPD2    C311474   3.054   4.273  13.381  0.2209 -1.0228  0.1533
  774MPD2    C411475   3.057   4.196  13.263  0.5441 -0.6466  0.1834
  774MPD2    C511476   3.004   4.065  13.266  0.0342  0.6098 -0.6242
  774MPD2     H11477   2.992   4.270  13.579 -1.6346  2.0439 -1.3239
  774MPD2    H111478   3.107   4.232  13.174 -1.2551  0.1086 -0.5126
  774MPD2    H211479   2.926   3.902  13.362  2.3371 -0.6803 -3.1312
  774MPD2    H311480   3.021   3.998  13.182  2.6971 -0.3978  0.7462
  774MPD2     N11481   3.121   4.392  13.408  0.1365  0.3708 -0.2219
  774MPD2    H511482   3.103   4.434  13.499 -0.9520  0.1412 -0.3254
  774MPD2    N111483   2.923   4.018  13.612  0.6042  0.6225  0.4322
  774MPD2    H711484   2.925   3.917  13.606  0.4654  0.6802 -0.5872
  775MPD2     C11485   4.626   0.848  15.760 -0.2055 -0.2976 -0.9423
  775MPD2    C111486   4.579   0.971  15.808  0.1489 -0.7003 -0.6265
  775MPD2    C211487   4.646   1.088  15.796  0.0718  0.0741 -0.0466
  775MPD2    C311488   0.030   1.088  15.720  0.4526 -0.0052 -0.2009
  775MPD2    C411489   0.074   0.967  15.670 -0.1425  0.8514  0.2393
  775MPD2    C511490   0.010   0.851  15.698 -0.6103  0.4527  0.4314
  775MPD2     H11491   4.602   1.181  15.832  1.5503  0.4312  0.8111
  775MPD2    H111492   0.163   0.962  15.608  0.3580  0.9090  0.9500
  775MPD2    H211493   4.565   0.759  15.753 -1.3021  0.2674  1.6943
  775MPD2    H311494   0.058   0.761  15.660  1.0832  1.4686  0.1272
  775MPD2     N11495   0.104   1.201  15.675  0.1810  0.4092 -0.9372
  775MPD2    H511496   0.168   1.178  15.599  2.4031 -1.3212  1.4475
  775MPD2    N111497   4.453   0.957  15.872  0.0463 -0.0899  0.3847
  775MPD2    H711498   4.410   0.866  15.880  0.7264 -0.7533 -3.6109
  776MPD2     C11499   2.828   1.628  11.752 -0.6793 -0.8219 -0.0639
  776MPD2    C111500   2.957   1.599  11.719  0.1730  0.1682 -0.4521
  776MPD2    C211501   3.013   1.659  11.613 -0.0454 -0.3019 -0.2750
  776MPD2    C311502   2.946   1.741  11.532 -0.6809 -0.5378 -0.5497
  776MPD2    C411503   2.820   1.771  11.576  0.5462 -0.0130  0.0919
  776MPD2    C511504   2.757   1.713  11.681 -1.4913 -0.2366  0.2281
  776MPD2     H11505   3.116   1.644  11.583 -0.0106  0.3287 -0.4738
  776MPD2    H111506   2.760   1.840  11.517 -1.4967 -1.6818  0.2332
  776MPD2    H211507   2.788   1.587  11.844  0.0808 -0.9039  0.2354
  776MPD2    H311508   2.657   1.746  11.708 -1.1274 -0.1872  1.5172
  776MPD2     N11509   3.007   1.782  11.411  0.8408 -1.0312  0.2961
  776MPD2    H511510   3.101   1.746  11.403  0.4903 -1.5402 -1.7396
  776MPD2    N111511   3.025   1.495  11.788  0.3152  0.4065 -0.5043
  776MPD2    H711512   2.964   1.444  11.852  2.3765 -0.9647  0.3668
  777MPD2     C11513   0.088   3.907   0.671 -0.4974 -0.1261  0.2769
  777MPD2    C111514   0.154   3.824   0.761 -0.5176 -0.2485 -0.3560
  777MPD2    C211515   0.173   3.688   0.726 -0.1748 -0.1225  0.4632
  777MPD2    C311516   0.112   3.641   0.607  0.4290 -0.6277  0.5526
  777MPD2    C411517   0.057   3.731   0.523  0.1094  0.4254 -0.1729
  777MPD2    C511518   0.038   3.860   0.552 -0.6154 -0.2619 -0.0607
  777MPD2     H11519   0.201   3.612   0.798  0.3719 -0.5201 -0.1702
  777MPD2    H111520   0.028   3.701   0.422  0.7691  0.1724 -0.2830
  777MPD2    H211521   0.067   4.012   0.688  2.3874  0.5939 -0.5626
  777MPD2    H311522   4.718   3.921   0.483  1.1225 -0.2021 -1.4576
  777MPD2     N11523   0.136   3.507   0.571 -0.4721  0.6794 -0.0880
  777MPD2    H511524   0.186   3.452   0.641  0.2108  0.9879 -0.3402
  777MPD2    N111525   0.186   3.889   0.883 -0.0208 -0.4834 -0.2828
  777MPD2    H711526   0.163   3.987   0.899  2.6398 -0.0634  1.0764
  778MPD2     C11527   0.337   3.953  15.026 -0.1154  0.4111 -0.0399
  778MPD2    C111528   0.404   3.840  14.978 -0.0062 -0.1951  0.5974
  778MPD2    C211529   0.508   3.862  14.895  0.0571 -0.1401 -0.8418
  778MPD2    C311530   0.573   3.984  14.881 -0.4026 -0.7752  0.2040
  778MPD2    C411531   0.507   4.096  14.930  0.2697 -0.1064 -0.3703
  778MPD2    C511532   0.383   4.078  14.997 -0.4693 -0.1808  0.6633
  778MPD2     H11533   0.562   3.777  14.855  0.0711 -0.4604 -0.1360
  778MPD2    H111534   0.551   4.195  14.928  1.1216 -0.4733  0.1478
  778MPD2    H211535   0.252   3.947  15.093  0.8462  0.2689  1.1796
  778MPD2    H311536   0.324   4.162  15.030  1.4340  0.3208  2.7412
  778MPD2     N11537   0.695   3.988  14.808 -0.0818  0.2290  0.6565
  778MPD2    H511538   0.750   3.903  14.802 -0.5224 -0.0464  0.5434
  778MPD2    N111539   0.378   3.709  15.015 -0.8509 -0.6172  0.0934
  778MPD2    H711540   0.423   3.631  14.969 -0.7760  0.2402 -1.2669
  779MPD2     C11541   0.111   2.785  13.485 -0.1124 -0.0566  0.5218
  779MPD2    C111542   0.066   2.803  13.618 -0.1230 -0.9384  0.5532
  779MPD2    C211543   0.098   2.917  13.687 -0.2197 -0.0814  0.6221
  779MPD2    C311544   0.159   3.020  13.627  0.2808 -0.4143 -0.4725
  779MPD2    C411545   0.186   3.018  13.491 -0.1886 -0.0231  0.5043
  779MPD2    C511546   0.169   2.893  13.428  0.2647  0.5177 -0.4729
  779MPD2     H11547   0.072   2.924  13.792  3.0960 -1.6556  1.5491
  779MPD2    H111548   0.241   3.099  13.443 -1.3106  0.5319  0.1428
  779MPD2    H211549   0.100   2.694  13.427 -0.6086  0.2067  0.2075
  779MPD2    H311550   0.204   2.889  13.325  0.3689 -0.4590 -0.3985
  779MPD2     N11551   0.201   3.129  13.717 -0.3011 -0.6408  0.3083
  779MPD2    H511552   0.179   3.108  13.814  0.4122 -0.7845  0.4408
  779MPD2    N111553   0.001   2.701  13.691  0.4521 -0.0984 -0.2041
  779MPD2    H711554   4.736   2.708  13.792  2.3720  0.4083 -0.1937
  780MPD2     C11555   4.315   2.421   0.717  0.2127 -0.3115  0.4490
  780MPD2    C111556   4.291   2.407   0.582  0.3481  0.0410 -0.5460
  780MPD2    C211557   4.398   2.429   0.494  0.1485  0.5810  0.1790
  780MPD2    C311558   4.518   2.472   0.536  0.3615  0.1385 -0.2841
  780MPD2    C411559   4.543   2.480   0.671 -0.5157 -0.5352  0.3622
  780MPD2    C511560   4.445   2.460   0.766 -0.0472 -0.1116  0.5859
  780MPD2     H11561   4.388   2.410   0.388  2.0552 -0.4524  0.1781
  780MPD2    H111562   4.645   2.496   0.704  0.2337  0.6110 -2.5216
  780MPD2    H211563   4.239   2.393   0.789  1.5569  0.0592  2.0084
  780MPD2    H311564   4.471   2.469   0.871  2.8045  0.0040 -0.1212
  780MPD2     N11565   4.623   2.496   0.439 -0.0731  0.9267 -0.0736
  780MPD2    H511566   4.602   2.479   0.341 -0.1678 -0.6532  0.2180
  780MPD2    N111567   4.167   2.360   0.536  0.2904  0.1833  0.4824
  780MPD2    H711568   4.100   2.331   0.606 -3.1852  3.1468 -1.6099
  781MPD2     C11569   1.679   4.490  12.499 -0.0827  0.1424 -0.0013
  781MPD2    C111570   1.561   4.422  12.477 -0.0206 -0.3552  0.5220
  781MPD2    C211571   1.481   4.463  12.375 -0.5536  0.2011  0.3466
  781MPD2    C311572   1.514   4.578  12.295  0.3502  0.4508  0.2870
  781MPD2    C411573   1.620   4.658  12.333  0.7580 -0.1063 -0.0829
  781MPD2    C511574   1.705   4.610  12.426 -0.2566  0.2321 -0.1712
  781MPD2     H11575   1.387   4.411  12.359 -0.6246  0.5540 -0.3754
  781MPD2    H111576   1.641   0.014  12.281 -0.1039  0.7689  1.1531
  781MPD2    H211577   1.745   4.471  12.583 -0.4423  1.1241  0.4999
  781MPD2    H311578   1.788   4.677  12.444  1.4279 -1.7136 -0.6707
  781MPD2     N11579   1.447   4.626  12.178 -0.2236  0.1892 -0.4764
  781MPD2    H511580   1.462   4.722  12.148  1.0721 -0.5013 -1.9964
  781MPD2    N111581   1.518   4.311  12.551 -0.0749 -0.3010 -0.0608
  781MPD2    H711582   1.428   4.273  12.524  0.0474  0.4619 -1.5075
  782MPD2     C11583   3.651   0.639  10.212  0.2383  0.0683 -0.3693
  782MPD2    C111584   3.710   0.582  10.321 -0.3211 -0.8084  0.2789
  782MPD2    C211585   3.732   0.654  10.436 -0.0376 -0.8807 -0.3040
  782MPD2    C311586   3.710   0.789  10.428  0.0301  0.3640 -0.1351
  782MPD2    C411587   3.668   0.853  10.310  0.5034 -1.0411  0.9847
  782MPD2    C511588   3.638   0.777  10.209 -0.2562  0.2644 -0.1335
  782MPD2     H11589   3.776   0.609  10.525  1.8108  0.7010 -0.4021
  782MPD2    H111590   3.662   0.962  10.307  0.7260 -1.0233  1.1764
  782MPD2    H211591   3.638   0.586  10.119 -1.0245  0.4868 -0.4276
  782MPD2    H311592   3.606   0.813  10.112 -0.7592  0.7990  0.2344
  782MPD2     N11593   3.758   0.870  10.534 -0.1735  0.0236 -0.9466
  782MPD2    H511594   3.775   0.969  10.524  2.0066 -0.4051 -1.4759
  782MPD2    N111595   3.743   0.442  10.327  0.2081 -0.0961  0.2859
  782MPD2    H711596   3.765   0.410  10.421 -1.9477 -0.0610  0.8001
  783MPD2     C11597   3.472   4.717  10.978 -0.1673  0.0088 -0.2578
  783MPD2    C111598   3.527   0.104  10.971  0.9042  0.6516  0.8693
  783MPD2    C211599   3.606   0.137  10.862  0.1757 -0.1398  0.0819
  783MPD2    C311600   3.631   0.046  10.760 -0.3762  0.1397  0.3282
  783MPD2    C411601   3.577   4.657  10.768 -1.0599  0.3371  0.2419
  783MPD2    C511602   3.497   4.627  10.874 -0.7561 -0.1425  0.4500
  783MPD2     H11603   3.659   0.231  10.857 -1.6884  0.8905 -0.3620
  783MPD2    H111604   3.584   4.588  10.685 -0.2093 -0.2094  0.7641
  783MPD2    H211605   3.413   4.684  11.063 -1.8758  0.7863 -1.1398
  783MPD2    H311606   3.450   4.531  10.862  0.6331 -0.2003 -4.1919
  783MPD2     N11607   3.706   0.093  10.650 -0.0229 -0.0686  0.2144
  783MPD2    H511608   3.724   0.193  10.641 -2.0248  0.4292  1.7693
  783MPD2    N111609   3.486   0.181  11.078 -0.0006 -0.5230  0.0112
  783MPD2    H711610   3.417   0.136  11.137  0.1260 -2.2424 -1.1572
  784MPD2     C11611   2.502   0.390   0.515 -0.0335 -0.4093  0.1262
  784MPD2    C111612   2.491   0.465   0.626 -0.4724 -0.1109 -0.3337
  784MPD2    C211613   2.375   0.535   0.649  0.7122 -0.0042 -0.0185
  784MPD2    C311614   2.267   0.530   0.566 -0.5718 -0.0919 -0.0907
  784MPD2    C411615   2.280   0.446   0.455 -0.0778 -0.3170  0.3376
  784MPD2    C511616   2.395   0.382   0.428 -0.3862 -0.0987  0.3443
  784MPD2     H11617   2.362   0.589   0.741 -0.4463 -2.0748  1.0236
  784MPD2    H111618   2.206   0.442   0.376  1.0455 -0.5142 -0.7232
  784MPD2    H211619   2.593   0.339   0.484  1.2704  0.5562  2.3854
  784MPD2    H311620   2.411   0.345   0.328 -1.7261  2.2401 -0.7307
  784MPD2     N11621   2.147   0.587   0.614  0.2743 -0.4030 -0.0281
  784MPD2    H511622   2.160   0.625   0.707 -0.7986  1.9527 -0.8598
  784MPD2    N111623   2.583   0.463   0.736 -0.5462 -0.5640 -0.6523
  784MPD2    H711624   2.553   0.520   0.814 -2.9631 -0.2189 -1.8221
  785MPD2     C11625   1.608   4.313  10.903 -0.7217  0.1639 -0.0789
  785MPD2    C111626   1.481   4.335  10.939 -0.3415  0.1793  0.1016
  785MPD2    C211627   1.393   4.226  10.925  0.1709  0.6025 -0.1188
  785MPD2    C311628   1.429   4.110  10.865  0.0228 -0.7119 -0.4946
  785MPD2    C411629   1.564   4.093  10.829 -0.3579 -0.1469 -0.5918
  785MPD2    C511630   1.656   4.191  10.849  0.6326 -0.6540 -0.0612
  785MPD2     H11631   1.287   4.240  10.944  0.1095  1.8467 -1.3107
  785MPD2    H111632   1.590   4.007  10.769  1.2417 -0.0158 -0.0885
  785MPD2    H211633   1.681   4.393  10.906 -2.0039  1.3434 -0.7952
  785MPD2    H311634   1.760   4.182  10.820  1.1516 -1.8536  2.1529
  785MPD2     N11635   1.338   4.008  10.837  0.3056 -0.2509 -0.2643
  785MPD2    H511636   1.239   4.026  10.845  0.3683 -0.2619  0.5652
  785MPD2    N111637   1.438   4.467  10.982 -0.0049  0.1894 -0.4467
  785MPD2    H711638   1.506   4.543  10.979 -0.1002  0.3036  0.3001
  786MPD2     C11639   0.413   1.805  14.879  0.5787  0.6503  0.3836
  786MPD2    C111640   0.539   1.835  14.832  0.0203 -1.2030  0.2027
  786MPD2    C211641   0.639   1.884  14.916 -0.3221 -0.2975 -0.2243
  786MPD2    C311642   0.611   1.908  15.048 -0.6216  0.3710  0.0030
  786MPD2    C411643   0.486   1.880  15.094  0.4958 -0.1913 -0.0359
  786MPD2    C511644   0.392   1.828  15.013 -0.3940  0.0961  0.0604
  786MPD2     H11645   0.733   1.903  14.865 -0.5099 -1.2571 -0.9387
  786MPD2    H111646   0.448   1.893  15.195  1.7108  0.4457  0.3465
  786MPD2    H211647   0.334   1.758  14.823 -0.8749  4.2028 -0.5318
  786MPD2    H311648   0.294   1.809  15.056 -0.2112  1.3113  1.0369
  786MPD2     N11649   0.706   1.957  15.144  0.2689  0.4168  0.1870
  786MPD2    H511650   0.680   1.989  15.237 -1.7428  0.2185 -0.3018
  786MPD2    N111651   0.582   1.821  14.694  0.6358 -0.0109  0.1354
  786MPD2    H711652   0.678   1.826  14.661 -0.5593 -1.2708 -3.4495
  787MPD2     C11653   0.957   1.325  14.678  0.2253 -1.3407 -0.3103
  787MPD2    C111654   0.916   1.336  14.543 -0.6742 -0.0173  0.2110
  787MPD2    C211655   0.969   1.235  14.455 -0.4981  0.3878 -0.1302
  787MPD2    C311656   1.042   1.124  14.502  0.4205  0.1230 -0.2624
  787MPD2    C411657   1.073   1.126  14.638 -0.1333  0.5025  0.5313
  787MPD2    C511658   1.028   1.222  14.724 -0.1918  0.1939  0.3882
  787MPD2     H11659   0.941   1.233  14.350 -0.2540  1.4691 -0.2146
  787MPD2    H111660   1.129   1.045  14.683 -1.0958 -0.4460  0.0240
  787MPD2    H211661   0.934   1.398  14.755 -2.1412 -1.8619 -0.5195
  787MPD2    H311662   1.040   1.221  14.832 -1.7383 -0.0273  0.5636
  787MPD2     N11663   1.085   1.036  14.405 -0.0574 -0.2684 -0.5292
  787MPD2    H511664   1.055   1.060  14.311 -2.2119  2.7000  0.9350
  787MPD2    N111665   0.828   1.443  14.504  0.5328 -0.1151  0.3623
  787MPD2    H711666   0.804   1.503  14.582  0.2196 -1.0351  0.9617
  788MPD2     C11667   3.144   0.400   0.914  0.1437  0.8658 -0.1712
  788MPD2    C111668   3.172   0.315   0.811 -0.0050 -0.1436 -0.8396
  788MPD2    C211669   3.157   0.357   0.681  0.1474  0.1381  0.0777
  788MPD2    C311670   3.101   0.482   0.649 -0.7182 -0.0936  0.4633
  788MPD2    C411671   3.072   0.565   0.758  0.1353  0.0299  0.7845
  788MPD2    C511672   3.096   0.523   0.881 -0.6140  0.0095  0.0782
  788MPD2     H11673   3.190   0.285   0.607 -3.7243  0.3268 -1.8027
  788MPD2    H111674   3.027   0.663   0.751 -2.2620 -1.1657 -0.7347
  788MPD2    H211675   3.156   0.374   1.018 -0.6052  0.7424 -0.1120
  788MPD2    H311676   3.088   0.597   0.960  0.6383  0.4401 -0.1911
  788MPD2     N11677   3.074   0.517   0.516  0.1561  0.6197  0.4609
  788MPD2    H511678   3.013   0.596   0.501 -0.2130 -0.0028 -1.3102
  788MPD2    N111679   3.206   0.177   0.829  0.5076  0.1072  0.2927
  788MPD2    H711680   3.222   0.128   0.742 -0.0107 -0.0695  0.2984
  789MPD2     C11681   3.327   4.106  16.996  0.4801  0.5449 -0.4481
  789MPD2    C111682   3.244   4.121  16.887  0.1478 -0.3829 -0.5319
  789MPD2    C211683   3.181   4.239  16.857  0.0897  0.2121 -0.0105
  789MPD2    C311684   3.221   4.354  16.928 -0.4992 -0.3122 -0.6719
  789MPD2    C411685   3.325   4.344  17.022  0.3069  0.6362  0.2559
  789MPD2    C511686   3.356   4.218  17.064 -0.6482 -0.3837 -0.4312
  789MPD2     H11687   3.098   4.238  16.788 -0.8636 -1.5997  1.1632
  789MPD2    H111688   3.346   4.436  17.076  1.1685  0.2709  0.5334
  789MPD2    H211689   3.372   4.015  17.034  0.2548  1.1328  1.2497
  789MPD2    H311690   3.438   4.205  17.133 -0.0121  1.4388 -0.8401
  789MPD2     N11691   3.153   4.472  16.899 -0.1093 -0.5213 -0.2253
  789MPD2    H511692   3.166   4.552  16.961 -0.1360 -0.6714 -0.0282
  789MPD2    N111693   3.197   4.021  16.808 -0.7345 -0.0744 -0.4103
  789MPD2    H711694   3.141   4.060  16.732  0.6060 -1.1650 -1.9495
  790MPD2     C11695   3.810   1.692  13.637 -0.0613 -0.2277  0.6634
  790MPD2    C111696   3.808   1.561  13.667 -0.0377  0.4319 -0.0070
  790MPD2    C211697   3.744   1.478  13.573 -0.3191 -0.1277 -1.2493
  790MPD2    C311698   3.685   1.530  13.458 -0.0395 -0.2875 -0.7200
  790MPD2    C411699   3.699   1.665  13.434  0.0824  0.3166 -0.2626
  790MPD2    C511700   3.756   1.739  13.525  0.3102 -0.4608  0.3188
  790MPD2     H11701   3.748   1.372  13.595  1.5601  0.2531  0.2597
  790MPD2    H111702   3.657   1.707  13.344 -0.9137  1.0260  0.5313
  790MPD2    H211703   3.854   1.759  13.709 -1.3468  1.2619  0.0612
  790MPD2    H311704   3.756   1.847  13.517 -2.0692 -0.5291 -0.5158
  790MPD2     N11705   3.635   1.434  13.366 -0.8860 -0.1361 -0.3128
  790MPD2    H511706   3.627   1.339  13.401 -2.8910  0.3635  0.5717
  790MPD2    N111707   3.864   1.507  13.783  0.2695  0.5661  0.2973
  790MPD2    H711708   3.940   1.560  13.825  1.5060  0.0319 -1.3038
  791MPD2     C11709   3.082   1.053  12.872 -0.5122 -0.8674  0.2178
  791MPD2    C111710   3.144   1.021  12.996 -0.0615 -0.7318 -0.3942
  791MPD2    C211711   3.066   0.991  13.107  0.1255  0.3804 -0.1620
  791MPD2    C311712   2.929   0.984  13.099 -0.2273  0.4076  0.3788
  791MPD2    C411713   2.875   1.014  12.973  0.9894 -0.5789 -0.2600
  791MPD2    C511714   2.943   1.039  12.857 -0.2914 -0.0345 -0.4126
  791MPD2     H11715   3.111   0.976  13.204  0.6488 -1.8573 -0.7419
  791MPD2    H111716   2.773   0.991  12.946 -0.1387  1.9734  1.8826
  791MPD2    H211717   3.144   1.058  12.783  0.1467  0.0307  0.7393
  791MPD2    H311718   2.890   1.035  12.762 -1.7797 -1.9772  0.5027
  791MPD2     N11719   2.849   0.936  13.202 -0.2702 -0.8250  0.2926
  791MPD2    H511720   2.897   0.889  13.278  0.0294  0.3548  0.8245
  791MPD2    N111721   3.278   1.054  13.003 -0.4176 -0.2816 -0.3689
  791MPD2    H711722   3.327   1.080  12.917  0.2982 -0.7015 -0.0917
  792MPD2     C11723   3.432   1.322  11.317  0.6539  1.1273 -0.2353
  792MPD2    C111724   3.453   1.368  11.185  0.7697  0.1368 -0.6353
  792MPD2    C211725   3.359   1.342  11.088 -0.1419 -0.2020  0.2527
  792MPD2    C311726   3.249   1.264  11.109 -0.2221  0.2352  0.1815
  792MPD2    C411727   3.229   1.213  11.235  0.2823  0.7998  0.2882
  792MPD2    C511728   3.317   1.244  11.339  0.3181 -0.1058  0.2889
  792MPD2     H11729   3.371   1.378  10.987 -0.8782  0.2199  0.3135
  792MPD2    H111730   3.140   1.160  11.269  0.7013 -0.4076 -0.4871
  792MPD2    H211731   3.496   1.335  11.403  1.2229 -0.3027 -0.4430
  792MPD2    H311732   3.300   1.206  11.439  3.2260  0.0336  0.8375
  792MPD2     N11733   3.142   1.238  11.011 -0.7442 -0.7920 -0.5892
  792MPD2    H511734   3.070   1.174  11.042  1.1227 -2.8869 -0.6102
  792MPD2    N111735   3.569   1.447  11.167  0.4646 -0.6713 -0.3780
  792MPD2    H711736   3.632   1.448  11.246  0.7958 -0.3724 -0.6488
  793MPD2     C11737   2.682   1.657  10.210  0.0467  0.1325  0.5524
  793MPD2    C111738   2.795   1.682  10.286 -0.4734  0.3652  0.0320
  793MPD2    C211739   2.831   1.592  10.389 -0.4194  0.0184 -0.0225
  793MPD2    C311740   2.755   1.479  10.415  0.5053 -0.1055  0.0469
  793MPD2    C411741   2.632   1.459  10.345  0.3555 -0.0244 -0.1776
  793MPD2    C511742   2.599   1.549  10.245 -0.2739  0.0923 -0.5295
  793MPD2     H11743   2.926   1.612  10.437 -0.1235  0.2982 -0.7267
  793MPD2    H111744   2.567   1.376  10.370  2.4993 -1.2418  1.3329
  793MPD2    H211745   2.642   1.732  10.142 -0.6876 -2.3976 -1.8357
  793MPD2    H311746   2.507   1.541  10.188 -0.0717  2.4696 -1.1794
  793MPD2     N11747   2.801   1.391  10.518 -0.1145 -0.5933  0.5130
  793MPD2    H511748   2.891   1.421  10.555  0.1250  0.8744 -1.2479
  793MPD2    N111749   2.886   1.786  10.253  0.0911 -0.1839 -0.7624
  793MPD2    H711750   2.961   1.793  10.321  0.3378  0.6147 -1.1203
  794MPD2     C11751   3.728   0.573  17.411  0.6297 -0.6044  0.1241
  794MPD2    C111752   3.789   0.462  17.361  0.1465  0.5265 -0.4738
  794MPD2    C211753   3.747   0.409  17.239  0.1615 -0.8963  0.4943
  794MPD2    C311754   3.653   0.470  17.165 -0.3232 -0.2347  0.3721
  794MPD2    C411755   3.596   0.590  17.208  0.3233 -0.1490  0.1473
  794MPD2    C511756   3.634   0.635  17.329 -0.2793 -0.0708  0.7608
  794MPD2     H11757   3.804   0.321  17.211 -1.0873 -1.0914 -1.4606
  794MPD2    H111758   3.530   0.651  17.146  0.8708 -0.0876 -0.3752
  794MPD2    H211759   3.734   0.614  17.511  0.3384  0.7027 -0.4031
  794MPD2    H311760   3.599   0.729  17.369 -1.1273 -0.7372  1.5911
  794MPD2     N11761   3.609   0.411  17.045  0.5254 -0.0676  0.0340
  794MPD2    H511762   3.537   0.468  17.000 -1.8717 -1.1332  2.5437
  794MPD2    N111763   3.880   0.389  17.435 -0.2156 -0.2669  0.0755
  794MPD2    H711764   3.937   0.319  17.389  1.4024  0.4024  1.0643
  795MPD2     C11765   0.881   3.000  13.629  0.0834 -0.3609  0.0235
  795MPD2    C111766   0.908   2.884  13.558  0.1397 -0.4415  0.0181
  795MPD2    C211767   0.976   2.779  13.616  1.3196  0.0641 -0.1533
  795MPD2    C311768   1.006   2.786  13.750  0.4328 -0.4272 -0.5772
  795MPD2    C411769   0.980   2.903  13.818 -0.7693 -0.8381 -0.1541
  795MPD2    C511770   0.923   3.007  13.758 -0.0357 -0.0788 -0.0339
  795MPD2     H11771   1.001   2.694  13.554 -0.5369  0.9535 -2.1158
  795MPD2    H111772   1.021   2.923  13.916  0.0062 -1.8757 -0.2646
  795MPD2    H211773   0.827   3.078  13.577  1.9298  0.6065 -0.4450
  795MPD2    H311774   0.890   3.093  13.815  1.4226  0.1762  0.4076
  795MPD2     N11775   1.085   2.686  13.802 -0.2456 -0.4699 -0.0137
  795MPD2    H511776   1.121   2.617  13.737  1.8664 -0.1228  0.7690
  795MPD2    N111777   0.869   2.869  13.420  0.2353  0.2667  0.0186
  795MPD2    H711778   0.873   2.779  13.373 -0.3150 -0.0586  0.5965
  796MPD2     C11779   0.756   3.874  16.170 -0.0980 -0.1573  0.0540
  796MPD2    C111780   0.860   3.956  16.213 -0.0780 -0.1954 -0.0308
  796MPD2    C211781   0.838   4.092  16.217 -0.2655  0.3660  0.5239
  796MPD2    C311782   0.713   4.145  16.178 -0.0376 -0.3145 -0.3937
  796MPD2    C411783   0.606   4.058  16.163 -0.1254 -0.4079  0.3824
  796MPD2    C511784   0.635   3.928  16.144  0.5184  0.3202  0.1244
  796MPD2     H11785   0.908   4.167  16.254 -1.0584  0.4471  1.8513
  796MPD2    H111786   0.504   4.084  16.135 -0.6134 -1.2070  1.4411
  796MPD2    H211787   0.780   3.769  16.164  1.9121  0.4654 -3.1974
  796MPD2    H311788   0.551   3.861  16.131 -0.1154  1.2174 -0.3956
  796MPD2     N11789   0.713   4.290  16.161 -0.5425  0.0148 -0.3743
  796MPD2    H511790   0.805   4.332  16.153 -0.6467  0.5480  1.1977
  796MPD2    N111791   0.975   3.889  16.263  0.1993  0.0159 -0.3315
  796MPD2    H711792   0.984   3.788  16.257 -1.6984 -0.1988  0.4305
  797MPD2     C11793   1.777   3.517  17.501  0.2053  0.4192  0.1953
  797MPD2    C111794   1.864   3.610  17.541 -0.2108  0.1793 -0.3872
  797MPD2    C211795   1.937   3.680  17.446  0.3118 -0.3008  0.3602
  797MPD2    C311796   1.909   3.661  17.312 -0.1962  0.4290 -0.4056
  797MPD2    C411797   1.826   3.561  17.273 -0.7614  0.6811  0.0385
  797MPD2    C511798   1.748   3.493  17.366  0.2967 -0.1926  0.4648
  797MPD2     H11799   1.998   3.766  17.470 -1.0526  0.3577  1.5348
  797MPD2    H111800   1.822   3.541  17.166  0.5140  0.2823  0.0672
  797MPD2    H211801   1.724   3.457  17.574 -1.0125  0.4738 -0.6341
  797MPD2    H311802   1.682   3.413  17.334 -0.3796  0.5275  0.0613
  797MPD2     N11803   1.978   3.739  17.217  0.6612  0.2425  0.2699
  797MPD2    H511804   1.959   3.727  17.118 -0.7059  3.4540  0.1234
  797MPD2    N111805   1.883   3.644  17.675 -0.0992  0.1351 -0.3425
  797MPD2    H711806   1.961   3.704  17.699 -0.7280  0.3382  1.1822
  798MPD2     C11807   1.926   4.393  17.542 -0.5055  0.7500 -0.1220
  798MPD2    C111808   1.999   4.283  17.504  0.0411  1.3454  0.3093
  798MPD2    C211809   1.997   4.176  17.596 -0.2169 -0.0439 -0.0234
  798MPD2    C311810   1.921   4.184  17.710  0.1572  0.2607 -0.0481
  798MPD2    C411811   1.850   4.297  17.744 -0.4872  0.2529  0.3429
  798MPD2    C511812   1.853   4.399  17.661  0.0686 -0.4516 -0.1278
  798MPD2     H11813   2.041   4.080  17.568  0.0657 -0.2668  1.2016
  798MPD2    H111814   1.803   4.310   0.093  1.6494 -0.0163  1.3947
  798MPD2    H211815   1.929   4.490  17.493 -0.0867 -0.0184 -1.6362
  798MPD2    H311816   1.810   4.491  17.700 -0.4078 -0.7234 -0.0196
  798MPD2     N11817   1.920   4.075   0.049 -0.0487  0.7165  0.1629
  798MPD2    H511818   1.979   3.995   0.027 -1.5169  0.2457 -2.0273
  798MPD2    N111819   2.066   4.266  17.381  0.6335 -0.6429 -0.1828
  798MPD2    H711820   2.032   4.318  17.301 -0.4956  0.2574  0.8777
  799MPD2     C11821   0.532   1.051  14.447  0.0559 -0.1357  0.1357
  799MPD2    C111822   0.466   0.949  14.376 -0.2118  0.3865  0.0770
  799MPD2    C211823   0.439   0.954  14.241 -0.1987  0.2575 -0.0226
  799MPD2    C311824   0.473   1.069  14.173 -0.3567 -0.1721 -0.0065
  799MPD2    C411825   0.527   1.177  14.239 -0.4582 -0.2408  0.4991
  799MPD2    C511826   0.553   1.167  14.377  0.4426 -0.9153 -0.0035
  799MPD2     H11827   0.387   0.872  14.192  0.3105 -0.4152  0.5570
  799MPD2    H111828   0.541   1.271  14.186 -0.6562 -0.9028 -0.7210
  799MPD2    H211829   0.550   1.053  14.554  0.0310 -0.5745  0.1497
  799MPD2    H311830   0.591   1.250  14.436 -1.1711 -1.3092  1.5722
  799MPD2     N11831   0.450   1.091  14.032 -0.0170  0.7293  0.1504
  799MPD2    H511832   0.481   1.179  13.993 -0.0249  0.4749 -0.4242
  799MPD2    N111833   0.425   0.831  14.434 -0.1863 -0.0773 -0.6620
  799MPD2    H711834   0.355   0.782  14.378 -0.1084 -0.9915  0.0401
  800MPD2     C11835   1.163   2.198  14.869 -0.1839  0.4649  1.1831
  800MPD2    C111836   1.266   2.121  14.815  0.0176  0.2472  0.0796
  800MPD2    C211837   1.239   2.011  14.735  0.3622  0.0384 -0.5525
  800MPD2    C311838   1.107   1.974  14.706  0.3584 -0.0041  0.3997
  800MPD2    C411839   1.004   2.037  14.781  0.1649 -0.3222 -0.3386
  800MPD2    C511840   1.035   2.149  14.857 -0.1013  0.8482 -0.3530
  800MPD2     H11841   1.331   1.973  14.692 -0.8497 -0.3876 -2.7591
  800MPD2    H111842   0.900   2.009  14.768 -0.0137 -0.1326  0.6416
  800MPD2    H211843   1.184   2.289  14.924  2.5171  0.4787  0.1377
  800MPD2    H311844   0.960   2.210  14.906  0.9898  1.0319  1.0761
  800MPD2     N11845   1.086   1.874  14.613 -0.4147  0.4450  0.3032
  800MPD2    H511846   1.169   1.832  14.572 -0.9707 -1.4138  1.0869
  800MPD2    N111847   1.394   2.169  14.826 -0.6496 -0.1870  0.1359
  800MPD2    H711848   1.396   2.267  14.854  1.3553 -0.2790  0.3424
  801MPD2     C11849   1.368   2.596  14.377 -0.0676 -0.2708 -0.0648
  801MPD2    C111850   1.354   2.516  14.490  1.0422 -0.6005  0.7577
  801MPD2    C211851   1.236   2.504  14.556 -0.1250  0.0650 -0.0201
  801MPD2    C311852   1.122   2.569  14.498  0.1602 -0.3638  0.0127
  801MPD2    C411853   1.130   2.635  14.378 -0.0223  0.0408 -0.0464
  801MPD2    C511854   1.258   2.652  14.323  0.5829  0.4052 -0.0801
  801MPD2     H11855   1.227   2.439  14.642 -0.3365  0.4543  0.2486
  801MPD2    H111856   1.049   2.688  14.330  1.5179  1.8378 -0.6880
  801MPD2    H211857   1.464   2.612  14.329 -1.4641  4.0600 -1.4583
  801MPD2    H311858   1.264   2.713  14.234  1.2601 -0.1202 -0.3952
  801MPD2     N11859   1.002   2.555  14.563  0.2510  0.8088 -0.0622
  801MPD2    H511860   0.917   2.582  14.514 -1.0240 -0.7495  1.3153
  801MPD2    N111861   1.454   2.451  14.563 -0.0947 -0.0030 -0.0606
  801MPD2    H711862   1.428   2.409  14.652  0.3431  0.5097  0.3086
  802MPD2     C11863   1.040   3.380   0.547  0.0363  0.8474 -0.5231
  802MPD2    C111864   0.999   3.331   0.423  0.9561  0.6088 -0.2289
  802MPD2    C211865   1.060   3.218   0.367  0.2032 -0.4193  0.0621
  802MPD2    C311866   1.175   3.170   0.429  0.2056  0.7183  0.6342
  802MPD2    C411867   1.213   3.216   0.552 -0.0220  0.1332 -0.1884
  802MPD2    C511868   1.142   3.318   0.611 -0.1122  0.1448  0.0288
  802MPD2     H11869   1.039   3.178   0.268 -1.3221 -1.2865  0.7337
  802MPD2    H111870   1.303   3.175   0.597  0.4476  0.4301 -0.8553
  802MPD2    H211871   0.997   3.471   0.587 -0.7760 -0.9577  2.7020
  802MPD2    H311872   1.185   3.360   0.701  2.7386  0.7706 -1.6031
  802MPD2     N11873   1.243   3.072   0.354 -0.1558  0.5474 -0.3735
  802MPD2    H511874   1.192   3.049   0.269 -2.0044  1.5078  0.4685
  802MPD2    N111875   0.897   3.390   0.345  0.1821 -0.4466 -0.4142
  802MPD2    H711876   0.852   3.334   0.273 -2.7811  2.2468 -0.6611
  803MPD2     C11877   1.467   0.798  12.168  0.7846  1.3599 -0.3676
  803MPD2    C111878   1.502   0.905  12.245  0.3821 -0.2046 -0.5399
  803MPD2    C211879   1.525   0.887  12.382  0.1145  0.2196  0.5218
  803MPD2    C311880   1.520   0.762  12.442 -0.3003 -0.6557  0.3619
  803MPD2    C411881   1.478   0.661  12.360 -0.0949 -0.4801 -0.1775
  803MPD2    C511882   1.446   0.680  12.228 -0.7474 -0.3065  0.2584
  803MPD2     H11883   1.557   0.972  12.441  0.5282 -0.6691  1.5830
  803MPD2    H111884   1.467   0.563  12.404  2.4435 -0.0028  1.5273
  803MPD2    H211885   1.454   0.807  12.061  2.5249  0.4908 -0.6602
  803MPD2    H311886   1.428   0.595  12.163 -3.7228  2.7304 -2.8640
  803MPD2     N11887   1.551   0.742  12.579 -0.0246 -0.1929 -0.7382
  803MPD2    H511888   1.539   0.644  12.607  1.1285  0.4422  2.0330
  803MPD2    N111889   1.523   1.036  12.195 -0.3555  0.0230 -0.5522
  803MPD2    H711890   1.558   1.101  12.265 -1.3733 -2.0100  1.8559
  804MPD2     C11891   1.409   2.362  17.106  0.4674 -0.5218 -0.1687
  804MPD2    C111892   1.434   2.317  17.228 -0.0721  0.6011 -0.2423
  804MPD2    C211893   1.488   2.406  17.331 -0.1508  1.0241 -0.1928
  804MPD2    C311894   1.529   2.532  17.294 -0.0102  0.0085  0.2480
  804MPD2    C411895   1.502   2.576  17.167  0.0903  0.4631 -0.8867
  804MPD2    C511896   1.444   2.493  17.077 -0.3307 -0.2113 -0.1514
  804MPD2     H11897   1.508   2.368  17.431 -0.2618 -1.2563 -1.0515
  804MPD2    H111898   1.498   2.682  17.145 -1.1331  0.4583 -0.7000
  804MPD2    H211899   1.355   2.303  17.032 -0.3081 -0.0241  0.0018
  804MPD2    H311900   1.425   2.533  16.979 -0.0934  0.9344  0.2622
  804MPD2     N11901   1.600   2.608  17.385  0.6105 -0.3765  0.0638
  804MPD2    H511902   1.619   2.566  17.475  0.5740 -1.8147 -0.6058
  804MPD2    N111903   1.406   2.187  17.270  0.3295 -0.0790  0.1043
  804MPD2    H711904   1.421   2.171  17.369  0.3113 -3.4879 -0.4572
  805MPD2     C11905   0.711   0.927  15.806 -0.6410 -0.2990 -0.3878
  805MPD2    C111906   0.818   0.927  15.722  0.3235 -0.3220 -0.9299
  805MPD2    C211907   0.935   0.972  15.771  0.2661 -0.0133 -0.3209
  805MPD2    C311908   0.953   1.022  15.898  0.5938 -0.4911  0.0704
  805MPD2    C411909   0.838   1.028  15.978  0.1784  0.0604 -0.5739
  805MPD2    C511910   0.720   0.977  15.929 -0.1852  0.0223 -1.1009
  805MPD2     H11911   1.023   0.959  15.710  0.6121  2.1220 -0.2714
  805MPD2    H111912   0.839   1.076  16.075  1.9494 -0.8282 -0.1429
  805MPD2    H211913   0.613   0.895  15.773 -0.6137  0.1711 -0.9222
  805MPD2    H311914   0.636   0.976  15.997  0.9465 -0.4414  0.2906
  805MPD2     N11915   1.086   1.045  15.934 -0.4378 -0.1153 -0.2466
  805MPD2    H511916   1.154   1.045  15.858 -1.6788 -0.5586 -1.3685
  805MPD2    N111917   0.818   0.873  15.592 -0.6281 -0.4616  0.1192
  805MPD2    H711918   0.906   0.876  15.542 -0.0902 -0.9111  1.0420
  806MPD2     C11919   1.155   0.462   0.810 -0.3528 -0.6344 -0.3044
  806MPD2    C111920   1.284   0.435   0.804  0.6501  0.7609  0.1203
  806MPD2    C211921   1.333   0.407   0.676 -1.0452  0.1620  0.2275
  806MPD2    C311922   1.254   0.414   0.566 -0.0410  0.4794  0.0857
  806MPD2    C411923   1.120   0.445   0.571 -0.6065 -0.5978  0.3461
  806MPD2    C511924   1.077   0.466   0.698  0.2527  0.0363  0.0160
  806MPD2     H11925   1.440   0.387   0.671 -1.3608 -1.1615 -1.1347
  806MPD2    H111926   1.043   0.449   0.496 -1.0323 -0.0951  0.8115
  806MPD2    H211927   1.112   0.494   0.904  1.7314 -0.3065  0.5251
  806MPD2    H311928   0.972   0.492   0.712 -0.3038 -1.4485 -1.3551
  806MPD2     N11929   1.319   0.384   0.443  0.5804 -0.1422  0.8418
  806MPD2    H511930   1.420   0.381   0.440  0.5905 -0.4665  1.6417
  806MPD2    N111931   1.356   0.427   0.925  0.4457  0.3264  0.5891
  806MPD2    H711932   1.309   0.442   1.014 -1.1617  1.5958 -0.4589
  807MPD2     C11933   1.403   0.631   1.660  0.3234 -0.6745 -0.6488
  807MPD2    C111934   1.328   0.574   1.560 -0.8803 -0.4208 -0.3487
  807MPD2    C211935   1.192   0.553   1.579 -0.1559  0.8864  0.2326
  807MPD2    C311936   1.134   0.587   1.701 -0.9513 -0.0698 -0.0001
  807MPD2    C411937   1.211   0.638   1.807 -0.0485 -0.0221 -0.0848
  807MPD2    C511938   1.343   0.671   1.776 -0.1073 -0.7021 -0.2536
  807MPD2     H11939   1.132   0.503   1.504  0.1115 -1.6613  1.7012
  807MPD2    H111940   1.162   0.681   1.893  0.9738  2.9597 -1.0091
  807MPD2    H211941   1.510   0.639   1.649  0.7949 -0.8548  3.9589
  807MPD2    H311942   1.402   0.729   1.846 -0.9103 -0.5131  0.2588
  807MPD2     N11943   0.991   0.575   1.716 -0.4967  0.2084  0.1086
  807MPD2    H511944   0.940   0.544   1.633 -0.4441 -1.6214  0.7462
  807MPD2    N111945   1.388   0.529   1.431 -0.3405  0.5990 -0.2424
  807MPD2    H711946   1.345   0.456   1.375  0.4498  1.6897 -2.2663
  808MPD2     C11947   1.483   1.778  10.485  0.2512  0.4391  0.0783
  808MPD2    C111948   1.355   1.846  10.517 -0.0826 -0.0664 -0.2874
  808MPD2    C211949   1.354   1.980  10.554  0.1077  0.5601  0.1473
  808MPD2    C311950   1.474   2.050  10.553  0.2666  0.1475 -0.5274
  808MPD2    C411951   1.588   1.979  10.531  0.5990  0.0285  0.0255
  808MPD2    C511952   1.594   1.848  10.503 -0.1230 -0.2522 -0.5040
  808MPD2     H11953   1.257   2.025  10.572  0.9125  2.3878 -0.0804
  808MPD2    H111954   1.677   2.036  10.550 -0.2828  1.4593 -0.1140
  808MPD2    H211955   1.485   1.674  10.457  4.6772  0.8696 -1.2742
  808MPD2    H311956   1.690   1.800  10.486  0.6008  1.3417 -0.9460
  808MPD2     N11957   1.485   2.187  10.595  0.4101  0.2862  0.1987
  808MPD2    H511958   1.574   2.237  10.595  0.3836  0.3296  1.3592
  808MPD2    N111959   1.239   1.768  10.504 -0.5956 -0.3751 -0.3578
  808MPD2    H711960   1.245   1.672  10.471  0.9796 -0.7208  0.9533
  809MPD2     C11961   1.679   2.976  10.082  0.0469 -0.0728 -0.0358
  809MPD2    C111962   1.713   2.843  10.091  1.1395 -0.2237  0.3760
  809MPD2    C211963   1.681   2.776  10.210  0.1210  0.7499  0.3822
  809MPD2    C311964   1.611   2.846  10.307 -0.0339 -0.3264 -0.7910
  809MPD2    C411965   1.569   2.977  10.293  0.0340  0.2447  0.1847
  809MPD2    C511966   1.603   3.040  10.178  0.0780  0.0000  0.2994
  809MPD2     H11967   1.716   2.674  10.221 -0.8169  0.5214  1.2171
  809MPD2    H111968   1.499   3.021  10.364 -2.6069 -0.8373 -1.7604
  809MPD2    H211969   1.706   3.038   9.998  1.8810  0.2266  0.7891
  809MPD2    H311970   1.565   3.138  10.154  0.8940  0.1085 -0.5201
  809MPD2     N11971   1.573   2.779  10.422 -0.6511 -0.2518 -0.3389
  809MPD2    H511972   1.520   2.836  10.487  1.6139  1.7935 -0.3342
  809MPD2    N111973   1.780   2.778   9.985  0.1890 -0.3911 -0.0631
  809MPD2    H711974   1.794   2.680  10.004  0.4924 -0.0207  1.5663
  810MPD2     C11975   1.027   1.513  10.745  0.2432 -0.1805  0.0807
  810MPD2    C111976   0.908   1.452  10.794 -0.2420  0.0647  0.7508
  810MPD2    C211977   0.836   1.514  10.896  0.4439 -0.9674  0.5674
  810MPD2    C311978   0.865   1.635  10.943  0.5219  0.3249 -0.5989
  810MPD2    C411979   0.982   1.698  10.892 -0.6626  1.1216 -0.3262
  810MPD2    C511980   1.055   1.637  10.792  0.2379 -0.1275  0.0284
  810MPD2     H11981   0.749   1.460  10.930  0.0097 -1.1043 -0.7520
  810MPD2    H111982   1.017   1.797  10.920  0.5461  0.3561  0.9044
  810MPD2    H211983   1.083   1.462  10.667 -1.0275 -1.2703 -0.1203
  810MPD2    H311984   1.149   1.679  10.761 -0.1507  1.5470  1.1269
  810MPD2     N11985   0.798   1.711  11.045  0.1817 -0.7497  0.2017
  810MPD2    H511986   0.840   1.799  11.073 -0.7443  0.5550 -2.5550
  810MPD2    N111987   0.866   1.333  10.730 -0.5451 -0.5675  0.7854
  810MPD2    H711988   0.899   1.323  10.635 -1.5670 -0.0219  0.3754
  811MPD2     C11989   0.279   1.281  10.115 -0.4727 -0.1441 -0.7605
  811MPD2    C111990   0.378   1.340  10.189 -0.5879 -0.0735  0.6975
  811MPD2    C211991   0.394   1.475  10.173  0.0315  0.0456 -0.6198
  811MPD2    C311992   0.325   1.553  10.091  1.0463  0.4445 -0.6921
  811MPD2    C411993   0.234   1.484  10.007  0.2155  0.4030 -0.7185
  811MPD2    C511994   0.211   1.353  10.025 -0.2213 -0.6087  0.0672
  811MPD2     H11995   0.461   1.529  10.238  0.7554 -2.7639  0.9802
  811MPD2    H111996   0.172   1.534   9.934  0.4708  1.5962 -0.1276
  811MPD2    H211997   0.242   1.180  10.128 -0.1784 -0.3660 -1.6390
  811MPD2    H311998   0.132   1.305   9.967 -1.5551  0.4702  0.9911
  811MPD2     N11999   0.347   1.696  10.087 -0.4232  0.2188  0.5977
  811MPD2    H512000   0.425   1.727  10.144  0.4209 -0.7612 -0.0211
  811MPD2    N112001   0.428   1.262  10.292 -0.0837  0.2340  0.1649
  811MPD2    H712002   0.391   1.168  10.304  0.6271 -0.1444 -0.5734
  812MPD2     C12003   4.339   1.462  12.102  0.2386  0.1261 -0.3708
  812MPD2    C112004   4.206   1.498  12.126  0.4923  0.2432 -0.6952
  812MPD2    C212005   4.140   1.436  12.224  0.2079 -0.0352 -0.3723
  812MPD2    C312006   4.204   1.338  12.306 -0.1081 -0.2946  0.5415
  812MPD2    C412007   4.337   1.306  12.291 -0.0134 -0.0189 -0.4540
  812MPD2    C512008   4.397   1.365  12.183 -0.1006 -0.1866 -0.5194
  812MPD2     H12009   4.035   1.453  12.248  0.5180 -2.1114  2.4554
  812MPD2    H112010   4.398   1.231  12.341 -0.8321  2.0186  3.6444
  812MPD2    H212011   4.397   1.512  12.026 -1.7821  2.4855 -0.3761
  812MPD2    H312012   4.495   1.322  12.162  0.2165  0.5932 -0.6509
  812MPD2     N12013   4.139   1.296  12.425  0.0265  0.2366 -0.0294
  812MPD2    H512014   4.049   1.335  12.450 -0.1502  0.4333 -0.9985
  812MPD2    N112015   4.150   1.603  12.046  0.2426  0.4100  0.0067
  812MPD2    H712016   4.209   1.676  12.008  1.2867 -0.7603 -0.6044
  813MPD2     C12017   2.992   3.001  12.988  0.9444 -0.2641 -0.3062
  813MPD2    C112018   3.068   3.042  13.094 -0.2450 -0.4883 -0.2039
  813MPD2    C212019   3.010   3.041  13.220  0.3163 -0.4426 -0.0220
  813MPD2    C312020   2.876   3.011  13.240  0.3725 -0.1169 -0.1915
  813MPD2    C412021   2.794   2.987  13.131 -0.1545 -0.5287  0.2580
  813MPD2    C512022   2.853   2.976  13.008  0.0748 -0.2611  0.0904
  813MPD2     H12023   3.069   3.081  13.302 -0.3040  0.1908  0.1193
  813MPD2    H112024   2.687   2.993  13.144 -0.4525  1.1540 -2.9511
  813MPD2    H212025   3.029   3.000  12.886  1.0466 -0.5971 -0.2650
  813MPD2    H312026   2.799   2.967  12.914  0.1253 -1.2957  0.1590
  813MPD2     N12027   2.832   3.040  13.369 -0.2432 -0.1228 -0.3081
  813MPD2    H512028   2.909   3.059  13.433 -1.0015 -0.4153  0.6841
  813MPD2    N112029   3.205   3.095  13.074  0.0280 -0.0021  0.1484
  813MPD2    H712030   3.221   3.120  12.977  0.0547  0.4039  0.2579
  814MPD2     C12031   3.636   4.525  12.563  0.2813 -0.5882 -0.8311
  814MPD2    C112032   3.688   4.614  12.477  0.4333  0.4155  0.5577
  814MPD2    C212033   3.750   4.726  12.530 -0.3950 -0.5263 -0.4155
  814MPD2    C312034   3.761   0.018  12.664  0.2767  0.1039  0.1124
  814MPD2    C412035   3.703   4.666  12.747 -0.4389 -0.6515  0.6608
  814MPD2    C512036   3.640   4.555  12.696  0.2975 -0.0482  0.0153
  814MPD2     H12037   3.781   0.066  12.461 -1.0913  0.9611  0.9744
  814MPD2    H112038   3.712   4.675  12.854 -1.4118  1.3046  0.5728
  814MPD2    H212039   3.578   4.438  12.535 -2.8212  0.8882  1.0282
  814MPD2    H312040   3.589   4.490  12.765 -1.3034  0.9711 -0.2099
  814MPD2     N12041   3.820   0.126  12.721  0.2559 -0.2153 -0.0158
  814MPD2    H512042   3.821   0.128  12.823  2.8710 -0.1369 -0.0402
  814MPD2    N112043   3.665   4.602  12.339  0.2518 -0.0644 -0.5679
  814MPD2    H712044   3.679   4.681  12.276  2.4399 -1.1391 -1.4202
  815MPD2     C12045   4.146   2.881  12.336  0.5904  0.1966  0.6895
  815MPD2    C112046   4.103   2.868  12.206 -0.6672  1.0124  0.3189
  815MPD2    C212047   3.970   2.865  12.178 -0.5223 -0.2219 -0.0491
  815MPD2    C312048   3.878   2.877  12.275  0.3148  0.6563  0.3003
  815MPD2    C412049   3.919   2.909  12.404  0.1602  0.2799  0.2287
  815MPD2    C512050   4.055   2.917  12.427  0.2577  0.1311 -0.1502
  815MPD2     H12051   3.948   2.851  12.072 -0.6241 -1.3446  0.1138
  815MPD2    H112052   3.863   2.926  12.495  0.6654 -0.5399  0.6939
  815MPD2    H212053   4.250   2.875  12.367  0.5236  0.9453  1.0509
  815MPD2    H312054   4.079   2.938  12.531 -0.4425 -2.3430  0.5081
  815MPD2     N12055   3.745   2.852  12.237 -0.8121 -0.3897  0.1637
  815MPD2    H512056   3.715   2.845  12.141 -0.5412 -0.0643  0.0531
  815MPD2    N112057   4.205   2.875  12.105  0.5099 -0.2349 -0.1848
  815MPD2    H712058   4.303   2.866  12.129 -0.0615 -2.4693  1.2953
  816MPD2     C12059   0.986   2.150  17.570 -0.7631 -0.1342 -0.1963
  816MPD2    C112060   0.931   2.036  17.499  0.1979  0.4596  0.5394
  816MPD2    C212061   0.954   2.024  17.363  0.7955  0.1535  0.2870
  816MPD2    C312062   1.011   2.133  17.298 -0.5170  0.5940  0.0199
  816MPD2    C412063   1.062   2.238  17.365  0.5337 -0.4556  0.0542
  816MPD2    C512064   1.048   2.251  17.498 -0.3279 -0.3193  0.2937
  816MPD2     H12065   0.906   1.946  17.305 -2.2357  2.2851 -0.0054
  816MPD2    H112066   1.091   2.324  17.305  0.3744  0.7017  1.6485
  816MPD2    H212067   0.962   2.177  17.672  4.7618 -0.4543  1.1641
  816MPD2    H312068   1.071   2.346  17.545  0.2006 -0.7073  0.8287
  816MPD2     N12069   1.000   2.132  17.156 -0.3598  0.0587  0.6124
  816MPD2    H512070   0.960   2.045  17.122 -1.8257  1.6741 -1.8516
  816MPD2    N112071   0.835   1.958  17.575 -0.2561 -0.2189 -0.4035
  816MPD2    H712072   0.822   1.984  17.673  0.9595 -0.0562 -0.2885
  817MPD2     C12073   3.998   4.067   9.903  0.0227 -0.3251  0.0524
  817MPD2    C112074   3.889   3.987   9.876 -0.1279  0.1766 -0.3095
  817MPD2    C212075   3.766   4.034   9.841 -0.3096  0.3940  0.2550
  817MPD2    C312076   3.757   4.171   9.820 -0.6786 -0.0852  0.0229
  817MPD2    C412077   3.868   4.250   9.842  0.3335  0.1449  0.7125
  817MPD2    C512078   3.991   4.199   9.879 -0.1126  0.0109  0.2927
  817MPD2     H12079   3.683   3.967   9.824  1.5787 -2.1790  1.0915
  817MPD2    H112080   3.866   4.357   9.823  0.3153 -0.3839 -2.4121
  817MPD2    H212081   4.098   4.042   9.936  2.2039  4.6507 -2.7918
  817MPD2    H312082   4.080   4.260   9.894 -0.7571  1.4756 -1.8375
  817MPD2     N12083   3.632   4.228   9.784  0.1528 -0.5805 -1.1109
  817MPD2    H512084   3.560   4.166   9.751  0.7025  0.0315 -3.4438
  817MPD2    N112085   3.905   3.840   9.886 -0.0775 -0.2034 -0.0622
  817MPD2    H712086   3.837   3.775   9.847  0.8988  0.2029 -2.4564
  818MPD2     C12087   2.714   3.707   9.953 -0.3744  0.4556 -0.1827
  818MPD2    C112088   2.624   3.669  10.047 -0.9412 -0.4462 -0.6907
  818MPD2    C212089   2.580   3.533  10.058  0.5628 -0.5811 -0.1324
  818MPD2    C312090   2.631   3.431   9.980  0.1678 -0.0457  0.0838
  818MPD2    C412091   2.715   3.472   9.877  0.5568 -0.1615 -0.1354
  818MPD2    C512092   2.748   3.606   9.861 -0.2699  0.8928 -0.4452
  818MPD2     H12093   2.506   3.515  10.136  1.8629 -0.7531  1.0616
  818MPD2    H112094   2.747   3.396   9.808  2.1457 -0.8679  1.3722
  818MPD2    H212095   2.758   3.806   9.946 -0.4242  0.3986 -1.3033
  818MPD2    H312096   2.801   3.645   9.775  2.8616  1.0134  1.5375
  818MPD2     N12097   2.600   3.296   9.994 -0.7001 -0.0679 -0.1076
  818MPD2    H512098   2.655   3.231   9.938  0.7877  1.5115 -0.4892
  818MPD2    N112099   2.573   3.762  10.148 -0.5053  0.0978  0.6708
  818MPD2    H712100   2.509   3.713  10.210 -2.2952  0.0412 -1.2117
  819MPD2     C12101   1.817   0.139  15.620 -0.2626 -0.2825  0.5742
  819MPD2    C112102   1.863   0.240  15.709  0.5426  0.7152  0.0835
  819MPD2    C212103   1.979   0.220  15.778  0.4759 -0.5581  0.4242
  819MPD2    C312104   2.052   0.101  15.767  0.1553 -0.0010  0.3945
  819MPD2    C412105   1.994   4.734  15.704 -0.5606 -0.4083  0.1166
  819MPD2    C512106   1.876   0.013  15.637  0.3313 -0.5152  0.8006
  819MPD2     H12107   2.029   0.302  15.829  1.1898 -1.1450  0.6733
  819MPD2    H112108   2.049   4.640  15.704 -1.1248 -0.7462 -3.5596
  819MPD2    H212109   1.722   0.151  15.568 -0.4584 -2.0872  0.5178
  819MPD2    H312110   1.826   4.671  15.583  1.4296 -0.7383  0.1130
  819MPD2     N12111   2.183   0.090  15.820  0.3910 -0.2160  0.2926
  819MPD2    H512112   2.222   0.173  15.864 -0.7135  1.2760 -1.5359
  819MPD2    N112113   1.789   0.362  15.699 -0.0583 -0.2246  0.2082
  819MPD2    H712114   1.711   0.367  15.634  1.0765 -0.2964 -1.1653
  820MPD2     C12115   1.258   0.562  15.076 -0.3968  0.7256  0.8983
  820MPD2    C112116   1.221   0.612  15.200  0.0188  1.5740 -0.6081
  820MPD2    C212117   1.313   0.649  15.294 -1.3857  0.1256 -0.3466
  820MPD2    C312118   1.447   0.611  15.280  0.3762  0.1740 -0.4638
  820MPD2    C412119   1.483   0.544  15.166  0.1666  0.3218 -0.6663
  820MPD2    C512120   1.386   0.516  15.068 -0.0110 -0.3825  0.4909
  820MPD2     H12121   1.277   0.713  15.374 -0.4146 -0.7309  0.7469
  820MPD2    H112122   1.586   0.518  15.146  0.6258  2.0322 -0.4843
  820MPD2    H212123   1.189   0.534  14.998  0.1637  0.8686  0.3522
  820MPD2    H312124   1.415   0.459  14.981  2.0054  2.7619 -0.9024
  820MPD2     N12125   1.540   0.637  15.377 -0.1894 -0.8153  0.1789
  820MPD2    H512126   1.637   0.624  15.350 -0.2050  0.7894 -0.6767
  820MPD2    N112127   1.088   0.647  15.231 -0.5228  0.8694 -0.3082
  820MPD2    H712128   1.080   0.697  15.319 -1.3293 -0.2155  0.2318
  821MPD2     C12129   0.977   2.042  13.911 -0.4065  0.2502  0.0348
  821MPD2    C112130   1.093   2.008  13.982  0.2535  0.2403  1.0967
  821MPD2    C212131   1.216   2.040  13.918 -0.3054 -0.4642 -0.8127
  821MPD2    C312132   1.223   2.118  13.805  0.7299  0.0181 -0.4365
  821MPD2    C412133   1.108   2.156  13.743  0.3890 -0.0684 -0.2098
  821MPD2    C512134   0.988   2.121  13.796  0.1796  0.7756 -0.1991
  821MPD2     H12135   1.305   1.992  13.959 -0.5394  0.2085  0.4755
  821MPD2    H112136   1.111   2.220  13.655 -0.4898  0.9679  0.5222
  821MPD2    H212137   0.879   2.003  13.937 -0.0580 -0.2595  0.5985
  821MPD2    H312138   0.897   2.163  13.755 -2.1665 -0.5832  3.6298
  821MPD2     N12139   1.343   2.160  13.739  0.1570 -0.1708  0.2097
  821MPD2    H512140   1.338   2.201  13.646 -0.4578 -0.3569  0.1643
  821MPD2    N112141   1.099   1.919  14.087 -0.0385 -0.1999 -0.0196
  821MPD2    H712142   1.190   1.877  14.107  0.4091  0.0563 -1.5068
  822MPD2     C12143   2.321   1.850  15.723  1.0839 -0.3755 -0.7504
  822MPD2    C112144   2.305   1.779  15.842  0.3165  0.5136 -0.3838
  822MPD2    C212145   2.212   1.813  15.934  0.5855 -0.1533 -0.0265
  822MPD2    C312146   2.121   1.914  15.911 -0.1944  0.5467 -0.3406
  822MPD2    C412147   2.122   1.966  15.778 -0.2252 -0.2051 -0.1911
  822MPD2    C512148   2.227   1.938  15.693 -0.2071  0.3958  0.1338
  822MPD2     H12149   2.216   1.761  16.029 -0.5778 -1.4879 -0.7084
  822MPD2    H112150   2.057   2.051  15.757  0.2484  0.3862  0.7125
  822MPD2    H212151   2.408   1.839  15.659  1.4765  0.6829 -0.4017
  822MPD2    H312152   2.238   2.000  15.605 -1.1805  1.6616  0.8998
  822MPD2     N12153   2.041   1.960  16.020 -0.5207 -0.2764 -0.1885
  822MPD2    H512154   2.052   1.906  16.105 -2.8568 -1.6397 -0.7744
  822MPD2    N112155   2.404   1.690  15.891 -0.5514  0.5863  0.1563
  822MPD2    H712156   2.395   1.662  15.988  2.0344 -0.7299  0.0180
  823MPD2     C12157   1.699   2.114  16.801  0.1897 -0.0860  0.3503
  823MPD2    C112158   1.743   2.031  16.701 -0.0490  0.4492  0.0956
  823MPD2    C212159   1.800   1.908  16.732  0.1230  0.0652 -0.1562
  823MPD2    C312160   1.832   1.873  16.861 -1.3140 -0.3665 -0.3730
  823MPD2    C412161   1.773   1.953  16.963  0.2840  0.1659 -0.2101
  823MPD2    C512162   1.714   2.073  16.929 -0.0687  0.0054 -0.1032
  823MPD2     H12163   1.826   1.834  16.658  0.4265  0.5859 -0.5640
  823MPD2    H112164   1.800   1.928  17.065  0.2566  1.2495  0.0562
  823MPD2    H212165   1.649   2.207  16.775 -1.0730  0.3120  4.1679
  823MPD2    H312166   1.673   2.130  17.011  1.4940 -0.4209  0.9808
  823MPD2     N12167   1.910   1.762  16.899  0.4131 -0.1239 -0.4155
  823MPD2    H512168   1.927   1.742  16.997  0.7102  1.6236 -0.1032
  823MPD2    N112169   1.733   2.075  16.568  0.0861 -0.3600 -0.6110
  823MPD2    H712170   1.710   2.173  16.554  0.6750 -0.4744 -2.3677
  824MPD2     C12171   2.893   0.984  15.995  0.0029  0.2605 -0.4069
  824MPD2    C112172   2.926   1.099  15.924 -0.2940 -0.0751  0.2360
  824MPD2    C212173   3.029   1.100  15.841  0.6906  0.6301  0.2392
  824MPD2    C312174   3.100   0.983  15.823  0.4810 -0.1047 -0.2035
  824MPD2    C412175   3.064   0.867  15.893  0.1205  0.2299  0.0053
  824MPD2    C512176   2.959   0.866  15.976 -0.1982 -0.1698  0.0960
  824MPD2     H12177   3.066   1.192  15.795  1.2109  0.2489 -0.1059
  824MPD2    H112178   3.109   0.769  15.892 -0.3478  0.0044  1.0374
  824MPD2    H212179   2.806   0.988  16.059  0.1925  1.7273 -0.2249
  824MPD2    H312180   2.935   0.780  16.037  0.0471  0.1141  0.5940
  824MPD2     N12181   3.211   0.990  15.735 -0.4241  0.7548  0.1403
  824MPD2    H512182   3.207   1.069  15.671 -2.5663  0.2762 -0.3210
  824MPD2    N112183   2.845   1.212  15.941 -0.0005  0.0523  0.4065
  824MPD2    H712184   2.779   1.201  16.016 -2.2840  1.7442 -1.3559
  825MPD2     C12185   3.609   1.315  15.070 -0.3470 -0.0281 -0.3628
  825MPD2    C112186   3.593   1.312  15.204  0.6327 -0.3048 -0.0418
  825MPD2    C212187   3.604   1.430  15.274  0.2526  1.2618  0.2355
  825MPD2    C312188   3.626   1.549  15.208 -0.0067 -0.0487 -0.2261
  825MPD2    C412189   3.642   1.545  15.074  0.1527  0.3622  0.0133
  825MPD2    C512190   3.641   1.427  15.001  0.1899  0.2296 -0.0821
  825MPD2     H12191   3.593   1.431  15.382  0.1358 -0.3285  0.2378
  825MPD2    H112192   3.666   1.634  15.017  1.5711 -0.8079 -1.2006
  825MPD2    H212193   3.595   1.221  15.017  2.0458 -0.4410 -0.2319
  825MPD2    H312194   3.651   1.419  14.893  0.1133 -0.7493 -0.0181
  825MPD2     N12195   3.639   1.679  15.264  0.5419  0.7522  0.6294
  825MPD2    H512196   3.611   1.759  15.208 -0.0315  0.3991  0.4141
  825MPD2    N112197   3.564   1.194  15.272 -0.5463 -0.5157  0.1418
  825MPD2    H712198   3.555   1.111  15.215 -1.8047 -0.8778  0.8582
  826MPD2     C12199   3.096   1.058  13.974 -0.6518 -0.0927 -0.0910
  826MPD2    C112200   2.966   1.049  14.027 -0.7587 -0.1610 -0.2210
  826MPD2    C212201   2.910   1.166  14.074 -0.0359 -0.4459  0.1977
  826MPD2    C312202   2.987   1.285  14.066  0.3307  0.2552 -0.2571
  826MPD2    C412203   3.115   1.287  14.014 -0.4047  0.5319  0.3233
  826MPD2    C512204   3.170   1.172  13.969 -0.7175 -0.4302 -0.2591
  826MPD2     H12205   2.807   1.169  14.109 -0.2560 -2.3041 -0.2455
  826MPD2    H112206   3.171   1.378  14.002  1.3136 -0.6489 -0.6846
  826MPD2    H212207   3.137   0.975  13.919  1.6090  1.2182 -0.3556
  826MPD2    H312208   3.270   1.162  13.928 -1.8051 -1.1293 -2.7740
  826MPD2     N12209   2.937   1.411  14.099  0.8271  0.1169  0.0435
  826MPD2    H512210   2.997   1.491  14.081  1.6352  0.0055  2.2850
  826MPD2    N112211   2.905   0.922  14.013 -0.4223  0.4109 -0.6079
  826MPD2    H712212   2.971   0.849  13.986 -1.7838 -0.4961 -1.4993
  827MPD2     C12213   3.774   2.757   9.803 -0.3538 -0.5793  0.8830
  827MPD2    C112214   3.727   2.662   9.890  0.0642  0.3179  0.3636
  827MPD2    C212215   3.671   2.548   9.836 -0.3624  0.2513  0.0594
  827MPD2    C312216   3.659   2.536   9.700 -0.0087  0.1249  0.0314
  827MPD2    C412217   3.718   2.629   9.620  0.2309  0.3773  0.5879
  827MPD2    C512218   3.766   2.744   9.670  0.0832  0.0640 -0.7048
  827MPD2     H12219   3.626   2.478   9.905 -1.6717 -0.5033 -1.5821
  827MPD2    H112220   3.716   2.616   9.513  1.7096 -2.0601  0.8407
  827MPD2    H212221   3.822   2.849   9.834 -0.8757  0.4875 -1.4347
  827MPD2    H312222   3.806   2.825   9.612  1.1850 -0.6480 -0.9426
  827MPD2     N12223   3.593   2.420   9.645  0.0194  0.3536 -0.4572
  827MPD2    H512224   3.556   2.358   9.716 -2.2131  0.6924 -1.3219
  827MPD2    N112225   3.744   2.683  10.028 -0.5568  0.3405 -0.1321
  827MPD2    H712226   3.806   2.759  10.054 -0.1956  0.8147 -2.3219
  828MPD2     C12227   1.866   2.276  12.999 -0.3896 -0.4222  0.1309
  828MPD2    C112228   1.795   2.227  12.897  0.3105  0.0567 -0.2403
  828MPD2    C212229   1.855   2.149  12.800 -0.8480  0.3654  0.2369
  828MPD2    C312230   1.995   2.143  12.797 -0.7821 -0.2230 -0.0607
  828MPD2    C412231   2.067   2.191  12.908  0.1920  0.5815 -0.3583
  828MPD2    C512232   2.000   2.257  13.005 -1.0478 -0.2517  0.0521
  828MPD2     H12233   1.796   2.110  12.718 -0.4240 -1.6114  0.8711
  828MPD2    H112234   2.176   2.192  12.912  0.0825 -2.3507  2.8525
  828MPD2    H212235   1.824   2.347  13.069  0.5367 -1.2802  1.5719
  828MPD2    H312236   2.053   2.298  13.091  0.2759 -0.3845 -0.7031
  828MPD2     N12237   2.072   2.085  12.690 -0.0557  0.0676 -0.4756
  828MPD2    H512238   2.173   2.087  12.700  0.0348 -1.4278 -1.0050
  828MPD2    N112239   1.654   2.241  12.901  0.6366 -0.4756 -0.3790
  828MPD2    H712240   1.614   2.223  12.809  2.3497 -1.2535 -0.9606
  829MPD2     C12241   1.237   2.339  12.181 -0.1299 -1.0732  0.1969
  829MPD2    C112242   1.120   2.367  12.263  0.8089 -0.4610  0.0519
  829MPD2    C212243   1.141   2.350  12.400  0.7709  0.1862  0.0906
  829MPD2    C312244   1.264   2.324  12.460 -0.7025  0.5857  0.1657
  829MPD2    C412245   1.369   2.311  12.370 -0.3790  0.5402 -0.3716
  829MPD2    C512246   1.361   2.321  12.238  0.5803  0.4905 -0.3522
  829MPD2     H12247   1.058   2.369  12.467  2.1426  2.2937  1.2159
  829MPD2    H112248   1.471   2.296  12.405 -0.7658  1.1398  1.0142
  829MPD2    H212249   1.225   2.349  12.074 -2.4195 -0.8463  0.4750
  829MPD2    H312250   1.452   2.296  12.183  1.4873  1.8191  0.5508
  829MPD2     N12251   1.280   2.317  12.598  0.7600  0.0366  0.0852
  829MPD2    H512252   1.375   2.306  12.632  0.9002 -4.1936 -1.6972
  829MPD2    N112253   1.004   2.410  12.201 -0.5698  0.2718 -0.2343
  829MPD2    H712254   1.007   2.439  12.104 -1.7553  1.0782 -0.0294
  830MPD2     C12255   2.991   0.349  15.666 -0.7244 -0.4450 -0.8860
  830MPD2    C112256   2.862   0.318  15.642 -0.5906 -0.5142 -0.3665
  830MPD2    C212257   2.784   0.396  15.560  0.6902  0.4630  0.3140
  830MPD2    C312258   2.829   0.518  15.523 -0.4880 -0.1527 -0.3778
  830MPD2    C412259   2.960   0.553  15.554 -0.4030  0.0284  0.3662
  830MPD2    C512260   3.049   0.465  15.619  0.2937  0.4581 -0.0317
  830MPD2     H12261   2.684   0.358  15.544  0.8649  0.4937 -0.8171
  830MPD2    H112262   2.999   0.648  15.520  0.4157 -0.0681  1.0437
  830MPD2    H212263   3.047   0.281  15.729 -0.2599  1.2511  0.5245
  830MPD2    H312264   3.152   0.487  15.645  0.6938 -0.6028 -0.7374
  830MPD2     N12265   2.760   0.612  15.443 -0.2200  0.3952 -0.1504
  830MPD2    H512266   2.810   0.697  15.418  0.5476 -0.4642 -1.5774
  830MPD2    N112267   2.805   0.208  15.707 -0.5210  0.1676  0.0961
  830MPD2    H712268   2.852   0.161  15.783 -3.8423 -2.7920  0.3073
  831MPD2     C12269   2.243   2.152  16.418 -1.1985  0.5813  0.0370
  831MPD2    C112270   2.275   2.058  16.325  0.4133 -0.2019 -0.5643
  831MPD2    C212271   2.225   1.929  16.333 -0.2987 -0.1852  0.6307
  831MPD2    C312272   2.129   1.901  16.425  0.2595 -0.0237  0.8449
  831MPD2    C412273   2.099   2.000  16.519  0.8557 -0.3985 -0.2636
  831MPD2    C512274   2.158   2.121  16.513  0.3352 -0.0375  0.2927
  831MPD2     H12275   2.241   1.846  16.265  0.4459 -0.0167  0.6012
  831MPD2    H112276   2.025   1.978  16.596  0.8491  0.8608  0.0898
  831MPD2    H212277   2.291   2.248  16.425 -0.9148  0.3512  1.2201
  831MPD2    H312278   2.139   2.193  16.592 -0.9202 -0.8118  0.7073
  831MPD2     N12279   2.039   1.784  16.419 -0.3479 -0.4368  0.1053
  831MPD2    H512280   1.987   1.758  16.502  0.4598  0.9709  1.0654
  831MPD2    N112281   2.378   2.093  16.230 -0.3756  0.7189 -0.4047
  831MPD2    H712282   2.405   2.191  16.227  0.7218  0.4380  0.2611
  832MPD2     C12283   0.845   3.014  17.333  0.9310  0.2167 -0.6580
  832MPD2    C112284   0.749   3.104  17.285 -0.3457  0.2673  0.0224
  832MPD2    C212285   0.626   3.048  17.239  0.0130 -0.2787 -0.1227
  832MPD2    C312286   0.601   2.912  17.237  0.3564 -0.5565  0.4088
  832MPD2    C412287   0.700   2.831  17.284 -0.0112 -0.2355  0.5739
  832MPD2    C512288   0.819   2.877  17.336 -0.2401 -0.0536 -1.4212
  832MPD2     H12289   0.551   3.111  17.194 -0.3584 -0.8108 -0.2426
  832MPD2    H112290   0.689   2.723  17.287 -1.4419 -0.1192 -0.8932
  832MPD2    H212291   0.930   3.053  17.387 -0.0849  1.6779 -0.0973
  832MPD2    H312292   0.886   2.802  17.378 -0.9188  1.8214  3.0149
  832MPD2     N12293   0.484   2.844  17.185  0.2967  0.5014  0.1378
  832MPD2    H512294   0.503   2.750  17.153  0.8328  0.8639 -0.6078
  832MPD2    N112295   0.775   3.243  17.291  0.0223  0.0216 -0.3315
  832MPD2    H712296   0.867   3.278  17.317  0.8871 -2.3917 -0.1694
  833MPD2     C12297   2.748   0.097  12.797 -0.6511 -0.2708  0.5172
  833MPD2    C112298   2.705   0.185  12.702 -0.1361 -0.4506  0.0183
  833MPD2    C212299   2.769   0.179  12.579 -0.1365 -0.8471  0.0231
  833MPD2    C312300   2.839   0.068  12.540  0.6909 -0.4032  0.6759
  833MPD2    C412301   2.873   4.704  12.639 -0.3267  0.0498  0.3735
  833MPD2    C512302   2.832   4.731  12.770 -0.6543 -0.3795 -0.4693
  833MPD2     H12303   2.751   0.256  12.504 -1.5542  0.8077  2.0764
  833MPD2    H112304   2.922   4.610  12.617 -1.0277 -0.5500  1.3867
  833MPD2    H212305   2.709   0.097  12.899  0.9577  1.6700  1.1234
  833MPD2    H312306   2.858   4.656  12.843  0.5628 -0.2055 -0.7356
  833MPD2     N12307   2.874   0.066  12.406  0.0008  1.2025 -0.3447
  833MPD2    H512308   2.837   0.136  12.343  0.2998  2.7271  1.1900
  833MPD2    N112309   2.614   0.285  12.749 -0.2555  0.5211 -0.5489
  833MPD2    H712310   2.567   0.277  12.838  1.4066 -1.0402  0.1860
  834MPD2     C12311   2.302   4.333  11.700 -0.2840  0.5294 -0.0069
  834MPD2    C112312   2.356   4.445  11.634 -0.4371 -0.9861 -0.6443
  834MPD2    C212313   2.467   4.509  11.680  0.3163 -0.0857  0.1871
  834MPD2    C312314   2.515   4.471  11.807 -0.5218 -0.6277 -0.2922
  834MPD2    C412315   2.456   4.362  11.877  0.0511 -0.3976 -0.3726
  834MPD2    C512316   2.358   4.290  11.822  0.6908 -0.2896 -0.8172
  834MPD2     H12317   2.502   4.592  11.620  3.1653 -0.4680  1.3467
  834MPD2    H112318   2.468   4.354  11.985 -0.5906 -2.3266 -0.4378
  834MPD2    H212319   2.215   4.280  11.663 -0.2581  0.9092 -0.6105
  834MPD2    H312320   2.310   4.208  11.875  3.0325 -1.5795 -0.6670
  834MPD2     N12321   2.610   4.560  11.871 -0.2463 -0.3680 -0.3448
  834MPD2    H512322   2.630   4.650  11.830  0.0872 -0.5225 -0.5235
  834MPD2    N112323   2.294   4.480  11.513 -0.5992  0.0399 -0.8209
  834MPD2    H712324   2.204   4.433  11.509 -1.4536  1.6480 -0.5092
  835MPD2     C12325   2.410   2.571  11.236  0.1816 -0.5494  0.0024
  835MPD2    C112326   2.324   2.587  11.343 -0.0435 -0.2091 -0.3076
  835MPD2    C212327   2.357   2.522  11.458  0.1300 -0.8752  0.1211
  835MPD2    C312328   2.459   2.433  11.470 -0.6313 -0.0549  0.2808
  835MPD2    C412329   2.557   2.426  11.367  0.4574  0.7574  0.7114
  835MPD2    C512330   2.523   2.490  11.249  1.2682 -0.3768  0.4157
  835MPD2     H12331   2.293   2.545  11.542  0.7198  0.6288  0.1559
  835MPD2    H112332   2.646   2.364  11.372  2.0893  2.8600 -1.9125
  835MPD2    H212333   2.392   2.619  11.141 -1.7011 -0.3552  0.4683
  835MPD2    H312334   2.578   2.466  11.159  0.8439 -3.5319  0.9809
  835MPD2     N12335   2.489   2.364  11.590  0.0067  0.0873  0.5388
  835MPD2    H512336   2.569   2.302  11.600 -0.8281 -1.2477 -0.9338
  835MPD2    N112337   2.200   2.657  11.341 -0.1955  0.1995  0.5962
  835MPD2    H712338   2.138   2.648  11.420  0.0312  1.9831  0.9817
  836MPD2     C12339   2.503   2.274  12.462  0.5185  0.2687 -0.0537
  836MPD2    C112340   2.397   2.284  12.377  1.1024 -0.4081 -0.6932
  836MPD2    C212341   2.281   2.339  12.420 -0.0023 -1.1790 -0.2232
  836MPD2    C312342   2.264   2.380  12.553  0.0338  0.3542  0.0126
  836MPD2    C412343   2.364   2.357  12.642  0.7906  1.0608  0.5016
  836MPD2    C512344   2.479   2.297  12.595 -0.6913 -0.2824 -0.0827
  836MPD2     H12345   2.204   2.355  12.346 -0.5867  0.0552  0.6511
  836MPD2    H112346   2.366   2.386  12.746  1.5687 -0.4557  0.9022
  836MPD2    H212347   2.598   2.233  12.432 -1.5812 -3.5178 -1.4580
  836MPD2    H312348   2.559   2.271  12.663 -0.3940  2.8557  0.7263
  836MPD2     N12349   2.153   2.448  12.611  0.7458 -0.0376 -0.2351
  836MPD2    H512350   2.168   2.497  12.698 -0.6424  1.3819 -0.7911
  836MPD2    N112351   2.428   2.242  12.246 -0.3420 -1.3517  0.0677
  836MPD2    H712352   2.519   2.202  12.229  0.6993  1.5318 -1.1897
  837MPD2     C12353   0.871   2.292  10.133 -0.6494 -1.1536 -0.6415
  837MPD2    C112354   0.752   2.299  10.201  0.4633  0.0381  0.3193
  837MPD2    C212355   0.724   2.422  10.262 -0.3993  0.6356 -0.1138
  837MPD2    C312356   0.796   2.537  10.240 -0.2005 -0.1969 -0.7430
  837MPD2    C412357   0.916   2.525  10.182 -0.1960 -0.5437 -0.2992
  837MPD2    C512358   0.956   2.400  10.139 -0.1626 -0.2491 -0.7479
  837MPD2     H12359   0.629   2.420  10.314 -0.2802  1.5874  0.1397
  837MPD2    H112360   0.983   2.606  10.160 -1.4951 -0.0006 -2.2482
  837MPD2    H212361   0.905   2.199  10.089  1.9758 -0.8018  0.6962
  837MPD2    H312362   1.050   2.393  10.087  0.3513  1.9988 -0.0901
  837MPD2     N12363   0.749   2.658  10.298 -0.5875  0.0271 -0.0561
  837MPD2    H512364   0.663   2.650  10.351  0.2736  0.9124  1.5026
  837MPD2    N112365   0.650   2.200  10.190  0.5001 -0.0528  0.4878
  837MPD2    H712366   0.573   2.218  10.255  1.2845 -0.6829  1.5897
  838MPD2     C12367   3.786   1.071  12.270 -0.0173 -0.1511 -0.6660
  838MPD2    C112368   3.742   0.939  12.244 -0.4089 -0.2577 -0.2429
  838MPD2    C212369   3.718   0.855  12.347  0.1221  0.0827  0.1343
  838MPD2    C312370   3.724   0.897  12.476 -0.5253  0.1216 -0.2364
  838MPD2    C412371   3.762   1.028  12.512  0.1234 -0.6526 -0.2732
  838MPD2    C512372   3.791   1.104  12.405  0.6991 -0.6129 -0.1720
  838MPD2     H12373   3.685   0.755  12.323 -0.0777 -0.3117  2.0813
  838MPD2    H112374   3.766   1.071  12.611 -0.2955  3.2670 -1.9757
  838MPD2    H212375   3.812   1.143  12.193 -1.3478  0.8302 -0.1709
  838MPD2    H312376   3.835   1.199  12.432 -0.9951  1.2353 -3.9478
  838MPD2     N12377   3.692   0.815  12.580 -0.2871 -0.0363  0.3374
  838MPD2    H512378   3.690   0.850  12.675  0.0940  1.3604 -0.1838
  838MPD2    N112379   3.716   0.892  12.115 -0.1971  0.0878  0.3225
  838MPD2    H712380   3.690   0.796  12.096 -1.0093  0.6654 -1.5103
  839MPD2     C12381   3.134   0.301  11.930 -0.5416  0.3127  0.5219
  839MPD2    C112382   3.230   0.268  11.835 -0.0111  0.7631  0.5719
  839MPD2    C212383   3.340   0.349  11.823  0.4983  0.1943  0.1513
  839MPD2    C312384   3.359   0.461  11.900  0.2806 -0.3039 -0.0860
  839MPD2    C412385   3.267   0.478  11.999  0.3699 -0.7550 -0.8741
  839MPD2    C512386   3.151   0.408  12.006 -0.1445 -0.3233 -0.2097
  839MPD2     H12387   3.415   0.327  11.747 -0.2004 -0.7099 -0.2822
  839MPD2    H112388   3.287   0.551  12.077  1.6393  0.0217 -1.9304
  839MPD2    H212389   3.041   0.245  11.940 -0.5876  0.1410 -0.8704
  839MPD2    H312390   3.076   0.434  12.080  0.9202  0.0047  0.7551
  839MPD2     N12391   3.472   0.542  11.892  0.2523 -0.3140  0.3186
  839MPD2    H512392   3.497   0.602  11.970  1.0950  1.0758 -1.0155
  839MPD2    N112393   3.218   0.142  11.759  0.1308 -0.0779  0.3067
  839MPD2    H712394   3.299   0.128  11.699  1.2246  1.1826  1.4607
  840MPD2     C12395   3.782   3.275  10.283 -0.5064  0.0793  0.2273
  840MPD2    C112396   3.834   3.182  10.370  0.7279  0.0582  0.1121
  840MPD2    C212397   3.954   3.209  10.438  0.3332  0.7945  0.2390
  840MPD2    C312398   4.015   3.333  10.423  0.0486  0.0950  0.5629
  840MPD2    C412399   3.962   3.421  10.333 -0.2765 -0.2317 -0.0452
  840MPD2    C512400   3.855   3.388  10.265  0.1695 -0.2468  0.3664
  840MPD2     H12401   3.989   3.139  10.513  2.3312 -0.8956 -2.2689
  840MPD2    H112402   4.006   3.519  10.320 -2.1849  0.3660 -1.9226
  840MPD2    H212403   3.694   3.257  10.223 -0.1500 -1.2241  0.0984
  840MPD2    H312404   3.808   3.460  10.199 -1.2341 -0.4458  1.1578
  840MPD2     N12405   4.127   3.377  10.496  0.7729 -0.5755 -0.0539
  840MPD2    H512406   4.170   3.466  10.475 -0.9663  0.1382 -0.5857
  840MPD2    N112407   3.773   3.056  10.370 -0.2669  0.1872 -0.7493
  840MPD2    H712408   3.695   3.043  10.306 -0.2520 -0.0971 -0.7089
  841MPD2     C12409   3.823   2.333  15.011 -0.0475 -0.6025  0.3266
  841MPD2    C112410   3.851   2.264  14.897  0.2812 -0.1565  0.7136
  841MPD2    C212411   3.924   2.316  14.800 -0.1587 -0.3004  0.7900
  841MPD2    C312412   3.982   2.437  14.810  0.8085 -0.2640 -0.1612
  841MPD2    C412413   3.955   2.510  14.921  0.3965 -0.4811 -1.1641
  841MPD2    C512414   3.877   2.460  15.023 -0.1077  0.1635 -0.0357
  841MPD2     H12415   3.926   2.271  14.701  0.2800 -0.7368  0.9926
  841MPD2    H112416   3.993   2.610  14.935 -3.6402  0.5451  2.2263
  841MPD2    H212417   3.753   2.305  15.088  0.1146 -1.1768  0.2728
  841MPD2    H312418   3.855   2.519  15.111 -2.7970 -1.0040  0.0694
  841MPD2     N12419   4.065   2.482  14.703 -0.3491 -0.6764 -0.4879
  841MPD2    H512420   4.082   2.411  14.632 -1.2194 -0.7986 -0.5808
  841MPD2    N112421   3.806   2.140  14.875 -0.1973  0.0650 -0.0484
  841MPD2    H712422   3.821   2.094  14.785  0.8447  0.8160 -0.2619
  842MPD2     C12423   3.695   2.495  17.023 -0.0221 -0.2231  0.1907
  842MPD2    C112424   3.767   2.598  16.976 -0.0198  1.0957  1.1803
  842MPD2    C212425   3.879   2.634  17.045  0.6256 -0.0231 -0.3851
  842MPD2    C312426   3.919   2.560  17.164  0.3144 -0.0525  0.7698
  842MPD2    C412427   3.833   2.465  17.216 -0.1174  0.5825  0.0227
  842MPD2    C512428   3.717   2.441  17.148  0.4886 -0.1568 -0.9247
  842MPD2     H12429   3.953   2.692  16.991  0.0477  1.0492 -0.0359
  842MPD2    H112430   3.852   2.405  17.305 -2.2138 -0.0861  0.0242
  842MPD2    H212431   3.608   2.455  16.971 -0.9239  1.5165  0.3329
  842MPD2    H312432   3.662   2.355  17.185  0.6226  0.6656  1.2289
  842MPD2     N12433   4.038   2.577  17.237 -0.1238  0.3835 -0.0146
  842MPD2    H512434   4.060   2.530  17.324  0.4202  3.6076  1.6043
  842MPD2    N112435   3.724   2.659  16.852 -0.1414  0.4537 -0.8226
  842MPD2    H712436   3.654   2.610  16.797 -0.5820  0.0571  0.0859
  843MPD2     C12437   2.227   3.730   0.175 -0.3467 -0.6503  0.1343
  843MPD2    C112438   2.237   3.841   0.257 -0.4029  0.8623  0.0357
  843MPD2    C212439   2.229   3.967   0.205  0.0680 -1.2798 -0.0744
  843MPD2    C312440   2.226   3.988   0.063 -0.1747  0.6439  0.1352
  843MPD2    C412441   2.217   3.874  17.737  0.1440 -0.8997 -0.3650
  843MPD2    C512442   2.212   3.753   0.045  0.2835 -0.0325 -0.8934
  843MPD2     H12443   2.242   4.052   0.271  0.9672 -0.8384 -0.8167
  843MPD2    H112444   2.221   3.877  17.628 -1.6198 -0.6863 -0.4255
  843MPD2    H212445   2.229   3.628   0.213  2.5721 -1.0230 -1.0430
  843MPD2    H312446   2.201   3.670  17.725 -1.8120  0.2644 -0.9135
  843MPD2     N12447   2.260   4.111  17.741 -0.0870 -0.2247 -0.6134
  843MPD2    H512448   2.278   4.102  17.642 -0.5722 -0.8900 -0.6441
  843MPD2    N112449   2.270   3.830   0.392  0.0084 -0.3278 -0.1841
  843MPD2    H712450   2.264   3.917   0.444  0.5121  0.6395 -1.7428
  844MPD2     C12451   0.350   3.078  16.849  0.6397 -0.2907 -0.4297
  844MPD2    C112452   0.414   2.973  16.785 -0.3807 -0.2978 -0.1782
  844MPD2    C212453   0.555   2.972  16.798  0.2025  0.3355 -0.6136
  844MPD2    C312454   0.631   3.061  16.857 -0.9285  0.0032 -0.4685
  844MPD2    C412455   0.562   3.166  16.918 -0.9800 -0.9575 -0.0846
  844MPD2    C512456   0.426   3.180  16.917  0.2321 -0.2832  0.0511
  844MPD2     H12457   0.605   2.885  16.757  0.3642 -0.3787  1.0801
  844MPD2    H112458   0.609   3.245  16.976  0.5036 -1.9351  0.0387
  844MPD2    H212459   0.242   3.090  16.847  0.6873  0.1185 -0.5632
  844MPD2    H312460   0.387   3.268  16.967 -2.3972 -1.9643  0.9855
  844MPD2     N12461   0.773   3.060  16.857  1.0264  0.2304  0.1431
  844MPD2    H512462   0.815   2.977  16.815  1.7652  1.6094 -1.8574
  844MPD2    N112463   0.344   2.875  16.711  0.9250 -0.6053  0.3551
  844MPD2    H712464   0.400   2.807  16.661  2.2241  0.3662  0.5073
  845MPD2     C12465   0.730   3.803  16.691  0.2083 -0.2088  0.1073
  845MPD2    C112466   0.674   3.707  16.767 -0.5727  0.1880 -0.6221
  845MPD2    C212467   0.755   3.593  16.792 -0.3273 -0.4862 -0.2602
  845MPD2    C312468   0.885   3.592  16.757 -0.2235 -0.1413 -0.4824
  845MPD2    C412469   0.946   3.693  16.690 -0.0163  0.7593  0.3377
  845MPD2    C512470   0.865   3.796  16.658  0.0293 -0.7408  0.7048
  845MPD2     H12471   0.721   3.507  16.850 -0.4429  1.0163  1.9137
  845MPD2    H112472   1.050   3.700  16.660  0.2917  0.4650  1.3270
  845MPD2    H212473   0.667   3.868  16.632  0.1575 -2.0029 -1.7872
  845MPD2    H312474   0.900   3.889  16.615  1.4291 -0.9799  1.3388
  845MPD2     N12475   0.959   3.475  16.791 -0.0883 -0.6138  0.0404
  845MPD2    H512476   0.910   3.393  16.825  0.6644 -1.2959 -0.5318
  845MPD2    N112477   0.535   3.711  16.786 -0.8832 -0.4640  1.0043
  845MPD2    H712478   0.480   3.788  16.749 -0.3073 -1.3650 -1.7433
  846MPD2     C12479   1.956   4.401  14.022 -0.0614  0.0418  0.0103
  846MPD2    C112480   1.827   4.446  14.047  0.1520  0.0823  0.9987
  846MPD2    C212481   1.776   4.462  14.178  0.2213 -0.4515  0.6504
  846MPD2    C312482   1.862   4.431  14.281  0.3800  0.0750 -0.7396
  846MPD2    C412483   1.991   4.375  14.253 -0.2092 -0.4575 -0.2311
  846MPD2    C512484   2.038   4.369  14.130  0.1662  0.8485  0.3229
  846MPD2     H12485   1.674   4.493  14.198  0.8843  1.3007  1.3259
  846MPD2    H112486   2.059   4.354  14.335  0.5400  1.2760 -0.4203
  846MPD2    H212487   2.010   4.418  13.929 -0.8134 -1.7509 -0.7604
  846MPD2    H312488   2.136   4.333  14.105 -0.1798 -0.8558  1.3984
  846MPD2     N12489   1.807   4.456  14.413  0.6756 -0.0028  0.0601
  846MPD2    H512490   1.714   4.493  14.402  0.6505 -0.5697 -1.7323
  846MPD2    N112491   1.736   4.486  13.950  0.1963 -0.1476 -0.2957
  846MPD2    H712492   1.656   4.543  13.974  0.2055  0.4740 -1.7299
  847MPD2     C12493   1.570   0.387  14.682  0.3313  0.0305  0.8085
  847MPD2    C112494   1.680   0.464  14.637  0.2526  0.5091  0.2997
  847MPD2    C212495   1.798   0.396  14.621  0.5522 -0.2198 -0.1049
  847MPD2    C312496   1.811   0.259  14.650 -0.3478 -0.0373  0.5954
  847MPD2    C412497   1.701   0.185  14.704  0.6833  0.7770 -0.0438
  847MPD2    C512498   1.578   0.253  14.717 -0.0918 -0.1111  0.1511
  847MPD2     H12499   1.884   0.457  14.596 -0.7919  1.4700 -0.5898
  847MPD2    H112500   1.716   0.084  14.740  2.4426  1.4091  1.0262
  847MPD2    H212501   1.476   0.436  14.703 -0.3979 -0.4748 -1.2231
  847MPD2    H312502   1.492   0.208  14.766  1.1542 -0.1842  2.2949
  847MPD2     N12503   1.945   0.213  14.643  0.0598 -0.6296  0.2109
  847MPD2    H512504   2.009   0.270  14.587 -0.8119 -0.1018 -0.2469
  847MPD2    N112505   1.682   0.599  14.616  1.2577  0.1751 -0.3634
  847MPD2    H712506   1.773   0.635  14.591  0.4085  1.0532 -2.1918
  848MPD2     C12507   4.408   2.877  16.879  0.1897  0.0433 -0.4366
  848MPD2    C112508   4.537   2.930  16.859 -0.1998 -0.7532 -0.2132
  848MPD2    C212509   4.552   3.031  16.762  0.6126  0.3919 -0.3806
  848MPD2    C312510   4.441   3.059  16.685  0.6876 -0.1867 -0.0363
  848MPD2    C412511   4.315   3.007  16.712  0.1951 -0.8361 -0.3390
  848MPD2    C512512   4.294   2.910  16.808 -0.0197 -0.2247 -0.7970
  848MPD2     H12513   4.647   3.079  16.741  1.1073 -0.7389 -0.6971
  848MPD2    H112514   4.235   3.052  16.654 -0.3332 -2.1347 -0.5970
  848MPD2    H212515   4.394   2.799  16.953  1.3981  0.0931 -0.1586
  848MPD2    H312516   4.205   2.873  16.857  1.1742 -2.9426 -0.6760
  848MPD2     N12517   4.455   3.149  16.572 -0.1745 -0.5754 -0.3625
  848MPD2    H512518   4.365   3.172  16.530 -0.1144  1.8906  0.8395
  848MPD2    N112519   4.651   2.885  16.932 -0.2482  0.3036  0.4065
  848MPD2    H712520   0.004   2.919  16.901 -1.7256  2.8426 -1.1536
  849MPD2     C12521   4.122   3.631  14.629 -1.0766 -0.7142  0.2759
  849MPD2    C112522   4.093   3.524  14.551  0.2314 -0.7882  0.4014
  849MPD2    C212523   4.181   3.426  14.525 -0.0387 -0.5174  0.3750
  849MPD2    C312524   4.314   3.445  14.565 -0.5062  0.6341  0.0208
  849MPD2    C412525   4.343   3.550  14.652  0.5457  0.2512 -0.7329
  849MPD2    C512526   4.246   3.637  14.673  0.6665  0.3191  0.0722
  849MPD2     H12527   4.160   3.348  14.452  0.4935 -2.3827  2.2178
  849MPD2    H112528   4.438   3.577  14.696  0.4123  1.4197 -1.1366
  849MPD2    H212529   4.063   3.721  14.638 -1.9988 -1.2052 -0.8525
  849MPD2    H312530   4.272   3.734  14.714 -1.9428  1.2360 -0.4402
  849MPD2     N12531   4.425   3.359  14.529  0.2843 -0.1730  0.1147
  849MPD2    H512532   4.517   3.385  14.564  0.2076  1.5978 -0.9936
  849MPD2    N112533   3.967   3.528  14.482 -0.0308 -1.0845  0.0839
  849MPD2    H712534   3.914   3.614  14.478  0.3047 -0.9788 -2.0943
  850MPD2     C12535   2.179   1.384  14.829  0.0929  0.3779  0.2543
  850MPD2    C112536   2.199   1.480  14.924  0.6068 -0.0610 -0.4885
  850MPD2    C212537   2.322   1.541  14.942 -0.4473  0.3345 -1.2227
  850MPD2    C312538   2.428   1.505  14.854  0.7192 -0.4712 -0.0638
  850MPD2    C412539   2.399   1.411  14.755  0.2122 -0.4067  0.3434
  850MPD2    C512540   2.278   1.355  14.742 -0.2240 -0.9232  0.2442
  850MPD2     H12541   2.339   1.617  15.017 -1.0242 -0.9063  0.1713
  850MPD2    H112542   2.480   1.379  14.690  0.1782 -2.5859  1.3882
  850MPD2    H212543   2.085   1.334  14.808  0.8720 -1.3479  0.9057
  850MPD2    H312544   2.257   1.281  14.666  1.0387  1.4718 -2.4396
  850MPD2     N12545   2.555   1.573  14.861 -0.8327  0.8215 -0.5759
  850MPD2    H512546   2.617   1.561  14.781  1.9895  2.5723  1.3050
  850MPD2    N112547   2.086   1.508  15.006  0.5698  0.0865  0.3862
  850MPD2    H712548   2.003   1.452  14.988  0.4276  0.5670 -0.4559
  851MPD2     C12549   2.330   1.382  15.592 -0.0283 -0.2672 -0.0463
  851MPD2    C112550   2.242   1.317  15.507 -0.2049  0.1006 -0.0224
  851MPD2    C212551   2.291   1.224  15.420 -0.1036 -0.3791 -0.1750
  851MPD2    C312552   2.424   1.199  15.417  0.2600  0.3804  0.1761
  851MPD2    C412553   2.513   1.272  15.493  0.2984 -0.0720  0.8147
  851MPD2    C512554   2.465   1.362  15.581 -0.0960  0.6140 -0.2427
  851MPD2     H12555   2.243   1.152  15.355  1.6561 -1.3651 -0.3613
  851MPD2    H112556   2.619   1.251  15.485  0.1949 -0.1937 -0.2075
  851MPD2    H212557   2.305   1.461  15.661 -1.8177 -0.5195 -0.4197
  851MPD2    H312558   2.535   1.422  15.637  1.3912  1.8079 -3.3612
  851MPD2     N12559   2.467   1.095  15.331  0.3542 -0.1877 -0.1072
  851MPD2    H512560   2.404   1.036  15.278  1.1543 -0.0815 -1.1760
  851MPD2    N112561   2.109   1.367  15.509  0.5043  0.1862  0.2757
  851MPD2    H712562   2.095   1.447  15.569 -1.3990 -0.3571  0.5582
  852MPD2     C12563   1.121   3.809  10.128  0.6994 -0.6540 -0.2920
  852MPD2    C112564   1.105   3.916  10.214 -0.0704  0.2250 -1.3032
  852MPD2    C212565   1.109   4.040  10.150  0.7002  0.1984  0.6209
  852MPD2    C312566   1.146   4.042  10.017  0.3972  0.3467  0.5769
  852MPD2    C412567   1.166   3.929   9.934 -0.0486  0.3403 -0.3682
  852MPD2    C512568   1.142   3.808   9.990  0.1666  0.2842 -0.0896
  852MPD2     H12569   1.087   4.126  10.213  1.6215  1.1271 -0.3294
  852MPD2    H112570   1.200   3.930   9.831  0.6650 -0.5165 -0.1403
  852MPD2    H212571   1.113   3.706  10.161  0.9589 -0.7943 -0.6676
  852MPD2    H312572   1.156   3.714   9.938 -1.6769 -0.5333  0.9075
  852MPD2     N12573   1.187   4.171   9.980 -0.5083  0.2397  0.5870
  852MPD2    H512574   1.146   4.251  10.028 -2.0871  0.7420 -1.6066
  852MPD2    N112575   1.072   3.897  10.351 -0.3145  0.0032  0.0201
  852MPD2    H712576   1.028   3.976  10.396  0.9776  0.5918  0.2501
  853MPD2     C12577   3.115   3.502  12.423 -0.4909 -0.1073  0.2171
  853MPD2    C112578   3.122   3.640  12.453 -0.2708 -0.3673  0.6859
  853MPD2    C212579   3.173   3.717  12.350  0.2814 -0.1709  0.0653
  853MPD2    C312580   3.217   3.667  12.227 -0.6625  0.2796  0.7291
  853MPD2    C412581   3.204   3.531  12.207 -0.9206 -0.6408  0.1850
  853MPD2    C512582   3.154   3.455  12.310  0.0568 -0.4300 -0.1730
  853MPD2     H12583   3.190   3.822  12.372 -2.5624 -0.2593  2.6715
  853MPD2    H112584   3.230   3.487  12.112  0.1511 -1.3771  0.8218
  853MPD2    H212585   3.061   3.428  12.480  0.7796  1.0911  3.0064
  853MPD2    H312586   3.136   3.350  12.292  0.5213 -0.8005  1.5200
  853MPD2     N12587   3.248   3.743  12.122 -0.2864  0.1334 -0.2827
  853MPD2    H512588   3.261   3.684  12.040  2.4127 -3.2493  2.5458
  853MPD2    N112589   3.060   3.692  12.565  0.0709 -0.8006 -0.6970
  853MPD2    H712590   3.014   3.622  12.623  0.1215  1.4328  2.0621
  854MPD2     C12591   0.031   3.665  12.733  0.3262  0.0052  0.1703
  854MPD2    C112592   0.118   3.765  12.753  0.0121  0.1923  0.1840
  854MPD2    C212593   0.233   3.747  12.817 -0.6157  0.6076 -0.2521
  854MPD2    C312594   0.259   3.623  12.869  0.1706  0.2907  1.2095
  854MPD2    C412595   0.171   3.513  12.852 -1.0539  0.2641  0.0357
  854MPD2    C512596   0.059   3.540  12.787 -0.1557 -0.4454  0.1615
  854MPD2     H12597   0.298   3.833  12.820 -1.1596  1.0196 -0.1710
  854MPD2    H112598   0.183   3.409  12.880 -2.2762 -0.1039 -0.8062
  854MPD2    H212599   4.680   3.674  12.670 -0.2081  2.0451  1.1973
  854MPD2    H312600   4.730   3.458  12.762  0.4727 -0.4992 -1.2945
  854MPD2     N12601   0.376   3.588  12.942  0.1284  0.2189  0.1774
  854MPD2    H512602   0.384   3.490  12.968  0.2120 -0.5341 -2.7344
  854MPD2    N112603   0.093   3.890  12.688  0.4496  0.1246 -0.0255
  854MPD2    H712604   0.002   3.911  12.650 -1.1592 -2.9416  2.0731
  855MPD2     C12605   0.806   3.878  13.786 -0.5061 -0.0344 -0.5734
  855MPD2    C112606   0.835   3.741  13.766 -0.6737 -0.0799  0.5056
  855MPD2    C212607   0.824   3.692  13.638  0.7919 -0.3235 -0.2445
  855MPD2    C312608   0.771   3.767  13.535 -0.7926  0.5594 -0.2086
  855MPD2    C412609   0.747   3.901  13.566 -0.7129  0.7910 -0.5113
  855MPD2    C512610   0.763   3.962  13.683 -0.4276  0.0896  0.0492
  855MPD2     H12611   0.846   3.587  13.624 -2.6107 -0.6217 -3.3806
  855MPD2    H112612   0.706   3.958  13.484  1.7282  0.3601 -2.0165
  855MPD2    H212613   0.829   3.934  13.876 -0.6640 -0.1096 -0.4869
  855MPD2    H312614   0.743   4.067  13.698  1.7472  0.4231  0.5587
  855MPD2     N12615   0.753   3.722  13.402  0.0727 -0.3968 -0.0242
  855MPD2    H512616   0.711   3.790  13.340 -0.0640 -1.9382 -1.6219
  855MPD2    N112617   0.877   3.647  13.858  0.2615  0.0191 -0.1708
  855MPD2    H712618   0.892   3.553  13.823 -0.0616 -0.1338  0.0933
  856MPD2     C12619   3.221   4.670  14.565 -0.0760  0.5678 -0.2986
  856MPD2    C112620   3.207   0.068  14.536  0.0909 -0.6526 -0.2650
  856MPD2    C212621   3.110   0.110  14.446 -0.0886  0.0571 -0.4085
  856MPD2    C312622   3.021   0.017  14.396 -1.0526 -0.7802 -0.1792
  856MPD2    C412623   3.028   4.624  14.428  0.0916 -0.2813 -0.0364
  856MPD2    C512624   3.130   4.582  14.511  0.5789  0.2539  0.2136
  856MPD2     H12625   3.106   0.218  14.439  0.6870  0.1558  0.6911
  856MPD2    H112626   2.938   4.566  14.411 -1.1024  1.4103  0.5349
  856MPD2    H212627   3.303   4.638  14.628 -1.7653 -1.1991  1.0230
  856MPD2    H312628   3.145   4.481  14.548 -0.1877  0.4225  1.0097
  856MPD2     N12629   2.911   0.070  14.328  0.1686 -0.4302 -0.2710
  856MPD2    H512630   2.838   0.001  14.310  0.4933 -0.5181 -1.2613
  856MPD2    N112631   3.288   0.167  14.591 -0.0167 -0.0477  0.3571
  856MPD2    H712632   3.257   0.263  14.579  0.5697  0.0389 -0.4446
  857MPD2     C12633   4.008   2.423  12.478 -0.7703  0.1424 -0.1788
  857MPD2    C112634   4.113   2.358  12.533 -0.5669  0.3392 -0.6555
  857MPD2    C212635   4.184   2.428  12.629  0.4414  0.1037 -0.1002
  857MPD2    C312636   4.163   2.563  12.657  0.2316  0.5722  0.2606
  857MPD2    C412637   4.059   2.626  12.597  0.0595  0.6885 -0.8506
  857MPD2    C512638   3.983   2.553  12.509  0.6640 -0.3580  0.0393
  857MPD2     H12639   4.266   2.378  12.679  0.1201 -0.6649 -0.3446
  857MPD2    H112640   4.045   2.732  12.610  0.3128  0.5206  0.7133
  857MPD2    H212641   3.944   2.388  12.397 -1.2500 -1.3997  0.8653
  857MPD2    H312642   3.899   2.605  12.466  1.0325 -0.2529 -0.5562
  857MPD2     N12643   4.250   2.620  12.750 -0.3191 -0.3567  0.5336
  857MPD2    H512644   4.330   2.566  12.782  0.6460  0.9455  0.3315
  857MPD2    N112645   4.145   2.226  12.480  0.0369 -0.2239 -0.1627
  857MPD2    H712646   4.085   2.179  12.413 -0.4302 -0.2430  0.2756
  858MPD2     C12647   0.227   1.109  16.798  0.3409  0.6094  0.1593
  858MPD2    C112648   0.347   1.047  16.752  0.3958 -0.2313 -0.0603
  858MPD2    C212649   0.466   1.103  16.791 -0.3756  0.1699 -0.3089
  858MPD2    C312650   0.466   1.204  16.882 -0.0157 -0.2768  0.4395
  858MPD2    C412651   0.346   1.249  16.935  0.0375  0.6278 -0.1120
  858MPD2    C512652   0.228   1.191  16.904  0.9262  0.2397 -0.0893
  858MPD2     H12653   0.560   1.061  16.758  0.3428  0.4367  1.3663
  858MPD2    H112654   0.353   1.331  17.006 -0.5121  1.2861 -0.8136
  858MPD2    H212655   0.127   1.073  16.776 -0.1911  0.5969  2.5496
  858MPD2    H312656   0.136   1.225  16.949 -0.3424 -2.0260 -0.9398
  858MPD2     N12657   0.596   1.266  16.917 -0.6211 -0.1225 -0.2230
  858MPD2    H512658   0.592   1.337  16.989  2.0763 -1.0345  0.8278
  858MPD2    N112659   0.336   0.934  16.669 -0.6580  0.0012 -0.5147
  858MPD2    H712660   0.249   0.881  16.669 -0.9438  0.4749  0.5589
  859MPD2     C12661   4.058   2.807  15.633  0.3559  0.1188  0.3335
  859MPD2    C112662   4.014   2.781  15.505 -1.0174  1.0210  0.4450
  859MPD2    C212663   3.988   2.646  15.478  0.0857 -0.9433  0.0623
  859MPD2    C312664   4.006   2.539  15.565  0.9460  0.1520 -0.5247
  859MPD2    C412665   4.033   2.574  15.698  0.2519 -0.7467 -0.0386
  859MPD2    C512666   4.062   2.703  15.727  0.4124  0.1499  0.2205
  859MPD2     H12667   3.936   2.620  15.386 -0.7950  4.0697 -0.8739
  859MPD2    H112668   4.052   2.493  15.768 -0.4099 -0.7747  0.1066
  859MPD2    H212669   4.098   2.904  15.660 -0.3534  0.5845 -0.2913
  859MPD2    H312670   4.094   2.722  15.829 -1.4551  2.6654  0.3336
  859MPD2     N12671   3.976   2.409  15.532 -0.0949 -0.9030 -0.0658
  859MPD2    H512672   3.977   2.340  15.606 -0.1133 -0.1554  0.6333
  859MPD2    N112673   4.005   2.883  15.405  0.7205  0.3709 -0.5294
  859MPD2    H712674   4.048   2.970  15.436 -0.1711  0.3026  0.8682
  860MPD2     C12675   1.537   3.515  11.628 -0.6925  0.0026 -0.2291
  860MPD2    C112676   1.492   3.417  11.700  0.4487 -0.3714 -0.3131
  860MPD2    C212677   1.383   3.442  11.783 -0.2188  0.2661 -0.1717
  860MPD2    C312678   1.316   3.566  11.779  0.5887 -0.4785  0.2183
  860MPD2    C412679   1.360   3.660  11.691  0.6690  0.5628 -0.5097
  860MPD2    C512680   1.472   3.634  11.616  0.5167 -0.2753 -0.7345
  860MPD2     H12681   1.354   3.371  11.859 -2.1213  0.0479 -1.1100
  860MPD2    H112682   1.325   3.762  11.682 -0.6588  0.1157 -0.3129
  860MPD2    H212683   1.627   3.497  11.572 -0.0477  1.7583  0.2522
  860MPD2    H312684   1.513   3.715  11.558 -1.7714  0.4502 -1.3249
  860MPD2     N12685   1.212   3.587  11.865  0.1683  0.2559 -0.0835
  860MPD2    H512686   1.199   3.520  11.940  0.3840 -1.0507 -1.2210
  860MPD2    N112687   1.562   3.293  11.715  0.3484  0.4764 -0.0687
  860MPD2    H712688   1.542   3.233  11.794 -2.0418 -0.3792 -1.3372
  861MPD2     C12689   0.154   1.767  11.212  0.3402 -0.6080  0.0887
  861MPD2    C112690   0.067   1.843  11.287  0.3668 -0.1400  0.2275
  861MPD2    C212691   4.698   1.897  11.223 -0.8249  0.0512 -0.2549
  861MPD2    C312692   4.689   1.893  11.082 -0.1835  0.5819 -0.5051
  861MPD2    C412693   0.052   1.827  11.012  0.8869  0.5997  0.1019
  861MPD2    C512694   0.146   1.754  11.075 -0.5564  0.2441 -0.2828
  861MPD2     H12695   4.626   1.953  11.281  1.3147  1.2771  1.2228
  861MPD2    H112696   0.049   1.828  10.903  0.0344 -1.1893  0.1084
  861MPD2    H212697   0.242   1.717  11.251  0.2594 -0.5846  0.2987
  861MPD2    H312698   0.215   1.700  11.011 -3.3655 -3.4310 -0.1754
  861MPD2     N12699   4.590   1.954  10.995  0.2790 -0.8615 -0.4158
  861MPD2    H512700   4.591   1.943  10.895  0.9243 -3.0521 -0.1545
  861MPD2    N112701   0.076   1.868  11.426  0.4788 -0.1584 -0.2091
  861MPD2    H712702   4.733   1.912  11.469  0.3439  1.3350 -1.9722
  862MPD2     C12703   4.366   2.212  10.361  0.1034  0.0206 -0.1372
  862MPD2    C112704   4.366   2.121  10.456 -0.2009  0.8053 -0.0253
  862MPD2    C212705   4.330   1.991  10.424  0.2646  0.7158 -0.5031
  862MPD2    C312706   4.292   1.946  10.294  0.2059  0.2702 -0.6195
  862MPD2    C412707   4.288   2.043  10.197  0.1329  0.2102  0.1725
  862MPD2    C512708   4.328   2.174  10.231 -0.1581  0.1713 -0.3301
  862MPD2     H12709   4.326   1.916  10.502 -0.5063  1.2328 -0.0427
  862MPD2    H112710   4.249   2.019  10.099  3.2830  1.1604 -1.3091
  862MPD2    H212711   4.390   2.316  10.377  1.6504 -0.5072  0.9664
  862MPD2    H312712   4.308   2.253  10.159  0.5063  1.5150  0.9716
  862MPD2     N12713   4.243   1.815  10.271 -0.7430 -0.0594  0.2985
  862MPD2    H512714   4.191   1.802  10.185  3.0038 -1.8166 -1.7242
  862MPD2    N112715   4.401   2.146  10.594  0.2174  0.4280 -0.0594
  862MPD2    H712716   4.394   2.066  10.656  1.2930  0.2098 -0.2231
  863MPD2     C12717   3.811   3.947  16.867  1.4114  0.4511  0.0646
  863MPD2    C112718   3.760   4.070  16.897  0.2536 -0.4198 -0.3308
  863MPD2    C212719   3.816   4.140  17.004  0.0589  0.0071  0.7403
  863MPD2    C312720   3.924   4.091  17.078  1.0237  0.5333 -0.0656
  863MPD2    C412721   3.958   3.964  17.055  0.4797 -0.3994 -0.0907
  863MPD2    C512722   3.906   3.895  16.945  0.0669  0.9147 -0.0424
  863MPD2     H12723   3.782   4.240  17.029 -0.7272 -0.2304  0.6339
  863MPD2    H112724   4.033   3.914  17.115  0.4405 -1.5754 -1.0313
  863MPD2    H212725   3.777   3.890  16.782  2.7403  0.7859 -0.6891
  863MPD2    H312726   3.935   3.793  16.925 -1.1871  0.6040 -0.2146
  863MPD2     N12727   3.983   4.164  17.187  0.4663  0.2839  0.3305
  863MPD2    H512728   4.060   4.121  17.237  0.6508 -0.4694 -0.6067
  863MPD2    N112729   3.657   4.116  16.811  0.5968 -0.2379 -0.8120
  863MPD2    H712730   3.623   4.050  16.741 -0.1612  0.4461 -1.0953
  864MPD2     C12731   3.824   1.256  17.142  0.3717  0.3077 -0.5653
  864MPD2    C112732   3.857   1.166  17.048 -0.1894  0.8123  0.3655
  864MPD2    C212733   3.908   1.214  16.928 -0.1983 -0.3863 -0.0079
  864MPD2    C312734   3.928   1.350  16.904 -0.4096 -0.9724 -0.9445
  864MPD2    C412735   3.883   1.441  16.996 -0.0196  0.1476  0.0681
  864MPD2    C512736   3.831   1.391  17.118 -0.8403  0.0273  0.8318
  864MPD2     H12737   3.920   1.145  16.844  0.3144  0.7945 -0.9034
  864MPD2    H112738   3.888   1.546  16.967 -1.7831 -0.2671 -1.7270
  864MPD2    H212739   3.789   1.233  17.242 -1.7163 -0.3796 -1.4634
  864MPD2    H312740   3.790   1.464  17.188  1.4842  1.1163  1.0810
  864MPD2     N12741   3.967   1.405  16.775 -0.3733 -0.0338  0.3159
  864MPD2    H512742   3.997   1.502  16.777 -0.6591  0.0886 -1.3984
  864MPD2    N112743   3.847   1.030  17.083  0.4539  0.5548 -0.0732
  864MPD2    H712744   3.816   1.008  17.177 -0.2143 -0.9475 -0.6408
  865MPD2     C12745   3.946   1.548  15.968  0.2913 -0.1744  0.1624
  865MPD2    C112746   3.981   1.478  16.081  0.8534 -0.4234 -0.4584
  865MPD2    C212747   3.986   1.549  16.202 -0.2138  0.4442  0.9057
  865MPD2    C312748   3.997   1.686  16.199 -0.2528 -0.4282  0.5415
  865MPD2    C412749   3.977   1.756  16.081 -0.2178  0.2396  0.1072
  865MPD2    C512750   3.932   1.687  15.967 -0.4862 -0.3385 -0.3859
  865MPD2     H12751   3.988   1.497  16.297  0.3241 -1.3084 -0.0508
  865MPD2    H112752   3.978   1.865  16.073 -0.5809  0.1187 -1.5429
  865MPD2    H212753   3.921   1.496  15.877 -1.9698  1.3158 -0.0616
  865MPD2    H312754   3.918   1.735  15.871 -0.9063  2.0389  0.8419
  865MPD2     N12755   4.012   1.778  16.311 -0.3278  0.4895  0.7365
  865MPD2    H512756   3.989   1.875  16.297 -2.4923 -0.1488 -0.1813
  865MPD2    N112757   3.987   1.339  16.069  0.5677  0.6560  0.1243
  865MPD2    H712758   3.969   1.304  15.975 -0.0451  0.0497  0.4681
  866MPD2     C12759   0.645   2.136  11.834 -0.2265 -0.9138  0.1250
  866MPD2    C112760   0.648   2.081  11.712  0.0613 -0.2437 -0.4000
  866MPD2    C212761   0.539   2.097  11.631  0.6114 -0.3318 -0.2132
  866MPD2    C312762   0.430   2.165  11.677 -0.0750 -0.2504  0.0520
  866MPD2    C412763   0.427   2.212  11.807  0.6800  0.1789  0.3470
  866MPD2    C512764   0.539   2.198  11.888  0.2581 -0.1878 -0.2095
  866MPD2     H12765   0.539   2.045  11.536  1.2107  0.8406 -0.8587
  866MPD2    H112766   0.340   2.260  11.850 -0.4357 -3.8706  2.6356
  866MPD2    H212767   0.734   2.122  11.895 -0.3000 -0.0921  0.4196
  866MPD2    H312768   0.527   2.230  11.990 -0.5912 -4.1551  0.9161
  866MPD2     N12769   0.305   2.189  11.609 -0.5497  0.0473 -0.5228
  866MPD2    H512770   0.230   2.226  11.666 -0.5762 -0.3969 -0.2664
  866MPD2    N112771   0.769   2.013  11.682  0.5712 -0.3087 -0.4607
  866MPD2    H712772   0.843   2.016  11.751 -0.1076 -2.0272  0.3547
  867MPD2     C12773   3.313   0.604  16.316  0.1315 -0.2354  0.3821
  867MPD2    C112774   3.333   0.601  16.454  0.7432  0.1738 -0.0701
  867MPD2    C212775   3.260   0.690  16.541 -0.2339 -0.5856  0.1250
  867MPD2    C312776   3.182   0.786  16.486  0.5301 -0.2303 -0.3543
  867MPD2    C412777   3.167   0.792  16.350 -0.2934 -0.4328 -0.4068
  867MPD2    C512778   3.218   0.693  16.271 -0.4779  0.2231  0.3356
  867MPD2     H12779   3.278   0.698  16.647 -0.8024  1.2493  0.0799
  867MPD2    H112780   3.110   0.869  16.298 -0.7096 -1.1752 -1.0557
  867MPD2    H212781   3.372   0.541  16.250 -0.1086 -0.8277  0.7336
  867MPD2    H312782   3.192   0.690  16.166  2.7868  1.8361 -0.5189
  867MPD2     N12783   3.107   0.876  16.572 -0.5746  0.2459 -0.4392
  867MPD2    H512784   3.063   0.958  16.529  1.8290  0.6395 -2.1598
  867MPD2    N112785   3.425   0.508  16.506 -0.0033  0.2129  0.3671
  867MPD2    H712786   3.452   0.442  16.435 -1.0263  0.9079 -0.6719
  868MPD2     C12787   4.290   4.610  12.867  0.3272  0.4255 -0.2820
  868MPD2    C112788   4.366   4.688  12.954  0.1788  0.0773  0.1824
  868MPD2    C212789   4.295   0.029  13.044 -0.5253  0.0034  0.1052
  868MPD2    C312790   4.156   0.043  13.032 -0.2471  0.2177  1.1427
  868MPD2    C412791   4.078   4.694  12.951 -0.2963  0.0208 -0.6615
  868MPD2    C512792   4.153   4.612  12.865 -0.2865  0.3162 -0.6293
  868MPD2     H12793   4.356   0.072  13.123 -1.5227 -1.0683  1.4693
  868MPD2    H112794   3.970   4.688  12.951 -0.1586 -2.6727 -1.4910
  868MPD2    H212795   4.343   4.534  12.810  0.2025 -0.0449  0.2304
  868MPD2    H312796   4.101   4.547  12.797 -0.1556 -0.6898  0.2278
  868MPD2     N12797   4.087   0.117  13.131  0.2889 -0.1108 -0.0368
  868MPD2    H512798   4.150   0.157  13.200 -0.1448  2.7826 -1.2937
  868MPD2    N112799   4.498   4.643  12.968 -0.8959 -0.0164 -0.3130
  868MPD2    H712800   4.538   4.600  12.885 -0.2735  1.2333 -0.6724
  869MPD2     C12801   0.906   4.093   0.689 -0.0761  0.2151  0.0160
  869MPD2    C112802   1.028   4.039   0.690  0.3550 -0.3069  0.0421
  869MPD2    C212803   1.124   4.090   0.769  0.0701  0.4619 -0.0922
  869MPD2    C312804   1.105   4.208   0.837  0.2929 -0.0315 -0.0247
  869MPD2    C412805   0.978   4.262   0.842  0.3877  0.1451  0.5190
  869MPD2    C512806   0.884   4.204   0.759 -0.8675  0.1301 -1.0681
  869MPD2     H12807   1.226   4.054   0.759  0.6777  2.1983 -0.1091
  869MPD2    H112808   0.960   4.356   0.892  1.3809  0.1422  0.8858
  869MPD2    H212809   0.826   4.049   0.630  1.8285 -0.1434 -2.2793
  869MPD2    H312810   0.787   4.252   0.755 -1.2372 -0.4097  1.5788
  869MPD2     N12811   1.207   4.262   0.923 -0.0709  0.2568  0.5394
  869MPD2    H512812   1.167   4.314   1.001  0.4162  2.0041 -0.3675
  869MPD2    N112813   1.045   3.929   0.589 -0.4465  0.1169 -0.3460
  869MPD2    H712814   0.969   3.920   0.523 -0.0486 -2.1898 -0.4918
  870MPD2     C12815   1.168   1.601   1.816 -0.4496 -0.3824  0.4009
  870MPD2    C112816   1.132   1.510   1.710 -0.5688  1.2181 -0.0788
  870MPD2    C212817   1.008   1.537   1.643  0.4240  0.0655 -0.2090
  870MPD2    C312818   0.929   1.651   1.672 -0.1758  0.2643 -0.1893
  870MPD2    C412819   0.967   1.727   1.781  0.1152  0.0868  1.4244
  870MPD2    C512820   1.084   1.698   1.852  0.4072 -0.6366  0.3070
  870MPD2     H12821   0.987   1.484   1.551 -3.1128  0.9593  0.0797
  870MPD2    H112822   0.904   1.805   1.821 -1.3310 -0.3175 -0.0186
  870MPD2    H212823   1.256   1.577   1.875  0.5843 -1.4369 -1.5297
  870MPD2    H312824   1.110   1.777   1.922 -1.5539 -0.0053  0.3164
  870MPD2     N12825   0.820   1.681   1.588 -0.3126 -0.6135  0.5708
  870MPD2    H512826   0.806   1.614   1.514 -1.5565 -0.0119  0.2674
  870MPD2    N112827   1.211   1.400   1.675 -0.3749 -0.0689  0.2952
  870MPD2    H712828   1.289   1.371   1.733 -1.1877 -3.2654 -0.2100
  871MPD2     C12829   2.304   1.340  16.315 -0.3495  0.4052 -0.2446
  871MPD2    C112830   2.284   1.266  16.431  0.0802 -0.3108  0.2042
  871MPD2    C212831   2.282   1.131  16.429  0.0781  0.5544 -0.1057
  871MPD2    C312832   2.301   1.068  16.310 -0.5670  0.1035  0.2957
  871MPD2    C412833   2.298   1.141  16.192 -0.3860 -0.7295  0.4792
  871MPD2    C512834   2.298   1.276  16.196  0.5049 -0.2267  0.1745
  871MPD2     H12835   2.271   1.073  16.520 -2.9498  1.4881  0.1131
  871MPD2    H112836   2.311   1.092  16.096 -0.2095 -1.3420  0.8116
  871MPD2    H212837   2.295   1.448  16.313 -0.9686  0.4328  3.7411
  871MPD2    H312838   2.307   1.331  16.103  0.0086  1.0793  0.8981
  871MPD2     N12839   2.329   0.928  16.323 -0.5291  0.2279  0.1587
  871MPD2    H512840   2.326   0.881  16.413  2.0935 -1.1688 -0.4833
  871MPD2    N112841   2.250   1.346  16.548 -0.3198  0.5674 -0.2539
  871MPD2    H712842   2.241   1.446  16.533  2.3190  0.4472 -2.7518
  872MPD2     C12843   2.735   3.849  14.427  0.0273  0.3356 -0.3520
  872MPD2    C112844   2.676   3.938  14.337 -0.9031 -0.6270 -0.2546
  872MPD2    C212845   2.542   3.968  14.349  0.8890 -0.1391 -0.4391
  872MPD2    C312846   2.472   3.915  14.463  0.4179 -0.3939 -0.8091
  872MPD2    C412847   2.536   3.845  14.556  0.3492  0.5840  0.0775
  872MPD2    C512848   2.665   3.807  14.536  0.2029  0.6468 -0.3513
  872MPD2     H12849   2.493   4.031  14.276 -2.0364 -0.1449  1.5433
  872MPD2    H112850   2.478   3.815  14.643 -1.0803  0.8342 -0.7854
  872MPD2    H212851   2.837   3.813  14.419  0.2878  1.0573 -0.2132
  872MPD2    H312852   2.709   3.737  14.607 -0.0488  0.1423 -0.6867
  872MPD2     N12853   2.338   3.955  14.482 -0.5237  0.5657  0.2101
  872MPD2    H512854   2.307   3.931  14.576  0.7067 -0.2641  0.4063
  872MPD2    N112855   2.747   3.991  14.224  0.7722  0.0874  0.6791
  872MPD2    H712856   2.700   4.064  14.171 -0.7187 -1.7302 -0.4983
  873MPD2     C12857   0.315   4.223   0.746  0.2824  0.1076  0.1028
  873MPD2    C112858   0.377   4.224   0.867 -0.0946 -0.0487  0.6866
  873MPD2    C212859   0.468   4.119   0.892  0.0276 -0.1594 -0.6777
  873MPD2    C312860   0.497   4.023   0.793  0.5161 -0.5694 -0.2043
  873MPD2    C412861   0.431   4.024   0.674 -0.3745 -0.1441 -0.4338
  873MPD2    C512862   0.340   4.121   0.653  0.6128  0.3642  0.6104
  873MPD2     H12863   0.515   4.128   0.989  1.3023  0.4241 -1.3602
  873MPD2    H112864   0.446   3.944   0.603 -0.2570 -3.3692  3.2486
  873MPD2    H212865   0.243   4.299   0.719  2.5121  2.5509  1.0142
  873MPD2    H312866   0.285   4.124   0.559 -1.1634 -0.4458  1.6171
  873MPD2     N12867   0.581   3.913   0.815  0.2232 -1.0055  0.4521
  873MPD2    H512868   0.591   3.839   0.747  1.9584  0.7627 -1.2344
  873MPD2    N112869   0.347   4.324   0.959  0.1368 -0.7169  0.5877
  873MPD2    H712870   0.275   4.389   0.927  0.4441 -0.4592  0.4125
  874MPD2     C12871   3.790   3.243  16.126  0.1330 -0.1709 -0.3761
  874MPD2    C112872   3.846   3.195  16.243 -0.1954 -0.4745  0.4052
  874MPD2    C212873   3.977   3.211  16.263 -0.3064  0.6030 -0.5430
  874MPD2    C312874   4.055   3.276  16.173  0.2595 -0.4579 -0.4152
  874MPD2    C412875   4.003   3.323  16.052  0.0040  0.1007  0.1424
  874MPD2    C512876   3.865   3.309  16.033 -0.0219  0.0003 -0.0419
  874MPD2     H12877   4.023   3.168  16.352  2.3556  0.6474 -1.8887
  874MPD2    H112878   4.053   3.367  15.967  1.0042  0.8220  1.1062
  874MPD2    H212879   3.686   3.233  16.099 -0.2627  2.1081  0.2245
  874MPD2    H312880   3.810   3.342  15.945  0.1844  1.5856  0.4237
  874MPD2     N12881   4.193   3.291  16.210 -0.3652 -0.4453 -0.1194
  874MPD2    H512882   4.210   3.268  16.308  1.9783 -0.3421 -0.4930
  874MPD2    N112883   3.771   3.117  16.331 -0.2857 -0.1077 -0.8655
  874MPD2    H712884   3.683   3.081  16.294  0.1145 -1.6319 -0.3235
  875MPD2     C12885   0.283   2.229  14.225  0.3433 -0.4243  0.1227
  875MPD2    C112886   0.159   2.275  14.253  0.1875  0.1249  0.2375
  875MPD2    C212887   0.112   2.263  14.385 -0.8103  0.7771  0.1075
  875MPD2    C312888   0.194   2.210  14.489  0.3416 -0.4184 -0.0289
  875MPD2    C412889   0.318   2.169  14.460 -0.0060  0.1902  0.4176
  875MPD2    C512890   0.355   2.175  14.328  0.2044 -0.2921 -0.1113
  875MPD2     H12891   0.018   2.309  14.412 -1.7153 -0.5402 -0.8220
  875MPD2    H112892   0.386   2.124  14.532  0.7679  2.2136  0.9659
  875MPD2    H212893   0.335   2.220  14.131 -0.8591  1.5413 -0.7324
  875MPD2    H312894   0.456   2.145  14.305 -0.3824 -1.3921 -1.3205
  875MPD2     N12895   0.149   2.212  14.625  0.8911  0.7838 -0.5040
  875MPD2    H512896   0.055   2.249  14.633 -0.0635 -1.8249  0.4074
  875MPD2    N112897   0.068   2.315  14.158  0.2728  0.4951 -0.3388
  875MPD2    H712898   4.709   2.322  14.189  0.1460 -0.6370 -0.4833
  876MPD2     C12899   3.964   2.968  15.915 -0.3692  0.2751  0.2882
  876MPD2    C112900   4.086   3.018  15.948  0.1872 -0.2563  0.0761
  876MPD2    C212901   4.141   2.980  16.071  0.2845  0.9673  1.1662
  876MPD2    C312902   4.076   2.899  16.163  0.3535 -0.4792 -0.3311
  876MPD2    C412903   3.949   2.848  16.125  0.2601 -0.2168  0.5391
  876MPD2    C512904   3.892   2.886  16.004  0.8665  0.0740  0.2702
  876MPD2     H12905   4.243   3.012  16.092  0.6696  0.2550  0.3958
  876MPD2    H112906   3.894   2.770  16.175  0.8067 -1.2879 -0.5142
  876MPD2    H212907   3.917   2.987  15.819 -1.3665 -1.4097  0.4504
  876MPD2    H312908   3.809   2.830  15.962  1.6404 -0.4898 -0.5054
  876MPD2     N12909   4.133   2.862  16.286 -0.1969  0.2304  0.5345
  876MPD2    H512910   4.229   2.883  16.311 -0.2370 -0.3566  1.2071
  876MPD2    N112911   4.153   3.107  15.856  0.0979 -0.0567 -0.0795
  876MPD2    H712912   4.101   3.132  15.772 -0.7780  3.0864  1.3917
  877MPD2     C12913   3.987   3.671  15.339 -0.2566 -0.2010  0.1015
  877MPD2    C112914   4.125   3.677  15.367  0.2158 -0.2447  0.3291
  877MPD2    C212915   4.204   3.764  15.288  0.0436  0.1875 -0.8495
  877MPD2    C312916   4.146   3.837  15.179  0.3492  1.1562 -0.5220
  877MPD2    C412917   4.013   3.828  15.149 -0.4453 -0.0520  0.4201
  877MPD2    C512918   3.943   3.736  15.225 -0.1374  1.0135 -0.1286
  877MPD2     H12919   4.310   3.781  15.306  0.1504  0.1991 -1.4610
  877MPD2    H112920   3.975   3.860  15.053 -0.2640 -1.5748 -0.1684
  877MPD2    H212921   3.923   3.593  15.378  0.3055 -0.5474  0.3412
  877MPD2    H312922   3.841   3.718  15.194 -0.1100 -0.0951  0.4086
  877MPD2     N12923   4.226   3.913  15.088  0.3122  0.6910 -0.3384
  877MPD2    H512924   4.181   3.951  15.006 -0.1767  0.5825 -0.1228
  877MPD2    N112925   4.195   3.598  15.461 -0.7900  0.3907 -0.3909
  877MPD2    H712926   4.295   3.615  15.465 -0.1053 -3.4817 -1.3358
  878MPD2     C12927   3.427   3.087  13.635  0.2224  0.2891 -0.7581
  878MPD2    C112928   3.471   3.216  13.608  0.3407 -0.7085  0.1389
  878MPD2    C212929   3.528   3.293  13.710  0.1328 -0.0428 -0.3912
  878MPD2    C312930   3.544   3.250  13.836  0.6125  0.5157 -0.6536
  878MPD2    C412931   3.508   3.117  13.862  0.0872  0.1215  0.0661
  878MPD2    C512932   3.445   3.039  13.759 -0.7518 -0.2728  0.2447
  878MPD2     H12933   3.569   3.389  13.681 -0.3372  0.8757  1.9563
  878MPD2    H112934   3.549   3.062  13.946 -0.1354 -1.2789 -0.7425
  878MPD2    H212935   3.371   3.019  13.572 -0.5153  1.0636 -0.9347
  878MPD2    H312936   3.414   2.936  13.769 -2.3745  0.2992  1.3534
  878MPD2     N12937   3.603   3.332  13.925  1.1654 -0.2510 -0.1536
  878MPD2    H512938   3.638   3.420  13.888 -1.5369  1.1369  0.5247
  878MPD2    N112939   3.471   3.249  13.474  0.0347  0.5266  0.1672
  878MPD2    H712940   3.428   3.179  13.415  0.1289  0.1224  0.5743
  879MPD2     C12941   4.665   3.762  17.521  0.8270  0.3744 -0.1951
  879MPD2    C112942   4.648   3.880  17.451 -0.3823  0.1317 -0.2646
  879MPD2    C212943   4.589   3.875  17.321 -0.8484 -0.3859  0.7605
  879MPD2    C312944   4.553   3.752  17.265  0.3041 -0.4270  0.1166
  879MPD2    C412945   4.585   3.636  17.331 -0.2186  0.0844 -0.7100
  879MPD2    C512946   4.650   3.639  17.453 -0.1400  0.0656  0.2002
  879MPD2     H12947   4.575   3.966  17.264 -2.1486 -0.6968  0.5724
  879MPD2    H112948   4.579   3.536  17.291  2.2240 -0.5623  0.5787
  879MPD2    H212949   4.714   3.755  17.618 -1.9172  0.7429  1.2182
  879MPD2    H312950   4.669   3.549  17.510 -1.4375  0.0135  0.5607
  879MPD2     N12951   4.493   3.746  17.135 -0.4539  0.2346  0.2003
  879MPD2    H512952   4.479   3.654  17.094  0.9827 -0.3856  1.1033
  879MPD2    N112953   4.686   4.003  17.510  0.0722 -0.4226 -0.4236
  879MPD2    H712954   4.716   4.006  17.607  3.2402  0.4878 -1.4660
  880MPD2     C12955   1.122   0.953   0.477 -0.7372 -0.0740  0.3114
  880MPD2    C112956   1.217   1.025   0.545  0.1740  0.3251  0.1169
  880MPD2    C212957   1.339   0.971   0.576  0.2608 -0.3854  0.1276
  880MPD2    C312958   1.371   0.838   0.545  0.5760 -0.3427 -0.3431
  880MPD2    C412959   1.274   0.763   0.475 -0.2955 -0.3330  0.0779
  880MPD2    C512960   1.150   0.823   0.452 -0.1697 -0.2836  0.5170
  880MPD2     H12961   1.405   1.029   0.639 -1.1827 -0.5839  1.8318
  880MPD2    H112962   1.302   0.667   0.434 -0.0761 -0.6120  0.8691
  880MPD2    H212963   1.023   0.985   0.448 -0.6041 -0.8858 -1.0405
  880MPD2    H312964   1.090   0.767   0.381  1.6209 -0.6384 -0.7125
  880MPD2     N12965   1.494   0.788   0.593 -0.7660 -0.5596  0.0608
  880MPD2    H512966   1.541   0.845   0.662 -1.8241 -1.6669  1.6997
  880MPD2    N112967   1.180   1.158   0.564  0.3886  0.5619 -0.1405
  880MPD2    H712968   1.092   1.187   0.524  1.1380  1.7865 -0.9098
  881MPD2     C12969   1.220   2.078   0.102 -0.0717  0.2520 -0.2370
  881MPD2    C112970   1.231   1.946   0.048 -0.0734  0.1401 -0.3250
  881MPD2    C212971   1.228   1.840   0.137 -0.0255 -0.5043 -0.3131
  881MPD2    C312972   1.177   1.859   0.265 -0.0278 -0.5662 -0.1473
  881MPD2    C412973   1.139   1.983   0.300  0.1778  0.2684  0.2091
  881MPD2    C512974   1.154   2.095   0.220 -0.3636 -0.1738 -0.2019
  881MPD2     H12975   1.261   1.743   0.102  0.2143 -0.6457  0.2903
  881MPD2    H112976   1.100   2.001   0.399  2.3038  1.2424  0.8653
  881MPD2    H212977   1.248   2.165   0.044  0.6176 -0.1570 -0.5154
  881MPD2    H312978   1.140   2.189   0.272  0.1739 -1.5262  2.4241
  881MPD2     N12979   1.165   1.756   0.364  0.3734 -0.9400  0.2742
  881MPD2    H512980   1.128   1.787   0.453  2.6268  1.6908  0.2662
  881MPD2    N112981   1.284   1.944  17.667 -0.1122  0.5975 -0.0551
  881MPD2    H712982   1.288   2.033  17.619 -0.4338  2.3340  3.1024
  882MPD2     C12983   4.432   3.956  14.288 -0.0485 -0.7179 -0.6361
  882MPD2    C112984   4.346   3.950  14.401  0.4298 -0.2856 -0.0674
  882MPD2    C212985   4.212   3.938  14.391 -0.4659 -0.0760  0.5984
  882MPD2    C312986   4.151   3.917  14.264 -0.4495  0.8769  0.4774
  882MPD2    C412987   4.233   3.936  14.151  0.0427  1.0464 -0.6119
  882MPD2    C512988   4.370   3.952  14.165 -0.2602 -0.0713  0.2471
  882MPD2     H12989   4.149   3.932  14.479  2.0236 -0.3190  2.3645
  882MPD2    H112990   4.185   3.920  14.055 -0.3035  2.0366 -0.6052
  882MPD2    H212991   4.540   3.960  14.297 -0.0562 -1.8350 -0.0165
  882MPD2    H312992   4.435   3.957  14.079  2.5318  2.4612  2.5087
  882MPD2     N12993   4.018   3.893  14.237  0.0111 -0.2912 -0.5089
  882MPD2    H512994   3.988   3.884  14.140  3.4627 -0.4291 -1.5798
  882MPD2    N112995   4.415   3.968  14.524  0.9760 -0.8536  0.0438
  882MPD2    H712996   4.515   3.952  14.520  1.2980  1.2740 -0.3297
  883MPD2     C12997   1.365   3.324  16.061 -0.8382  0.0747  1.2804
  883MPD2    C112998   1.415   3.452  16.028 -0.1122 -0.6868 -0.1321
  883MPD2    C212999   1.502   3.517  16.119  0.4233 -0.1563 -0.0171
  883MPD2    C313000   1.550   3.454  16.236  0.1517 -0.0751  0.0029
  883MPD2    C413001   1.496   3.331  16.263  0.2588 -0.1918 -0.3349
  883MPD2    C513002   1.414   3.268  16.174  0.0908  0.4052 -0.6433
  883MPD2     H13003   1.534   3.620  16.106 -0.7326 -0.0109 -1.6826
  883MPD2    H113004   1.522   3.269  16.347  1.4535 -1.2299 -1.4733
  883MPD2    H213005   1.297   3.282  15.988 -1.8108 -0.4710  2.5212
  883MPD2    H313006   1.383   3.167  16.199  1.1184 -0.4745 -2.9382
  883MPD2     N13007   1.641   3.518  16.324  0.2082 -0.0975  0.1112
  883MPD2    H513008   1.677   3.607  16.292  3.1498 -0.4528  2.4501
  883MPD2    N113009   1.373   3.530  15.918  1.1913 -0.7895  0.8004
  883MPD2    H713010   1.410   3.625  15.913 -1.0860 -0.0325 -1.7788
  884MPD2     C13011   3.667   4.405  15.025 -0.3933 -0.1261 -0.2728
  884MPD2    C113012   3.685   4.543  15.018  0.3740  0.0891 -0.3763
  884MPD2    C213013   3.579   4.620  15.066  0.3566 -1.0905 -0.4025
  884MPD2    C313014   3.469   4.566  15.123 -1.0192  1.0636  0.3760
  884MPD2    C413015   3.451   4.434  15.130  0.0712 -0.5680 -0.7793
  884MPD2    C513016   3.555   4.351  15.093 -0.1174  0.2977  0.1920
  884MPD2     H13017   3.591   4.728  15.073 -0.1839 -1.1690  1.8465
  884MPD2    H113018   3.365   4.388  15.178  0.4813 -0.4307  0.1016
  884MPD2    H213019   3.740   4.332  14.992 -1.9301 -0.6766 -2.4585
  884MPD2    H313020   3.543   4.243  15.089  1.1431  0.1622  0.2420
  884MPD2     N13021   3.377   4.652  15.189 -0.5742 -0.1477  0.1843
  884MPD2    H513022   3.381   0.014  15.171 -0.4657 -0.3157 -0.7100
  884MPD2    N113023   3.804   4.611  14.981  0.1288  0.0201 -0.1655
  884MPD2    H713024   3.798   4.712  14.983 -0.6499  0.0043 -1.5687
  885MPD2     C13025   1.930   0.314   0.236  0.4559  0.2697  0.0569
  885MPD2    C113026   1.982   0.195   0.196  0.2205  0.2999 -0.2676
  885MPD2    C213027   1.975   0.161   0.059  0.5476 -0.0669 -0.3563
  885MPD2    C313028   1.908   0.238  17.711  0.5754 -0.0160 -0.3848
  885MPD2    C413029   1.854   0.357   0.010  0.1312 -0.0833  0.6889
  885MPD2    C513030   1.862   0.393   0.144  0.1710  0.3074 -0.3759
  885MPD2     H13031   2.033   0.078   0.022  1.1990  1.0255 -1.7727
  885MPD2    H113032   1.807   0.426  17.689  0.5257 -0.1966  0.3096
  885MPD2    H213033   1.939   0.355   0.336  2.9776  0.5798 -0.2880
  885MPD2    H313034   1.818   0.482   0.187  2.5369  1.6344 -0.6709
  885MPD2     N13035   1.910   0.203  17.576  0.2403  0.1913 -0.0704
  885MPD2    H513036   1.956   0.117  17.547  3.2480  1.9173 -0.4395
  885MPD2    N113037   2.064   0.135   0.293 -0.5041  0.8378  0.1487
  885MPD2    H713038   2.061   0.168   0.389  2.2578  1.3105  0.0765
  886MPD2     C13039   2.687   3.037  15.358  0.3617 -0.0901  0.3919
  886MPD2    C113040   2.786   3.101  15.433 -0.0047  0.1755 -1.1377
  886MPD2    C213041   2.844   3.222  15.383  0.0560  0.6456  0.2493
  886MPD2    C313042   2.806   3.270  15.262  0.0490  0.8058  0.0161
  886MPD2    C413043   2.702   3.212  15.197 -0.3417  0.2209  0.0021
  886MPD2    C513044   2.638   3.104  15.252  0.3896 -0.2649 -0.4908
  886MPD2     H13045   2.923   3.270  15.440 -1.5313  0.7325  2.3527
  886MPD2    H113046   2.670   3.242  15.098  0.0281  0.0479 -0.1717
  886MPD2    H213047   2.629   2.954  15.397  1.4988 -2.9206 -4.0412
  886MPD2    H313048   2.550   3.064  15.203  0.2505  0.5261 -0.8978
  886MPD2     N13049   2.885   3.369  15.194  0.1206 -0.3182  0.6797
  886MPD2    H513050   2.860   3.384  15.096  0.8120  0.7419  0.6726
  886MPD2    N113051   2.841   3.050  15.549 -0.1782  0.2147  0.2812
  886MPD2    H713052   2.906   3.111  15.598 -0.1161 -0.8276  1.4990
  887MPD2     C13053   3.247   3.246  16.101  0.3481  0.9931 -0.3787
  887MPD2    C113054   3.254   3.202  15.970  0.4803  1.1342 -1.0193
  887MPD2    C213055   3.340   3.260  15.878  0.3762 -0.4005  0.0965
  887MPD2    C313056   3.426   3.366  15.913 -0.5401 -0.6663 -0.1997
  887MPD2    C413057   3.412   3.416  16.042 -0.3328  0.4180 -0.0678
  887MPD2    C513058   3.332   3.350  16.132  0.5220 -0.4457 -0.1486
  887MPD2     H13059   3.345   3.225  15.776 -1.7519 -1.7942  0.4613
  887MPD2    H113060   3.465   3.499  16.088  0.9591 -0.6004  0.2752
  887MPD2    H213061   3.190   3.204  16.184 -0.0642  0.0882 -1.1180
  887MPD2    H313062   3.322   3.390  16.232  2.4156 -0.8231  0.1975
  887MPD2     N13063   3.522   3.419  15.824 -0.5172 -0.1642 -0.1389
  887MPD2    H513064   3.524   3.385  15.728 -0.6930 -0.5461 -0.0055
  887MPD2    N113065   3.170   3.101  15.919  0.0411 -0.6893 -0.2860
  887MPD2    H713066   3.179   3.086  15.819 -2.9314 -0.3364 -0.6030
  888MPD2     C13067   0.551   3.300  14.923 -0.0939 -0.0752  0.0366
  888MPD2    C113068   0.555   3.288  15.056 -0.0194 -0.4890 -0.0926
  888MPD2    C213069   0.616   3.396  15.116  0.2226  0.2464  0.2110
  888MPD2    C313070   0.668   3.510  15.059  0.3924  0.0202 -0.0176
  888MPD2    C413071   0.655   3.521  14.928  0.2484 -0.0983  0.7615
  888MPD2    C513072   0.591   3.415  14.860 -0.7456  0.1808  0.1208
  888MPD2     H13073   0.611   3.399  15.225 -0.3360 -0.6465  0.2030
  888MPD2    H113074   0.682   3.608  14.871  0.3421 -0.5682  0.0871
  888MPD2    H213075   0.498   3.230  14.859  0.3201 -1.0957  0.8223
  888MPD2    H313076   0.579   3.418  14.753  1.1865 -1.7779 -0.1499
  888MPD2     N13077   0.720   3.614  15.139  0.1460  0.4998  0.2737
  888MPD2    H513078   0.699   3.607  15.239  2.3369 -0.7842  0.6319
  888MPD2    N113079   0.506   3.173  15.129  0.6318 -0.3203 -0.2008
  888MPD2    H713080   0.504   3.178  15.231 -1.2404  0.0892 -0.2672
  889MPD2     C13081   4.237   3.393  13.034  0.2163  0.1402  0.4480
  889MPD2    C113082   4.359   3.322  13.036  0.7128  0.1253  0.7537
  889MPD2    C213083   4.476   3.394  13.078  0.0784  0.4398  0.3901
  889MPD2    C313084   4.469   3.536  13.080  0.6394  0.6483 -1.0776
  889MPD2    C413085   4.353   3.605  13.055 -0.1465 -0.4531 -0.5153
  889MPD2    C513086   4.236   3.532  13.031 -0.9519  0.1895  0.3127
  889MPD2     H13087   4.570   3.341  13.082 -0.1687 -0.0985 -0.7215
  889MPD2    H113088   4.343   3.712  13.045  2.7614 -0.0285  1.2472
  889MPD2    H213089   4.147   3.340  13.003  0.5000 -1.3856  2.2104
  889MPD2    H313090   4.148   3.581  12.991 -1.5987 -0.0696  1.4235
  889MPD2     N13091   4.598   3.603  13.096  0.4731  0.5834  1.4379
  889MPD2    H513092   4.679   3.542  13.093 -0.8409 -1.1512  0.7814
  889MPD2    N113093   4.353   3.186  13.031  0.1161  0.7933 -0.9707
  889MPD2    H713094   4.261   3.145  13.020 -0.3656  1.5107  0.4338
  890MPD2     C13095   4.360   4.640  14.679  0.2563 -0.9199  0.5316
  890MPD2    C113096   4.424   4.728  14.764  0.2289  0.1895  0.2564
  890MPD2    C213097   4.483   4.677  14.881  0.4522  0.6740  0.5521
  890MPD2    C313098   4.463   4.541  14.911  1.0697 -0.0046  0.7148
  890MPD2    C413099   4.381   4.465  14.836  0.0334 -0.0345 -0.0205
  890MPD2    C513100   4.333   4.512  14.715  0.4142  0.0598 -0.3430
  890MPD2     H13101   4.547   4.728  14.952  1.3384 -0.7136  0.7468
  890MPD2    H113102   4.369   4.358  14.852 -0.4907 -0.0630 -0.5900
  890MPD2    H213103   4.329   4.671  14.580 -0.9577  0.1484  1.2568
  890MPD2    H313104   4.266   4.457  14.650 -1.2803  3.2700 -1.3242
  890MPD2     N13105   4.526   4.497  15.030 -0.2146  0.0224 -0.2075
  890MPD2    H513106   4.612   4.546  15.054 -0.8631  0.7620  0.6060
  890MPD2    N113107   4.445   0.119  14.716 -0.2099  0.3550  0.2190
  890MPD2    H713108   4.415   0.143  14.622 -1.8865 -2.5799 -0.0014
  891MPD2     C13109   2.370   3.088  16.440 -0.5697 -0.1327  0.6994
  891MPD2    C113110   2.317   3.007  16.544  0.0137 -0.1958  0.2462
  891MPD2    C213111   2.394   2.981  16.655 -0.2472 -0.0189  0.2353
  891MPD2    C313112   2.528   3.026  16.657  0.7583  0.1804 -0.0155
  891MPD2    C413113   2.574   3.103  16.555 -0.2208 -0.0083  0.3102
  891MPD2    C513114   2.503   3.126  16.444 -0.4763  0.0301  0.7361
  891MPD2     H13115   2.358   2.934  16.745 -2.0078  1.4647  0.3021
  891MPD2    H113116   2.671   3.152  16.551  0.2413 -0.8744  0.7845
  891MPD2    H213117   2.311   3.106  16.351  3.3545  2.2797 -1.4008
  891MPD2    H313118   2.548   3.194  16.373  1.0894 -1.8047 -0.0349
  891MPD2     N13119   2.611   2.997  16.768  0.3752  0.3497  0.7247
  891MPD2    H513120   2.561   2.943  16.837 -2.0681  1.9438  0.1997
  891MPD2    N113121   2.179   2.977  16.531  0.6597 -0.1635  0.1662
  891MPD2    H713122   2.129   3.021  16.454 -2.1055 -0.2285  1.9275
  892MPD2     C13123   3.474   4.477  14.748 -1.0957 -0.7797 -0.7941
  892MPD2    C113124   3.390   4.363  14.743 -0.1470  0.1794  0.2061
  892MPD2    C213125   3.424   4.259  14.657  0.3326 -0.1807  0.1237
  892MPD2    C313126   3.552   4.246  14.606  0.1229  0.3146 -0.3695
  892MPD2    C413127   3.643   4.352  14.625 -0.1657  0.9082 -0.5247
  892MPD2    C513128   3.602   4.468  14.685 -0.5774 -0.0102  0.0793
  892MPD2     H13129   3.367   4.167  14.657  2.7918 -1.7104  3.7674
  892MPD2    H113130   3.744   4.335  14.590 -0.5534  0.1467 -1.2732
  892MPD2    H213131   3.440   4.564  14.804 -1.0604 -1.8611  0.9066
  892MPD2    H313132   3.676   4.543  14.708 -0.1103 -0.2441 -0.6613
  892MPD2     N13133   3.599   4.127  14.533  0.1993 -0.3938 -0.1172
  892MPD2    H513134   3.697   4.127  14.509  0.1337  0.1778 -0.3994
  892MPD2    N113135   3.264   4.371  14.799 -0.7522  0.9250 -0.4483
  892MPD2    H713136   3.241   4.463  14.833 -0.5162  0.4992  0.8708
  893MPD2     C13137   1.402   3.813   1.052  0.1029 -0.3246 -1.1747
  893MPD2    C113138   1.470   3.816   1.177  0.3653  0.0032  0.5127
  893MPD2    C213139   1.419   3.902   1.272  0.0498 -0.5719  0.2434
  893MPD2    C313140   1.301   3.979   1.257  0.1396  0.3358  0.0804
  893MPD2    C413141   1.241   3.980   1.140  0.3194  0.6783 -0.1707
  893MPD2    C513142   1.288   3.893   1.037  0.0388  0.4204  0.3144
  893MPD2     H13143   1.472   3.907   1.367 -0.1855 -1.2955  0.4172
  893MPD2    H113144   1.148   4.034   1.127  1.4948  2.9669  0.8711
  893MPD2    H213145   1.426   3.759   0.962  0.7001 -1.4090 -0.3650
  893MPD2    H313146   1.227   3.875   0.949 -0.8666 -1.3351  1.2981
  893MPD2     N13147   1.244   4.066   1.357 -0.0938  1.0510 -0.3029
  893MPD2    H513148   1.163   4.119   1.327 -1.9729 -1.3423  0.5338
  893MPD2    N113149   1.579   3.726   1.191  0.0906 -0.1857  0.0672
  893MPD2    H713150   1.599   3.665   1.112  0.4768 -0.7012  0.5568
  894MPD2     C13151   3.893   0.044   1.247  0.3293  0.1244  0.5681
  894MPD2    C113152   3.761   0.065   1.273 -0.5149  0.0506  0.4431
  894MPD2    C213153   3.719   0.190   1.225  0.5959 -0.3524 -0.1209
  894MPD2    C313154   3.808   0.295   1.196  1.3195 -0.3343  0.3661
  894MPD2    C413155   3.939   0.271   1.177  0.7083  0.4724  1.3269
  894MPD2    C513156   3.986   0.144   1.212 -0.1949 -0.3891  0.4807
  894MPD2     H13157   3.613   0.212   1.223  0.9983  1.6378  0.1587
  894MPD2    H113158   4.005   0.355   1.162  0.1225  0.6524 -0.3407
  894MPD2    H213159   3.940   4.686   1.265  0.6774  0.2555  0.3457
  894MPD2    H313160   4.088   0.114   1.191 -0.4808 -0.1071 -1.3100
  894MPD2     N13161   3.762   0.423   1.178  0.4708  0.1237  0.0494
  894MPD2    H513162   3.662   0.436   1.175  0.3796 -0.8943 -1.2101
  894MPD2    N113163   3.670   4.704   1.322 -0.2136 -0.2120  0.2556
  894MPD2    H713164   3.577   0.003   1.336  0.0280  0.8872 -1.0366
  895MPD2     C13165   1.713   3.808  13.748 -0.6620  0.8103 -0.0190
  895MPD2    C113166   1.646   3.717  13.664  0.0635 -0.2060  0.2700
  895MPD2    C213167   1.718   3.616  13.600 -0.3162  0.0961 -0.6646
  895MPD2    C313168   1.853   3.593  13.622 -0.0752  0.6228 -0.5408
  895MPD2    C413169   1.918   3.690  13.701 -0.3221  0.9493  0.2086
  895MPD2    C513170   1.851   3.797  13.755 -0.0637  0.1853  0.0899
  895MPD2     H13171   1.666   3.538  13.546 -0.9102 -0.7498  1.1223
  895MPD2    H113172   2.024   3.679  13.720 -0.8367  0.2195  2.6735
  895MPD2    H213173   1.666   3.889  13.802 -1.9232  1.2398 -1.7435
  895MPD2    H313174   1.915   3.863  13.812  0.0092  0.9273 -0.8549
  895MPD2     N13175   1.915   3.481  13.560  0.4896 -0.1129 -0.0404
  895MPD2    H513176   1.859   3.420  13.501  0.3311  1.5057 -1.5587
  895MPD2    N113177   1.502   3.708  13.666 -0.1016 -0.6019 -0.5855
  895MPD2    H713178   1.478   3.621  13.620 -1.0958 -0.1926 -0.8378
  896MPD2     C13179   0.369   1.460   1.026  0.5574 -0.1280  0.3353
  896MPD2    C113180   0.353   1.393   0.903 -0.4311  0.6805  1.0178
  896MPD2    C213181   0.224   1.350   0.865  0.6243  0.4836  0.1092
  896MPD2    C313182   0.114   1.383   0.933  0.4602 -0.1810 -0.4198
  896MPD2    C413183   0.136   1.466   1.045 -0.0280  0.3145 -0.3911
  896MPD2    C513184   0.254   1.507   1.088  0.1043 -0.0050  0.3183
  896MPD2     H13185   0.219   1.289   0.775 -1.6674  0.8344  0.0011
  896MPD2    H113186   0.054   1.502   1.106 -0.2755  0.4855 -0.8216
  896MPD2    H213187   0.469   1.469   1.067  0.6105 -1.2435  0.4707
  896MPD2    H313188   0.264   1.569   1.175 -0.7686 -1.7702  1.6891
  896MPD2     N13189   4.722   1.344   0.894 -0.5309  0.4973 -0.4428
  896MPD2    H513190   4.708   1.297   0.805  1.6688  1.8265 -1.4955
  896MPD2    N113191   0.473   1.364   0.842  0.0482 -0.2270 -0.7687
  896MPD2    H713192   0.557   1.387   0.894 -0.8177  0.9468  0.1043
  897MPD2     C13193   0.828   2.395  10.835 -0.7196 -0.2228 -0.3172
  897MPD2    C113194   0.810   2.531  10.820  0.1150  0.2078  0.3916
  897MPD2    C213195   0.707   2.596  10.882  0.2625  0.5001  0.3094
  897MPD2    C313196   0.625   2.527  10.978  0.7502 -0.3407  0.5010
  897MPD2    C413197   0.655   2.392  11.000  0.2287  0.1575 -0.6652
  897MPD2    C513198   0.757   2.326  10.929  0.6789 -0.0962  0.1223
  897MPD2     H13199   0.695   2.703  10.878 -0.8088  0.3081 -1.7988
  897MPD2    H113200   0.597   2.324  11.061 -0.4608  0.4130 -1.0300
  897MPD2    H213201   0.914   2.346  10.789  0.0199  0.9089 -0.1283
  897MPD2    H313202   0.777   2.221  10.950 -0.1434 -0.1284  0.7739
  897MPD2     N13203   0.516   2.599  11.040  0.3311 -0.2800 -0.1089
  897MPD2    H513204   0.495   2.693  11.007  1.4373 -1.0732 -3.0425
  897MPD2    N113205   0.900   2.601  10.724 -0.1589 -0.1233  0.1591
  897MPD2    H713206   0.963   2.546  10.668 -0.1297  0.6712 -0.5773
  898MPD2     C13207   3.488   3.242   0.467  0.5454  1.2252 -0.0489
  898MPD2    C113208   3.549   3.248   0.343  0.5167 -0.6322  0.2619
  898MPD2    C213209   3.517   3.348   0.252 -0.2718 -0.5732 -0.5581
  898MPD2    C313210   3.423   3.445   0.283  0.3718  0.9195  0.1531
  898MPD2    C413211   3.360   3.439   0.411  0.3726  0.0659  0.6389
  898MPD2    C513212   3.404   3.345   0.496  0.5302 -0.6204  0.3189
  898MPD2     H13213   3.563   3.353   0.154  3.1542 -2.9298  0.9228
  898MPD2    H113214   3.296   3.517   0.450  0.3804  1.0485 -1.2930
  898MPD2    H213215   3.522   3.177   0.546  0.1014  0.8230 -0.1903
  898MPD2    H313216   3.373   3.359   0.599  3.2522  1.8160  0.7992
  898MPD2     N13217   3.390   3.540   0.184  0.6168  0.1101 -0.0389
  898MPD2    H513218   3.411   3.512   0.089  0.3550 -1.2031  0.2962
  898MPD2    N113219   3.657   3.163   0.303  0.0623  0.3713 -0.2615
  898MPD2    H713220   3.718   3.186   0.225  2.1708  0.4986  1.4426
  899MPD2     C13221   4.293   3.884  17.596 -0.2145  0.4091 -0.5926
  899MPD2    C113222   4.318   4.016  17.636 -0.0175  1.2081 -0.0840
  899MPD2    C213223   4.388   4.033   0.003 -0.4750  0.6529  1.0747
  899MPD2    C313224   4.426   3.922   0.089 -0.3310 -0.0106 -0.5251
  899MPD2    C413225   4.401   3.798   0.044  0.3951  0.0416 -0.0130
  899MPD2    C513226   4.332   3.774  17.671 -0.4135  1.7060 -0.3862
  899MPD2     H13227   4.401   4.134   0.040  1.4818  0.9405 -0.3960
  899MPD2    H113228   4.434   3.709   0.096  1.7338  1.0590  0.8736
  899MPD2    H213229   4.245   3.861  17.502  0.7432 -1.3910 -0.6567
  899MPD2    H313230   4.313   3.675  17.632 -2.0158  1.7342  0.3309
  899MPD2     N13231   4.474   3.944   0.221  0.0073 -0.5327  0.3381
  899MPD2    H513232   4.468   3.866   0.286 -0.5253 -1.9334 -1.4129
  899MPD2    N113233   4.277   4.120  17.555  0.6949  0.1441  0.2426
  899MPD2    H713234   4.248   4.096  17.461 -0.4871  1.8012  0.1831
  900MPD2     C13235   2.723   0.784  12.752  0.2306 -0.2875 -0.2660
  900MPD2    C113236   2.679   0.717  12.856  0.1938 -0.2113 -0.4421
  900MPD2    C213237   2.556   0.759  12.911  0.5021  0.6323  0.2838
  900MPD2    C313238   2.492   0.876  12.860  0.5398 -0.1722  0.3519
  900MPD2    C413239   2.546   0.934  12.751 -0.2099  0.4513 -0.3811
  900MPD2    C513240   2.657   0.883  12.692 -0.2810  0.2596  0.9055
  900MPD2     H13241   2.517   0.720  13.005 -0.8793  0.8675 -0.1908
  900MPD2    H113242   2.489   1.016  12.707 -1.7669 -0.0154  0.7832
  900MPD2    H213243   2.821   0.761  12.713  0.5274 -2.5475  1.8487
  900MPD2    H313244   2.693   0.934  12.603  0.0436 -0.1855  0.7770
  900MPD2     N13245   2.384   0.928  12.928 -0.2801  0.4599 -0.2338
  900MPD2    H513246   2.342   0.879  13.006 -0.1433  1.1839  0.2957
  900MPD2    N113247   2.755   0.612  12.917  0.4390 -0.6176  0.0574
  900MPD2    H713248   2.831   0.576  12.860 -1.2411 -2.4080 -1.0516
  901MPD2     C13249   2.928   4.370  12.998 -0.2385  0.2908 -0.7339
  901MPD2    C113250   3.040   4.442  12.965  0.2180  0.3378 -0.1792
  901MPD2    C213251   3.053   4.577  13.007 -0.9527  0.0903  0.6925
  901MPD2    C313252   2.953   4.635  13.084  0.2088  0.8685  0.1439
  901MPD2    C413253   2.850   4.557  13.127 -0.6667  0.0218  0.2716
  901MPD2    C513254   2.831   4.431  13.080  0.2576 -0.2972 -0.0751
  901MPD2     H13255   3.131   4.642  12.969  0.0433  0.4154  3.3537
  901MPD2    H113256   2.765   4.595  13.182 -0.1361  1.9318 -0.2262
  901MPD2    H213257   2.919   4.268  12.963 -0.9176  0.2341 -0.3900
  901MPD2    H313258   2.743   4.378  13.115  0.6321 -2.2283 -2.0627
  901MPD2     N13259   2.970   0.031  13.118 -0.1254 -0.4229 -0.2106
  901MPD2    H513260   3.052   0.073  13.075 -0.7605  1.2061  0.1624
  901MPD2    N113261   3.128   4.394  12.866 -0.4354 -0.5764 -0.2732
  901MPD2    H713262   3.192   4.463  12.826 -2.0318  1.0679  0.0282
  902MPD2     C13263   2.617   3.668  12.758  0.4143  0.6073  0.0251
  902MPD2    C113264   2.611   3.758  12.648  0.7764 -0.3737 -0.8858
  902MPD2    C213265   2.665   3.715  12.528 -0.2562  0.1935 -0.2131
  902MPD2    C313266   2.731   3.592  12.518 -0.0894  0.2596 -0.2431
  902MPD2    C413267   2.739   3.509  12.628 -0.2144 -0.5503  0.1439
  902MPD2    C513268   2.675   3.546  12.747 -0.3603 -0.3343  0.3881
  902MPD2     H13269   2.647   3.780  12.444 -2.2259 -0.3817 -0.2178
  902MPD2    H113270   2.794   3.416  12.629  0.2504 -0.2732 -0.0546
  902MPD2    H213271   2.577   3.700  12.853  2.3541  2.2955  0.2853
  902MPD2    H313272   2.685   3.479  12.832  0.2821 -0.4040  0.2545
  902MPD2     N13273   2.769   3.544  12.395  0.3679  0.1564 -0.2508
  902MPD2    H513274   2.792   3.445  12.401 -0.7202 -0.0566  0.5037
  902MPD2    N113275   2.536   3.881  12.665 -0.0352  0.7108  0.5337
  902MPD2    H713276   2.486   3.884  12.754 -1.0337 -0.4043  0.0081
  903MPD2     C13277   2.607   3.165  11.632 -0.2638  0.8007  0.7602
  903MPD2    C113278   2.578   3.185  11.763 -0.2485  0.3457  0.8306
  903MPD2    C213279   2.459   3.138  11.812  0.5007  0.5001  0.5736
  903MPD2    C313280   2.350   3.101  11.728 -0.0958  0.2991 -0.2618
  903MPD2    C413281   2.384   3.073  11.596 -0.0390 -0.4576 -0.1453
  903MPD2    C513282   2.510   3.102  11.549  0.4536 -0.8356 -0.4348
  903MPD2     H13283   2.436   3.142  11.918 -1.5683 -0.8194  0.1638
  903MPD2    H113284   2.313   3.026  11.528  1.0168 -1.0061 -0.8784
  903MPD2    H213285   2.705   3.185  11.592  0.5945 -0.7525  2.0921
  903MPD2    H313286   2.539   3.071  11.450 -0.4146 -0.1238 -0.9076
  903MPD2     N13287   2.218   3.098  11.770 -0.6287 -0.2207 -0.1332
  903MPD2    H513288   2.205   3.128  11.866 -2.8635 -0.2904 -0.3910
  903MPD2    N113289   2.674   3.241  11.849 -0.5155 -0.4660 -0.0588
  903MPD2    H713290   2.765   3.259  11.808 -0.6906 -2.0413 -1.1313
  904MPD2     C13291   1.870   2.794  14.337  0.3200 -0.2147 -0.2870
  904MPD2    C113292   1.971   2.873  14.273  0.4580  0.5039 -0.0554
  904MPD2    C213293   2.106   2.867  14.321 -0.2880 -1.1392  0.4576
  904MPD2    C313294   2.139   2.777  14.421  0.2196 -0.2216 -0.9031
  904MPD2    C413295   2.039   2.701  14.482 -0.1043 -0.4817  0.0573
  904MPD2    C513296   1.908   2.716  14.444  0.0854 -0.1678 -0.2805
  904MPD2     H13297   2.175   2.941  14.284 -1.0459 -0.9537 -0.6026
  904MPD2    H113298   2.062   2.638  14.567  0.5422  0.5480  0.6368
  904MPD2    H213299   1.766   2.795  14.308  0.0275 -0.1134  0.7694
  904MPD2    H313300   1.833   2.654  14.491  1.2135  0.9665  3.0791
  904MPD2     N13301   2.275   2.780  14.467 -0.0092  0.2779 -0.0554
  904MPD2    H513302   2.329   2.858  14.431 -0.3516  0.4998 -0.0920
  904MPD2    N113303   1.933   2.972  14.173  0.1476  0.4943  0.4151
  904MPD2    H713304   2.007   3.034  14.141  0.6370 -1.7270 -2.7103
  905MPD2     C13305   1.578   2.876  13.534  0.3136  0.1782 -0.0214
  905MPD2    C113306   1.630   3.008  13.545  0.5221 -0.4054  0.5112
  905MPD2    C213307   1.693   3.065  13.438  0.2892 -0.7430 -0.1758
  905MPD2    C313308   1.717   2.989  13.330 -0.2917  0.3436 -0.1955
  905MPD2    C413309   1.664   2.861  13.314 -0.1201 -0.2038 -0.1285
  905MPD2    C513310   1.589   2.806  13.418  0.1686  0.2424 -0.1056
  905MPD2     H13311   1.733   3.165  13.447 -0.6063 -0.4936  1.0719
  905MPD2    H113312   1.672   2.800  13.224 -1.9078  0.8463 -1.0011
  905MPD2    H213313   1.542   2.826  13.624 -0.1664 -1.8107 -1.3146
  905MPD2    H313314   1.554   2.703  13.415 -1.6034  0.8420 -0.4859
  905MPD2     N13315   1.805   3.030  13.228  0.0348 -0.2595 -0.4035
  905MPD2    H513316   1.799   2.982  13.139  0.6044 -1.5307  0.2481
  905MPD2    N113317   1.612   3.072  13.667 -0.0516  0.6317 -0.3222
  905MPD2    H713318   1.566   3.026  13.744  0.4184 -1.4769 -1.3128
  906MPD2     C13319   4.318   3.460  11.260  0.6954  0.9581 -0.5435
  906MPD2    C113320   4.260   3.387  11.154  0.4317  0.6009  0.3603
  906MPD2    C213321   4.167   3.287  11.183 -1.2372 -0.3086 -0.8872
  906MPD2    C313322   4.128   3.274  11.317  0.0982 -0.1339  0.7574
  906MPD2    C413323   4.189   3.344  11.419 -0.5898  0.7188  0.4288
  906MPD2    C513324   4.284   3.439  11.390 -0.5213  0.3146  0.4647
  906MPD2     H13325   4.123   3.223  11.109  1.2919 -0.7068 -2.0635
  906MPD2    H113326   4.152   3.325  11.519 -1.1869  0.9796  0.2539
  906MPD2    H213327   4.396   3.529  11.231  0.1400  1.6746 -0.3082
  906MPD2    H313328   4.340   3.488  11.468  1.2383  1.4180 -1.4976
  906MPD2     N13329   4.030   3.180  11.369 -0.0802 -0.0422 -0.0136
  906MPD2    H513330   4.036   3.167  11.470  0.9609  1.0942  0.0659
  906MPD2    N113331   4.293   3.399  11.016  0.8230 -0.4518  0.0067
  906MPD2    H713332   4.262   3.328  10.951 -1.7555  0.2390  0.5088
  907MPD2     C13333   3.712   2.063  16.038 -0.6405 -0.1943  0.4030
  907MPD2    C113334   3.678   1.944  15.977  0.0755  0.0447  0.3075
  907MPD2    C213335   3.659   1.831  16.054 -0.6553  0.2017  0.1499
  907MPD2    C313336   3.658   1.846  16.189 -0.5140  0.4405  0.6026
  907MPD2    C413337   3.677   1.970  16.251 -0.4326 -0.0909  0.0348
  907MPD2    C513338   3.699   2.076  16.174 -0.1763  0.4023 -0.8853
  907MPD2     H13339   3.627   1.740  16.004 -0.7136  0.7840 -0.8562
  907MPD2    H113340   3.679   1.986  16.359 -0.7780  0.2327 -0.0091
  907MPD2    H213341   3.717   2.162  15.995 -0.4306 -0.1926  0.4274
  907MPD2    H313342   3.698   2.172  16.225  1.4021 -0.1844  0.2473
  907MPD2     N13343   3.655   1.718  16.252 -0.5889  0.0948 -0.1588
  907MPD2    H513344   3.648   1.639  16.188  0.5600 -1.8446  2.1208
  907MPD2    N113345   3.664   1.929  15.837 -0.3807 -0.1276  0.3141
  907MPD2    H713346   3.649   1.837  15.799  1.0518  0.2132 -1.0841
  908MPD2     C13347   1.449   2.268  10.158  0.8721  0.1295 -0.4392
  908MPD2    C113348   1.323   2.227  10.211 -0.1921  0.1445  0.2646
  908MPD2    C213349   1.248   2.326  10.272 -0.9409 -0.3869  0.2872
  908MPD2    C313350   1.292   2.452  10.283  0.3538 -0.1005 -0.0403
  908MPD2    C413351   1.412   2.493  10.226  0.5956 -0.6219  0.1858
  908MPD2    C513352   1.484   2.401  10.154 -0.6023 -0.1482  0.3802
  908MPD2     H13353   1.146   2.304  10.305 -0.6978 -2.1312 -0.0823
  908MPD2    H113354   1.454   2.593  10.229  1.5676 -1.1590  4.1381
  908MPD2    H213355   1.510   2.199  10.101 -0.5275  0.5076 -2.4154
  908MPD2    H313356   1.578   2.434  10.112  0.3148 -1.5206  1.3711
  908MPD2     N13357   1.214   2.543  10.351  0.2786 -0.0205  0.1883
  908MPD2    H513358   1.136   2.499  10.400  1.0116 -0.2120  1.1775
  908MPD2    N113359   1.287   2.093  10.186  0.6407  0.3130  0.3289
  908MPD2    H713360   1.363   2.042  10.141  0.5011  2.2863 -2.1623
  909MPD2     C13361   1.159   0.653  11.866 -0.2048  0.4413  0.1289
  909MPD2    C113362   1.207   0.783  11.888  0.5026 -0.3224 -0.5008
  909MPD2    C213363   1.142   0.853  11.986 -0.1801 -0.1196  0.2578
  909MPD2    C313364   1.028   0.814  12.048 -0.0362 -0.8283 -0.3135
  909MPD2    C413365   0.987   0.685  12.021 -0.5709  0.7722 -0.1815
  909MPD2    C513366   1.054   0.602  11.933 -0.8967  0.0436 -0.6496
  909MPD2     H13367   1.156   0.961  11.989 -1.4059  0.0955 -1.5383
  909MPD2    H113368   0.896   0.646  12.064 -0.1371 -0.1176 -0.0613
  909MPD2    H213369   1.207   0.577  11.806 -1.4915 -0.9090  0.7958
  909MPD2    H313370   1.016   0.503  11.912  0.2703 -0.2987 -1.1220
  909MPD2     N13371   0.953   0.908  12.127 -0.0517  0.2578 -0.2530
  909MPD2    H513372   1.000   0.998  12.132 -1.5125  1.0567 -0.5424
  909MPD2    N113373   1.298   0.857  11.809  0.3784 -0.2120 -0.0426
  909MPD2    H713374   1.322   0.951  11.838  0.5075  0.0429 -0.9744
  910MPD2     C13375   2.759   2.427  15.685  0.0468  0.2315 -0.6078
  910MPD2    C113376   2.880   2.371  15.673 -0.4971 -0.6683  0.6958
  910MPD2    C213377   2.953   2.398  15.555 -0.6868 -0.4274  0.4990
  910MPD2    C313378   2.900   2.485  15.457  0.1743 -0.1064 -0.8201
  910MPD2    C413379   2.779   2.542  15.476  0.3327  0.6857 -0.6388
  910MPD2    C513380   2.708   2.513  15.586 -0.3141  0.0396  0.9601
  910MPD2     H13381   3.052   2.355  15.546 -0.1740  1.1694 -1.5311
  910MPD2    H113382   2.736   2.611  15.405  0.1258 -0.1405 -1.3124
  910MPD2    H213383   2.700   2.427  15.776 -0.8463 -2.0600 -1.1774
  910MPD2    H313384   2.616   2.565  15.610 -0.0113  1.2061 -0.4297
  910MPD2     N13385   2.970   2.534  15.344  0.6657 -0.1467 -0.1217
  910MPD2    H513386   2.921   2.607  15.292 -1.8323 -1.5609  0.2402
  910MPD2    N113387   2.944   2.294  15.770  0.0433  0.7665  0.0500
  910MPD2    H713388   3.029   2.246  15.741  0.4737  0.6770  1.4909
  911MPD2     C13389   0.553   2.833  16.372 -0.1389 -0.4261  0.5120
  911MPD2    C113390   0.650   2.867  16.458 -0.2925 -0.9659  0.4317
  911MPD2    C213391   0.656   2.998  16.496  0.2985 -0.5113 -0.5364
  911MPD2    C313392   0.557   3.084  16.473 -0.2546 -0.1947 -0.6622
  911MPD2    C413393   0.456   3.049  16.385  0.1733  0.1604  0.4532
  911MPD2    C513394   0.452   2.922  16.336  0.3624 -0.4871  0.0205
  911MPD2     H13395   0.739   3.035  16.556  0.1162  0.0880 -0.6594
  911MPD2    H113396   0.377   3.117  16.356  0.1435 -0.9323 -2.0340
  911MPD2    H213397   0.538   2.731  16.339 -2.4581 -0.1877  0.8842
  911MPD2    H313398   0.372   2.883  16.274 -1.6583  1.9614  1.0815
  911MPD2     N13399   0.556   3.223  16.513  0.3380 -0.3486  0.0588
  911MPD2    H513400   0.467   3.271  16.505  0.7867  0.5956  0.7760
  911MPD2    N113401   0.731   2.761  16.501 -0.4229  0.5047  0.9181
  911MPD2    H713402   0.726   2.670  16.457 -0.3209  1.1984 -0.5238
  912MPD2     C13403   0.148   3.355  16.114 -0.4514  0.0097 -0.4067
  912MPD2    C113404   0.182   3.340  16.246  0.2922 -0.7236  0.5170
  912MPD2    C213405   0.138   3.229  16.308 -0.2639 -0.3427 -0.2024
  912MPD2    C313406   0.082   3.121  16.239  0.4451 -0.3760 -0.4230
  912MPD2    C413407   0.051   3.133  16.108 -0.3695 -0.1890  0.9025
  912MPD2    C513408   0.086   3.252  16.044 -0.3270  0.4680 -0.2539
  912MPD2     H13409   0.154   3.217  16.414  0.6229 -1.4939 -0.4618
  912MPD2    H113410   0.007   3.055  16.046  1.5987 -0.4845 -0.1412
  912MPD2    H213411   0.175   3.443  16.057 -3.0119  0.9268 -0.2102
  912MPD2    H313412   0.055   3.264  15.941  1.9409  1.7205 -0.7914
  912MPD2     N13413   0.058   3.013  16.322 -0.3614 -0.0152  0.7561
  912MPD2    H513414   0.100   3.019  16.414 -1.1418 -1.3720  1.2042
  912MPD2    N113415   0.267   3.441  16.304  0.2634 -0.4262  0.5617
  912MPD2    H713416   0.302   3.512  16.241  0.7688 -2.1579 -1.1031
  913MPD2     C13417   1.036   4.090   9.613 -0.6531  0.3993  0.0583
  913MPD2    C113418   0.970   4.174   9.700  0.2835  0.1744 -0.1733
  913MPD2    C213419   0.998   4.312   9.710  0.1090 -0.5595  0.3119
  913MPD2    C313420   1.105   4.364   9.630 -0.9414  0.0050 -0.2101
  913MPD2    C413421   1.157   4.275   9.538  0.1107 -0.0441  0.1182
  913MPD2    C513422   1.133   4.144   9.533  0.4228 -0.3377  0.4016
  913MPD2     H13423   0.942   4.381   9.772  0.0871 -0.9871  0.7668
  913MPD2    H113424   1.221   4.314   9.460 -2.2518  0.2104 -1.6669
  913MPD2    H213425   1.029   3.983   9.600  0.1345  0.2362  1.0160
  913MPD2    H313426   1.177   4.076   9.461  1.0990  0.1199  0.3813
  913MPD2     N13427   1.133   4.508   9.630 -0.0174  0.8594  0.0108
  913MPD2    H513428   1.207   4.540   9.568  0.6993  0.4653  0.6660
  913MPD2    N113429   0.883   4.105   9.795 -0.5418 -0.2296  0.0817
  913MPD2    H713430   0.895   4.004   9.784  1.5412 -0.0546  0.6510
  914MPD2     C13431   3.286   0.216  12.272 -0.4938  0.3355  0.0278
  914MPD2    C113432   3.301   0.206  12.411  0.3996 -0.9420 -0.0309
  914MPD2    C213433   3.309   0.081  12.472 -0.7659  0.0848  0.0474
  914MPD2    C313434   3.302   4.699  12.398  0.0968  0.4736 -0.0740
  914MPD2    C413435   3.285   4.710  12.260  0.1255  0.8246  0.1979
  914MPD2    C513436   3.271   0.100  12.201 -0.0707 -0.2025  0.4934
  914MPD2     H13437   3.319   0.080  12.580  1.9480  0.0820 -0.2084
  914MPD2    H113438   3.273   4.626  12.193  1.4764  0.5457  0.2907
  914MPD2    H213439   3.282   0.305  12.211  1.0195  2.3590  2.8891
  914MPD2    H313440   3.267   0.104  12.093  0.0878  0.9129  0.5349
  914MPD2     N13441   3.308   4.575  12.468  0.0847  0.6050 -0.6660
  914MPD2    H513442   3.322   4.573  12.568  0.7060 -1.8479 -0.8232
  914MPD2    N113443   3.328   0.325  12.483 -0.3867 -0.1485 -0.4957
  914MPD2    H713444   3.309   0.415  12.440 -1.2940 -0.9042 -1.6831
  915MPD2     C13445   1.304   4.703  15.578 -0.4800 -0.4421  0.3687
  915MPD2    C113446   1.264   0.058  15.668  0.0422  0.3351  0.0763
  915MPD2    C213447   1.349   0.110  15.761  0.3697  0.3169 -0.3991
  915MPD2    C313448   1.475   0.047  15.771  0.2541 -0.7324  0.4547
  915MPD2    C413449   1.506   4.680  15.683  0.2183 -0.8184 -0.1557
  915MPD2    C513450   1.427   4.646  15.583 -0.0543 -0.6888  0.3041
  915MPD2     H13451   1.311   0.170  15.843  2.2413 -0.8372  1.3339
  915MPD2    H113452   1.600   4.628  15.692  0.6440 -0.1078 -0.4650
  915MPD2    H213453   1.238   4.662  15.501 -0.2588  0.3111 -0.2229
  915MPD2    H313454   1.446   4.564  15.516  1.2009  0.9796 -1.3982
  915MPD2     N13455   1.555   0.080  15.881 -0.3231  0.2070 -0.2955
  915MPD2    H513456   1.520   0.158  15.934  1.2478  0.6990  0.0373
  915MPD2    N113457   1.138   0.116  15.646  0.0983  0.6356  0.3275
  915MPD2    H713458   1.093   0.064  15.571  0.3963  2.5146 -1.1776
  916MPD2     C13459   4.704   2.338  16.523 -0.6050 -0.0349 -0.3201
  916MPD2    C113460   4.633   2.426  16.448  0.9726 -0.1755  0.1338
  916MPD2    C213461   4.644   2.412  16.314 -0.5322  0.3213  0.6157
  916MPD2    C313462   4.734   2.320  16.257  0.2920 -0.1341  0.3573
  916MPD2    C413463   0.083   2.247  16.334 -0.3611 -0.1708  0.0315
  916MPD2    C513464   0.059   2.253  16.470  0.6038  0.3328 -0.3942
  916MPD2     H13465   4.603   2.489  16.250  0.8259  2.2098  2.0310
  916MPD2    H113466   0.148   2.174  16.288  0.1839  0.5704 -0.3720
  916MPD2    H213467   4.698   2.352  16.631 -1.3666 -0.2526 -0.3312
  916MPD2    H313468   0.130   2.202  16.534 -0.6583 -0.6034  0.2589
  916MPD2     N13469   4.728   2.301  16.121  0.3103 -0.2782 -0.3063
  916MPD2    H513470   4.662   2.354  16.065  1.0714 -0.3758 -1.3002
  916MPD2    N113471   4.558   2.530  16.510  0.1747 -1.0862  0.9116
  916MPD2    H713472   4.561   2.545  16.610 -0.4446 -0.8450  0.8933
  917MPD2     C13473   4.508   1.098  12.001  0.6777 -0.1538 -0.4507
  917MPD2    C113474   4.382   1.085  11.952  0.4364 -0.4165 -0.3094
  917MPD2    C213475   4.327   1.170  11.862 -0.1094 -0.3317  0.0619
  917MPD2    C313476   4.416   1.261  11.799  0.5746  0.4645 -0.3096
  917MPD2    C413477   4.544   1.273  11.842  0.4339 -0.1840  0.4511
  917MPD2    C513478   4.591   1.189  11.941 -0.1856 -0.2816  1.1138
  917MPD2     H13479   4.221   1.170  11.839  0.4256 -0.7213 -2.3512
  917MPD2    H113480   4.605   1.356  11.806 -2.7605  1.7774 -0.3967
  917MPD2    H213481   4.550   1.042  12.083  2.3901  0.3540 -0.9691
  917MPD2    H313482   4.688   1.200  11.986  1.1176 -1.3197 -1.4543
  917MPD2     N13483   4.382   1.345  11.694 -0.0732 -0.4280  0.1614
  917MPD2    H513484   4.454   1.395  11.642  0.3091  0.1784  1.2939
  917MPD2    N113485   4.302   0.985  12.019 -0.0841 -0.4269 -0.5785
  917MPD2    H713486   4.354   0.918  12.075  0.1647  0.7326  0.5759
  918MPD2     C13487   4.603   0.596  12.636  0.3579 -0.1107  0.4606
  918MPD2    C113488   4.620   0.631  12.510 -0.5256 -0.4746 -0.3204
  918MPD2    C213489   4.515   0.669  12.437  0.1862  0.3159  0.0317
  918MPD2    C313490   4.396   0.708  12.492  0.2091 -0.1030 -0.2409
  918MPD2    C413491   4.372   0.676  12.624  0.0422 -0.1136 -0.3384
  918MPD2    C513492   4.482   0.626  12.695  0.0120  0.7452  0.2906
  918MPD2     H13493   4.534   0.689  12.332  0.3162 -0.0950 -0.0216
  918MPD2    H113494   4.279   0.697  12.675  0.4078 -0.7344  0.5761
  918MPD2    H213495   4.678   0.540  12.691  0.0369 -1.4031 -0.4169
  918MPD2    H313496   4.469   0.618  12.802  0.2787  0.5817  0.3116
  918MPD2     N13497   4.295   0.758  12.402 -0.0572  0.2018 -0.0446
  918MPD2    H513498   4.318   0.772  12.304  0.1553  1.4570  0.1788
  918MPD2    N113499   0.011   0.600  12.453  0.3754  0.8655  0.2667
  918MPD2    H713500   0.077   0.551  12.511  0.5136  0.5777 -0.1396
  919MPD2     C13501   0.490   4.511  11.630  0.3941 -0.2368 -0.0107
  919MPD2    C113502   0.476   4.373  11.599 -0.5614 -0.1502 -0.2936
  919MPD2    C213503   0.483   4.322  11.474 -0.1662 -0.5415 -0.3498
  919MPD2    C313504   0.482   4.424  11.376  0.8254  0.6756  0.2290
  919MPD2    C413505   0.472   4.561  11.410 -0.1101 -0.3648 -0.6199
  919MPD2    C513506   0.506   4.600  11.534  0.5292 -0.1577 -0.4582
  919MPD2     H13507   0.501   4.218  11.447 -1.0718 -0.7740 -0.0846
  919MPD2    H113508   0.462   4.632  11.329 -0.8929  0.1216 -0.0935
  919MPD2    H213509   0.513   4.535  11.734  0.2082 -0.2882  0.0423
  919MPD2    H313510   0.514   4.703  11.569  0.1167  0.6770 -2.8094
  919MPD2     N13511   0.463   4.401  11.236  0.2839  0.0212 -0.0238
  919MPD2    H513512   0.460   4.486  11.181  3.4068  1.6177  2.2930
  919MPD2    N113513   0.445   4.279  11.701 -0.2622  0.1303  0.3807
  919MPD2    H713514   0.443   4.180  11.681 -0.2185  0.4468 -1.1758
  920MPD2     C13515   4.355   4.581  10.829  0.1916 -0.3639 -0.3419
  920MPD2    C113516   4.389   4.501  10.728 -0.6084 -0.0321 -0.4370
  920MPD2    C213517   4.518   4.450  10.725  0.3528  0.4036 -0.2882
  920MPD2    C313518   4.597   4.481  10.832 -0.1833 -0.5578 -0.2638
  920MPD2    C413519   4.548   4.548  10.941  0.0284  0.3302  0.2585
  920MPD2    C513520   4.426   4.614  10.939 -0.5577  0.2153  0.9380
  920MPD2     H13521   4.544   4.397  10.634 -2.1433 -0.0291 -0.7351
  920MPD2    H113522   4.607   4.576  11.027  0.7972  0.1769 -0.2187
  920MPD2    H213523   4.267   4.643  10.819  1.5592  1.6533  0.2666
  920MPD2    H313524   4.398   4.681  11.019  2.6937 -0.7554  2.8766
  920MPD2     N13525   4.726   4.417  10.836 -0.6010  0.3904 -0.0088
  920MPD2    H513526   0.011   4.349  10.764  2.0725 -1.4142  2.5338
  920MPD2    N113527   4.300   4.462  10.629  0.5072  0.2072 -0.1386
  920MPD2    H713528   4.343   4.402  10.559  0.7922 -1.0215  1.1023
  921MPD2     C13529   1.538   2.934  16.992  1.0740 -0.1319 -0.3129
  921MPD2    C113530   1.542   2.843  16.885 -0.6665 -0.1088 -0.3233
  921MPD2    C213531   1.426   2.778  16.853 -0.2223  0.0936  0.9585
  921MPD2    C313532   1.310   2.792  16.928 -0.1701  0.3727 -0.1936
  921MPD2    C413533   1.311   2.874  17.037 -0.4908 -0.7726 -0.5056
  921MPD2    C513534   1.422   2.950  17.062  0.0346  0.7353 -0.2522
  921MPD2     H13535   1.430   2.700  16.778 -0.2239  1.6451 -0.6621
  921MPD2    H113536   1.229   2.888  17.106  0.0669 -0.1110  0.0312
  921MPD2    H213537   1.621   2.990  17.033  1.3456 -1.5006  0.9902
  921MPD2    H313538   1.424   3.016  17.147  1.5890 -2.8121  2.4429
  921MPD2     N13539   1.186   2.721  16.911  0.2084 -0.1656  0.3886
  921MPD2    H513540   1.102   2.764  16.949 -0.3689 -0.3325 -0.6893
  921MPD2    N113541   1.665   2.824  16.821  0.0830 -0.2761  0.1646
  921MPD2    H713542   1.734   2.894  16.846 -1.7332  1.7038 -0.4194
  922MPD2     C13543   2.442   0.950  17.079  0.0156  0.7236  0.7085
  922MPD2    C113544   2.360   0.948  17.188 -0.0020  0.1510  0.0928
  922MPD2    C213545   2.310   0.827  17.218  0.8639  0.2253  0.2942
  922MPD2    C313546   2.329   0.712  17.145  0.1093 -0.2857 -1.1964
  922MPD2    C413547   2.421   0.717  17.043 -0.2218  0.0783 -0.5883
  922MPD2    C513548   2.469   0.840  17.006  0.3190  0.2612  0.5077
  922MPD2     H13549   2.231   0.816  17.292 -1.4292  2.7236 -1.7997
  922MPD2    H113550   2.438   0.629  16.983  0.5972 -0.0771 -0.1165
  922MPD2    H213551   2.472   1.044  17.035  2.2421 -0.4300 -0.2317
  922MPD2    H313552   2.529   0.840  16.915 -0.7876 -0.3626 -0.2111
  922MPD2     N13553   2.247   0.603  17.173 -0.1003  0.5146 -0.0066
  922MPD2    H513554   2.193   0.619  17.258  1.8622  1.5931  1.0503
  922MPD2    N113555   2.342   1.060  17.276  0.0288  0.1020 -0.0582
  922MPD2    H713556   2.291   1.054  17.363  0.7069 -0.2821  0.3138
  923MPD2     C13557   3.242   3.136   9.050  0.4284  0.4539 -0.2312
  923MPD2    C113558   3.170   3.184   9.159 -0.3143  0.1863  0.6948
  923MPD2    C213559   3.232   3.225   9.272 -0.1485 -0.6685 -0.5241
  923MPD2    C313560   3.378   3.216   9.277  0.3789 -0.1164  0.1930
  923MPD2    C413561   3.443   3.156   9.179 -0.0751  0.6950  0.5700
  923MPD2    C513562   3.377   3.126   9.061  0.0103  0.3672 -0.4885
  923MPD2     H13563   3.181   3.266   9.358  0.0962  1.5643 -1.4406
  923MPD2    H113564   3.551   3.150   9.171 -0.1104 -0.9846  1.3194
  923MPD2    H213565   3.200   3.120   8.951  0.2358  0.0668 -0.0874
  923MPD2    H313566   3.431   3.086   8.976  0.8099  0.6845 -0.1278
  923MPD2     N13567   3.457   3.278   9.378 -0.3864  0.0995 -0.6420
  923MPD2    H513568   3.558   3.270   9.369 -0.2065 -1.4385  2.9174
  923MPD2    N113569   3.028   3.213   9.144  0.2106  0.0883  0.1199
  923MPD2    H713570   2.986   3.189   9.055  3.3405  0.0239 -1.3501
  924MPD2     C13571   3.713   0.703  16.418 -0.1243  0.4593 -0.1564
  924MPD2    C113572   3.693   0.773  16.305  0.7004 -0.1673  0.6248
  924MPD2    C213573   3.725   0.912  16.310  0.0783  0.1328 -0.1605
  924MPD2    C313574   3.765   0.977  16.429  0.3311  0.1897  0.1703
  924MPD2    C413575   3.780   0.897  16.542 -0.1852  0.3847  0.0238
  924MPD2    C513576   3.739   0.767  16.535  1.0669 -0.4046  0.1756
  924MPD2     H13577   3.726   0.968  16.217 -1.7125  0.9145  0.2886
  924MPD2    H113578   3.808   0.948  16.634 -0.7731  0.0855  0.3702
  924MPD2    H213579   3.696   0.597  16.406  0.4469  0.1821  1.5857
  924MPD2    H313580   3.744   0.704  16.623 -0.1223  0.9679  1.2173
  924MPD2     N13581   3.774   1.115  16.450  0.0522  0.0910  0.1989
  924MPD2    H513582   3.809   1.146  16.540  3.1338 -0.1637 -0.9491
  924MPD2    N113583   3.634   0.704  16.195  0.3193 -0.4220  0.0669
  924MPD2    H713584   3.645   0.603  16.193 -1.8209 -0.6335 -1.2826
  925MPD2     C13585   2.300   3.989  15.121 -0.4400  0.9154  0.4462
  925MPD2    C113586   2.212   4.097  15.090  0.8913  0.3022 -0.0393
  925MPD2    C213587   2.189   4.194  15.189  0.3706 -0.0173 -0.0296
  925MPD2    C313588   2.247   4.188  15.313  0.2322 -0.0665 -0.7960
  925MPD2    C413589   2.320   4.075  15.347  0.0231  0.0215  0.0154
  925MPD2    C513590   2.356   3.985  15.251 -0.5693  0.0281  0.5600
  925MPD2     H13591   2.130   4.281  15.163 -0.5859  0.2877  3.1405
  925MPD2    H113592   2.360   4.058  15.447 -1.5755 -0.4837  0.5579
  925MPD2    H213593   2.317   3.913  15.047 -2.1712  0.7449  0.2369
  925MPD2    H313594   2.417   3.899  15.274 -0.7026 -0.9549 -2.7240
  925MPD2     N13595   2.228   4.279  15.415 -0.1210  0.3702  0.4974
  925MPD2    H513596   2.269   4.252  15.504 -0.3435 -0.6020  0.3097
  925MPD2    N113597   2.148   4.114  14.967  0.3886  0.0124 -0.6646
  925MPD2    H713598   2.077   4.186  14.957  1.4640  1.0844 -0.5450
  926MPD2     C13599   1.000   2.430  13.518  0.1228 -0.2908 -0.6974
  926MPD2    C113600   0.905   2.480  13.431 -0.1027 -0.6899 -0.1790
  926MPD2    C213601   0.952   2.527  13.312 -0.4446  0.2302 -0.3071
  926MPD2    C313602   1.089   2.538  13.289  0.2177  0.0302 -0.3588
  926MPD2    C413603   1.179   2.484  13.374  0.1989 -1.1234  0.1148
  926MPD2    C513604   1.132   2.431  13.487 -0.2889  0.3019 -0.2843
  926MPD2     H13605   0.884   2.564  13.235 -1.0691  0.3749  0.3091
  926MPD2    H113606   1.286   2.468  13.363  0.0105 -1.6382 -0.9318
  926MPD2    H213607   0.966   2.392  13.614  1.2432  1.7804  0.5536
  926MPD2    H313608   1.208   2.398  13.558  0.9647  0.5616 -1.5032
  926MPD2     N13609   1.146   2.587  13.170  0.1965  0.0194 -0.1977
  926MPD2    H513610   1.247   2.592  13.174  0.1592  0.3812  0.2862
  926MPD2    N113611   0.765   2.486  13.458  0.4044  0.3639 -0.7971
  926MPD2    H713612   0.708   2.505  13.376  0.1154  0.5325 -0.5567
  927MPD2     C13613   1.415   4.033   0.478 -0.6257 -0.1498  0.1422
  927MPD2    C113614   1.369   4.146   0.420  0.0308 -0.2778 -0.1692
  927MPD2    C213615   1.379   4.164   0.284 -0.1252 -0.0932  0.0212
  927MPD2    C313616   1.432   4.058   0.211 -0.6575 -0.1900  0.0526
  927MPD2    C413617   1.480   3.942   0.275 -0.2550 -0.2051  0.1569
  927MPD2    C513618   1.473   3.936   0.406  0.2165  0.1780 -0.3067
  927MPD2     H13619   1.343   4.258   0.245  1.0495  0.5870  0.5889
  927MPD2    H113620   1.528   3.859   0.225  0.7485  0.2992  0.2645
  927MPD2    H213621   1.421   4.027   0.586  0.9316 -1.1665 -0.0079
  927MPD2    H313622   1.533   3.865   0.464 -2.0431  0.8867  2.8939
  927MPD2     N13623   1.458   4.090   0.081 -0.6056 -0.2635 -0.2376
  927MPD2    H513624   1.420   4.178   0.049 -0.2689  0.2635  0.8228
  927MPD2    N113625   1.323   4.254   0.497 -0.0860  0.1562 -0.6522
  927MPD2    H713626   1.344   4.248   0.596 -3.4338  2.0987  0.1573
  928MPD2     C13627   0.181   2.866   1.136  0.5181  0.3262  0.0739
  928MPD2    C113628   0.122   2.985   1.094 -0.2913  1.2588  0.3175
  928MPD2    C213629   0.149   3.030   0.968 -0.3813  0.8037  0.0492
  928MPD2    C313630   0.232   2.968   0.880 -0.4298 -0.8837 -0.1788
  928MPD2    C413631   0.285   2.846   0.925 -0.0941  0.7425 -0.0672
  928MPD2    C513632   0.261   2.797   1.050  0.1913  0.1104 -0.2831
  928MPD2     H13633   0.094   3.119   0.937 -0.8458  0.1849 -0.9021
  928MPD2    H113634   0.345   2.799   0.848  0.2721 -0.6785  1.0861
  928MPD2    H213635   0.156   2.809   1.226  0.9478  0.8607  0.5322
  928MPD2    H313636   0.303   2.702   1.082 -1.3820 -0.2819  0.6040
  928MPD2     N13637   0.260   3.006   0.744 -1.1323  0.3545 -0.0641
  928MPD2    H513638   0.301   2.934   0.686 -3.2348 -0.6094 -0.3784
  928MPD2    N113639   0.048   3.057   1.194 -0.0971 -0.0945  1.1690
  928MPD2    H713640   0.054   3.029   1.291 -1.5145 -5.0262 -0.1580
  929MPD2     C13641   2.910   2.972   9.430 -0.0242 -0.3498  0.0909
  929MPD2    C113642   2.913   2.885   9.533 -0.6757 -0.2306  0.5947
  929MPD2    C213643   2.798   2.863   9.605  0.3805 -0.4368  0.4292
  929MPD2    C313644   2.698   2.956   9.605 -0.1112  1.0817 -0.8317
  929MPD2    C413645   2.686   3.038   9.496  0.0400  0.5411  0.3820
  929MPD2    C513646   2.794   3.048   9.412 -0.4131 -0.3172 -0.5357
  929MPD2     H13647   2.807   2.807   9.698  2.1849 -0.1280  0.4516
  929MPD2    H113648   2.597   3.097   9.476  0.5107  0.5296 -1.7170
  929MPD2    H213649   2.995   2.975   9.364 -0.2079  2.0216 -0.0592
  929MPD2    H313650   2.789   3.107   9.321 -0.3565  0.4494 -0.0482
  929MPD2     N13651   2.591   2.961   9.700 -0.2079  0.2628  0.0097
  929MPD2    H513652   2.530   3.042   9.705  0.0718  0.4867 -0.1642
  929MPD2    N113653   3.032   2.820   9.561 -0.0244 -0.1823  0.1131
  929MPD2    H713654   3.112   2.861   9.515 -0.9423  3.6751  1.9294
  930MPD2     C13655   0.108   0.375  14.085  0.1550 -0.0265  0.0794
  930MPD2    C113656   0.246   0.374  14.080 -0.1408 -0.2819 -0.3648
  930MPD2    C213657   0.320   0.296  13.993 -0.1574 -0.1529  0.5116
  930MPD2    C313658   0.248   0.213  13.908 -0.2807 -0.1589 -0.0595
  930MPD2    C413659   0.108   0.218  13.900 -0.3292 -0.1544 -0.0451
  930MPD2    C513660   0.043   0.288  14.002 -0.1932 -0.2775 -0.9079
  930MPD2     H13661   0.426   0.313  13.982 -0.6025  1.0479 -2.0190
  930MPD2    H113662   0.046   0.156  13.836  1.1528 -1.1233 -0.5390
  930MPD2    H213663   0.058   0.416  14.172 -0.2926  1.5769 -0.9244
  930MPD2    H313664   4.675   0.276  14.021 -0.1909  1.7564  0.4478
  930MPD2     N13665   0.310   0.137  13.801  0.2404  0.9088  0.7400
  930MPD2    H513666   0.259   0.089  13.728 -0.1062 -2.8180  3.4052
  930MPD2    N113667   0.315   0.471  14.152 -0.0265 -0.6303 -0.5262
  930MPD2    H713668   0.265   0.559  14.165  0.9963  0.1306 -1.7286
  931MPD2     C13669   1.534   0.026   1.020 -0.5695  0.1856 -0.1300
  931MPD2    C113670   1.395   0.033   1.023 -0.3658 -0.1884  0.4213
  931MPD2    C213671   1.335   0.073   1.137 -0.4357 -0.7951  0.2597
  931MPD2    C313672   1.404   0.118   1.248  0.0952  0.3635 -0.4909
  931MPD2    C413673   1.539   0.112   1.241  0.2143  0.8157  0.4229
  931MPD2    C513674   1.602   0.072   1.135  0.2674  0.7091 -0.2100
  931MPD2     H13675   1.226   0.077   1.131 -0.5743 -1.3133  2.3268
  931MPD2    H113676   1.595   0.143   1.328  3.3435  0.1148 -1.3295
  931MPD2    H213677   1.596   4.724   0.941  2.0448  0.2367  1.8799
  931MPD2    H313678   1.710   0.073   1.137  0.2673 -0.8293  1.0987
  931MPD2     N13679   1.338   0.172   1.366  0.5701 -0.1959  0.0262
  931MPD2    H513680   1.407   0.190   1.439  0.6679  0.0270 -0.1183
  931MPD2    N113681   1.314   4.713   0.918  0.3516 -0.5356  0.7550
  931MPD2    H713682   1.215   4.721   0.939  0.2236 -0.8157  0.2571
  932MPD2     C13683   1.875   4.174  11.120  0.9532 -0.3651 -0.6811
  932MPD2    C113684   1.978   4.220  11.187 -0.4066  0.1169  0.1345
  932MPD2    C213685   2.083   4.133  11.210  0.2181 -0.1094 -0.2003
  932MPD2    C313686   2.089   4.005  11.155 -0.4476 -0.1080  0.2903
  932MPD2    C413687   1.968   3.956  11.099 -0.4864  0.4908  0.0010
  932MPD2    C513688   1.865   4.045  11.081  0.2098 -0.1820 -0.3848
  932MPD2     H13689   2.179   4.164  11.250  0.2581 -0.6427  0.1261
  932MPD2    H113690   1.952   3.855  11.063  0.8299  0.6851 -1.1505
  932MPD2    H213691   1.793   4.243  11.104  2.4513  1.3694 -0.8891
  932MPD2    H313692   1.770   4.019  11.037 -0.7964  1.8858  0.5884
  932MPD2     N13693   2.212   3.935  11.164 -0.6385  0.8375 -0.3099
  932MPD2    H513694   2.286   3.982  11.217  0.1559  1.2564 -1.7969
  932MPD2    N113695   1.985   4.354  11.235  0.1030 -0.3154  0.4439
  932MPD2    H713696   2.057   4.369  11.305  1.3654 -0.8605 -0.7400
  933MPD2     C13697   4.160   3.468   1.676 -0.4228 -0.0815  0.6481
  933MPD2    C113698   4.200   3.497   1.549 -0.4805  0.6170  0.1758
  933MPD2    C213699   4.117   3.555   1.460 -0.0945 -0.0295 -0.4626
  933MPD2    C313700   3.997   3.616   1.501 -0.0528 -0.7221  1.0932
  933MPD2    C413701   3.944   3.577   1.623 -0.1743  0.0680  0.4114
  933MPD2    C513702   4.030   3.503   1.701  0.0876 -0.5377  0.2795
  933MPD2     H13703   4.146   3.564   1.356 -1.3231  0.4945 -0.7649
  933MPD2    H113704   3.850   3.610   1.667  0.1705  1.1866  0.3278
  933MPD2    H213705   4.217   3.416   1.752  0.3921  1.2736  0.9637
  933MPD2    H313706   3.988   3.469   1.795 -0.6044 -2.9662 -0.9121
  933MPD2     N13707   3.916   3.680   1.398  0.4719 -0.0539  0.3229
  933MPD2    H513708   3.959   3.694   1.307  1.9127  2.3254  1.3700
  933MPD2    N113709   4.334   3.459   1.517 -0.0415 -0.0769  0.4125
  933MPD2    H713710   4.394   3.421   1.590 -1.1308  0.8594  1.7865
  934MPD2     C13711   0.277   1.628   1.622  0.2192 -0.3059 -0.3869
  934MPD2    C113712   0.363   1.523   1.597  0.8139  0.7764  0.0308
  934MPD2    C213713   0.327   1.418   1.512 -0.4510  1.3569 -0.4030
  934MPD2    C313714   0.202   1.423   1.457  0.0146 -0.6900 -0.0587
  934MPD2    C413715   0.113   1.526   1.487 -1.1639  0.5520  0.4752
  934MPD2    C513716   0.150   1.638   1.565 -0.3445  0.4280 -0.4233
  934MPD2     H13717   0.390   1.330   1.502 -0.6629  1.1767 -0.1622
  934MPD2    H113718   0.009   1.516   1.456 -0.9862 -1.6518  0.5586
  934MPD2    H213719   0.294   1.715   1.685  1.2953 -2.7861  2.7490
  934MPD2    H313720   0.079   1.716   1.587  0.2911  1.0266 -0.5102
  934MPD2     N13721   0.144   1.317   1.375 -0.1066 -1.1635  0.8697
  934MPD2    H513722   0.047   1.329   1.348  0.6405  0.2673 -1.2294
  934MPD2    N113723   0.480   1.506   1.670  0.7144 -0.3030  0.1537
  934MPD2    H713724   0.537   1.425   1.650 -0.3946 -1.2692  0.9647
  935MPD2     C13725   0.505   0.404   1.288 -0.7313  0.5245  0.1841
  935MPD2    C113726   0.437   0.409   1.169 -0.5713 -0.5948  0.2015
  935MPD2    C213727   0.368   0.529   1.147 -0.3276 -0.3536  0.2825
  935MPD2    C313728   0.350   0.633   1.236 -0.2121 -0.2548 -0.2401
  935MPD2    C413729   0.428   0.622   1.348  0.0041 -0.7170 -0.1324
  935MPD2    C513730   0.506   0.514   1.370  0.6414  0.7556 -0.3259
  935MPD2     H13731   0.305   0.533   1.058 -1.4948 -0.1112  1.1152
  935MPD2    H113732   0.414   0.695   1.427 -0.4355  0.3282 -1.1949
  935MPD2    H213733   0.561   0.314   1.312  0.1206  1.1190  0.4331
  935MPD2    H313734   0.567   0.512   1.460  1.7790 -0.9986 -1.1231
  935MPD2     N13735   0.267   0.746   1.225 -0.1600 -0.1548  0.2840
  935MPD2    H513736   0.266   0.818   1.297 -1.3239 -1.5116  1.6154
  935MPD2    N113737   0.430   0.305   1.063  0.0333  0.0683  0.0178
  935MPD2    H713738   0.361   0.316   0.989  2.1245  0.1790 -1.8899
  936MPD2     C13739   2.394   1.484  12.785  0.5799 -0.0400  0.6240
  936MPD2    C113740   2.493   1.520  12.869 -0.2713 -0.9732  0.5023
  936MPD2    C213741   2.610   1.579  12.822 -0.3973 -0.7248  0.6235
  936MPD2    C313742   2.622   1.615  12.690  0.0056 -0.5423  0.6246
  936MPD2    C413743   2.518   1.583  12.602  0.1906  0.8069 -0.4976
  936MPD2    C513744   2.414   1.507  12.652  0.2595 -0.3852  0.1679
  936MPD2     H13745   2.694   1.599  12.888 -0.4658 -1.8085  1.0347
  936MPD2    H113746   2.509   1.610  12.497 -1.5712 -0.7389 -0.7372
  936MPD2    H213747   2.294   1.452  12.813  1.4037 -1.5973  1.8440
  936MPD2    H313748   2.332   1.473  12.591 -0.7041 -0.1684  1.3401
  936MPD2     N13749   2.736   1.673  12.637 -0.0105 -0.0664  0.5517
  936MPD2    H513750   2.734   1.721  12.547 -2.8549 -1.0292  0.1093
  936MPD2    N113751   2.486   1.519  13.007 -0.1155 -0.2370 -0.1491
  936MPD2    H713752   2.568   1.552  13.058 -1.1836  1.6066  0.3957
  937MPD2     C13753   0.615   3.602  11.858 -0.5937 -0.4223 -0.2373
  937MPD2    C113754   0.615   3.728  11.788  0.1679 -0.5188 -0.0237
  937MPD2    C213755   0.716   3.745  11.694 -0.3762 -0.0512 -0.3154
  937MPD2    C313756   0.787   3.628  11.652 -0.5145  0.2028 -0.0779
  937MPD2    C413757   0.782   3.508  11.722  0.0982 -0.8594  0.1636
  937MPD2    C513758   0.691   3.493  11.818 -0.0201  0.4694 -0.0739
  937MPD2     H13759   0.732   3.846  11.659  1.5455 -0.3261 -0.2028
  937MPD2    H113760   0.856   3.430  11.713  2.6112  1.4398  1.0195
  937MPD2    H213761   0.555   3.591  11.947  0.3574 -0.4958  0.3956
  937MPD2    H313762   0.676   3.397  11.867  1.0623  0.7748  0.8569
  937MPD2     N13763   0.893   3.650  11.559  0.0981  0.5445  0.0810
  937MPD2    H513764   0.909   3.742  11.518  1.7539  0.0379 -0.4010
  937MPD2    N113765   0.561   3.850  11.849  0.3386 -0.3572 -0.4027
  937MPD2    H713766   0.571   3.935  11.795 -1.3233 -1.5699 -2.6331
  938MPD2     C13767   3.927   4.629   0.393 -0.0425 -0.8345 -0.7369
  938MPD2    C113768   3.903   4.731   0.486 -0.0534 -0.0610  0.4559
  938MPD2    C213769   3.915   4.698   0.619  0.0742  0.3274 -0.3273
  938MPD2    C313770   3.937   4.564   0.657 -0.5009 -0.5532  0.2687
  938MPD2    C413771   3.960   4.464   0.563 -0.3041 -0.6480 -0.7542
  938MPD2    C513772   3.953   4.497   0.429 -0.3133 -0.0103 -0.0991
  938MPD2     H13773   3.894   0.039   0.690 -1.2435  1.1461 -1.6268
  938MPD2    H113774   3.972   4.361   0.594  2.1449  0.3364  1.5870
  938MPD2    H213775   3.925   4.651   0.287  0.4933  0.6205 -0.4431
  938MPD2    H313776   3.964   4.422   0.352 -0.3580 -0.3684  0.2455
  938MPD2     N13777   3.940   4.526   0.791  0.3824  0.2410  0.8136
  938MPD2    H513778   3.964   4.431   0.816 -1.1116 -0.0545  1.1486
  938MPD2    N113779   3.867   0.122   0.440 -0.4230 -0.0944  0.3086
  938MPD2    H713780   3.860   0.192   0.512 -1.2666 -0.2978  0.4183
  939MPD2     C13781   4.616   1.376   0.206  0.0272  0.3456 -0.4234
  939MPD2    C113782   4.563   1.297   0.110 -0.2881 -0.1712 -0.4597
  939MPD2    C213783   4.643   1.197   0.054 -0.3507  0.0223 -0.5972
  939MPD2    C313784   0.037   1.173   0.088 -0.3038  0.1348  0.1520
  939MPD2    C413785   0.088   1.250   0.193 -0.1824 -0.0091 -0.3532
  939MPD2    C513786   0.011   1.353   0.245 -0.4065 -0.1295 -0.3365
  939MPD2     H13787   4.603   1.132  17.725  0.0206  0.2658 -0.9942
  939MPD2    H113788   0.188   1.229   0.228  0.2898 -1.2545 -2.4432
  939MPD2    H213789   4.562   1.461   0.246  1.0829 -0.4461  2.6834
  939MPD2    H313790   0.058   1.420   0.317 -0.3040  0.2754 -0.7810
  939MPD2     N13791   0.098   1.071   0.017  0.4591 -0.2051  0.0543
  939MPD2    H513792   0.043   1.023  17.695  1.5178 -0.4722 -0.5957
  939MPD2    N113793   4.426   1.317   0.080 -0.0010 -0.0178  0.6817
  939MPD2    H713794   4.393   1.402   0.124  0.7346  0.9853 -0.6953
  940MPD2     C13795   3.574   2.413  13.309 -0.2309 -0.4025 -0.7576
  940MPD2    C113796   3.611   2.292  13.364  0.7197  0.1420 -0.4075
  940MPD2    C213797   3.642   2.182  13.284 -0.2773  0.1923 -0.4264
  940MPD2    C313798   3.626   2.196  13.148  0.1059 -1.0371 -0.1303
  940MPD2    C413799   3.577   2.324  13.098 -0.1494  0.1584  0.5783
  940MPD2    C513800   3.544   2.425  13.175  0.0527 -0.5928 -0.3389
  940MPD2     H13801   3.680   2.093  13.333  1.1993  2.1553  1.9989
  940MPD2    H113802   3.567   2.334  12.990 -1.5150  0.1742  0.7072
  940MPD2    H213803   3.547   2.494  13.375 -0.8460 -1.9490  0.8952
  940MPD2    H313804   3.504   2.516  13.131 -2.0160 -0.7713  1.1357
  940MPD2     N13805   3.666   2.100  13.050  0.8530  0.2998 -0.3263
  940MPD2    H513806   3.642   2.113  12.953 -0.3980 -1.9619 -0.2967
  940MPD2    N113807   3.632   2.270  13.501  0.4663 -0.8466  0.1715
  940MPD2    H713808   3.642   2.174  13.530  0.8981 -0.5326  1.0463
  941MPD2     C13809   2.226   1.510   9.706 -0.2146  0.4322  0.5342
  941MPD2    C113810   2.332   1.589   9.667 -0.0922  0.1157 -0.3254
  941MPD2    C213811   2.451   1.577   9.732  0.0470  0.5068  0.1423
  941MPD2    C313812   2.464   1.491   9.837 -0.3608 -0.2926  0.5931
  941MPD2    C413813   2.361   1.412   9.878 -0.1255 -0.3254 -1.1956
  941MPD2    C513814   2.234   1.428   9.817 -0.4869  0.1424 -0.3973
  941MPD2     H13815   2.532   1.641   9.700  0.9932 -0.3755  0.7633
  941MPD2    H113816   2.363   1.344   9.962 -1.0342  3.3761  1.8239
  941MPD2    H213817   2.137   1.516   9.645  0.5861 -1.5960 -0.8511
  941MPD2    H313818   2.150   1.366   9.848  0.3018 -1.2417 -1.0584
  941MPD2     N13819   2.581   1.467   9.918 -1.0692  0.5801 -0.1590
  941MPD2    H513820   2.566   1.412  10.001 -0.3087  0.5774 -0.0239
  941MPD2    N113821   2.321   1.693   9.569  0.4136  0.1019 -0.0887
  941MPD2    H713822   2.390   1.767   9.579  0.4020  0.6887 -4.4979
  942MPD2     C13823   1.604   4.249  10.243  0.2792  0.0361  0.3531
  942MPD2    C113824   1.639   4.177  10.124 -0.1831  0.1469  0.2807
  942MPD2    C213825   1.589   4.051  10.105  0.3113 -0.0147  0.3384
  942MPD2    C313826   1.517   3.976  10.204  0.4297 -0.4178  0.0357
  942MPD2    C413827   1.477   4.054  10.310 -0.2717  0.4054 -0.0948
  942MPD2    C513828   1.516   4.186  10.329 -0.5225 -0.4419  0.4063
  942MPD2     H13829   1.622   4.006  10.011 -1.1048 -0.5694  0.1146
  942MPD2    H113830   1.418   3.996  10.379 -0.0278 -0.2912 -0.4770
  942MPD2    H213831   1.630   4.352  10.263 -2.3527  1.2097 -2.2363
  942MPD2    H313832   1.474   4.230  10.419  2.8859 -0.2843  1.9062
  942MPD2     N13833   1.463   3.843  10.189  0.0338  0.1603 -0.8800
  942MPD2    H513834   1.412   3.806  10.268  0.2749  1.9365  0.1124
  942MPD2    N113835   1.721   4.229  10.027  0.5162 -0.0356  0.4029
  942MPD2    H713836   1.750   4.179   9.943  0.3238 -0.5616  0.6483
  943MPD2     C13837   1.471   1.364  10.516 -0.2126  0.2112  0.3870
  943MPD2    C113838   1.367   1.275  10.517  0.1681 -0.3183 -0.2022
  943MPD2    C213839   1.291   1.269  10.632  0.0585 -0.0384  0.4515
  943MPD2    C313840   1.319   1.339  10.748 -0.4232  0.0010 -0.5884
  943MPD2    C413841   1.414   1.430  10.735  0.0877 -0.1410  0.7498
  943MPD2    C513842   1.489   1.441  10.625  0.3635 -0.7308 -0.5278
  943MPD2     H13843   1.207   1.202  10.637  0.9714 -1.2479 -0.2455
  943MPD2    H113844   1.448   1.495  10.815  0.4910  1.0981 -0.4344
  943MPD2    H213845   1.536   1.372  10.429  0.2770  0.5938  0.7826
  943MPD2    H313846   1.568   1.515  10.636  0.6776 -1.5621  2.6935
  943MPD2     N13847   1.260   1.331  10.874 -0.0809 -0.4634  0.3046
  943MPD2    H513848   1.303   1.391  10.944  0.5794 -2.5110  1.6679
  943MPD2    N113849   1.330   1.219  10.390  0.0760  0.0620  0.0541
  943MPD2    H713850   1.391   1.236  10.311 -1.0991 -0.2210 -0.9282
  944MPD2     C13851   0.761   0.176  10.741  0.0968  0.1193 -0.8011
  944MPD2    C113852   0.875   0.259  10.727  0.2097 -0.7818  0.0355
  944MPD2    C213853   0.918   0.329  10.840  0.0443  0.1805  0.1608
  944MPD2    C313854   0.849   0.329  10.956 -0.4670  0.1213  0.4093
  944MPD2    C413855   0.733   0.260  10.965 -0.2216  0.1971  0.2751
  944MPD2    C513856   0.689   0.185  10.857 -0.2860  0.2718 -0.2670
  944MPD2     H13857   1.008   0.390  10.836 -0.0118  0.3535  1.5418
  944MPD2    H113858   0.667   0.241  11.049 -1.2621 -1.5127 -0.9332
  944MPD2    H213859   0.737   0.116  10.654 -2.2998 -1.4353  0.9280
  944MPD2    H313860   0.605   0.117  10.863  1.7995 -2.2855 -0.2341
  944MPD2     N13861   0.906   0.386  11.069 -0.2037  0.4656 -0.1560
  944MPD2    H513862   0.991   0.440  11.055  0.2302  0.1980  1.4413
  944MPD2    N113863   0.949   0.249  10.602  0.2938 -0.4771 -0.4414
  944MPD2    H713864   0.905   0.189  10.533 -1.9614  1.8335 -1.0228
    1TMC1    C113865   4.587   1.237  14.444  0.3291  0.1151 -0.3342
    1TMC1    C213866   4.453   1.208  14.422 -0.0821  0.4189 -0.5451
    1TMC1    C313867   4.423   1.077  14.386 -0.4497 -0.0070 -0.7664
    1TMC1    C413868   4.685   1.144  14.444  0.1456 -0.5862 -0.0262
    1TMC1    C513869   4.650   1.020  14.395 -0.2738  0.1150 -0.1586
    1TMC1    C613870   4.522   0.983  14.369  0.8803  0.5204 -0.1303
    1TMC1     C13871   4.610   1.359  14.516  0.3748  0.3575  0.4428
    1TMC1     O13872   4.723   1.362  14.563 -0.1142 -0.6074  0.7648
    1TMC1     H13873   4.371   1.275  14.441 -0.6677  0.2153 -2.3704
    1TMC1    H113874   0.048   1.173  14.469  0.3894 -1.8688  0.4566
    1TMC1    H213875   4.496   0.885  14.330 -0.4635  0.6332  0.4797
    1TMC1    C713876   0.012   0.923  14.365 -0.1208 -0.3077  0.0892
    1TMC1    C813877   4.286   1.053  14.347 -0.2956  0.5837  0.3740
    1TMC1    O113878   4.722   0.804  14.354 -0.2929  1.0032  0.3336
    1TMC1    O213879   4.222   1.143  14.292 -0.1453 -0.4794  0.1505
    1TMC1    O313880   0.135   0.961  14.398 -0.3303 -0.2131 -0.2155
    1TMC1    H313881   0.155   1.052  14.366 -1.5166  0.5032  1.0646
    1TMC1    O513882   4.248   0.931  14.380 -0.1605  0.7307 -0.2870
    1TMC1    H513883   4.293   0.892  14.458 -0.5821 -0.3717 -0.5873
    2MPD2     C13884   4.607   1.849  14.561 -0.0142 -0.4980 -0.2283
    2MPD2    C113885   4.508   1.814  14.474  0.2004 -0.4486 -0.1628
    2MPD2    C213886   4.465   1.684  14.465 -0.0024 -0.4561 -0.6158
    2MPD2    C313887   4.536   1.590  14.543  0.5635 -0.3420 -0.4105
    2MPD2    C413888   4.630   1.621  14.635 -0.1441 -0.1856 -0.2016
    2MPD2    C513889   4.664   1.751  14.647  0.0517  0.1561 -0.4855
    2MPD2     H13890   4.391   1.648  14.395  0.8773 -1.2299 -1.1506
    2MPD2    H113891   4.674   1.556  14.710  0.2415  0.1097 -0.1698
    2MPD2    H213892   4.643   1.952  14.559  0.4753 -0.6356  1.4959
    2MPD2    H313893   0.006   1.772  14.718 -1.3118 -0.5795  1.2487
    2MPD2     N13894   4.519   1.455  14.497  0.4350  0.0376 -0.6114
    2MPD2    H513895   4.445   1.444  14.429 -1.1361 -2.7554  1.5398
    2MPD2    N113896   4.451   1.925  14.402  0.0030 -0.2262 -0.0277
    2MPD2    H713897   4.497   2.016  14.408  1.4128 -0.8561 -1.0517
    3TMC2    C113898   4.312   2.050  14.260  0.7392  0.5894 -0.8314
    3TMC2    C213899   4.366   2.167  14.300 -0.1532  0.4363 -0.2839
    3TMC2    C313900   4.334   2.285  14.229 -0.1102 -0.7379 -0.1869
    3TMC2    C413901   4.216   2.043  14.161 -0.2383  0.3471 -0.3305
    3TMC2    C513902   4.184   2.155  14.094 -0.2179 -0.6354 -0.5832
    3TMC2    C613903   4.239   2.281  14.126 -0.7581  0.1350  0.0855
    3TMC2     C13904   4.349   1.917  14.315  0.3223  0.2632  0.2758
    3TMC2     O13905   4.283   1.818  14.284  0.0040  0.1815 -0.0171
    3TMC2     H13906   4.452   2.169  14.366 -0.3013 -1.6194 -0.0156
    3TMC2    H113907   4.180   1.944  14.137  0.3170 -0.4271  2.0172
    3TMC2    H213908   4.213   2.359  14.055  1.1842  0.5373 -0.1727
    3TMC2    C713909   4.109   2.123  13.974 -0.3116  0.2137  0.1677
    3TMC2    C813910   4.426   2.395  14.230 -0.0583 -0.0962  0.3437
    3TMC2    O113911   4.083   2.007  13.939 -0.5563  0.5000  0.1883
    3TMC2    O213912   4.541   2.371  14.256  0.2796  0.2346 -0.3296
    3TMC2    O513913   4.386   2.498  14.148  0.1798 -0.2989  0.1957
    3TMC2    H513914   4.288   2.501  14.144  0.1968 -0.9679 -0.7677
    4TMC2    C113915   3.729   2.824  13.353  0.0310  0.2000  0.8035
    4TMC2    C213916   3.799   2.803  13.239  0.0900 -0.4532  0.2732
    4TMC2    C313917   3.917   2.741  13.242  0.0021  0.5854 -0.5458
    4TMC2    C413918   3.766   2.777  13.473  0.1373  0.3213 -0.4727
    4TMC2    C513919   3.883   2.699  13.476  0.4421 -0.0782 -0.2734
    4TMC2    C613920   3.960   2.684  13.363 -0.1842  0.4475 -0.2413
    4TMC2     C13921   3.579   2.837  13.347 -0.2047 -0.2086 -0.2572
    4TMC2     O13922   3.515   2.848  13.449  0.7977 -0.9434  0.2615
    4TMC2     H13923   3.767   2.866  13.157 -1.1460  0.6211  1.5966
    4TMC2    H113924   3.719   2.803  13.567 -0.5887  2.6572 -1.4717
    4TMC2    H213925   4.050   2.623  13.359 -1.0781 -0.8319 -1.0375
    4TMC2    C713926   3.901   2.602  13.576  0.4170 -0.2955 -0.8145
    4TMC2    C813927   4.001   2.765  13.125 -0.0631 -0.9731  0.2808
    4TMC2    O113928   3.875   2.623  13.697 -0.1387  0.4408 -0.1757
    4TMC2    O213929   3.972   2.717  13.018  0.5504 -0.1003  0.3217
    4TMC2    O513930   4.130   2.772  13.172 -0.6491 -0.4139  0.0292
    4TMC2    H513931   4.133   2.820  13.257 -0.5512  1.0877 -0.8265
    5MPD2     C13932   3.137   2.698  13.123  0.4276  0.2475 -0.1522
    5MPD2    C113933   3.227   2.716  13.023  0.0549 -0.6134  0.0112
    5MPD2    C213934   3.354   2.763  13.058 -0.6729 -0.0127  0.0626
    5MPD2    C313935   3.393   2.772  13.197 -0.3527  0.0558  0.0898
    5MPD2    C413936   3.300   2.734  13.291  0.6074  0.2857 -0.9908
    5MPD2    C513937   3.169   2.716  13.257  0.1201  0.2084 -0.7380
    5MPD2     H13938   3.416   2.798  12.976  0.0554 -2.5853 -0.4801
    5MPD2    H113939   3.310   2.748  13.398 -0.3474  0.6353 -0.9462
    5MPD2    H213940   3.034   2.688  13.092  0.7247  2.5799 -1.8776
    5MPD2    H313941   3.088   2.701  13.328  1.0022 -0.2603  0.1695
    5MPD2     N13942   3.526   2.815  13.222  0.3157 -0.4622 -0.2097
    5MPD2    H513943   3.589   2.809  13.143  0.5724  0.2053 -0.0563
    5MPD2    N113944   3.170   2.711  12.898 -0.0232  0.1397  0.0436
    5MPD2    H713945   3.072   2.684  12.896  0.8815 -2.9752 -2.1039
    6MPD1     C13946   2.455   3.261  13.919  0.6953  0.4712  0.1352
    6MPD1    C113947   2.467   3.375  13.847  0.1451 -0.5705 -0.4030
    6MPD1    C213948   2.453   3.365  13.711  0.6207 -0.9168 -0.4180
    6MPD1    C313949   2.411   3.246  13.645 -0.5585 -0.6759  0.2455
    6MPD1    C413950   2.389   3.132  13.720 -0.5455  0.8519 -1.0744
    6MPD1    C513951   2.414   3.142  13.858  0.0449 -1.0018 -0.0603
    6MPD1     H13952   2.474   3.458  13.660 -1.4341 -0.5707 -0.6452
    6MPD1    H113953   2.359   3.040  13.671  0.4150 -0.5032  0.8775
    6MPD1    H213954   2.479   3.262  14.024  2.0946  0.5560 -0.1730
    6MPD1    H313955   2.410   3.055  13.923  0.5986 -1.2443 -0.3491
    6MPD1     N13956   2.399   3.228  13.505  0.3155  0.5372 -0.1067
    6MPD1    H513957   2.392   3.132  13.474  2.5353 -0.2086  1.6602
    6MPD1    N113958   2.510   3.492  13.908 -0.4324  0.3364  0.4835
    6MPD1    H613959   2.466   3.572  13.863  0.2251  0.4179 -0.0060
    6MPD1    H713960   2.476   3.502  14.004  0.6351  0.9723  0.7866
    7MPD2     C13961   2.483   2.717  13.061  0.0533 -0.5269  0.3566
    7MPD2    C113962   2.496   2.824  12.976  0.1470 -0.2177  0.4469
    7MPD2    C213963   2.585   2.801  12.867  0.7416 -0.1100 -0.0999
    7MPD2    C313964   2.652   2.678  12.842 -0.3483 -0.2639  0.2041
    7MPD2    C413965   2.625   2.579  12.937 -0.4611 -0.4306  0.3482
    7MPD2    C513966   2.545   2.600  13.046 -0.5472 -0.3730  0.4482
    7MPD2     H13967   2.599   2.895  12.813  2.1157 -0.6803 -0.7369
    7MPD2    H113968   2.669   2.481  12.921 -0.0032 -0.3158  0.9222
    7MPD2    H213969   2.412   2.724  13.143 -1.4316  0.7957 -1.0411
    7MPD2    H313970   2.512   2.521  13.113 -1.4779  1.0188  1.6129
    7MPD2     N13971   2.763   2.663  12.757 -0.0815 -0.1746  0.5487
    7MPD2    H513972   2.821   2.581  12.777 -2.7398 -2.5345 -1.4914
    7MPD2    N113973   2.422   2.942  12.986 -0.5259  0.1225  0.0409
    7MPD2    H713974   2.430   3.010  12.911  1.2526  0.2031  0.2838
    8TMC3    C113975   2.916   2.745  12.607  0.9647  0.7957  0.0153
    8TMC3    C213976   3.025   2.704  12.683  0.0804 -0.0336 -0.5835
    8TMC3    C313977   3.147   2.761  12.673  0.3446  0.4359 -0.3608
    8TMC3    C413978   2.938   2.846  12.513  0.0310 -0.1282  0.3305
    8TMC3    C513979   3.048   2.932  12.534 -0.3101  0.4302  0.3326
    8TMC3    C613980   3.157   2.884  12.605  0.2686  0.6859 -0.0813
    8TMC3     C13981   2.775   2.738  12.650  0.3684  0.2482  0.4218
    8TMC3     O13982   2.692   2.804  12.594 -0.0062  0.3917  0.7189
    8TMC3     H13983   3.024   2.604  12.724 -0.4386  0.2826  0.1648
    8TMC3    H113984   2.852   2.888  12.463 -0.1700  1.7665  2.2746
    8TMC3    H213985   3.251   2.939  12.610 -0.2603  1.6252 -0.5840
    8TMC3    C713986   3.000   3.058  12.569 -0.5504  0.3066  0.4625
    8TMC3    C813987   3.233   2.755  12.783 -0.1897 -0.0282 -0.2965
    8TMC3    O113988   2.878   3.066  12.558 -0.0311 -0.2002  0.4792
    8TMC3    O213989   3.339   2.803  12.766  0.2726 -0.0137 -0.5825
    9TMC3    C113990   2.383   3.301  13.278 -0.3356 -0.3785 -0.5632
    9TMC3    C213991   2.489   3.362  13.207  0.5859  0.0608  0.3237
    9TMC3    C313992   2.539   3.306  13.095 -0.2125  0.0368  0.4743
    9TMC3    C413993   2.340   3.176  13.241 -0.3092 -0.1675 -0.9665
    9TMC3    C513994   2.388   3.127  13.123  0.0724 -0.1318  0.6456
    9TMC3    C613995   2.496   3.184  13.055 -0.4646  0.1363  0.5300
    9TMC3     C13996   2.395   3.335  13.422 -0.3164  0.6802 -0.2870
    9TMC3     O13997   2.413   3.456  13.444 -0.7865  0.3454 -0.1539
    9TMC3     H13998   2.540   3.447  13.250 -0.2583 -0.2554  1.9866
    9TMC3    H113999   2.258   3.123  13.288 -0.5948 -1.5244 -2.9777
    9TMC3    H214000   2.547   3.140  12.971 -0.6884  2.4942 -0.8597
    9TMC3    C714001   2.373   2.985  13.106  0.0941 -0.0113 -0.5647
    9TMC3    C814002   2.678   3.327  13.067  0.3398  0.3830 -0.4083
    9TMC3    O114003   2.347   2.923  13.209 -0.0895 -0.1991  0.4171
    9TMC3    O214004   2.740   3.369  13.162 -1.1021  0.1689  0.1897
   10MPD2     C14005   3.102   3.321  12.789 -0.0824 -0.1527 -0.2459
   10MPD2    C114006   3.019   3.226  12.737  0.4284  0.7339  1.0712
   10MPD2    C214007   2.897   3.219  12.798  0.0073  0.3988  0.0056
   10MPD2    C314008   2.859   3.294  12.904  0.1809 -0.2253  0.3542
   10MPD2    C414009   2.944   3.384  12.953  0.4204  0.2764  0.4272
   10MPD2    C514010   3.063   3.401  12.893 -0.5155  0.5558 -0.0666
   10MPD2     H14011   2.828   3.138  12.777 -1.9341  2.0884 -0.1237
   10MPD2    H114012   2.917   3.455  13.031  0.7845  0.0425  0.7656
   10MPD2    H214013   3.197   3.325  12.738  1.0734  1.0799  2.0539
   10MPD2    H314014   3.124   3.481  12.932 -0.6373  0.1779  0.9177
   10MPD2     N14015   2.726   3.271  12.950  0.0285  0.2501  0.1477
   10MPD2    H514016   2.667   3.216  12.888  1.9079 -0.2996 -1.1425
   10MPD2    N114017   3.082   3.136  12.648  0.1348  0.1255 -0.7202
   10MPD2    H714018   3.177   3.147  12.615  0.5577  3.9553  1.8923
   11MPD2     C14019   4.035   2.123  13.688  0.0974  0.0152  0.1960
   11MPD2    C114020   4.047   2.233  13.765  0.1243 -0.7997 -0.5930
   11MPD2    C214021   4.015   2.348  13.703  0.1193  0.2925  0.3335
   11MPD2    C314022   3.974   2.356  13.573 -0.4754 -0.2125 -0.2713
   11MPD2    C414023   3.970   2.246  13.502  0.3900  0.1239 -0.2983
   11MPD2    C514024   3.993   2.123  13.557  0.1171  0.1456 -0.8248
   11MPD2     H14025   4.029   2.437  13.764  1.8703 -0.5987  1.2628
   11MPD2    H114026   3.943   2.252  13.397  2.3798 -0.3811 -0.8306
   11MPD2    H214027   4.056   2.023  13.724 -3.7041 -1.1035 -0.6755
   11MPD2    H314028   3.966   2.036  13.499 -0.2207  0.0468 -0.5183
   11MPD2     N14029   3.934   2.480  13.512  0.2496 -0.4611 -0.5715
   11MPD2    H514030   3.922   2.475  13.411  3.4760  0.7970 -1.0311
   11MPD2    N114031   4.062   2.234  13.905 -0.4169 -0.6778  0.0668
   11MPD2    H714032   4.053   2.325  13.950 -1.4481  0.4786 -2.4559
    1MPD1     C14033   2.198   3.372   0.214 -0.6697 -0.7951 -0.4597
    1MPD1    C114034   2.081   3.331   0.162  0.0132  0.3274 -0.3902
    1MPD1    C214035   2.069   3.317   0.019  0.5303  0.4853  0.2417
    1MPD1    C314036   2.176   3.350  17.685  0.8062 -0.3050  0.0211
    1MPD1    C414037   2.292   3.385  17.745  0.5929 -0.4502 -0.2837
    1MPD1    C514038   2.302   3.398   0.130 -0.1145  0.1423 -0.2030
    1MPD1     H14039   1.974   3.279  17.729 -0.3551  2.2936  0.6262
    1MPD1    H114040   2.382   3.412  17.690 -0.6498 -1.0122 -2.6074
    1MPD1    H214041   2.210   3.396   0.319 -2.0160  0.9011 -0.7039
    1MPD1    H314042   2.399   3.428   0.167  0.2548  0.8976 -1.8039
    1MPD1     N14043   2.185   3.345  17.548  0.4636 -0.5460 -0.2871
    1MPD1    H514044   2.264   3.391  17.503 -1.2077  1.7025 -0.9564
    1MPD1    N114045   1.969   3.302   0.248  0.2364  0.2287 -0.1644
    1MPD1    H614046   1.895   3.239   0.217  1.0579 -0.9806  0.3439
    1MPD1    H714047   1.997   3.269   0.340  0.8102 -1.5594 -0.9843
    2MPD1     C14048   2.934   3.340  17.180  0.8367 -0.0823 -0.1835
    2MPD1    C114049   2.879   3.383  17.302  0.1007 -0.4110  0.6756
    2MPD1    C214050   2.741   3.403  17.307 -0.4421  0.2818 -0.0163
    2MPD1    C314051   2.661   3.388  17.198 -0.5542 -0.4009  0.6626
    2MPD1    C414052   2.718   3.351  17.079 -0.1721  0.3125  0.1731
    2MPD1    C514053   2.849   3.327  17.074 -0.8540 -0.1675 -0.4437
    2MPD1     H14054   2.691   3.428  17.400 -1.2576  0.2510 -0.4550
    2MPD1    H114055   2.656   3.320  16.996 -0.1152 -1.7635  0.9126
    2MPD1    H214056   3.038   3.312  17.171  0.5105 -1.6287  0.7387
    2MPD1    H314057   2.898   3.278  16.991 -0.0528 -3.5128  1.9650
    2MPD1     N14058   2.517   3.395  17.215 -0.1140  0.0986 -0.7541
    2MPD1    H514059   2.490   3.412  17.312  1.3836 -0.6638 -0.2002
    2MPD1    N114060   2.960   3.375  17.420 -0.6904  0.4410 -0.1545
    2MPD1    H614061   3.057   3.358  17.393 -0.8977  0.8610 -1.1731
    2MPD1    H714062   2.945   3.455  17.481  0.8559  0.0215  0.7740
    3TMC3    C114063   2.293   3.351  17.168  0.5336  0.4888 -0.1842
    3TMC3    C214064   2.192   3.375  17.078  0.4683  0.0455 -0.8380
    3TMC3    C314065   2.071   3.324  17.109  0.7350 -0.5744  0.7294
    3TMC3    C414066   2.259   3.300  17.293 -0.1172 -0.3548 -0.1069
    3TMC3    C514067   2.132   3.273  17.325  0.9012  0.9373  0.1254
    3TMC3    C614068   2.031   3.289  17.237  0.5829 -0.2582  0.3194
    3TMC3     C14069   2.423   3.368  17.117  0.7633 -0.0142  0.1451
    3TMC3     O14070   2.444   3.346  16.999  0.0427 -0.3073 -0.4455
    3TMC3     H14071   2.217   3.433  16.990  0.6673  1.0742 -0.1078
    3TMC3    H114072   2.335   3.285  17.369 -1.4083 -0.5600  1.1187
    3TMC3    H214073   1.928   3.264  17.260  0.4499 -0.0838 -0.0880
    3TMC3    C714074   2.100   3.280  17.466 -0.2909 -1.0002  0.1754
    3TMC3    C814075   1.971   3.311  17.006 -0.0114 -0.7327  0.2583
    3TMC3    O114076   1.997   3.223  17.495  0.1439  0.2527  0.8911
    3TMC3    O214077   1.862   3.274  17.042 -0.5957 -0.4847 -0.3919
    4MPD1     C14078   1.842   3.175  16.523 -0.6840  0.6205  0.3634
    4MPD1    C114079   1.965   3.230  16.526 -0.2839  1.5214 -0.2065
    4MPD1    C214080   2.021   3.269  16.642  0.0072  0.0900 -0.3050
    4MPD1    C314081   1.949   3.277  16.759  0.1084  0.0329 -0.0190
    4MPD1    C414082   1.817   3.237  16.758  0.3159 -0.5721 -0.1762
    4MPD1    C514083   1.770   3.183  16.641  0.5981 -0.2378  0.4617
    4MPD1     H14084   2.123   3.305  16.635  0.1990 -0.2808  0.5717
    4MPD1    H114085   1.757   3.215  16.845 -1.5408 -1.3977 -1.6784
    4MPD1    H214086   1.806   3.114  16.441  0.9591 -0.3832  0.4103
    4MPD1    H314087   1.669   3.143  16.640  0.0422  1.1920 -0.1411
    4MPD1     N14088   2.026   3.313  16.878  0.2081  0.1649  0.1507
    4MPD1    H514089   2.122   3.334  16.854  0.2498  0.5011  0.6184
    4MPD1    N114090   2.031   3.205  16.400  1.0266 -0.0605 -0.1359
    4MPD1    H614091   1.967   3.220  16.322  0.8655 -1.7218 -0.3377
    4MPD1    H714092   2.108   3.269  16.385  1.5390 -0.6321  0.0540
    1TCq1    O114093   3.932   3.324  12.384 -0.4976  0.1076 -0.7661
    1TCq1    C114094   3.864   3.224  12.325 -0.1793  0.3263  0.2858
    1TCq1    O214095   3.871   3.196  12.207  0.0565  0.4025  0.1487
    1TCq1    C214096   3.748   3.195  12.403 -0.0739  0.2617  0.2352
    1TCq1    C314097   3.764   3.193  12.536  0.3243  0.3351 -0.0452
    1TCq1    C414098   3.646   3.184  12.606 -0.5400 -0.0235 -0.5492
    1TCq1    C514099   3.523   3.181  12.546  0.5051 -0.2229 -0.3871
    1TCq1    C614100   3.518   3.204  12.415  0.5288  0.2689 -0.2965
    1TCq1    C714101   3.630   3.192  12.340 -0.7443 -0.1051 -0.1732
    1TCq1    C814102   3.386   3.175  12.347 -0.4691 -0.7168 -0.2847
    1TCq1    O414103   3.298   3.122  12.417  0.3312  0.1586  0.4150
    1TCq1    C914104   3.650   3.237  12.742  0.0550  0.0752 -0.2714
    1TCq1    O514105   3.728   3.338  12.755  0.7049 -0.0507  0.4445
    1TCq1    O614106   3.540   3.216  12.806  0.6417  0.1728  0.4084
    1TCq1    H114107   3.889   3.360  12.464  0.0070 -0.1902 -0.3600
    1TCq1    H214108   3.857   3.223  12.584 -0.0069  1.1490  0.0840
    1TCq1    H314109   3.434   3.186  12.608  1.5724  2.9093  0.8756
    1TCq1    H414110   3.634   3.186  12.232 -2.1423  2.8862 -0.3981
    2MPD1     C14111   3.091   3.117  11.943 -0.2256  0.0357  0.4081
    2MPD1    C114112   3.178   3.217  11.920 -0.0458 -0.0449  0.0988
    2MPD1    C214113   3.266   3.256  12.018  0.4844  0.2106  0.9005
    2MPD1    C314114   3.280   3.186  12.132  0.5580  0.1224 -0.1440
    2MPD1    C414115   3.195   3.077  12.145 -0.0456  0.2908  0.0561
    2MPD1    C514116   3.094   3.050  12.056  0.0422 -0.4207 -0.1401
    2MPD1     H14117   3.330   3.342  12.000 -0.1321 -0.0224 -2.3909
    2MPD1    H114118   3.204   3.015  12.233  0.8131  0.0800 -0.1785
    2MPD1    H214119   3.017   3.095  11.867  1.3475 -2.1371 -0.4969
    2MPD1    H314120   3.017   2.977  12.075  0.3642 -0.6903  0.1169
    2MPD1     N14121   3.378   3.223  12.222  0.7471 -0.1722  0.0895
    2MPD1    H514122   3.441   3.299  12.197 -0.4558  1.1929  1.1921
    2MPD1    N114123   3.192   3.259  11.791  0.2370  0.0223 -0.0424
    2MPD1    H614124   3.107   3.270  11.736  1.6419  0.8222 -2.0540
    2MPD1    H714125   3.254   3.339  11.781  0.0400  0.3239  1.1100
    1TMC1    C114126   4.294   4.024   1.126  0.1196 -0.2570  0.0828
    1TMC1    C214127   4.185   4.077   1.068  0.9223 -0.1309  0.0581
    1TMC1    C314128   4.187   4.123   0.938  0.2452  0.8609  1.0594
    1TMC1    C414129   4.408   3.997   1.050  0.8016 -0.3973 -0.3743
    1TMC1    C514130   4.412   4.057   0.924 -0.1228 -0.0575  0.1393
    1TMC1    C614131   4.304   4.119   0.861 -0.1551 -0.3896  0.0107
    1TMC1     C14132   4.294   4.039   1.274 -0.1976  0.2565  0.6818
    1TMC1     O14133   4.243   4.140   1.316  0.2841  0.6497  0.3848
    1TMC1     H14134   4.105   4.103   1.137 -0.7855  0.2805 -2.0704
    1TMC1    H114135   4.480   3.928   1.094  0.0886  0.5618  2.2550
    1TMC1    H214136   4.305   4.165   0.763 -2.9848  0.0087  0.1626
    1TMC1    C714137   4.531   4.039   0.851 -0.3792 -0.0938  0.3615
    1TMC1    C814138   4.074   4.165   0.864 -0.1124  0.0770 -0.7231
    1TMC1    O114139   4.538   4.044   0.727  0.0722  0.0247 -0.1235
    1TMC1    O214140   4.080   4.273   0.803  0.9361  0.0435 -0.3488
    1TMC1    O314141   4.634   4.042   0.932  0.0039  0.3904  0.1489
    1TMC1    H314142   4.623   4.059   1.028 -2.1516 -1.0589  0.1388
    1TMC1    O514143   3.968   4.120   0.936  0.6423  0.2114 -0.2608
    1TMC1    H514144   3.982   4.025   0.955  0.4040 -0.0862 -1.6332
    2MPD1     C14145   4.367   3.914   1.756 -0.3885  0.4208  0.5336
    2MPD1    C114146   4.405   3.804   1.687 -0.6079  0.1510  0.4347
    2MPD1    C214147   4.407   3.818   1.549  0.1283 -0.1833  0.0312
    2MPD1    C314148   4.367   3.936   1.485 -0.2965 -0.3519 -1.0855
    2MPD1    C414149   4.332   4.046   1.558  0.2046 -0.3179  0.2680
    2MPD1    C514150   4.332   4.030   1.697  0.0249  0.5800  0.0367
    2MPD1     H14151   4.450   3.743   1.484  1.0463  2.1233 -1.9811
    2MPD1    H114152   4.293   4.138   1.515 -0.1247  0.0503  1.3373
    2MPD1    H214153   4.358   3.915   1.864 -2.1084  0.4393  0.3861
    2MPD1    H314154   4.306   4.108   1.767  1.6311  1.5910 -0.5003
    2MPD1     N14155   4.367   3.943   1.342  0.4072 -0.2451 -0.1355
    2MPD1    H514156   4.409   3.869   1.287 -0.2918  1.7532 -3.3629
    2MPD1    N114157   4.448   3.688   1.753 -0.3014  0.0798  0.3838
    2MPD1    H614158   4.415   3.606   1.703 -1.4412  0.0646  1.1728
    2MPD1    H714159   4.421   3.692   1.851  1.1375  0.0384  0.7779
    1MPD1     C14160   4.529   2.988  11.249  0.8571 -0.3940 -0.6139
    1MPD1    C114161   4.530   3.119  11.214 -0.4231  0.4962 -0.5653
    1MPD1    C214162   4.591   3.207  11.296 -0.2865 -0.6471  0.6327
    1MPD1    C314163   4.629   3.163  11.420  0.1718 -0.2458  0.1916
    1MPD1    C414164   4.611   3.034  11.461 -0.0978  0.1337  0.1821
    1MPD1    C514165   4.573   2.943  11.373  0.4207 -0.5893  0.1101
    1MPD1     H14166   4.608   3.309  11.264  0.6827 -1.0173 -0.0436
    1MPD1    H114167   4.649   2.999  11.556  0.1209  0.6067  0.2703
    1MPD1    H214168   4.497   2.912  11.179 -1.0219 -1.4646  1.4141
    1MPD1    H314169   4.564   2.841  11.407  2.0985 -0.5837  0.5685
    1MPD1     N14170   4.697   3.258  11.493 -0.3937 -0.5190  0.1325
    1MPD1    H514171   4.701   3.351  11.454  1.8135 -1.0131 -0.8473
    1MPD1    N114172   4.484   3.158  11.086  0.5176  0.2377 -0.3243
    1MPD1    H614173   4.417   3.094  11.044 -0.5356  0.9375  0.2872
    1MPD1    H714174   4.430   3.244  11.094  1.4621  1.1396 -3.4799
    2MPD1     C14175   3.704   3.659  11.915  0.8756  0.2807  0.2811
    2MPD1    C114176   3.688   3.539  11.855 -0.0508 -0.2036  0.6366
    2MPD1    C214177   3.744   3.526  11.732 -0.2507 -0.1857 -0.6300
    2MPD1    C314178   3.785   3.637  11.656 -0.3390  0.2091 -0.2219
    2MPD1    C414179   3.800   3.762  11.719  0.2022 -0.3207 -0.1065
    2MPD1    C514180   3.759   3.776  11.852 -0.2392  0.7938  0.4644
    2MPD1     H14181   3.740   3.426  11.689  3.3340 -0.7466  0.2800
    2MPD1    H114182   3.832   3.848  11.662 -1.8404  1.4064  1.3686
    2MPD1    H214183   3.666   3.669  12.016 -0.9991 -0.2771 -0.3753
    2MPD1    H314184   3.767   3.865  11.914  5.2850 -0.0571  0.9610
    2MPD1     N14185   3.830   3.627  11.523 -0.3616 -0.1641  0.4798
    2MPD1    H514186   3.868   3.711  11.479  0.8393 -1.3450 -0.7621
    2MPD1    N114187   3.644   3.423  11.917  0.5040  0.5203  0.1788
    2MPD1    H614188   3.590   3.358  11.861 -1.4504  1.8770  0.4818
    2MPD1    H714189   3.589   3.438  12.001  0.8521  3.2260 -0.0761
    3MPD1     C14190   3.627   3.105  10.675 -0.5118  0.3749 -1.2051
    3MPD1    C114191   3.663   3.039  10.791 -0.0293  0.4066  0.7886
    3MPD1    C214192   3.757   3.096  10.879  0.3176  0.6462  0.7106
    3MPD1    C314193   3.786   3.229  10.860 -0.0789 -0.1746  0.1768
    3MPD1    C414194   3.731   3.303  10.758 -0.1903 -0.6572  0.4338
    3MPD1    C514195   3.640   3.237  10.669  0.2298 -0.0776 -0.4763
    3MPD1     H14196   3.784   3.045  10.971 -0.2852  2.6941  2.0171
    3MPD1    H114197   3.756   3.408  10.748  0.9409 -0.7616  2.1925
    3MPD1    H214198   3.584   3.060  10.586 -0.7793  0.9043 -1.3443
    3MPD1    H314199   3.609   3.273  10.572 -2.4825 -0.1683  0.3651
    3MPD1     N14200   3.863   3.292  10.965 -0.0968 -0.3678  0.4791
    3MPD1    H514201   3.873   3.244  11.054  2.4722 -1.5553 -0.4583
    3MPD1    N114202   3.640   2.901  10.808  0.1536 -0.7021  0.0348
    3MPD1    H614203   3.638   2.876  10.906 -0.6721  1.7199  0.6237
    3MPD1    H714204   3.550   2.866  10.773 -0.0379  1.5054 -1.6624
    4MPD2     C14205   4.646   3.788  11.972  0.6721  0.2421  0.4837
    4MPD2    C114206   4.733   3.780  11.866 -0.1410 -0.2363 -0.2004
    4MPD2    C214207   0.018   3.884  11.786  0.4526 -0.0325  0.1700
    4MPD2    C314208   4.691   4.003  11.814 -0.3858 -0.5992 -0.6744
    4MPD2    C414209   4.597   4.009  11.915 -0.3596 -0.0788 -0.0584
    4MPD2    C514210   4.578   3.904  12.000  0.1916  0.4023 -0.0639
    4MPD2     H14211   0.088   3.882  11.704  1.7765  1.2345  1.2635
    4MPD2    H114212   4.551   4.101  11.947  0.5531  0.6963 -0.9563
    4MPD2    H214213   4.630   3.697  12.030 -0.4092  1.3593  1.9331
    4MPD2    H314214   4.517   3.905  12.089 -0.2719  0.5853 -0.3780
    4MPD2     N14215   4.699   4.118  11.733  0.2414  0.4931  0.0773
    4MPD2    H514216   4.634   4.191  11.760  0.2711  1.1017 -1.4555
    4MPD2    N114217   0.079   3.670  11.849  0.3612 -0.5408  0.3986
    4MPD2    H714218   0.143   3.669  11.770 -0.0405 -1.0882  0.0811
    5TMC3    C114219   0.182   3.457  11.857  0.2842  0.2685  0.9110
    5TMC3    C214220   0.112   3.355  11.800 -0.1506 -0.3587 -0.6472
    5TMC3    C314221   0.106   3.344  11.667 -0.5811  0.1356 -0.0268
    5TMC3    C414222   0.265   3.529  11.776 -0.3818 -0.0991  0.2101
    5TMC3    C514223   0.256   3.515  11.640  0.3009 -0.4669  0.2199
    5TMC3    C614224   0.170   3.428  11.581  1.0164 -0.3268 -0.7772
    5TMC3     C14225   0.082   3.549  11.915  1.1509 -0.8775 -0.5794
    5TMC3     O14226   4.735   3.497  11.985 -0.0733 -0.4548  0.1102
    5TMC3     H14227   0.052   3.289  11.861  0.2919  0.1144  0.3006
    5TMC3    H114228   0.328   3.606  11.817  1.4592 -1.3695 -0.2395
    5TMC3    H214229   0.156   3.411  11.474  1.7318 -0.5545 -0.8414
    5TMC3    C714230   0.290   3.633  11.560  0.0388 -0.2709  0.9237
    5TMC3    C814231   0.014   3.237  11.615 -1.2332  0.5991  0.1115
    5TMC3    O114232   0.316   3.733  11.625 -0.8583 -0.6027  0.1517
    5TMC3    O214233   4.737   3.142  11.690 -0.4577  0.3046  0.1163
    6TMC3    C114234   3.912   3.531  11.323 -0.3777  0.3793 -0.3902
    6TMC3    C214235   3.880   3.449  11.219 -0.5513 -0.7682  0.4616
    6TMC3    C314236   3.941   3.492  11.098  0.3454  0.0414 -0.7164
    6TMC3    C414237   3.990   3.643  11.317  0.0746  0.3960 -0.2257
    6TMC3    C514238   4.037   3.677  11.190 -0.5323 -0.2822 -0.3491
    6TMC3    C614239   4.022   3.600  11.083  0.9491 -0.4055  0.2956
    6TMC3     C14240   3.840   3.515  11.444 -1.1539  0.4759 -0.0790
    6TMC3     O14241   3.787   3.405  11.467  0.3888 -0.4071 -0.4591
    6TMC3     H14242   3.829   3.355  11.240  0.6417 -1.2669  1.1068
    6TMC3    H114243   4.023   3.702  11.401  0.0836 -1.2084  0.8804
    6TMC3    H214244   4.080   3.615  10.992 -0.7527 -1.7957 -1.0105
    6TMC3    C714245   4.146   3.768  11.184 -0.4917  0.3325  0.3341
    6TMC3    C814246   3.912   3.419  10.971 -0.0881  0.2366  0.1044
    6TMC3    O114247   4.213   3.786  11.287  0.6135  0.0496 -0.3288
    6TMC3    O214248   3.931   3.494  10.877 -0.4520  0.4021 -0.0651
    7MPD2     C14249   0.228   3.907  11.140 -0.1071 -0.5032  0.1325
    7MPD2    C114250   0.198   3.933  11.271 -0.0986  0.2420  0.5083
    7MPD2    C214251   0.215   3.834  11.372 -0.1811 -1.4234 -0.3415
    7MPD2    C314252   0.261   3.712  11.335  0.8353 -0.1658  0.6063
    7MPD2    C414253   0.274   3.679  11.202 -0.7195  0.1825  0.2125
    7MPD2    C514254   0.264   3.781  11.106  0.1314 -0.5006  0.1009
    7MPD2     H14255   0.194   3.854  11.477  0.2397  0.4837 -0.6118
    7MPD2    H114256   0.304   3.577  11.184 -0.3267  0.5252 -1.0977
    7MPD2    H214257   0.226   3.975  11.056  1.6824  0.1444  0.6188
    7MPD2    H314258   0.286   3.764  11.002  1.3684  0.9691  0.1277
    7MPD2     N14259   0.282   3.611  11.426 -0.8664  0.0212 -0.0739
    7MPD2    H514260   0.287   3.516  11.392 -0.6214 -0.3977  1.1463
    7MPD2    N114261   0.143   4.049  11.309 -0.3935  0.4327 -0.1664
    7MPD2    H714262   0.145   4.081  11.405  0.1265 -0.2772  0.0613
    8TMC3    C114263   0.048   4.268  11.299  0.3982 -0.4819  0.0259
    8TMC3    C214264   4.655   4.280  11.279 -0.3136 -0.0834  0.0072
    8TMC3    C314265   4.568   4.264  11.381 -0.2700  0.1940 -0.4336
    8TMC3    C414266   0.094   4.252  11.428  0.7514 -0.2897  0.2340
    8TMC3    C514267   0.010   4.238  11.533  0.2894  0.1870 -0.4100
    8TMC3    C614268   4.612   4.233  11.506  0.1955 -0.2382 -0.3178
    8TMC3     C14269   0.100   4.149  11.224 -0.5862 -0.0568  0.2901
    8TMC3     O14270   0.057   4.137  11.107  0.2301  0.0614 -0.1770
    8TMC3     H14271   4.630   4.300  11.175  2.1006 -0.4707 -0.6324
    8TMC3    H114272   0.199   4.244  11.455  0.5606 -1.6709  0.5502
    8TMC3    H214273   4.531   4.192  11.566  0.8472 -2.0744 -0.7070
    8TMC3    C714274   0.047   4.136  11.629 -1.5581  0.6801  1.4670
    8TMC3    C814275   4.446   4.191  11.341  0.0763 -0.5883 -0.4028
    8TMC3    O114276   0.148   4.070  11.609  0.0973 -0.0552  0.3636
    8TMC3    O214277   4.410   4.096  11.410  0.1930 -0.3414  0.3756
    9MPD2     C14278   4.310   4.225  11.006 -0.0632 -0.2065  0.2732
    9MPD2    C114279   4.321   4.169  11.127  0.2567  0.1454  0.5579
    9MPD2    C214280   4.278   4.036  11.143 -0.1505  0.2558 -0.1335
    9MPD2    C314281   4.203   3.975  11.044  0.7184 -0.2120  0.4062
    9MPD2    C414282   4.189   4.033  10.922 -0.1177  0.7063 -0.3464
    9MPD2    C514283   4.253   4.151  10.902 -0.5152 -0.4563  0.1267
    9MPD2     H14284   4.302   3.986  11.236 -1.4540 -2.6043 -1.3348
    9MPD2    H114285   4.148   3.983  10.835 -1.9949 -0.0070  0.9564
    9MPD2    H214286   4.350   4.324  10.988 -0.0880 -0.4118 -0.9269
    9MPD2    H314287   4.252   4.207  10.809 -0.2456 -1.8338 -0.7145
    9MPD2     N14288   4.132   3.850  11.069  0.4178  0.7966  0.0573
    9MPD2    H514289   4.058   3.822  11.006 -0.3071  1.5489  0.5758
    9MPD2    N114290   4.405   4.241  11.218 -0.0598 -0.0248 -0.0531
    9MPD2    H714291   4.446   4.330  11.191 -0.3291 -0.0876 -0.6548
    1MPD1     C14292   0.756   1.631  16.789 -0.1269  0.0231  0.6031
    1MPD1    C114293   0.795   1.525  16.709  0.2359  0.1396 -1.2504
    1MPD1    C214294   0.697   1.452  16.639  0.0592 -0.4438 -0.8365
    1MPD1    C314295   0.561   1.485  16.646 -0.5956 -0.1308  0.0617
    1MPD1    C414296   0.525   1.588  16.734  0.3041  0.0015 -0.1780
    1MPD1    C514297   0.624   1.656  16.800 -1.0643 -0.3872 -0.0229
    1MPD1     H14298   0.732   1.371  16.576  1.0669 -0.7100  0.0656
    1MPD1    H114299   0.424   1.627  16.734 -0.1069 -1.0633  2.1356
    1MPD1    H214300   0.829   1.688  16.844 -0.9313  2.2103 -0.6079
    1MPD1    H314301   0.588   1.728  16.872  1.2404 -1.0379  1.8052
    1MPD1     N14302   0.461   1.422  16.569  0.3608 -0.1185 -0.2883
    1MPD1    H514303   0.369   1.464  16.577 -0.2594 -0.7316 -4.3730
    1MPD1    N114304   0.925   1.482  16.709  0.0368 -0.9807  0.1441
    1MPD1    H614305   0.959   1.421  16.634 -0.3575  0.4338 -1.1675
    1MPD1    H714306   0.996   1.553  16.721  0.2184 -0.5321 -3.4442
    2TMC2    C114307   0.114   1.239  16.515 -0.3668 -0.3594 -0.2688
    2TMC2    C214308   0.089   1.153  16.411  0.4936  0.4594 -0.3581
    2TMC2    C314309   0.200   1.125  16.327  0.2107  0.2488  0.3130
    2TMC2    C414310   0.230   1.304  16.530 -0.1118  0.0986 -0.9055
    2TMC2    C514311   0.340   1.271  16.455  0.6787  0.1144 -0.1885
    2TMC2    C614312   0.324   1.171  16.358  0.0900  0.9263  0.3559
    2TMC2     C14313   0.009   1.277  16.598  0.0879  0.3637 -0.2681
    2TMC2     O14314   0.009   1.391  16.641  0.0959 -0.1393  1.1521
    2TMC2     H14315   4.728   1.120  16.383  0.8155 -0.0825 -0.8489
    2TMC2    H114316   0.240   1.363  16.621  0.9862  0.5746 -1.3341
    2TMC2    H214317   0.408   1.123  16.312 -0.2214 -0.0049  0.7635
    2TMC2    C714318   0.471   1.315  16.488  0.2703 -0.5018  0.7715
    2TMC2    C814319   0.200   0.994  16.279  0.0180 -0.1771  0.0206
    2TMC2    O114320   0.564   1.266  16.426 -0.3848  0.5377 -0.3972
    2TMC2    O214321   0.159   0.900  16.345  0.1108  0.3311  0.5585
    2TMC2    O514322   0.265   0.976  16.163  0.3737 -0.4402 -0.2938
    2TMC2    H514323   0.279   1.060  16.114 -0.5792 -0.5709 -0.7874
    3MPD1     C14324   4.287   1.194  16.805  0.6439 -0.1896  0.3278
    3MPD1    C114325   4.338   1.075  16.764  0.4133 -0.0974 -0.1491
    3MPD1    C214326   4.463   1.071  16.701 -0.0274 -0.1886  0.2774
    3MPD1    C314327   4.529   1.192  16.684  0.0279  0.1000  0.2573
    3MPD1    C414328   4.471   1.314  16.716  0.0582 -0.1354 -0.3900
    3MPD1    C514329   4.351   1.309  16.779 -0.7184  0.0498  0.3539
    3MPD1     H14330   4.499   0.977  16.661 -1.3326 -0.7604  0.4344
    3MPD1    H114331   4.526   1.407  16.706  0.1721 -0.1607  0.0145
    3MPD1    H214332   4.191   1.208  16.853 -0.0165 -1.8525 -0.4980
    3MPD1    H314333   4.304   1.396  16.824 -0.5761  0.9662 -1.2446
    3MPD1     N14334   4.651   1.179  16.616  0.4867  0.5921 -0.2310
    3MPD1    H514335   4.674   1.082  16.595  2.0805  1.0004 -0.3411
    3MPD1    N114336   4.252   0.965  16.751  0.1554  0.0708  0.5403
    3MPD1    H614337   4.195   0.950  16.835 -1.8658  0.1059 -0.8218
    3MPD1    H714338   4.282   0.870  16.729  1.2625  0.7505 -0.8576
    1TMC1    C114339   1.905   1.564  14.021 -1.3528 -0.0432 -0.5819
    1TMC1    C214340   1.964   1.521  14.139 -0.4374 -0.4614  0.3528
    1TMC1    C314341   1.953   1.609  14.246  0.2215  0.8300 -0.1590
    1TMC1    C414342   1.818   1.673  14.011 -0.0755  0.1324 -0.0948
    1TMC1    C514343   1.807   1.749  14.124  0.5834  0.2588  0.9783
    1TMC1    C614344   1.871   1.720  14.240 -0.0016 -0.3677 -0.4071
    1TMC1     C14345   1.916   1.473  13.906  0.6665  0.0201  0.5925
    1TMC1     O14346   1.829   1.489  13.821  0.4235 -0.3267 -0.1958
    1TMC1     H14347   2.020   1.429  14.148  3.2868  1.7382 -0.5589
    1TMC1    H114348   1.794   1.712  13.913 -0.5944  1.4765  0.5633
    1TMC1    H214349   1.869   1.785  14.327  0.3230 -1.2322  0.2370
    1TMC1    C714350   1.763   1.885  14.123 -0.6562  0.8424  0.2714
    1TMC1    C814351   2.054   1.611  14.353 -0.2332 -0.5322  0.5249
    1TMC1    O114352   1.841   1.970  14.154 -0.5199 -0.2302 -0.5405
    1TMC1    O214353   2.093   1.504  14.396  0.0827 -0.0486 -0.1472
    1TMC1    O314354   1.682   1.891  14.018 -0.5817 -0.0091  0.2457
    1TMC1    H314355   1.627   1.809  14.016  0.5796 -0.7639 -1.2715
    1TMC1    O514356   2.133   1.728  14.358 -0.3560 -0.4768  0.1168
    1TMC1    H514357   2.087   1.805  14.319 -2.2787 -2.0568 -0.7678
    2MPD2     C14358   1.992   1.275  13.703 -0.4521  0.4995  0.6057
    2MPD2    C114359   2.083   1.332  13.791 -0.0118  0.0532 -0.3306
    2MPD2    C214360   2.218   1.305  13.770 -0.9812  0.1038  0.3605
    2MPD2    C314361   2.256   1.241  13.655 -0.4699 -0.9184 -0.2248
    2MPD2    C414362   2.164   1.179  13.574 -0.4311 -0.0766 -0.0270
    2MPD2    C514363   2.033   1.199  13.599  1.0199 -0.3742 -0.0421
    2MPD2     H14364   2.293   1.328  13.845  1.2744 -0.0384 -1.8372
    2MPD2    H114365   2.194   1.112  13.494 -1.2734  0.3240 -0.6779
    2MPD2    H214366   1.885   1.288  13.718 -0.3574 -0.8733  2.5698
    2MPD2    H314367   1.961   1.144  13.540  1.3735 -1.7718  0.8342
    2MPD2     N14368   2.392   1.221  13.635 -0.5969  0.5322 -0.7496
    2MPD2    H514369   2.445   1.271  13.706  0.5941  0.6362 -1.7269
    2MPD2    N114370   2.036   1.402  13.901  0.7690 -0.1399  0.0027
    2MPD2    H714371   2.101   1.431  13.973  2.4693 -0.9863 -1.1855
    3TCq1    O114372   2.744   1.398  13.790  0.4953  0.0530 -0.1000
    3TCq1    C114373   2.850   1.317  13.750 -0.0850  0.4502 -0.1888
    3TCq1    O214374   2.963   1.365  13.728 -0.3014  0.1842 -0.2796
    3TCq1    C214375   2.781   1.208  13.683 -0.0326 -0.5387 -0.5491
    3TCq1    C314376   2.837   1.087  13.697  0.5379 -0.2788  0.3017
    3TCq1    C414377   2.765   0.985  13.650  0.0129  1.0349  0.0310
    3TCq1    C514378   2.636   0.997  13.603 -0.5173 -0.1673 -0.6603
    3TCq1    C614379   2.593   1.125  13.573  0.5878 -0.6667  0.4187
    3TCq1    C714380   2.659   1.231  13.623  0.5069  0.0063 -0.2706
    3TCq1    C814381   2.451   1.134  13.548  0.4095  0.7534  0.4330
    3TCq1    O414382   2.402   1.059  13.464 -0.0076  0.2300  0.0710
    3TCq1    C914383   2.806   0.850  13.687  0.2043 -1.3203  0.5781
    3TCq1    O514384   2.933   0.833  13.687  0.0177  0.3894  0.2527
    3TCq1    O614385   2.714   0.761  13.668  0.5099 -0.1742  0.1684
    3TCq1    H114386   2.678   1.347  13.841  1.1528  1.2890  2.0083
    3TCq1    H214387   2.927   1.071  13.755  0.1070  2.0180  1.5915
    3TCq1    H314388   2.578   0.909  13.577 -0.3632 -0.2617 -0.6876
    3TCq1    H414389   2.624   1.328  13.593  0.4866 -0.3837 -1.5006
    1MPD2     C14390   2.316   2.711  15.200  0.9635  0.1441 -0.5217
    1MPD2    C114391   2.238   2.607  15.164  0.4252 -0.4154  0.1764
    1MPD2    C214392   2.284   2.484  15.131 -0.4946 -0.0906  0.1027
    1MPD2    C314393   2.418   2.463  15.157 -0.4786  0.5595 -0.7819
    1MPD2    C414394   2.500   2.560  15.206  0.5553  0.6842 -0.1827
    1MPD2    C514395   2.448   2.681  15.217  0.7170  0.7182 -0.9223
    1MPD2     H14396   2.220   2.409  15.086  2.1898 -1.7714 -0.9178
    1MPD2    H114397   2.608   2.552  15.206  0.4280 -1.0918 -0.0870
    1MPD2    H214398   2.277   2.812  15.197 -1.6017 -0.8202  0.6858
    1MPD2    H314399   2.519   2.759  15.242  0.1165  1.1327 -0.5129
    1MPD2     N14400   2.456   2.341  15.097  0.2623 -0.2360 -0.2171
    1MPD2    H514401   2.379   2.284  15.061 -0.8884  1.1665  0.0083
    1MPD2    N114402   2.099   2.636  15.158  0.2889 -0.0365  0.0587
    1MPD2    H714403   2.052   2.723  15.180  1.1351 -0.0428  1.8686
    2TMC3    C114404   1.867   2.587  15.144  0.1647  0.0477  0.0534
    2TMC3    C214405   1.786   2.495  15.199  0.8105  0.6693 -0.2050
    2TMC3    C314406   1.668   2.464  15.135  0.6441  0.4261  0.6524
    2TMC3    C414407   1.824   2.662  15.036  0.0703 -0.9538 -0.2703
    2TMC3    C514408   1.700   2.634  14.980 -0.3822 -0.4962  0.2311
    2TMC3    C614409   1.612   2.545  15.040  0.3269 -0.0427 -0.9034
    2TMC3     C14410   2.005   2.538  15.135  0.0873 -0.3144 -0.3190
    2TMC3     O14411   2.011   2.416  15.138 -0.4340  0.0707 -1.1231
    2TMC3     H14412   1.819   2.440  15.287 -1.2502  0.1312  0.2234
    2TMC3    H114413   1.901   2.726  14.994  2.8275 -4.0202  0.0544
    2TMC3    H214414   1.516   2.525  14.992 -0.1937  0.0971  0.0828
    2TMC3    C714415   1.665   2.696  14.858  0.2551 -0.5002 -0.1809
    2TMC3    C814416   1.654   2.320  15.123 -0.0142  0.7385 -0.0422
    2TMC3    O114417   1.551   2.668  14.821 -0.2977 -0.2930  0.5408
    2TMC3    O214418   1.550   2.280  15.066 -0.0208  0.3493 -0.8601
    3TCq1    O114419   2.135   3.779  14.608  0.7596 -0.4540 -0.1176
    3TCq1    C114420   2.070   3.707  14.516  0.1370  0.1230  0.6666
    3TCq1    O214421   1.984   3.754  14.439 -0.4148 -0.6964  0.0926
    3TCq1    C214422   2.097   3.570  14.518 -0.7369  0.2215 -0.3634
    3TCq1    C314423   2.217   3.516  14.571 -0.0949 -0.5683  0.0682
    3TCq1    C414424   2.241   3.380  14.556 -0.2625  0.4227  0.8271
    3TCq1    C514425   2.132   3.302  14.505 -0.4425 -0.0981  0.4824
    3TCq1    C614426   2.015   3.359  14.471  0.1824 -0.1556 -0.4383
    3TCq1    C714427   1.992   3.497  14.477  0.0735 -0.3706 -0.0678
    3TCq1    C814428   1.896   3.273  14.453  0.4965 -0.2512  0.1338
    3TCq1    O414429   1.812   3.306  14.370  0.5148 -0.6634  1.0081
    3TCq1    C914430   2.368   3.325  14.576 -0.6085 -0.1637  0.3869
    3TCq1    O514431   2.371   3.197  14.581  0.0564 -0.0230  0.6663
    3TCq1    O614432   2.447   3.403  14.638 -0.6507 -0.0680 -0.1294
    3TCq1    H114433   2.162   3.732  14.690  0.7959 -0.3232 -0.0553
    3TCq1    H214434   2.300   3.584  14.588 -0.5019 -0.0058 -0.2042
    3TCq1    H314435   2.150   3.198  14.481 -2.4415 -0.2369 -0.3821
    3TCq1    H414436   1.906   3.540  14.427 -1.3185 -1.2104  1.6014
    4MPD2     C14437   1.689   3.056  14.490  0.1063 -0.0215 -0.2083
    4MPD2    C114438   1.809   3.053  14.555  0.7494 -0.1332 -0.2735
    4MPD2    C214439   1.830   2.962  14.658 -0.3565 -0.1084 -0.7838
    4MPD2    C314440   1.730   2.875  14.693 -0.1149  0.7594 -0.8220
    4MPD2    C414441   1.608   2.874  14.627 -0.5104 -1.0329 -0.6875
    4MPD2    C514442   1.594   2.961  14.524 -0.9450  0.0356 -0.3190
    4MPD2     H14443   1.915   2.979  14.722  1.1305 -1.1399 -2.4953
    4MPD2    H114444   1.534   2.797  14.644 -0.9246 -0.5231 -0.1797
    4MPD2    H214445   1.659   3.131  14.418 -1.0674  3.0196  3.4199
    4MPD2    H314446   1.495   2.968  14.482 -1.9543  0.8378  2.1657
    4MPD2     N14447   1.756   2.783  14.805 -0.2548  0.0134  0.6757
    4MPD2    H514448   1.853   2.776  14.833 -0.0825  0.8426  0.2717
    4MPD2    N114449   1.905   3.156  14.528  0.4537  0.0108 -0.1166
    4MPD2    H714450   1.991   3.155  14.582  1.3134 -0.4827 -1.4919
    5TMC2    C114451   2.363   2.009  15.053  0.3880  0.6516  0.6002
    5TMC2    C214452   2.374   1.936  15.169  0.4658  0.2639 -0.2483
    5TMC2    C314453   2.486   1.955  15.244 -0.4017 -0.4405 -0.8698
    5TMC2    C414454   2.454   2.096  15.010  0.6693  1.0752 -0.2691
    5TMC2    C514455   2.558   2.127  15.094  0.5416  0.1147 -0.3390
    5TMC2    C614456   2.573   2.051  15.206  0.0187 -1.0374  0.5304
    5TMC2     C14457   2.227   2.053  15.017 -0.1540 -0.7995  0.0875
    5TMC2     O14458   2.223   2.171  14.992  0.1459  0.0909  0.4319
    5TMC2     H14459   2.300   1.861  15.195 -0.2342  1.3923  1.0275
    5TMC2    H114460   2.432   2.154  14.922 -1.0066  0.1041 -0.4795
    5TMC2    H214461   2.665   2.076  15.259 -1.1589 -0.8965  2.4879
    5TMC2    C714462   2.576   2.278  15.112 -0.0867 -0.1725 -0.3798
    5TMC2    C814463   2.483   1.905  15.377 -0.5898  0.2600  0.3057
    5TMC2    O114464   2.662   2.299  15.202 -0.1713  0.6572 -0.4990
    5TMC2    O214465   2.380   1.858  15.417  0.4515 -0.2193 -0.3585
    5TMC2    O514466   2.604   1.881  15.420  0.4531 -0.1346 -0.2938
    5TMC2    H514467   2.682   1.899  15.364  0.5505 -0.0932 -0.1441
    6MPD2     C14468   1.709   2.036  15.055 -0.4620  0.2630  0.1869
    6MPD2    C114469   1.805   2.132  15.063 -0.4760 -0.0502 -1.2301
    6MPD2    C214470   1.938   2.104  15.035  0.0772  0.1192  0.0808
    6MPD2    C314471   1.983   1.978  15.012 -0.3124 -0.3349 -0.6843
    6MPD2    C414472   1.894   1.879  15.013 -0.3059  0.6516 -0.1380
    6MPD2    C514473   1.762   1.913  15.037 -0.4956  0.0304 -0.4675
    6MPD2     H14474   2.011   2.184  15.038 -0.3888  0.6607 -2.9938
    6MPD2    H114475   1.920   1.774  15.006  1.8534  1.1665  0.1240
    6MPD2    H214476   1.606   2.050  15.087 -1.0299  0.8960 -1.9116
    6MPD2    H314477   1.687   1.836  15.023 -0.8917  0.0293  1.6650
    6MPD2     N14478   2.121   1.953  15.013  0.5439 -0.1423 -0.1153
    6MPD2    H514479   2.144   1.854  15.022 -0.0709 -0.3830 -1.2684
    6MPD2    N114480   1.777   2.269  15.101 -0.5710 -0.4469 -0.4452
    6MPD2    H714481   1.849   2.339  15.115 -1.5171  0.6713 -1.1007
  945NH3     N114482   1.940   2.029  10.288  0.3799 -0.0622 -0.2095
  945NH3     H214483   1.853   2.080  10.297  0.2809 -0.5782  1.8435
  945NH3     H314484   1.975   2.025  10.383 -1.9899 -0.2831  0.6389
  945NH3     H414485   1.999   2.097  10.242 -0.2947  0.7122  0.0710
  946SOD     NA14486   3.876   3.888   1.885  0.0097  0.3634 -0.4235
  947SOD     NA14487   2.717   3.966  12.288 -0.1283 -0.3973 -0.5584
  948SOD     NA14488   3.943   3.067  11.787  0.3419  0.1873  0.0605
  949SOD     NA14489   0.650   3.478   9.363 -0.0742  0.0224 -0.0960
  950SOD     NA14490   4.168   0.260  16.870  0.4615  0.5775  0.4414
  951SOD     NA14491   0.668   2.443  11.400  0.1789 -0.4259 -0.0704
  952SOD     NA14492   1.770   1.234   7.399  0.2070  0.6620  0.0330
  953SOD     NA14493   3.596   3.025  14.264  0.1054 -0.3666  0.1565
  954SOL     OW14494   1.897   1.526   4.477  0.3957 -0.3280 -0.2982
  954SOL    HW114495   1.911   1.440   4.439  1.4994 -0.6654  0.8480
  954SOL    HW214496   1.964   1.537   4.545 -0.1754 -1.5672  0.4648
  955SOL     OW14497   1.073   1.629  17.233 -0.3074  0.2683 -0.1413
  955SOL    HW114498   1.156   1.587  17.214 -0.3811  0.1260 -0.1466
  955SOL    HW214499   1.054   1.570  17.305  1.9202  0.5548  0.6651
  956SOL     OW14500   3.663   0.452   1.528  0.0777  0.2021 -0.8555
  956SOL    HW114501   3.641   0.544   1.541 -1.0678 -0.3410  1.0482
  956SOL    HW214502   3.594   0.429   1.466 -0.3104 -2.8201  0.6948
  957SOL     OW14503   3.619   1.491   5.166  0.4153 -0.3602 -0.0060
  957SOL    HW114504   3.594   1.408   5.125  0.0663  0.2064 -0.9353
  957SOL    HW214505   3.632   1.543   5.087 -0.1903 -2.3281 -1.3860
  958SOL     OW14506   0.551   2.910   4.403  0.6799 -0.0438 -0.1577
  958SOL    HW114507   0.460   2.914   4.373  0.6999  1.0602 -0.0729
  958SOL    HW214508   0.545   2.928   4.497 -0.1689  0.8526 -0.3909
  959SOL     OW14509   0.169   2.489   7.253  0.1652 -0.3247 -0.0080
  959SOL    HW114510   0.114   2.554   7.297 -0.1755 -0.5387 -0.1138
  959SOL    HW214511   0.108   2.415   7.257 -0.6171  0.3404  0.3059
  960SOL     OW14512   3.813   1.702   8.560  0.2643 -0.6579 -0.2903
  960SOL    HW114513   3.817   1.625   8.504  0.9220 -1.0970  0.3599
  960SOL    HW214514   3.905   1.727   8.572  0.6467 -1.0297 -2.4978
  961SOL     OW14515   3.737   2.228  10.025  0.2864 -0.0734 -0.5290
  961SOL    HW114516   3.717   2.147  10.072  1.7100 -0.1029  0.0016
  961SOL    HW214517   3.817   2.259  10.066 -0.2053  0.2641  0.1751
  962SOL     OW14518   4.022   3.354   8.111  0.8282 -0.1758 -0.5350
  962SOL    HW114519   4.112   3.327   8.092  0.6714 -0.8611 -0.2914
  962SOL    HW214520   4.029   3.428   8.172  0.4987  1.7560 -2.8762
  963SOL     OW14521   1.694   3.872   0.831  0.5514 -0.3176 -0.1228
  963SOL    HW114522   1.749   3.845   0.758 -0.4531  0.5732 -1.2139
  963SOL    HW214523   1.758   3.897   0.898 -1.5172  1.2922  1.2413
  964SOL     OW14524   2.045   3.119   3.479 -0.5283 -0.2742  0.3063
  964SOL    HW114525   2.138   3.139   3.487 -0.7529  0.3408  1.4543
  964SOL    HW214526   2.052   3.032   3.518 -1.8022 -0.3729  0.3403
  965SOL     OW14527   1.563   0.652   3.211 -0.0056  0.5905 -0.8232
  965SOL    HW114528   1.526   0.673   3.297  2.1858  0.1431  0.2254
  965SOL    HW214529   1.540   0.559   3.207 -4.5940  1.6457  0.9653
  966SOL     OW14530   1.830   2.585   4.091  0.5009  0.5216 -0.4809
  966SOL    HW114531   1.857   2.632   4.170  1.3084 -0.8966  0.0790
  966SOL    HW214532   1.736   2.573   4.107  0.4349  0.8222 -0.6372
  967SOL     OW14533   0.834   2.524  17.186  0.1733  0.0873  0.5753
  967SOL    HW114534   0.785   2.448  17.217  2.6155 -1.9390 -0.5495
  967SOL    HW214535   0.920   2.484  17.180  0.0223 -0.2681  0.8352
  968SOL     OW14536   3.740   0.775   7.685 -0.0106  0.0143  0.1030
  968SOL    HW114537   3.731   0.755   7.778 -0.7669  2.6031  0.5907
  968SOL    HW214538   3.651   0.797   7.658  0.6432  1.2341 -1.0667
  969SOL     OW14539   4.543   2.279   1.683  0.6327  0.1099 -0.0576
  969SOL    HW114540   4.502   2.226   1.752  1.6441  0.8417  1.1087
  969SOL    HW214541   4.492   2.360   1.683 -0.2871 -0.4587 -1.9301
  970SOL     OW14542   0.408   1.307   9.560  0.1706 -0.0141  0.2845
  970SOL    HW114543   0.483   1.305   9.618 -0.2113 -3.0147  0.6606
  970SOL    HW214544   0.437   1.240   9.499 -0.5346 -0.1648  0.1181
  971SOL     OW14545   0.169   0.691   5.555 -0.0771 -0.1421 -0.1114
  971SOL    HW114546   0.213   0.738   5.484  0.1884  0.0391  0.1748
  971SOL    HW214547   0.231   0.619   5.566  0.8321  0.4830 -1.1292
  972SOL     OW14548   0.173   0.844  12.883  0.2276 -0.1132  0.9407
  972SOL    HW114549   0.236   0.807  12.822 -0.3781  1.6624 -0.7979
  972SOL    HW214550   0.213   0.926  12.914 -1.3712 -0.3607  3.6200
  973SOL     OW14551   1.365   3.309   8.400 -0.0849 -0.3275  0.6040
  973SOL    HW114552   1.400   3.228   8.436  1.8777 -0.5719 -1.8060
  973SOL    HW214553   1.276   3.278   8.416  0.0334 -0.7565  0.4225
  974SOL     OW14554   3.291   3.481  11.390  0.4968  0.0838 -0.3665
  974SOL    HW114555   3.235   3.404  11.381  0.3028 -0.1417  2.6744
  974SOL    HW214556   3.342   3.459  11.469  0.4980 -1.4412 -0.7948
  975SOL     OW14557   1.959   2.592   9.072  0.1987  0.0650  0.5047
  975SOL    HW114558   2.034   2.539   9.097  0.1377  0.5406  1.7240
  975SOL    HW214559   1.891   2.532   9.103  0.8899 -0.6494  0.6320
  976SOL     OW14560   4.434   4.727   5.371 -0.5164  0.3072  0.0794
  976SOL    HW114561   4.388   0.069   5.400 -2.0298 -0.2196 -0.8832
  976SOL    HW214562   4.385   4.690   5.298  1.9933  1.5038 -2.2313
  977SOL     OW14563   1.916   3.994  12.825  0.2165  0.6464 -0.0051
  977SOL    HW114564   1.874   3.921  12.779  0.2663  1.0884 -0.7574
  977SOL    HW214565   1.936   4.056  12.755  1.9243 -2.1723 -2.0282
  978SOL     OW14566   3.404   2.819   7.082  0.1735 -0.1494  0.0969
  978SOL    HW114567   3.401   2.741   7.137 -0.3779 -1.4403 -1.7376
  978SOL    HW214568   3.343   2.878   7.126  1.6440  0.0786  1.7938
  979SOL     OW14569   4.435   3.321  11.873 -0.7151 -0.0660 -0.2230
  979SOL    HW114570   4.453   3.281  11.788  1.4596 -0.7881  0.5554
  979SOL    HW214571   4.454   3.413  11.857  2.3871 -0.8089 -0.8360
  980SOL     OW14572   4.647   4.351   3.130  0.1816 -0.1438 -0.1409
  980SOL    HW114573   4.674   4.428   3.180 -1.8958 -0.1711  1.0254
  980SOL    HW214574   4.693   4.295   3.192 -1.5666 -1.2121  0.1762
  981SOL     OW14575   3.134   1.528   7.029  0.0917 -0.2757  0.7594
  981SOL    HW114576   3.128   1.487   6.943 -1.0064 -0.7905  1.0946
  981SOL    HW214577   3.211   1.482   7.064 -0.3094 -0.6011  1.2063
  982SOL     OW14578   2.973   0.140   6.946 -0.1104  0.3781  0.2292
  982SOL    HW114579   2.908   0.127   6.878  3.4010  0.6472 -3.1461
  982SOL    HW214580   2.961   0.232   6.970  0.5026  0.7870 -1.0346
  983SOL     OW14581   2.340   0.206   9.106 -0.5673 -0.0115 -0.0796
  983SOL    HW114582   2.435   0.203   9.103 -0.6091 -1.1272 -0.3697
  983SOL    HW214583   2.321   0.162   9.023  1.5659 -1.3838  0.1619
  984SOL     OW14584   0.044   3.704  10.202  1.1358 -0.3281 -0.4652
  984SOL    HW114585   0.127   3.667  10.171  1.0470 -1.8850  1.1419
  984SOL    HW214586   0.071   3.796  10.214 -3.5957  0.9062  0.6552
  985SOL     OW14587   3.587   2.073   7.834  0.1848 -0.6886 -0.0047
  985SOL    HW114588   3.588   2.059   7.928 -2.0973  2.5322  0.4920
  985SOL    HW214589   3.652   2.143   7.827 -1.4617  0.8421  0.1924
  986SOL     OW14590   0.525   2.582  10.502 -0.4989 -0.3539 -0.1993
  986SOL    HW114591   0.541   2.507  10.559 -2.2627 -0.2074  0.4942
  986SOL    HW214592   0.535   2.656  10.561 -0.7678 -0.5197  0.0587
  987SOL     OW14593   2.113   2.598  17.286  0.1362 -0.0381 -0.5961
  987SOL    HW114594   2.047   2.634  17.226 -0.7993  0.7827  0.9427
  987SOL    HW214595   2.059   2.565  17.358  0.9028 -0.6266 -0.2886
  988SOL     OW14596   4.719   2.569  16.764 -0.4862 -0.6145 -0.1183
  988SOL    HW114597   0.060   2.519  16.743  1.1893  2.4121 -1.0607
  988SOL    HW214598   4.681   2.515  16.834  0.6620  1.4953  2.1379
  989SOL     OW14599   0.545   1.687  11.399 -0.1843  0.4186 -0.0023
  989SOL    HW114600   0.584   1.770  11.428  0.4018 -0.0289  0.4781
  989SOL    HW214601   0.458   1.711  11.431 -0.9178 -2.8381  0.4549
  990SOL     OW14602   4.199   1.393   6.566  0.6692  0.0618 -0.3523
  990SOL    HW114603   4.124   1.402   6.626 -0.9077 -0.3207 -2.2536
  990SOL    HW214604   4.247   1.333   6.624  0.9049 -0.3886 -1.0184
  991SOL     OW14605   3.606   3.969   0.346  0.3248 -0.2734 -0.3198
  991SOL    HW114606   3.687   3.935   0.308 -1.0740 -2.5834 -1.2346
  991SOL    HW214607   3.625   4.062   0.334  2.4651 -0.6818 -0.1915
  992SOL     OW14608   4.609   2.037   6.150 -0.0824  0.3508  0.2707
  992SOL    HW114609   4.690   1.994   6.176 -0.4077 -1.0751 -1.0433
  992SOL    HW214610   4.628   2.128   6.171 -2.7186  0.5916  1.6708
  993SOL     OW14611   0.291   3.497  17.291 -0.2640  0.2262 -0.3611
  993SOL    HW114612   0.348   3.529  17.361 -1.1693  1.0271  0.0056
  993SOL    HW214613   0.331   3.415  17.264  2.3945  1.0084  1.2406
  994SOL     OW14614   3.423   4.473  12.999  0.5740 -0.1142 -0.5215
  994SOL    HW114615   3.357   4.460  13.068  0.6123  1.7577 -0.1314
  994SOL    HW214616   3.497   4.420  13.028  2.0349  2.0009 -0.3436
  995SOL     OW14617   4.074   1.176   8.718  0.1001  0.2202  0.3912
  995SOL    HW114618   4.001   1.114   8.725  0.5250 -0.3119  0.1510
  995SOL    HW214619   4.148   1.121   8.745  2.2634  2.6827 -0.4768
  996SOL     OW14620   2.682   1.596  17.595  1.0874 -0.8846  0.2983
  996SOL    HW114621   2.667   1.523  17.535  2.1110  0.4809 -1.6274
  996SOL    HW214622   2.637   1.557  17.670  0.6443 -2.3979 -0.7575
  997SOL     OW14623   0.697   0.246  14.049  0.1315 -0.0286  0.1105
  997SOL    HW114624   0.656   0.276  14.130 -0.3641  0.8504 -0.4654
  997SOL    HW214625   0.621   0.210  14.004  0.8475  3.0708 -3.6192
  998SOL     OW14626   2.598   3.811   6.240  0.1392  0.0590  0.7656
  998SOL    HW114627   2.525   3.795   6.181  0.2760 -0.6701  0.8022
  998SOL    HW214628   2.659   3.739   6.231  1.5809  1.2161  1.2684
  999SOL     OW14629   0.463   1.881  16.135  0.2185  0.2773  0.1928
  999SOL    HW114630   0.442   1.899  16.043 -0.2048  2.1433  0.6476
  999SOL    HW214631   0.488   1.971  16.154  2.9295  0.0156 -2.1158
 1000SOL     OW14632   3.953   3.962  17.404 -0.7964 -0.8734  0.2874
 1000SOL    HW114633   3.864   3.995  17.410 -0.3315  0.7137 -1.5140
 1000SOL    HW214634   3.945   3.869  17.381 -0.8322 -0.6065 -0.7591
 1001SOL     OW14635   3.310   2.135  12.523 -0.2269 -0.4485  0.0570
 1001SOL    HW114636   3.345   2.052  12.490 -1.6852 -1.2422  0.5075
 1001SOL    HW214637   3.384   2.194  12.512  1.3800 -2.6035 -0.7925
 1002SOL     OW14638   1.127   4.245   7.444 -0.0117  0.3620  0.0811
 1002SOL    HW114639   1.196   4.250   7.510  0.8876  0.5986 -0.8714
 1002SOL    HW214640   1.125   4.151   7.427 -0.1799 -0.3301  3.8529
 1003SOL     OW14641   2.343   0.491  16.745  0.5889 -0.1117  0.0842
 1003SOL    HW114642   2.275   0.555  16.723  1.5514  1.5688  1.9470
 1003SOL    HW214643   2.328   0.495  16.839 -2.0412 -0.1114 -0.3377
 1004SOL     OW14644   0.522   1.247   6.932 -0.0878  0.4828 -0.0248
 1004SOL    HW114645   0.448   1.304   6.950 -1.5354 -1.3000 -0.3518
 1004SOL    HW214646   0.486   1.160   6.946  1.0250  0.2852  1.6790
 1005SOL     OW14647   4.371   0.831   8.604 -0.0668  0.5761 -0.1711
 1005SOL    HW114648   4.355   0.888   8.529 -2.2389 -0.1525 -0.2543
 1005SOL    HW214649   4.323   0.759   8.564 -3.8430  2.3475  1.2058
 1006SOL     OW14650   3.827   2.122   6.216  0.6714  0.4627 -0.2331
 1006SOL    HW114651   3.773   2.044   6.233  1.1565  0.4153  1.0673
 1006SOL    HW214652   3.808   2.128   6.122  3.0651 -3.1425 -0.9858
 1007SOL     OW14653   0.510   1.632   6.695  0.0248  0.1260 -0.0024
 1007SOL    HW114654   0.463   1.560   6.737 -1.0684 -0.2291 -1.8534
 1007SOL    HW214655   0.511   1.696   6.766 -1.2653 -0.0806  0.1974
 1008SOL     OW14656   0.827   3.771   2.468  0.4589  0.5443  0.3417
 1008SOL    HW114657   0.816   3.796   2.377 -1.0123  0.3598  0.4613
 1008SOL    HW214658   0.920   3.792   2.469  0.4506  0.5934 -0.1790
 1009SOL     OW14659   2.010   0.529   9.156 -0.4900  0.0306 -0.3263
 1009SOL    HW114660   2.015   0.514   9.251 -0.5731 -1.8617 -0.6097
 1009SOL    HW214661   2.102   0.514   9.135 -0.4916 -0.8321  0.2545
 1010SOL     OW14662   2.189   0.517  15.828  0.1104 -0.2580  0.9829
 1010SOL    HW114663   2.238   0.598  15.838  0.2282 -0.3049  0.7693
 1010SOL    HW214664   2.111   0.550  15.784  1.2881  0.2359 -0.7065
 1011SOL     OW14665   2.397   1.074   5.725  0.0169  0.4975 -0.6835
 1011SOL    HW114666   2.479   1.100   5.683  0.1888  0.1508 -0.5690
 1011SOL    HW214667   2.368   1.009   5.660  1.9989 -1.1729  0.0838
 1012SOL     OW14668   0.184   2.434   4.610 -0.1813 -0.5182 -0.1157
 1012SOL    HW114669   0.246   2.498   4.644 -0.0302  0.1668 -1.7007
 1012SOL    HW214670   0.162   2.385   4.689  0.5528  1.3256  1.2363
 1013SOL     OW14671   4.440   2.884   3.817  0.3830 -0.5016 -0.0345
 1013SOL    HW114672   4.447   2.948   3.889 -2.9588  0.8118 -0.8612
 1013SOL    HW214673   4.345   2.874   3.811  0.4725 -1.3797  0.1289
 1014SOL     OW14674   0.449   2.084   0.772  0.0677  0.0316 -0.5703
 1014SOL    HW114675   0.363   2.127   0.775 -0.8480 -1.7057 -1.9439
 1014SOL    HW214676   0.463   2.067   0.865 -0.7512  1.2161 -0.2316
 1015SOL     OW14677   0.948   0.664   8.665 -0.2140  0.8058  0.1159
 1015SOL    HW114678   0.941   0.707   8.580 -0.0216  1.4825  0.4444
 1015SOL    HW214679   0.898   0.721   8.724  1.7354 -1.6270  4.1803
 1016SOL     OW14680   4.672   2.490   8.544 -0.4432 -0.3852  0.3928
 1016SOL    HW114681   4.599   2.476   8.604 -1.8326  3.5966 -0.3177
 1016SOL    HW214682   4.638   2.560   8.487 -1.1170 -1.1074 -0.0858
 1017SOL     OW14683   2.304   1.117   0.788 -0.2479  0.2604  0.3927
 1017SOL    HW114684   2.345   1.204   0.792 -1.6935  0.8653  1.8119
 1017SOL    HW214685   2.301   1.105   0.883  1.6860  2.5044  0.7428
 1018SOL     OW14686   0.276   1.096  11.264  0.2060  0.4679  0.6099
 1018SOL    HW114687   0.316   1.013  11.290 -0.5125  0.3151  1.2226
 1018SOL    HW214688   0.296   1.163  11.330  2.1132 -0.7860  1.2935
 1019SOL     OW14689   2.570   4.698   8.944 -0.4318  0.0845  0.1214
 1019SOL    HW114690   2.586   4.658   9.030  0.9985 -0.7539 -0.5462
 1019SOL    HW214691   2.584   0.052   8.970  2.3311 -0.1834 -0.4416
 1020SOL     OW14692   0.833   3.563   2.655  0.9360 -0.0896 -0.3720
 1020SOL    HW114693   0.917   3.526   2.627 -0.1518 -1.2202 -2.0964
 1020SOL    HW214694   0.830   3.643   2.603 -0.3652  0.8644  1.1820
 1021SOL     OW14695   1.616   3.495   8.417  0.1513  0.4528 -0.4399
 1021SOL    HW114696   1.599   3.567   8.477 -2.3144 -1.3993  1.0881
 1021SOL    HW214697   1.530   3.454   8.415  0.4189 -0.0798 -1.6379
 1022SOL     OW14698   2.992   4.284  12.404 -0.0495  0.3612 -0.0781
 1022SOL    HW114699   3.082   4.317  12.409  0.4320 -1.1897  1.4074
 1022SOL    HW214700   2.943   4.366  12.401 -2.0239 -0.7611  1.6620
 1023SOL     OW14701   2.860   2.609   6.251  0.0526 -0.4918 -0.6366
 1023SOL    HW114702   2.818   2.655   6.179 -2.6107 -1.3130  0.3944
 1023SOL    HW214703   2.796   2.543   6.274  0.0729 -0.1325  0.4843
 1024SOL     OW14704   2.825   0.847  15.641  0.2696  0.1171 -0.1161
 1024SOL    HW114705   2.752   0.905  15.660  2.5388  2.6677  0.7860
 1024SOL    HW214706   2.859   0.838  15.730  0.9665  0.3839 -0.3508
 1025SOL     OW14707   3.335   1.800  11.726  0.3519 -0.1302 -0.1040
 1025SOL    HW114708   3.260   1.745  11.749 -0.5534 -0.1199 -3.0608
 1025SOL    HW214709   3.282   1.876  11.701 -1.0632 -0.7940  0.8552
 1026SOL     OW14710   1.103   4.079   3.545  0.3489 -0.0766  0.1497
 1026SOL    HW114711   1.099   4.129   3.463  0.3125 -0.0582  0.1623
 1026SOL    HW214712   1.197   4.068   3.555  0.4927  1.8280  0.9070
 1027SOL     OW14713   2.571   3.318   2.560  0.0930  0.0194 -0.1420
 1027SOL    HW114714   2.550   3.404   2.597  0.6432  0.6108 -1.2022
 1027SOL    HW214715   2.599   3.328   2.469  0.8935 -0.8803  0.0075
 1028SOL     OW14716   2.227   1.905  13.104 -0.0436 -0.1803 -0.0565
 1028SOL    HW114717   2.208   1.959  13.181  1.5381  3.6133 -2.3050
 1028SOL    HW214718   2.320   1.912  13.081  0.3629 -1.4274  1.2195
 1029SOL     OW14719   2.315   3.595  11.999  0.3061 -0.7030  0.1123
 1029SOL    HW114720   2.354   3.575  12.084 -0.2348 -1.6746  0.1359
 1029SOL    HW214721   2.237   3.632  12.041 -1.4334 -1.9791 -2.0230
 1030SOL     OW14722   4.603   1.329  13.018 -0.0555 -0.1043 -0.7474
 1030SOL    HW114723   4.594   1.415  12.977 -0.0090 -0.1062 -0.7620
 1030SOL    HW214724   4.692   1.318  13.052 -0.4530 -0.8488  0.0697
 1031SOL     OW14725   0.244   2.127   3.690 -0.2364  0.0019  0.4007
 1031SOL    HW114726   0.159   2.086   3.672 -0.2893  0.1933  0.2201
 1031SOL    HW214727   0.222   2.210   3.648 -0.6046 -0.9132 -1.2082
 1032SOL     OW14728   1.466   0.593  11.118  0.1520 -0.8934 -0.1252
 1032SOL    HW114729   1.381   0.584  11.162  0.4626 -0.0769  0.6306
 1032SOL    HW214730   1.499   0.661  11.176 -0.7519 -1.0318  0.5599
 1033SOL     OW14731   2.599   2.346   0.433  0.2973  0.0129 -0.7579
 1033SOL    HW114732   2.517   2.353   0.385  1.6409 -2.0304 -3.3063
 1033SOL    HW214733   2.562   2.291   0.503  0.5069 -1.1797 -1.5938
 1034SOL     OW14734   3.935   1.885  17.594 -0.2828 -0.0600  0.1151
 1034SOL    HW114735   3.954   1.923  17.508  0.8602  0.2037  0.4813
 1034SOL    HW214736   3.843   1.861  17.588  0.3292 -2.3079 -0.1990
 1035SOL     OW14737   1.889   0.608   8.288  0.1247  0.0025 -0.3481
 1035SOL    HW114738   1.928   0.645   8.368  0.0768 -0.2641 -0.2008
 1035SOL    HW214739   1.962   0.632   8.231 -0.5135  0.0387 -1.1391
 1036SOL     OW14740   4.283   4.704   1.986  0.1297  0.0493 -0.5229
 1036SOL    HW114741   4.372   4.729   2.012 -0.1950  0.7359 -0.0640
 1036SOL    HW214742   4.249   0.049   1.952 -0.5547 -0.0404 -0.0503
 1037SOL     OW14743   3.684   2.422   5.677  0.2930  0.1677  0.2168
 1037SOL    HW114744   3.748   2.357   5.707  0.1300  0.0170  0.2413
 1037SOL    HW214745   3.730   2.474   5.612 -0.1377 -0.1517 -0.3434
 1038SOL     OW14746   1.920   3.165   2.273 -0.2830 -0.5039  0.3225
 1038SOL    HW114747   1.950   3.094   2.217  0.7049  0.8869 -0.9003
 1038SOL    HW214748   2.004   3.192   2.310 -0.4517 -1.2373  1.2294
 1039SOL     OW14749   2.136   0.963   8.608  0.0727 -0.3071  0.0001
 1039SOL    HW114750   2.189   0.992   8.533  1.1580 -0.2784  0.7753
 1039SOL    HW214751   2.198   0.955   8.680  0.7063  0.0228 -0.5064
 1040SOL     OW14752   1.452   0.246   3.000  0.4532  0.0590 -0.5504
 1040SOL    HW114753   1.509   0.314   2.963 -1.6647  1.1288 -1.8787
 1040SOL    HW214754   1.480   0.175   2.943 -2.1853 -1.7194  0.3935
 1041SOL     OW14755   1.599   4.539  16.980 -0.0756  0.5087 -0.7464
 1041SOL    HW114756   1.556   4.610  16.933  0.6900 -0.3753 -2.7711
 1041SOL    HW214757   1.692   4.551  16.958  0.0775  0.2046 -0.2691
 1042SOL     OW14758   4.728   1.329   6.532 -0.3508 -0.0304  0.1334
 1042SOL    HW114759   0.073   1.369   6.507 -0.8971  0.4954 -0.8518
 1042SOL    HW214760   0.005   1.343   6.626  0.4302 -1.5930  0.2393
 1043SOL     OW14761   4.627   3.673   3.801 -0.1365  0.5735 -0.2982
 1043SOL    HW114762   4.580   3.756   3.797 -2.5580 -0.7714  0.1829
 1043SOL    HW214763   4.560   3.621   3.845 -0.4038  0.8653 -0.3610
 1044SOL     OW14764   3.257   3.348   7.923  0.2132 -0.1571  0.4857
 1044SOL    HW114765   3.325   3.283   7.937 -0.3434 -1.3972 -2.5769
 1044SOL    HW214766   3.273   3.357   7.829  1.4701  0.0009  0.7228
 1045SOL     OW14767   2.255   3.992   8.642  0.3202 -0.2389 -0.2221
 1045SOL    HW114768   2.280   3.983   8.734 -2.1964 -1.5033  0.3513
 1045SOL    HW214769   2.211   3.908   8.628 -3.1149  0.9567  3.3059
 1046SOL     OW14770   2.904   3.408  10.194 -0.1965  0.1936 -0.2015
 1046SOL    HW114771   2.930   3.489  10.150  0.6284 -0.4388 -0.8843
 1046SOL    HW214772   2.820   3.430  10.235  1.5065 -0.9229  3.8648
 1047SOL     OW14773   1.895   0.030  13.080 -0.6834  0.4593  0.2852
 1047SOL    HW114774   1.938   0.011  13.163 -1.4626 -0.7850  0.4065
 1047SOL    HW214775   1.951   4.724  13.016  0.5767  2.2900  0.1520
 1048SOL     OW14776   2.076   0.024   5.208  0.3786 -0.0688  0.1465
 1048SOL    HW114777   2.162   0.020   5.165  0.3662  0.1599  0.0965
 1048SOL    HW214778   2.089   4.696   5.276  0.4419  1.9907  2.1591
 1049SOL     OW14779   3.614   1.483   2.036  0.0606 -0.3785  0.1501
 1049SOL    HW114780   3.703   1.467   2.006 -0.3756  0.5192 -1.6205
 1049SOL    HW214781   3.600   1.433   2.117 -0.9395  1.0005  0.8369
 1050SOL     OW14782   3.269   1.456  17.007  0.3749 -0.5982 -0.2016
 1050SOL    HW114783   3.361   1.429  16.999  0.0406 -1.8852  0.2725
 1050SOL    HW214784   3.272   1.533  17.063 -2.1337 -1.7827  1.5324
 1051SOL     OW14785   2.491   2.675  12.439  0.3030  0.2961 -0.1472
 1051SOL    HW114786   2.538   2.592  12.435  2.5091  1.4002  2.3826
 1051SOL    HW214787   2.540   2.724  12.506  0.0371  1.0102 -0.4731
 1052SOL     OW14788   3.660   1.434   6.063 -0.5327  0.1966 -0.4856
 1052SOL    HW114789   3.623   1.371   6.001 -1.0415 -0.3351  0.3697
 1052SOL    HW214790   3.677   1.510   6.006  1.3590 -0.0071 -0.1734
 1053SOL     OW14791   3.085   1.739   1.282  0.5545 -0.2793  0.1581
 1053SOL    HW114792   3.106   1.646   1.288  2.6517  0.0001 -2.4289
 1053SOL    HW214793   2.991   1.729   1.271  0.7127 -0.4894 -1.0910
 1054SOL     OW14794   0.428   0.819   8.369  0.1326 -0.1633  0.1126
 1054SOL    HW114795   0.334   0.831   8.386 -0.1230  1.9914 -2.7752
 1054SOL    HW214796   0.428   0.744   8.310  1.9276 -1.0466  1.2773
 1055SOL     OW14797   1.611   1.010   5.887 -0.0435 -0.1039 -0.1913
 1055SOL    HW114798   1.701   0.975   5.888 -0.7732 -1.9684 -0.0445
 1055SOL    HW214799   1.625   1.097   5.850  1.0726 -0.5376 -0.8027
 1056SOL     OW14800   4.156   3.237  11.791 -0.0894  0.3896  0.1074
 1056SOL    HW114801   4.251   3.232  11.793  0.0367  2.3037 -1.0313
 1056SOL    HW214802   4.137   3.292  11.866  1.8143  0.8592  0.2395
 1057SOL     OW14803   3.736   3.734  12.745  0.1599  0.1203  0.3026
 1057SOL    HW114804   3.664   3.675  12.725  0.8002 -0.4474 -0.2969
 1057SOL    HW214805   3.720   3.807  12.686  0.8551 -0.0263 -0.0682
 1058SOL     OW14806   3.808   0.215   6.627  0.3736 -0.0338 -0.2682
 1058SOL    HW114807   3.902   0.201   6.642  0.2942 -1.7133 -1.3507
 1058SOL    HW214808   3.803   0.307   6.653  0.9122 -0.2340  0.5520
 1059SOL     OW14809   0.813   4.192   6.678 -0.2605  0.2417  0.0195
 1059SOL    HW114810   0.894   4.243   6.676 -0.9666  1.4531  1.9504
 1059SOL    HW214811   0.752   4.242   6.623 -0.6831  2.0962  2.1871
 1060SOL     OW14812   4.081   3.111  14.319 -0.1582 -0.0704  0.4034
 1060SOL    HW114813   4.028   3.176  14.366  0.8164  2.1040 -1.5197
 1060SOL    HW214814   4.161   3.130  14.367  0.1638  0.0293 -0.1747
 1061SOL     OW14815   1.018   4.101   4.964  0.0435 -0.1523 -0.1868
 1061SOL    HW114816   0.988   4.181   4.921 -0.8471  0.2811  1.2388
 1061SOL    HW214817   1.028   4.049   4.884  1.7078 -0.6116  0.3171
 1062SOL     OW14818   4.124   4.480   3.344  0.3000 -0.5931  0.3711
 1062SOL    HW114819   4.164   4.566   3.329  1.2921 -0.3177  4.6437
 1062SOL    HW214820   4.129   4.439   3.258 -1.4508 -1.5857  0.7487
 1063SOL     OW14821   2.626   2.924   7.836  0.7719 -0.0933  0.6320
 1063SOL    HW114822   2.614   2.836   7.800 -1.6627  0.3237  0.4460
 1063SOL    HW214823   2.700   2.923   7.898 -0.5574  1.9593  2.2586
 1064SOL     OW14824   2.769   1.213   4.485 -0.5541 -0.2891  0.1794
 1064SOL    HW114825   2.680   1.228   4.455 -0.3786  0.3089 -0.0309
 1064SOL    HW214826   2.776   1.127   4.444 -0.1174 -0.6186  0.9327
 1065SOL     OW14827   2.812   1.232   0.975 -0.4230  0.0991  0.7576
 1065SOL    HW114828   2.842   1.305   0.921 -0.2632 -0.9612 -0.6159
 1065SOL    HW214829   2.762   1.192   0.903 -2.4107 -0.1634  2.2763
 1066SOL     OW14830   2.063   0.314   8.903  0.6453 -0.2884 -0.2758
 1066SOL    HW114831   2.074   0.348   8.991  0.9421  0.1879 -0.4985
 1066SOL    HW214832   2.151   0.316   8.866  0.4945  2.3759 -0.4978
 1067SOL     OW14833   2.434   1.846  17.648  0.3758  0.2069 -0.3486
 1067SOL    HW114834   2.396   1.817  17.565  0.2456  0.9626 -0.5532
 1067SOL    HW214835   2.436   1.765  17.700  1.0531  0.1778 -0.4107
 1068SOL     OW14836   4.136   0.584   9.903 -0.8660 -0.6018  0.1564
 1068SOL    HW114837   4.181   0.614   9.983 -0.5851 -2.1475  0.5756
 1068SOL    HW214838   4.081   0.512   9.934 -2.1969 -0.6044 -2.1919
 1069SOL     OW14839   3.638   4.602   9.507  0.6458 -0.5285 -0.0259
 1069SOL    HW114840   3.662   4.509   9.515 -0.1661 -0.5826  1.7840
 1069SOL    HW214841   3.715   4.645   9.471  0.0468 -0.4885 -1.2775
 1070SOL     OW14842   2.328   1.024   6.407  0.0664 -0.2485 -0.5645
 1070SOL    HW114843   2.372   0.995   6.488 -1.9134  2.4844  1.4645
 1070SOL    HW214844   2.326   1.118   6.421  0.0670  0.0390 -2.5760
 1071SOL     OW14845   4.455   3.295   3.520  0.1025 -0.1228  0.2917
 1071SOL    HW114846   4.448   3.351   3.444 -1.9113  0.5381  0.9587
 1071SOL    HW214847   4.548   3.309   3.537  0.4475  0.7089 -2.4020
 1072SOL     OW14848   4.575   1.604   8.613 -0.0214 -0.1394  0.1900
 1072SOL    HW114849   4.528   1.541   8.558 -1.0118 -1.3522  2.4196
 1072SOL    HW214850   4.659   1.604   8.567 -1.6320  5.4023 -2.7098
 1073SOL     OW14851   3.194   3.804   8.983 -0.7465 -0.1067 -0.3301
 1073SOL    HW114852   3.161   3.715   8.977  0.3107 -0.6952  2.5082
 1073SOL    HW214853   3.280   3.795   8.943 -0.6548  1.5228 -0.5348
 1074SOL     OW14854   3.415   3.537  14.517  0.1092 -0.6370  0.1985
 1074SOL    HW114855   3.352   3.597  14.558 -0.2460 -1.7931  1.3344
 1074SOL    HW214856   3.352   3.476  14.479  0.7217 -0.8968 -0.3901
 1075SOL     OW14857   1.863   1.201  11.366 -0.6521 -0.1624  0.9396
 1075SOL    HW114858   1.928   1.234  11.304  0.7989 -1.3697  1.8321
 1075SOL    HW214859   1.919   1.199  11.444  1.8829 -3.2592 -0.9536
 1076SOL     OW14860   4.531   1.260   9.965 -0.0382  0.3060 -0.1905
 1076SOL    HW114861   4.608   1.204   9.954  0.8259  1.0231  2.2428
 1076SOL    HW214862   4.547   1.325   9.896  0.8090 -0.4851 -0.7419
 1077SOL     OW14863   0.274   3.325  11.239 -0.2913 -1.0975 -0.0727
 1077SOL    HW114864   0.261   3.395  11.176 -1.1241 -1.1155  0.0769
 1077SOL    HW214865   0.280   3.247  11.184  0.4376  1.6637 -3.9280
 1078SOL     OW14866   1.353   2.922  13.878  0.7020 -0.0109  0.1286
 1078SOL    HW114867   1.398   2.878  13.950 -1.4762 -1.2457  0.7334
 1078SOL    HW214868   1.277   2.951  13.930 -1.9043 -0.0749 -3.6492
 1079SOL     OW14869   1.891   1.529   5.334 -0.6249 -0.1593  0.3400
 1079SOL    HW114870   1.821   1.510   5.273  1.4579 -0.7353 -1.8555
 1079SOL    HW214871   1.889   1.625   5.340  3.1970  0.0587 -1.4610
 1080SOL     OW14872   3.777   4.527  10.120 -0.6408  0.4178  0.2354
 1080SOL    HW114873   3.711   4.529  10.190 -1.2467 -2.3041 -0.2647
 1080SOL    HW214874   3.725   4.490  10.048 -0.4480 -0.7816  0.7275
 1081SOL     OW14875   4.543   2.628   9.576 -0.1036  0.0501 -0.1710
 1081SOL    HW114876   4.594   2.578   9.512 -2.5172 -2.4467 -0.1700
 1081SOL    HW214877   4.493   2.689   9.523 -0.0097  3.0293  3.1772
 1082SOL     OW14878   4.278   0.436   2.785  0.2400  0.1833  0.1944
 1082SOL    HW114879   4.310   0.430   2.695 -1.4683  1.1814 -0.4869
 1082SOL    HW214880   4.203   0.489   2.756 -0.4170 -0.9043 -0.0981
 1083SOL     OW14881   0.763   2.077   0.898 -0.3638  0.4262  0.3106
 1083SOL    HW114882   0.668   2.064   0.890 -0.7281  0.5385  4.3921
 1083SOL    HW214883   0.761   2.164   0.858  1.2137 -0.3922 -1.5497
 1084SOL     OW14884   2.904   4.629   9.343  0.0567 -0.0509 -0.0282
 1084SOL    HW114885   2.931   4.682   9.418 -0.3816  0.6359 -0.3588
 1084SOL    HW214886   2.811   4.650   9.336  0.1353  1.4544  3.5017
 1085SOL     OW14887   2.587   4.070   7.309 -0.7726  0.6177 -0.3049
 1085SOL    HW114888   2.524   4.056   7.379  0.3693  2.4520  1.0845
 1085SOL    HW214889   2.522   4.083   7.240 -0.1499  1.0625 -0.8067
 1086SOL     OW14890   3.700   3.084  13.014 -0.3554 -0.1469  0.3310
 1086SOL    HW114891   3.674   2.997  12.985  0.9514  0.0038 -1.2902
 1086SOL    HW214892   3.642   3.138  12.961  0.2383 -1.3315 -1.5281
 1087SOL     OW14893   3.572   2.575   5.867  0.0824 -0.3138 -0.0563
 1087SOL    HW114894   3.512   2.635   5.824  0.9120  0.6552  0.1309
 1087SOL    HW214895   3.580   2.499   5.809  0.3718  1.3983 -2.2621
 1088SOL     OW14896   1.355   2.194   7.969 -0.4155  0.5554 -0.6339
 1088SOL    HW114897   1.418   2.231   7.908  0.8343 -2.0899 -0.9454
 1088SOL    HW214898   1.275   2.209   7.918  0.2161 -2.6680 -2.5825
 1089SOL     OW14899   4.735   1.736  13.179  0.5086 -0.5832 -0.6913
 1089SOL    HW114900   4.693   1.692  13.105  1.3713 -0.2800 -1.3616
 1089SOL    HW214901   0.018   1.821  13.139 -0.7875  0.4003  0.6943
 1090SOL     OW14902   0.513   3.232   7.596  0.6230  0.5247  0.4813
 1090SOL    HW114903   0.449   3.238   7.525  0.5936 -0.2412  0.4484
 1090SOL    HW214904   0.551   3.150   7.565  1.1767  1.1724 -0.5872
 1091SOL     OW14905   3.575   0.572  15.750 -0.7393  0.1970 -0.4277
 1091SOL    HW114906   3.552   0.492  15.797 -1.8714  0.3822 -0.6554
 1091SOL    HW214907   3.569   0.643  15.814  0.9080  0.1216 -0.2057
 1092SOL     OW14908   0.577   3.659  14.283  0.0061  0.4529  0.5465
 1092SOL    HW114909   0.664   3.660  14.242  0.7617 -2.9685  2.0538
 1092SOL    HW214910   0.565   3.581  14.338 -1.9987  0.4665  0.1006
 1093SOL     OW14911   3.938   3.949   3.328 -0.7535  0.2580 -0.0592
 1093SOL    HW114912   3.894   4.004   3.264 -2.2551 -0.3000  0.4923
 1093SOL    HW214913   4.009   3.911   3.277 -2.3161 -2.4080 -0.2744
 1094SOL     OW14914   3.163   1.460   6.786 -0.7117  0.5742  0.3171
 1094SOL    HW114915   3.235   1.484   6.728 -1.6582  1.8866 -0.3166
 1094SOL    HW214916   3.101   1.525   6.753 -0.3291 -0.9067 -3.2591
 1095SOL     OW14917   2.600   3.648  17.476 -0.7326  0.6306 -0.6973
 1095SOL    HW114918   2.653   3.709  17.425 -0.8453  0.8835 -0.5153
 1095SOL    HW214919   2.657   3.602  17.537  2.4580  1.9227 -2.7034
 1096SOL     OW14920   0.986   2.186   7.174 -0.0395 -0.1735  0.4547
 1096SOL    HW114921   1.026   2.103   7.147 -0.6893 -0.7770  1.3453
 1096SOL    HW214922   1.057   2.224   7.224 -1.4606  0.6063  1.8687
 1097SOL     OW14923   3.552   2.506  15.705 -0.6185 -0.0300  0.3106
 1097SOL    HW114924   3.492   2.443  15.667 -0.3033 -1.6012  2.4006
 1097SOL    HW214925   3.565   2.570  15.635  0.0168 -0.0203  0.4383
 1098SOL     OW14926   1.616   0.210  15.075  0.0708 -0.0507 -0.5249
 1098SOL    HW114927   1.676   0.177  15.009 -0.1633 -1.3039 -0.1187
 1098SOL    HW214928   1.526   0.202  15.045 -0.8041  0.5830  1.8856
 1099SOL     OW14929   2.258   3.695   6.627  0.0283  0.2323  0.0703
 1099SOL    HW114930   2.255   3.660   6.538  0.2194 -2.3105  1.0629
 1099SOL    HW214931   2.348   3.721   6.645  0.3758  0.0862 -1.4270
 1100SOL     OW14932   2.316   3.597   4.731 -0.4812 -0.4621  0.1278
 1100SOL    HW114933   2.328   3.574   4.638 -1.4842 -3.0357  0.6190
 1100SOL    HW214934   2.370   3.676   4.737 -0.6885 -0.0861 -2.6050
 1101SOL     OW14935   1.604   4.656   9.400  0.8432 -0.5182 -0.1052
 1101SOL    HW114936   1.681   4.661   9.457  0.0461 -0.2183  0.9438
 1101SOL    HW214937   1.551   4.728   9.434  0.6431 -0.8928  0.3751
 1102SOL     OW14938   3.593   2.030   5.986  0.5985 -0.7371 -0.1734
 1102SOL    HW114939   3.540   2.089   6.040 -1.7490  0.2608 -3.6446
 1102SOL    HW214940   3.548   2.038   5.902 -0.5708 -0.7329  0.4502
 1103SOL     OW14941   3.046   0.892   4.496  0.0103 -0.1738  0.7086
 1103SOL    HW114942   3.000   0.927   4.420  1.2490  0.4114  0.2428
 1103SOL    HW214943   3.133   0.879   4.459 -0.8782 -1.8668 -0.7650
 1104SOL     OW14944   3.749   1.423   6.712  0.4008 -0.5357 -0.3135
 1104SOL    HW114945   3.696   1.482   6.659  0.8688 -0.5328 -0.7759
 1104SOL    HW214946   3.712   1.337   6.692 -1.5855 -0.1792  1.7612
 1105SOL     OW14947   0.914   3.279  13.551 -0.4790  0.1654  0.0952
 1105SOL    HW114948   0.916   3.204  13.492 -1.4570 -0.3312  0.6980
 1105SOL    HW214949   0.881   3.352  13.498 -0.6783 -0.0379 -0.0582
 1106SOL     OW14950   3.967   2.014   4.470  0.0779 -0.5234  0.4900
 1106SOL    HW114951   3.886   1.963   4.475 -1.9507  2.6076 -1.0138
 1106SOL    HW214952   3.930   2.083   4.525  0.5475  0.5534 -0.5567
 1107SOL     OW14953   2.133   0.825   5.985  0.5245 -0.2735 -0.1760
 1107SOL    HW114954   2.219   0.862   5.964 -0.0331  0.9722 -0.2419
 1107SOL    HW214955   2.082   0.905   5.999  1.4845 -0.2890  3.6524
 1108SOL     OW14956   3.176   3.961   2.976  0.1962  0.6373  0.2368
 1108SOL    HW114957   3.113   3.942   2.906 -0.3805  1.3714  0.5567
 1108SOL    HW214958   3.117   3.967   3.052  1.7633 -1.0581  1.5656
 1109SOL     OW14959   0.670   0.714  17.177  0.0167 -0.1440  0.2237
 1109SOL    HW114960   0.742   0.654  17.194  0.6015  0.7076  0.7638
 1109SOL    HW214961   0.713   0.799  17.168  0.8739 -0.4984  1.0014
 1110SOL     OW14962   0.793   2.511   0.475  0.1884  0.1710 -1.0244
 1110SOL    HW114963   0.848   2.584   0.506  0.2017  0.3163 -1.3916
 1110SOL    HW214964   0.865   2.454   0.448  1.2403  0.5990  0.8709
 1111SOL     OW14965   1.087   1.934   3.946 -0.8239 -0.1023 -0.5378
 1111SOL    HW114966   1.025   1.960   4.013  2.5397  0.9258  2.1585
 1111SOL    HW214967   1.163   1.914   4.000 -1.3079 -0.6120 -0.0526
 1112SOL     OW14968   0.022   3.688   4.515  0.3605  0.2329 -0.2958
 1112SOL    HW114969   0.117   3.692   4.504  0.4791 -1.2723  0.0928
 1112SOL    HW214970   0.015   3.599   4.550 -2.7159  1.0000  1.0630
 1113SOL     OW14971   2.803   3.330   2.967 -0.3641 -0.2300  0.4424
 1113SOL    HW114972   2.720   3.371   2.941 -0.1850  0.3197  0.7486
 1113SOL    HW214973   2.793   3.246   2.923  0.5596 -0.2627  0.3036
 1114SOL     OW14974   0.612   3.712   1.507 -0.2826 -0.0585 -0.7492
 1114SOL    HW114975   0.675   3.648   1.539 -1.5553 -0.1756  1.4996
 1114SOL    HW214976   0.663   3.747   1.434  0.5816 -2.2705 -1.2162
 1115SOL     OW14977   4.476   3.314  13.806  0.0226  0.2795  0.6180
 1115SOL    HW114978   4.493   3.316  13.712 -1.5766 -1.7769  0.2878
 1115SOL    HW214979   4.474   3.409  13.822  1.5282  0.1575  1.4520
 1116SOL     OW14980   3.281   3.229   3.175 -0.4881 -0.3657  0.1489
 1116SOL    HW114981   3.223   3.301   3.196 -1.0576 -0.9842  0.6820
 1116SOL    HW214982   3.266   3.166   3.245  0.2318 -0.0423  0.5906
 1117SOL     OW14983   2.352   1.255   1.542  0.0258  0.2057 -0.4778
 1117SOL    HW114984   2.330   1.198   1.469  0.5173 -0.2008 -0.3094
 1117SOL    HW214985   2.392   1.191   1.601 -1.7645  0.5608  1.1316
 1118SOL     OW14986   2.153   3.893  11.957 -0.1686  0.2504 -1.1089
 1118SOL    HW114987   2.243   3.912  11.929  0.2280  0.6563  0.4372
 1118SOL    HW214988   2.124   3.853  11.875 -0.1397 -0.2391 -0.8811
 1119SOL     OW14989   0.220   0.704   7.911 -0.2513 -0.4969 -0.0907
 1119SOL    HW114990   0.167   0.739   7.839  0.5741  2.0602  0.5475
 1119SOL    HW214991   0.234   0.614   7.884 -3.4935 -1.1368  0.3000
 1120SOL     OW14992   2.815   1.553   5.176 -0.5184 -0.9361 -0.3434
 1120SOL    HW114993   2.829   1.470   5.221 -0.6703 -0.0370  1.3663
 1120SOL    HW214994   2.730   1.589   5.203 -0.1782 -1.9102  1.9616
 1121SOL     OW14995   1.386   0.094   2.549 -0.1151  0.2871 -0.8480
 1121SOL    HW114996   1.300   0.134   2.559 -0.3078 -0.0840 -1.0279
 1121SOL    HW214997   1.431   0.152   2.488 -1.0679  1.8404 -0.0531
 1122SOL     OW14998   2.961   2.744   1.650  0.3251 -0.0087  0.4287
 1122SOL    HW114999   2.933   2.660   1.687 -1.3290 -0.7879 -2.6013
 1122SOL    HW215000   3.054   2.724   1.643  0.3711 -1.1705  4.2820
 1123SOL     OW15001   2.121   1.049  12.501  0.5124  0.5097 -0.0038
 1123SOL    HW115002   2.119   0.977  12.439  0.1819  0.1326  0.4457
 1123SOL    HW215003   2.212   1.078  12.493  0.9215 -0.8461 -0.1667
 1124SOL     OW15004   1.808   1.618   5.910  0.3751 -0.7908  0.0421
 1124SOL    HW115005   1.788   1.589   5.999 -0.0932  1.9697  0.8247
 1124SOL    HW215006   1.890   1.572   5.889  0.0402 -0.9822 -0.8628
 1125SOL     OW15007   0.840   2.405  12.925 -0.3433  0.1908 -0.2129
 1125SOL    HW115008   0.839   2.443  12.837 -1.5023  0.0535 -0.2588
 1125SOL    HW215009   0.889   2.474  12.969  0.0205  0.3906 -0.9298
 1126SOL     OW15010   2.940   1.424   8.559 -0.5668 -0.0852  0.1647
 1126SOL    HW115011   2.897   1.467   8.634  0.5503 -0.4356  1.0114
 1126SOL    HW215012   2.912   1.467   8.478 -0.3377 -1.1297 -0.4647
 1127SOL     OW15013   4.643   2.917   3.651  0.0271  0.1668  0.3353
 1127SOL    HW115014   4.721   2.942   3.701 -0.5628  0.1317  1.2818
 1127SOL    HW215015   4.584   2.888   3.721 -0.5818  1.3914  0.3286
 1128SOL     OW15016   1.975   3.265   8.924  0.2274 -0.1269 -0.0840
 1128SOL    HW115017   1.950   3.177   8.897  0.8594  0.2920 -2.0317
 1128SOL    HW215018   1.933   3.272   9.010 -0.3969 -1.5317 -0.2850
 1129SOL     OW15019   0.535   4.224   8.957 -0.3162 -0.1630 -0.5995
 1129SOL    HW115020   0.557   4.133   8.938 -0.5748 -0.0811 -1.2844
 1129SOL    HW215021   0.619   4.267   8.971 -0.2959 -0.5253  0.4099
 1130SOL     OW15022   0.551   0.066   5.709 -0.5410 -0.2179 -0.4802
 1130SOL    HW115023   0.473   0.020   5.740  0.4836 -1.9846 -0.4963
 1130SOL    HW215024   0.512   0.135   5.654  1.9820  1.2620 -0.4331
 1131SOL     OW15025   2.539   0.961   5.018  0.4671  0.2080 -0.2278
 1131SOL    HW115026   2.544   1.046   5.061 -0.1074 -0.2922  0.8182
 1131SOL    HW215027   2.603   0.910   5.067 -0.1266  0.0351  0.3612
 1132SOL     OW15028   4.055   4.228   8.181  0.3195  0.2520 -0.2755
 1132SOL    HW115029   4.138   4.183   8.197  0.1220  0.7965  2.3276
 1132SOL    HW215030   3.992   4.180   8.235  2.1321 -1.9777 -0.1100
 1133SOL     OW15031   3.190   3.652   7.762 -0.5059  0.3900 -0.0070
 1133SOL    HW115032   3.097   3.662   7.740 -0.6492 -0.5533  0.1653
 1133SOL    HW215033   3.181   3.639   7.856 -1.2039  0.2233 -0.0946
 1134SOL     OW15034   4.259   0.700   8.415 -0.0267  0.1056  0.0413
 1134SOL    HW115035   4.289   0.625   8.364 -0.7089 -0.4410  0.4284
 1134SOL    HW215036   4.188   0.747   8.372  1.3950 -0.2096 -2.6105
 1135SOL     OW15037   2.392   2.845  11.025  0.2847  0.1195  0.3413
 1135SOL    HW115038   2.421   2.851  10.934  0.8321 -0.6980  0.4625
 1135SOL    HW215039   2.351   2.759  11.026  0.9188 -0.1943 -1.0474
 1136SOL     OW15040   2.794   3.529   7.931  0.5302 -0.2706  0.0800
 1136SOL    HW115041   2.707   3.496   7.953  0.3133  0.6452  0.6250
 1136SOL    HW215042   2.772   3.548   7.839  3.2503 -0.3029 -0.5826
 1137SOL     OW15043   0.375   2.107   8.336  0.1807 -0.3901 -0.3481
 1137SOL    HW115044   0.449   2.084   8.280 -0.2357 -0.0268 -1.0391
 1137SOL    HW215045   0.390   2.202   8.337  0.4245 -0.4267 -0.9038
 1138SOL     OW15046   4.385   0.524   8.251 -0.4947 -0.0232 -0.6374
 1138SOL    HW115047   4.369   0.445   8.302 -0.6593  0.7073  0.4307
 1138SOL    HW215048   4.346   0.500   8.166  0.9451 -0.6701 -1.1184
 1139SOL     OW15049   3.924   1.662   3.560  0.4627 -0.7189  0.6714
 1139SOL    HW115050   3.984   1.661   3.634 -0.3349 -1.0055  1.3072
 1139SOL    HW215051   3.941   1.574   3.527 -0.6069 -1.7931  3.0120
 1140SOL     OW15052   0.271   0.623   9.809  0.5406  0.0863 -0.2623
 1140SOL    HW115053   0.196   0.678   9.832 -1.2935 -1.1211 -3.3168
 1140SOL    HW215054   0.334   0.645   9.878  1.3350  0.0148 -0.9665
 1141SOL     OW15055   2.612   1.005   8.249 -0.0798 -0.1391  0.0360
 1141SOL    HW115056   2.604   0.910   8.249  0.9713 -0.2170 -2.6407
 1141SOL    HW215057   2.705   1.021   8.230 -0.1330 -0.0730 -0.1651
 1142SOL     OW15058   3.138   0.705   4.022 -0.3452 -0.1573 -0.0486
 1142SOL    HW115059   3.114   0.773   3.959 -0.9233  1.2921  1.7510
 1142SOL    HW215060   3.055   0.690   4.068 -1.4331  1.4228 -1.5031
 1143SOL     OW15061   3.228   3.986   1.582  0.2151 -0.2356 -0.1628
 1143SOL    HW115062   3.250   3.908   1.531 -1.3787 -2.0762  1.9760
 1143SOL    HW215063   3.148   4.015   1.538  0.0686  1.8244  1.4464
 1144SOL     OW15064   2.783   2.527   0.971  0.0867 -0.6264 -0.0152
 1144SOL    HW115065   2.697   2.497   0.944  0.1307 -0.8113  0.0534
 1144SOL    HW215066   2.760   2.618   0.990 -2.9772 -0.9847 -2.0732
 1145SOL     OW15067   4.320   4.210   5.067 -0.0823 -0.0589  0.0393
 1145SOL    HW115068   4.340   4.285   5.011  1.7902 -3.1796 -3.5051
 1145SOL    HW215069   4.408   4.181   5.091 -0.7001 -0.3140  1.9720
 1146SOL     OW15070   0.410   2.914   3.537  0.0212  0.4201  0.0840
 1146SOL    HW115071   0.435   2.896   3.627 -0.7468 -0.7974  0.0423
 1146SOL    HW215072   0.358   2.837   3.518  1.7169 -0.6538 -0.2447
 1147SOL     OW15073   3.368   3.997   8.766 -0.1637  0.1634  0.0496
 1147SOL    HW115074   3.428   4.065   8.736  0.8944 -1.0280 -0.5271
 1147SOL    HW215075   3.400   3.919   8.720  0.5839  0.7837 -0.4655
 1148SOL     OW15076   3.244   1.233   6.439  1.0416 -0.1248  0.1646
 1148SOL    HW115077   3.262   1.300   6.374  0.0230 -0.3825 -0.3874
 1148SOL    HW215078   3.176   1.278   6.489  1.3835  0.0738  0.4583
 1149SOL     OW15079   0.037   4.637   3.189 -0.2918 -0.4028 -0.1555
 1149SOL    HW115080   4.688   4.678   3.188 -1.0110 -1.9328  0.4043
 1149SOL    HW215081   0.079   4.677   3.113 -2.4056 -1.1569 -1.6946
 1150SOL     OW15082   1.527   1.366  16.406  1.2272  0.1751 -0.4241
 1150SOL    HW115083   1.439   1.359  16.369  0.9862  1.9969 -0.1890
 1150SOL    HW215084   1.538   1.281  16.448 -0.1399 -0.1190 -0.6564
 1151SOL     OW15085   3.321   1.599  15.136  0.5317 -0.4639 -0.1396
 1151SOL    HW115086   3.328   1.631  15.226 -1.3049 -0.5883  0.0407
 1151SOL    HW215087   3.233   1.562  15.140  0.5962 -0.4745  1.0556
 1152SOL     OW15088   3.013   1.906   2.750  0.6594  0.1949  0.5535
 1152SOL    HW115089   3.104   1.895   2.723  1.0780  1.8065  1.2876
 1152SOL    HW215090   2.960   1.835   2.714  0.3749  0.5099  0.3536
 1153SOL     OW15091   2.287   0.509   6.371  0.5025 -0.8274  0.3825
 1153SOL    HW115092   2.282   0.417   6.343 -0.2408 -0.8874  0.7281
 1153SOL    HW215093   2.237   0.558   6.305  0.3392  1.2298  2.0454
 1154SOL     OW15094   3.012   3.637   8.024  0.3207  0.0803 -0.7036
 1154SOL    HW115095   2.929   3.592   8.013  0.4795 -0.8701  2.0508
 1154SOL    HW215096   2.989   3.730   8.019 -0.2340  0.0716  1.9591
 1155SOL     OW15097   2.623   1.939   5.341  0.1310 -0.0576  0.5510
 1155SOL    HW115098   2.559   1.983   5.396  1.1611  1.4867  0.5361
 1155SOL    HW215099   2.560   1.916   5.273  0.1429  0.5122  0.3511
 1156SOL     OW15100   0.536   2.071  15.900  0.3010 -0.5790 -0.2276
 1156SOL    HW115101   0.558   2.164  15.899 -1.4841 -0.1284  1.3754
 1156SOL    HW215102   0.517   2.053  15.808 -0.9584 -0.9571  0.0990
 1157SOL     OW15103   1.551   3.731  13.071 -0.2123  1.0892 -0.2279
 1157SOL    HW115104   1.502   3.666  13.121  0.2448  1.3782  0.6111
 1157SOL    HW215105   1.613   3.765  13.135  0.7916  1.5748 -1.4628
 1158SOL     OW15106   4.280   3.518   0.388 -0.5786  0.6633 -0.3940
 1158SOL    HW115107   4.304   3.432   0.424 -1.2778  1.5157  2.1514
 1158SOL    HW215108   4.194   3.541   0.423 -1.2244  0.5815 -1.9464
 1159SOL     OW15109   2.973   3.059   3.115 -0.4322 -0.1962  0.3003
 1159SOL    HW115110   2.971   3.025   3.026  0.3772  2.9216 -0.9184
 1159SOL    HW215111   2.938   3.148   3.113  0.8868  0.3202  0.4745
 1160SOL     OW15112   0.192   4.343   3.869  0.0315  0.1751 -0.7579
 1160SOL    HW115113   0.197   4.249   3.888  1.3587  0.3873 -0.0582
 1160SOL    HW215114   0.251   4.367   3.797  1.5181 -1.7095 -0.1873
 1161SOL     OW15115   2.627   1.498   3.290  0.3402 -0.4307  0.2075
 1161SOL    HW115116   2.619   1.529   3.200  0.2653 -0.5357  0.1776
 1161SOL    HW215117   2.652   1.575   3.341 -2.6031  1.0767 -0.6265
 1162SOL     OW15118   2.918   3.097   8.858 -0.3626 -0.0257 -0.4066
 1162SOL    HW115119   2.976   3.055   8.795  0.3120  0.0927  0.1471
 1162SOL    HW215120   2.893   3.021   8.910  1.7714 -0.2736  0.2176
 1163SOL     OW15121   1.285   1.358  14.629  0.1836  0.8017 -0.3714
 1163SOL    HW115122   1.358   1.319  14.581  0.3684 -0.3131  0.8189
 1163SOL    HW215123   1.201   1.325  14.598  1.6042  0.7457 -4.1192
 1164SOL     OW15124   0.714   3.849   4.852  0.0312 -0.4500 -0.6226
 1164SOL    HW115125   0.761   3.812   4.927  1.4118 -0.7111 -1.6058
 1164SOL    HW215126   0.642   3.787   4.860 -0.9651  0.6439 -1.1048
 1165SOL     OW15127   2.035   1.721   9.977  0.5040  0.6006  0.7080
 1165SOL    HW115128   2.002   1.809   9.959 -1.0805  0.1354  1.3659
 1165SOL    HW215129   1.963   1.658   9.973  2.0066 -0.9931 -1.1279
 1166SOL     OW15130   2.276   1.660   2.734 -0.0778  0.6309 -0.6515
 1166SOL    HW115131   2.189   1.643   2.770  1.0314  1.2657  2.3190
 1166SOL    HW215132   2.272   1.755   2.732  2.2238  0.7032 -2.3158
 1167SOL     OW15133   3.062   2.928   8.044 -0.3334  0.2480 -0.8489
 1167SOL    HW115134   3.055   3.019   8.016 -0.9396  0.6318  0.5873
 1167SOL    HW215135   3.088   2.901   7.956 -0.4084  2.3243 -1.5124
 1168SOL     OW15136   0.288   0.937   2.726  0.2431  0.4360  0.2863
 1168SOL    HW115137   0.217   0.892   2.683  0.7856  0.0352 -0.1845
 1168SOL    HW215138   0.354   0.907   2.663 -0.6660 -1.3599  0.2026
 1169SOL     OW15139   0.030   4.681  11.249  0.3919 -0.3711  0.3510
 1169SOL    HW115140   0.026   4.602  11.195  2.9016 -0.0652 -0.2700
 1169SOL    HW215141   0.030   4.638  11.334 -1.8604 -2.2407 -0.5932
 1170SOL     OW15142   2.191   2.004  13.374  0.5434  0.4910  0.3905
 1170SOL    HW115143   2.152   1.926  13.414  1.5486  0.2288  0.8547
 1170SOL    HW215144   2.148   2.071  13.427  1.7350  2.0002 -0.5637
 1171SOL     OW15145   2.933   1.471   0.818 -0.0625  0.3657 -0.3706
 1171SOL    HW115146   2.901   1.555   0.849  0.9420  0.5757  0.0823
 1171SOL    HW215147   3.026   1.485   0.801  0.1782 -0.2857  0.3989
 1172SOL     OW15148   4.448   3.748  10.589 -0.0430 -0.4707 -0.3269
 1172SOL    HW115149   4.530   3.758  10.540 -0.7981  1.7166 -1.1342
 1172SOL    HW215150   4.476   3.758  10.680  0.8071 -1.6373 -0.4675
 1173SOL     OW15151   3.112   3.969   4.744  0.3904 -0.1655 -0.5641
 1173SOL    HW115152   3.093   4.008   4.659 -1.9543 -1.4480 -0.6336
 1173SOL    HW215153   3.207   3.968   4.742  0.4452  3.0495  0.8516
 1174SOL     OW15154   0.795   3.749  15.830  0.1092  0.9189 -0.1125
 1174SOL    HW115155   0.791   3.665  15.786  1.2521  1.2539 -0.8375
 1174SOL    HW215156   0.852   3.723  15.903 -0.6034 -1.1597 -0.3113
 1175SOL     OW15157   2.478   1.649   5.115 -0.7563  0.1022 -0.2419
 1175SOL    HW115158   2.469   1.744   5.106  0.8919  0.3031  0.0889
 1175SOL    HW215159   2.459   1.627   5.206 -3.3469 -2.2081 -1.3573
 1176SOL     OW15160   4.589   0.090   2.802  0.2557  0.3388 -0.0210
 1176SOL    HW115161   4.545   0.159   2.852 -0.7154 -0.0779 -0.3054
 1176SOL    HW215162   4.513   0.048   2.762  1.0784 -0.9690 -0.2097
 1177SOL     OW15163   0.501   4.100   3.234  0.1538  0.4732 -0.0844
 1177SOL    HW115164   0.495   4.111   3.329  1.3692 -0.1003  0.0596
 1177SOL    HW215165   0.519   4.007   3.221  1.1172  0.7614 -0.7707
 1178SOL     OW15166   2.000   0.054   1.133 -0.5183  0.3109 -0.3903
 1178SOL    HW115167   1.955   0.096   1.060 -3.0880  1.5432  1.8852
 1178SOL    HW215168   1.972   0.099   1.213 -2.9470  1.8658 -2.1094
 1179SOL     OW15169   2.093   1.790   6.520  0.3049  0.1826 -0.0637
 1179SOL    HW115170   2.041   1.792   6.600  0.7188  0.0570  0.2093
 1179SOL    HW215171   2.084   1.875   6.478 -0.9918 -0.9066 -2.0195
 1180SOL     OW15172   4.306   3.486  12.145  0.0287  0.1563 -0.5617
 1180SOL    HW115173   4.297   3.557  12.082 -0.2386  0.9597  0.3758
 1180SOL    HW215174   4.234   3.424  12.136  0.1285  0.3291 -2.4099
 1181SOL     OW15175   4.062   1.177   3.800 -0.0166  0.0379  0.4129
 1181SOL    HW115176   4.156   1.193   3.808  0.3911 -2.2698  0.1592
 1181SOL    HW215177   4.042   1.101   3.854  0.6572  0.1811  0.8586
 1182SOL     OW15178   2.859   1.100   2.426 -0.2488  0.4943 -0.4311
 1182SOL    HW115179   2.838   1.177   2.373  0.6943  1.0461 -0.0175
 1182SOL    HW215180   2.932   1.131   2.482  0.5112 -1.7040 -0.2178
 1183SOL     OW15181   4.627   3.740   5.741  0.0292  0.1794  0.2889
 1183SOL    HW115182   4.601   3.832   5.737 -0.5268  0.0688  1.4514
 1183SOL    HW215183   4.558   3.692   5.786 -0.2887 -2.2148 -2.7681
 1184SOL     OW15184   4.086   2.196   9.616  0.7224  0.0977  0.3786
 1184SOL    HW115185   4.158   2.133   9.617  1.0435  0.5259  3.2029
 1184SOL    HW215186   4.048   2.184   9.703  1.0757 -0.3951  0.4662
 1185SOL     OW15187   1.768   2.568   5.136  0.5437  0.1428 -0.7095
 1185SOL    HW115188   1.845   2.583   5.081 -0.2520  1.6520 -1.4235
 1185SOL    HW215189   1.810   2.566   5.221  0.5003  2.1983 -0.6342
 1186SOL     OW15190   4.205   0.058   7.831 -0.4118  0.2316  0.4260
 1186SOL    HW115191   4.270   0.044   7.901  0.9404  1.5438 -0.5887
 1186SOL    HW215192   4.225   0.150   7.814  1.2717  0.2391  2.4713
 1187SOL     OW15193   4.676   0.340   5.528 -0.1288  0.3205 -0.2145
 1187SOL    HW115194   4.718   0.405   5.472 -0.0519  0.8453  0.4483
 1187SOL    HW215195   4.723   0.369   5.606 -0.2571 -0.5644  0.1940
 1188SOL     OW15196   4.638   1.444   2.609 -0.3605  0.1452  0.2338
 1188SOL    HW115197   4.704   1.470   2.673 -0.4589  0.7980  0.0726
 1188SOL    HW215198   4.568   1.477   2.665  0.3775  0.8877  0.7157
 1189SOL     OW15199   2.635   1.361   7.633  0.0520  0.0590  0.0051
 1189SOL    HW115200   2.709   1.415   7.663 -0.8362  1.1603  0.2320
 1189SOL    HW215201   2.682   1.325   7.558 -0.0220 -0.9298  0.4342
 1190SOL     OW15202   1.567   3.955  11.621 -0.4747 -0.5012 -0.0958
 1190SOL    HW115203   1.629   3.962  11.548 -0.5451 -1.2096 -0.2294
 1190SOL    HW215204   1.575   4.041  11.663  0.2850  0.4403 -2.1786
 1191SOL     OW15205   2.073   2.155   5.532  0.3025 -0.3418  0.2034
 1191SOL    HW115206   2.138   2.085   5.536 -1.3105 -1.8586  0.0510
 1191SOL    HW215207   1.989   2.111   5.539  0.6650 -0.2638  4.7729
 1192SOL     OW15208   1.779   2.490  16.966  0.6555  0.1997  0.0510
 1192SOL    HW115209   1.690   2.458  16.947  0.8500  0.7144 -1.6968
 1192SOL    HW215210   1.832   2.459  16.893 -1.0419 -0.2226 -0.9970
 1193SOL     OW15211   0.030   4.606   9.825 -0.0390 -0.5655 -0.2630
 1193SOL    HW115212   0.083   4.657   9.885 -1.1418 -1.5057  1.5133
 1193SOL    HW215213   0.081   4.525   9.816 -3.1860 -2.4903 -0.6388
 1194SOL     OW15214   0.139   3.319   9.085  0.1622  0.2657 -0.0478
 1194SOL    HW115215   0.052   3.301   9.122  0.1302  1.8722  0.6275
 1194SOL    HW215216   0.151   3.238   9.034 -0.8854 -1.3390  2.2482
 1195SOL     OW15217   2.962   4.182   7.891 -0.1772 -0.2762  0.3290
 1195SOL    HW115218   3.053   4.165   7.866 -1.0058 -1.5047 -1.8486
 1195SOL    HW215219   2.920   4.152   7.811 -0.7645 -0.7467  0.8154
 1196SOL     OW15220   3.514   1.789   4.423 -0.4629  0.0205  0.0505
 1196SOL    HW115221   3.553   1.711   4.382 -0.8727  1.5072 -3.2088
 1196SOL    HW215222   3.534   1.849   4.351  0.1296  1.3813  1.3466
 1197SOL     OW15223   2.995   2.715   7.562  0.0157 -0.9741 -0.0666
 1197SOL    HW115224   3.012   2.717   7.468 -2.3710  0.2442 -0.4761
 1197SOL    HW215225   2.910   2.759   7.564  1.7044  2.2583  2.1030
 1198SOL     OW15226   1.609   0.794   4.051  0.3492 -0.4953 -0.3041
 1198SOL    HW115227   1.619   0.864   3.985 -0.1395 -0.3387 -0.2106
 1198SOL    HW215228   1.665   0.730   4.008 -0.6216 -0.7079 -1.2662
 1199SOL     OW15229   2.456   0.933  12.381 -0.5595 -0.4546  0.4322
 1199SOL    HW115230   2.524   1.001  12.379 -1.7049  0.7082  0.4541
 1199SOL    HW215231   2.477   0.901  12.294 -2.0970 -0.0842 -0.0751
 1200SOL     OW15232   2.865   1.864   5.241 -0.0277  0.1064  0.5527
 1200SOL    HW115233   2.926   1.938   5.240 -1.7625  1.4809 -1.0924
 1200SOL    HW215234   2.786   1.913   5.261 -0.1420  0.3618 -0.5336
 1201SOL     OW15235   2.217   1.653  15.449  0.5569  0.1226  0.1273
 1201SOL    HW115236   2.275   1.728  15.464  0.5617 -0.2039  1.7604
 1201SOL    HW215237   2.206   1.653  15.354 -1.4840 -1.8147  0.3647
 1202SOL     OW15238   1.526   2.178   1.628  0.4831 -0.3301 -0.0712
 1202SOL    HW115239   1.481   2.094   1.633 -0.5050  0.3655  3.0333
 1202SOL    HW215240   1.521   2.210   1.718  1.8026  2.9916 -1.1839
 1203SOL     OW15241   0.039   1.345   1.729 -0.0589 -0.0254 -0.1634
 1203SOL    HW115242   0.063   1.352   1.636  0.0593 -3.3071 -0.3908
 1203SOL    HW215243   4.690   1.307   1.719 -1.3369  1.8485  3.9627
 1204SOL     OW15244   1.972   3.967   4.946  0.1726 -0.1630 -0.1312
 1204SOL    HW115245   1.916   3.945   5.020  2.6899 -1.0048  1.5533
 1204SOL    HW215246   1.968   3.887   4.894  3.0800 -0.7654  0.5370
 1205SOL     OW15247   1.208   1.025   4.788 -0.3108 -0.2253  0.1289
 1205SOL    HW115248   1.146   1.049   4.858 -1.5283 -0.4064 -0.8843
 1205SOL    HW215249   1.172   0.940   4.763  0.8786 -0.1044 -1.9208
 1206SOL     OW15250   1.419   1.528   7.730 -0.5008 -0.7098  0.0735
 1206SOL    HW115251   1.467   1.601   7.770 -1.9556 -0.3428  1.1505
 1206SOL    HW215252   1.494   1.468   7.730  0.9443  1.0837 -0.2560
 1207SOL     OW15253   2.376   2.307   6.189 -0.0995  0.1815  0.5929
 1207SOL    HW115254   2.316   2.282   6.259 -0.6786  2.5182  0.9201
 1207SOL    HW215255   2.366   2.237   6.124  0.7455  2.5707 -2.1240
 1208SOL     OW15256   4.238   1.928   1.711 -0.0815  0.3542  0.4269
 1208SOL    HW115257   4.170   1.880   1.664  0.4947 -0.5928  0.5702
 1208SOL    HW215258   4.257   2.000   1.650 -0.2998 -0.3831 -0.5202
 1209SOL     OW15259   2.120   2.055   3.780  0.4553 -0.1299  0.1318
 1209SOL    HW115260   2.151   2.095   3.699 -0.4303 -0.5549 -0.4222
 1209SOL    HW215261   2.181   2.100   3.839  0.8847 -0.7416  0.1484
 1210SOL     OW15262   3.637   2.641   6.913 -0.1461  0.7901  0.3319
 1210SOL    HW115263   3.610   2.732   6.906  1.3902  1.1987 -0.1739
 1210SOL    HW215264   3.662   2.612   6.825 -2.6451  0.4955 -0.2882
 1211SOL     OW15265   0.796   2.741   5.563  0.3173  0.5928 -0.3682
 1211SOL    HW115266   0.759   2.765   5.648 -0.6897  0.6327 -0.8083
 1211SOL    HW215267   0.889   2.734   5.585 -0.1533 -1.5759  0.9268
 1212SOL     OW15268   1.678   4.618  15.381  0.5107 -0.4110 -0.0011
 1212SOL    HW115269   1.758   4.652  15.341 -0.3221  1.1102 -0.3652
 1212SOL    HW215270   1.650   4.699  15.424 -0.7358 -1.2787  0.8348
 1213SOL     OW15271   0.394   0.161   3.543  0.1266 -0.0266  0.5169
 1213SOL    HW115272   0.354   0.190   3.625 -1.6009 -2.1651  0.4270
 1213SOL    HW215273   0.362   0.222   3.476  1.7226 -0.1559 -0.3774
 1214SOL     OW15274   0.940   1.401   9.283 -0.2935  0.3415  0.4709
 1214SOL    HW115275   0.860   1.356   9.312 -0.1537  0.7427  1.4522
 1214SOL    HW215276   0.912   1.435   9.198 -1.4256 -1.9139 -0.0878
 1215SOL     OW15277   0.067   2.674  12.433  0.0057 -0.0170 -0.2143
 1215SOL    HW115278   0.035   2.757  12.400 -2.2941 -0.9355 -0.2996
 1215SOL    HW215279   0.079   2.694  12.526 -2.2529 -0.7841  0.2450
 1216SOL     OW15280   4.114   3.162   7.365 -0.3650 -0.0293  0.5968
 1216SOL    HW115281   4.077   3.250   7.369 -0.0194  0.2210 -1.7137
 1216SOL    HW215282   4.208   3.180   7.378  0.3455 -2.0015 -1.8841
 1217SOL     OW15283   3.197   4.659   8.074  0.8885  0.2875 -0.2782
 1217SOL    HW115284   3.169   4.666   7.983 -1.7798  3.3688  0.7838
 1217SOL    HW215285   3.223   4.567   8.067  2.3373  0.7144 -0.3879
 1218SOL     OW15286   0.013   1.847   1.182  0.0839  0.3241  0.4256
 1218SOL    HW115287   4.687   1.780   1.207  0.6483  0.5126  2.3888
 1218SOL    HW215288   0.067   1.848   1.261  1.0954 -0.5349 -0.2392
 1219SOL     OW15289   4.155   3.804   6.861 -0.5111 -0.6766  0.4760
 1219SOL    HW115290   4.123   3.841   6.778  0.4691 -1.3223 -0.1937
 1219SOL    HW215291   4.236   3.763   6.829 -0.0343 -0.2864  1.2004
 1220SOL     OW15292   3.887   0.213   9.755 -0.4763  0.0131 -0.2498
 1220SOL    HW115293   3.855   0.221   9.664  0.8895 -1.0507 -0.8135
 1220SOL    HW215294   3.902   0.119   9.754  1.0987  0.2677  0.9827
 1221SOL     OW15295   0.722   0.168   5.120 -0.1165  0.8678 -0.5505
 1221SOL    HW115296   0.727   0.263   5.110  0.4565  0.8369 -0.5469
 1221SOL    HW215297   0.732   0.162   5.215 -0.2007  2.1078 -0.4552
 1222SOL     OW15298   4.288   4.261  12.177  0.2666 -0.1871  0.5862
 1222SOL    HW115299   4.382   4.267  12.163  0.5726 -0.4249  2.6766
 1222SOL    HW215300   4.251   4.337  12.131  2.0634  0.0161 -0.5049
 1223SOL     OW15301   0.457   3.489   7.678  0.5047 -0.5655 -0.5767
 1223SOL    HW115302   0.370   3.494   7.717 -0.1858  0.2616 -2.1966
 1223SOL    HW215303   0.453   3.401   7.642 -0.0509 -1.2192  1.0883
 1224SOL     OW15304   4.190   1.283   3.330 -0.1226 -0.4135  0.7170
 1224SOL    HW115305   4.286   1.290   3.324 -0.4549  1.1977 -2.6138
 1224SOL    HW215306   4.178   1.189   3.317 -1.0098 -0.3200  0.9075
 1225SOL     OW15307   2.130   3.110   6.986  0.1118 -0.3849 -0.6536
 1225SOL    HW115308   2.159   3.200   6.976  0.9833 -0.4864  0.9690
 1225SOL    HW215309   2.102   3.097   7.076  0.8625  1.2744 -0.1891
 1226SOL     OW15310   3.005   0.630  13.294  0.1073  0.3789 -0.1743
 1226SOL    HW115311   2.999   0.709  13.349 -3.2110 -0.3872  0.5811
 1226SOL    HW215312   3.035   0.557  13.348  0.7323 -0.4081 -1.5994
 1227SOL     OW15313   2.376   2.734   4.758 -0.5686 -0.7577  0.1118
 1227SOL    HW115314   2.295   2.745   4.807 -1.2120  0.8986 -1.3397
 1227SOL    HW215315   2.427   2.714   4.836 -2.6153 -2.4232  1.0118
 1228SOL     OW15316   1.457   2.369  16.741 -0.2672 -0.1936  0.1786
 1228SOL    HW115317   1.538   2.420  16.748 -1.6358  2.0224 -0.0909
 1228SOL    HW215318   1.394   2.440  16.756 -0.2650 -0.0641 -0.3943
 1229SOL     OW15319   2.689   1.615   7.317 -0.5730  0.1645  0.3338
 1229SOL    HW115320   2.664   1.588   7.229  0.4950 -0.2445  0.1461
 1229SOL    HW215321   2.740   1.537   7.342 -0.3365  0.2078 -0.0137
 1230SOL     OW15322   3.785   2.523  14.368  0.5394  0.0459 -0.0486
 1230SOL    HW115323   3.860   2.578  14.344  0.9463 -0.6616 -0.4023
 1230SOL    HW215324   3.823   2.438  14.343 -1.3631 -0.3131 -1.7339
 1231SOL     OW15325   1.617   3.075  17.362  0.3868 -0.4527  0.2068
 1231SOL    HW115326   1.625   3.000  17.304 -1.7546 -1.3132  1.0284
 1231SOL    HW215327   1.627   3.147  17.300 -0.0434 -0.2870  0.3261
 1232SOL     OW15328   4.310   1.242   7.680 -0.4433  0.1241  0.0406
 1232SOL    HW115329   4.397   1.253   7.643  0.7347  0.4192  2.8921
 1232SOL    HW215330   4.293   1.331   7.709 -0.3864 -0.0448  0.5893
 1233SOL     OW15331   3.894   4.685   4.537  0.3538  0.6816 -1.0317
 1233SOL    HW115332   3.839   0.020   4.507 -0.7667  0.5393  0.6520
 1233SOL    HW215333   3.889   4.617   4.471  0.8039 -1.5315  1.2206
 1234SOL     OW15334   2.221   2.750   2.761 -0.0828 -0.5021 -0.2114
 1234SOL    HW115335   2.236   2.681   2.696 -0.9246 -1.8638  1.0574
 1234SOL    HW215336   2.261   2.707   2.836 -1.9213  0.8897  1.5481
 1235SOL     OW15337   1.612   3.832   9.385 -0.0799  0.0584  0.6403
 1235SOL    HW115338   1.546   3.895   9.413  0.0331 -0.6509  2.5471
 1235SOL    HW215339   1.678   3.846   9.453  1.3576 -0.9556 -0.5336
 1236SOL     OW15340   1.437   3.686  12.826 -0.0904  0.1380  0.4569
 1236SOL    HW115341   1.378   3.621  12.864 -0.3246  0.4823  0.6840
 1236SOL    HW215342   1.466   3.743  12.897  0.9484  0.4682 -0.2344
 1237SOL     OW15343   2.936   0.935   5.869 -0.1752  0.2420  0.2865
 1237SOL    HW115344   2.934   0.884   5.788  0.0633  3.0465 -1.4728
 1237SOL    HW215345   3.021   0.904   5.899 -0.8836 -0.8600  1.1858
 1238SOL     OW15346   3.253   2.868   2.028  0.0477 -0.0501 -0.2467
 1238SOL    HW115347   3.243   2.911   1.943  1.7091  1.0797  0.1196
 1238SOL    HW215348   3.215   2.785   2.000  1.1233  0.4951 -3.4545
 1239SOL     OW15349   2.095   1.462   7.275  0.6936 -0.4034 -0.3801
 1239SOL    HW115350   2.127   1.446   7.186  0.6140 -1.4750 -0.2115
 1239SOL    HW215351   2.174   1.509   7.301 -0.0513  0.0070  1.1404
 1240SOL     OW15352   0.178   1.344  11.020 -0.0207 -0.0449  0.0748
 1240SOL    HW115353   0.241   1.396  10.969  0.7107 -0.3452  0.6651
 1240SOL    HW215354   0.150   1.288  10.947 -0.6969 -0.4479  0.6510
 1241SOL     OW15355   3.167   0.260   1.663 -0.3946 -0.3580 -0.2343
 1241SOL    HW115356   3.253   0.285   1.697 -0.3269  0.5342 -1.0501
 1241SOL    HW215357   3.188   0.286   1.573 -0.1873 -2.4101 -0.7685
 1242SOL     OW15358   1.387   0.225   5.732  0.1967  0.1807  0.0839
 1242SOL    HW115359   1.406   0.134   5.709  1.2177  0.6795 -1.0098
 1242SOL    HW215360   1.305   0.230   5.683  0.5488  2.3577 -0.2613
 1243SOL     OW15361   2.559   0.546  10.908  0.7043 -0.0311  0.4449
 1243SOL    HW115362   2.549   0.602  10.831 -0.4970 -0.7700  0.0596
 1243SOL    HW215363   2.573   0.606  10.982 -0.4875  0.7805  0.0063
 1244SOL     OW15364   1.655   2.303  15.444  0.3555  0.5412  0.0711
 1244SOL    HW115365   1.743   2.270  15.424  0.6366  1.0290  0.5076
 1244SOL    HW215366   1.605   2.222  15.456  0.6870  0.3534  0.1835
 1245SOL     OW15367   3.332   3.799  16.509 -0.2895 -0.7005  0.1454
 1245SOL    HW115368   3.298   3.711  16.525  1.9617 -1.1799  2.2484
 1245SOL    HW215369   3.278   3.827  16.435  1.1129 -1.1316 -1.0575
 1246SOL     OW15370   2.776   0.609   5.329  0.1323 -0.2084 -0.5193
 1246SOL    HW115371   2.744   0.595   5.418  0.4716 -0.6744 -0.4703
 1246SOL    HW215372   2.804   0.521   5.304  0.3746 -0.5836  1.1176
 1247SOL     OW15373   2.818   2.082   2.577  0.2170  0.2581 -0.4756
 1247SOL    HW115374   2.824   2.005   2.520 -1.7852 -0.3173  0.0923
 1247SOL    HW215375   2.896   2.058   2.627 -1.3548  0.8735  2.2576
 1248SOL     OW15376   0.200   1.250   5.518  0.5121 -0.9123 -0.0656
 1248SOL    HW115377   0.242   1.174   5.479  1.1787 -0.8184  0.4800
 1248SOL    HW215378   0.280   1.299   5.539  0.1036 -0.1369 -0.3414
 1249SOL     OW15379   0.416   2.075   1.024 -0.0039 -0.4144  0.2519
 1249SOL    HW115380   0.337   2.030   1.051 -1.6205  0.9491 -2.2238
 1249SOL    HW215381   0.399   2.160   1.064  0.9168  0.7519 -1.8433
 1250SOL     OW15382   3.802   3.439  16.404  0.2097  0.4651 -0.1625
 1250SOL    HW115383   3.867   3.507  16.390 -0.2100  0.5405 -1.8026
 1250SOL    HW215384   3.815   3.392  16.321 -1.1807 -0.6643  0.2589
 1251SOL     OW15385   3.292   1.684   0.027  0.0773  0.1489 -0.2812
 1251SOL    HW115386   3.363   1.698  17.713  1.1732 -1.1940  0.6792
 1251SOL    HW215387   3.245   1.762  17.744 -1.7729 -0.7305  0.2968
 1252SOL     OW15388   0.177   4.468  10.302  0.0810 -0.1787 -0.2946
 1252SOL    HW115389   0.245   4.535  10.304 -0.9987  0.8906  0.5637
 1252SOL    HW215390   0.103   4.522  10.273 -0.7440 -0.2125  1.7789
 1253SOL     OW15391   3.176   0.558   5.280  0.2372  0.1991  0.5279
 1253SOL    HW115392   3.154   0.496   5.209 -1.2645  0.5640  0.6736
 1253SOL    HW215393   3.223   0.623   5.228  1.7470  0.7695  2.6269
 1254SOL     OW15394   4.582   0.891   6.254  0.1587 -0.2574  0.2862
 1254SOL    HW115395   4.584   0.877   6.159  0.4706  3.2391 -0.2242
 1254SOL    HW215396   4.665   0.850   6.279  0.8128  0.7068 -0.3035
 1255SOL     OW15397   1.824   4.691   5.998  0.1293 -0.1306  0.1564
 1255SOL    HW115398   1.742   4.708   6.044 -1.4931 -2.6269 -1.7898
 1255SOL    HW215399   1.807   4.597   5.985  1.2074 -0.4219  0.8854
 1256SOL     OW15400   2.258   3.454   7.235 -0.7739 -0.3613  0.1608
 1256SOL    HW115401   2.215   3.415   7.311  1.0571  1.0337  1.9226
 1256SOL    HW215402   2.187   3.508   7.200 -0.1572  1.1366  1.2363
 1257SOL     OW15403   2.209   0.300   5.609 -0.1405 -0.3283  0.3113
 1257SOL    HW115404   2.142   0.277   5.544  2.1005 -0.6248 -1.8845
 1257SOL    HW215405   2.289   0.323   5.562 -1.4558  1.8265 -0.8788
 1258SOL     OW15406   2.553   3.794   7.639 -1.1334  0.0849 -0.0596
 1258SOL    HW115407   2.498   3.732   7.687  0.1490 -0.0920  1.1630
 1258SOL    HW215408   2.514   3.792   7.552  1.0894  1.9880 -1.0879
 1259SOL     OW15409   4.464   0.992   7.243  0.7737 -0.0381  0.7199
 1259SOL    HW115410   4.448   1.071   7.295  2.0710  1.6663 -1.4820
 1259SOL    HW215411   4.506   0.942   7.314  0.9083  1.2572  1.5611
 1260SOL     OW15412   1.708   2.434  14.192 -0.1019 -0.3433  0.0709
 1260SOL    HW115413   1.683   2.481  14.272  1.7685 -0.4702  0.7266
 1260SOL    HW215414   1.794   2.398  14.212 -0.4173 -1.5896 -0.8433
 1261SOL     OW15415   4.045   3.257   1.981 -0.2365 -0.0321 -0.7551
 1261SOL    HW115416   3.997   3.339   1.996 -0.5213 -0.0350 -1.6552
 1261SOL    HW215417   4.016   3.232   1.893 -0.5728 -1.4228 -0.2458
 1262SOL     OW15418   4.656   4.588   0.217 -0.1726  0.4011 -0.2883
 1262SOL    HW115419   4.639   4.564   0.308 -2.2820  0.3301 -0.6933
 1262SOL    HW215420   4.581   4.544   0.178  0.0667 -1.8168  1.7629
 1263SOL     OW15421   3.457   0.688  14.932  0.3253  0.1547 -0.1830
 1263SOL    HW115422   3.394   0.701  14.862 -1.9062 -2.2390  1.3953
 1263SOL    HW215423   3.416   0.616  14.979 -0.3318  2.0047  2.0417
 1264SOL     OW15424   0.052   1.074  17.180  0.0730 -0.3319  0.3269
 1264SOL    HW115425   4.737   1.115  17.248 -0.9939 -0.6096 -0.3381
 1264SOL    HW215426   0.001   1.098  17.103  1.9258 -0.9717 -1.1047
 1265SOL     OW15427   1.755   3.510   4.609  0.1511 -0.0444  0.1195
 1265SOL    HW115428   1.816   3.454   4.561  0.8987  1.3372 -0.5617
 1265SOL    HW215429   1.672   3.463   4.609 -0.0965  0.4030 -1.2214
 1266SOL     OW15430   0.791   4.092   6.227 -0.5001  0.4950 -0.4340
 1266SOL    HW115431   0.871   4.125   6.186  0.8830  0.4273  2.2259
 1266SOL    HW215432   0.758   4.031   6.160  1.5498 -1.9117  0.7743
 1267SOL     OW15433   0.212   3.094   5.237  0.2307 -0.4766  0.3950
 1267SOL    HW115434   0.292   3.075   5.188  0.4543  2.1799 -0.2449
 1267SOL    HW215435   0.157   3.122   5.163  0.0782 -0.1063  0.6472
 1268SOL     OW15436   3.139   1.577   9.730 -0.1769  0.1725  0.5143
 1268SOL    HW115437   3.195   1.512   9.687  1.3485  0.6634  1.7364
 1268SOL    HW215438   3.182   1.654   9.695 -0.4104 -0.1404 -0.4637
 1269SOL     OW15439   0.262   1.015   7.920 -0.4107 -0.2854 -0.4255
 1269SOL    HW115440   0.237   0.969   8.000  2.3702  0.1825  0.7127
 1269SOL    HW215441   0.188   0.991   7.863  0.2824 -0.4676 -1.2449
 1270SOL     OW15442   0.376   0.781  12.269 -0.4949  0.5399 -0.0652
 1270SOL    HW115443   0.427   0.805  12.346 -1.2333  2.0475 -0.0485
 1270SOL    HW215444   0.363   0.867  12.229 -0.8101 -0.0613 -1.2580
 1271SOL     OW15445   1.449   3.672   0.038  0.4110  0.2982  0.4364
 1271SOL    HW115446   1.495   3.756   0.047  0.1329  0.3276  1.5447
 1271SOL    HW215447   1.508   3.635  17.721 -0.4574  2.8986 -1.8506
 1272SOL     OW15448   1.012   3.357   3.472 -0.7903  0.6560 -0.1431
 1272SOL    HW115449   0.953   3.359   3.548  0.2124 -2.1661  0.7222
 1272SOL    HW215450   1.070   3.283   3.490 -2.1628 -0.2828  0.4955
 1273SOL     OW15451   1.206   0.977   5.528 -0.3315  0.1068 -0.3287
 1273SOL    HW115452   1.249   0.919   5.591 -0.4425  0.1937 -0.1701
 1273SOL    HW215453   1.217   0.937   5.442  0.3118 -1.3166  0.4179
 1274SOL     OW15454   1.654   3.093   9.109 -0.3041 -0.3154  0.0490
 1274SOL    HW115455   1.642   3.014   9.057  1.6942 -0.5804 -0.0039
 1274SOL    HW215456   1.565   3.129   9.106  0.4250  1.4373 -0.1412
 1275SOL     OW15457   3.008   0.773   5.355 -0.1469  0.5583  0.4952
 1275SOL    HW115458   3.062   0.712   5.303 -0.4744  0.0124  0.7943
 1275SOL    HW215459   2.918   0.746   5.343  0.1854 -0.7162  0.8520
 1276SOL     OW15460   2.255   1.154   3.659  0.4303 -0.8274  0.2062
 1276SOL    HW115461   2.284   1.069   3.625  0.9874 -0.8764  0.8086
 1276SOL    HW215462   2.267   1.213   3.585  0.7875  1.0316  1.7695
 1277SOL     OW15463   1.545   4.617  15.077 -0.3438  0.0378  0.0052
 1277SOL    HW115464   1.583   4.614  15.165 -1.5048 -0.0170  0.5060
 1277SOL    HW215465   1.623   4.653  15.036 -1.0911  2.0672  0.3849
 1278SOL     OW15466   2.294   1.404   8.404  0.1712  0.2372  0.3194
 1278SOL    HW115467   2.257   1.365   8.484  0.9622  0.1343  0.6283
 1278SOL    HW215468   2.269   1.495   8.420 -1.9464 -0.4134  0.7551
 1279SOL     OW15469   0.541   1.238  12.042 -0.0212  0.3371 -0.5316
 1279SOL    HW115470   0.462   1.225  12.094  0.1606  1.8124  0.1216
 1279SOL    HW215471   0.500   1.270  11.961  0.5133  1.6124 -0.3034
 1280SOL     OW15472   3.470   3.671   1.884 -0.6486 -0.2860  0.1029
 1280SOL    HW115473   3.412   3.746   1.867  1.0780  0.7059 -1.4483
 1280SOL    HW215474   3.410   3.612   1.929 -0.9257 -0.4301 -0.4503
 1281SOL     OW15475   0.266   1.524   3.030 -0.3771 -0.5168  0.0140
 1281SOL    HW115476   0.201   1.476   3.082 -1.0641  2.0644  1.5258
 1281SOL    HW215477   0.254   1.614   3.060 -0.8643 -0.5752 -0.0072
 1282SOL     OW15478   0.611   1.307   7.354  0.0187 -0.2570  0.4914
 1282SOL    HW115479   0.657   1.380   7.395 -3.6103  2.0905  0.3939
 1282SOL    HW215480   0.531   1.315   7.407 -0.6326 -0.1153 -0.4984
 1283SOL     OW15481   2.603   4.020   4.172  0.3955 -0.1509 -0.2701
 1283SOL    HW115482   2.548   3.970   4.233  0.5035 -0.2791 -0.2787
 1283SOL    HW215483   2.652   3.948   4.131  3.2226  2.5147 -1.4939
 1284SOL     OW15484   1.435   1.955   8.186 -0.4779 -0.1025 -0.1228
 1284SOL    HW115485   1.517   1.920   8.151 -1.7723 -1.6159 -1.6474
 1284SOL    HW215486   1.423   2.035   8.136 -0.1465 -1.5839 -2.5584
 1285SOL     OW15487   3.851   2.106   4.917  0.1774 -0.6670  0.0019
 1285SOL    HW115488   3.852   2.115   4.822  1.3967 -2.5528 -0.1695
 1285SOL    HW215489   3.900   2.025   4.931  2.1517  0.5086 -0.0959
 1286SOL     OW15490   1.532   3.328   5.322  0.3707 -0.2371 -0.0108
 1286SOL    HW115491   1.607   3.381   5.351  0.8365 -1.1500  0.4549
 1286SOL    HW215492   1.565   3.320   5.233  2.7885  1.1081  0.7368
 1287SOL     OW15493   3.108   1.621  14.046  0.1627  0.1365  0.0758
 1287SOL    HW115494   3.199   1.624  14.075  0.4989 -2.3702 -0.7137
 1287SOL    HW215495   3.101   1.695  13.986 -0.6491 -0.0035  0.0050
 1288SOL     OW15496   1.650   2.235   8.111  0.8678 -0.3952  0.0039
 1288SOL    HW115497   1.555   2.236   8.100  0.7348 -0.8538  1.1102
 1288SOL    HW215498   1.675   2.243   8.019 -0.4840  0.6594 -0.2741
 1289SOL     OW15499   1.125   0.045   4.736 -0.1861 -0.0816 -0.1228
 1289SOL    HW115500   1.033   0.054   4.715 -0.0935  0.4263 -0.3044
 1289SOL    HW215501   1.130   4.688   4.718 -0.5661 -0.1156 -0.0376
 1290SOL     OW15502   0.429   1.538   0.341  0.1056  0.7374 -0.0414
 1290SOL    HW115503   0.371   1.544   0.417  0.3733  4.0466 -0.0965
 1290SOL    HW215504   0.387   1.612   0.297 -0.2095  1.9728  2.3005
 1291SOL     OW15505   1.718   4.664   3.604 -0.4940 -0.3974  0.0714
 1291SOL    HW115506   1.696   0.018   3.585 -2.8174 -1.2207 -1.2681
 1291SOL    HW215507   1.642   4.627   3.649 -0.9915  0.8964  0.3082
 1292SOL     OW15508   3.431   2.585   3.319 -0.0714 -0.1744 -0.4205
 1292SOL    HW115509   3.516   2.620   3.346  0.1327 -2.2797  1.6919
 1292SOL    HW215510   3.450   2.492   3.324  0.2196 -0.1413 -0.8408
 1293SOL     OW15511   3.495   0.918   1.404 -0.2287 -0.3474  0.6676
 1293SOL    HW115512   3.562   0.880   1.462  0.9997 -1.8423 -1.7380
 1293SOL    HW215513   3.458   0.838   1.366 -0.4781  0.7694 -1.4353
 1294SOL     OW15514   2.752   2.095   4.177  0.3617 -0.1900  0.5005
 1294SOL    HW115515   2.773   2.008   4.213 -0.9948 -1.3085 -1.4567
 1294SOL    HW215516   2.765   2.147   4.256 -0.5907  0.4850  0.2128
 1295SOL     OW15517   4.486   3.177   1.901 -0.3821  0.2791 -0.3093
 1295SOL    HW115518   4.484   3.083   1.918  0.2583  0.3088 -0.1013
 1295SOL    HW215519   4.420   3.198   1.968 -1.2252 -1.0288 -0.7176
 1296SOL     OW15520   2.134   2.195   3.344 -0.4402 -0.2233  0.1722
 1296SOL    HW115521   2.201   2.195   3.412  1.4106 -0.2930 -1.6549
 1296SOL    HW215522   2.165   2.122   3.290 -0.2111 -0.5620  0.7606
 1297SOL     OW15523   0.029   0.146  15.318 -0.3300  0.3206  0.0499
 1297SOL    HW115524   0.073   0.223  15.352  2.8467 -1.5646  0.2137
 1297SOL    HW215525   0.106   0.089  15.315 -1.3257 -0.9820 -0.9077
 1298SOL     OW15526   1.587   1.901   1.139 -0.8474  0.2878 -0.1692
 1298SOL    HW115527   1.588   1.854   1.222  2.5687 -1.0390 -0.9552
 1298SOL    HW215528   1.541   1.981   1.166 -1.6109 -0.8328  1.8775
 1299SOL     OW15529   3.264   2.593   8.604 -0.0330  0.2852  0.3504
 1299SOL    HW115530   3.195   2.623   8.546 -0.4194 -1.0636  0.1016
 1299SOL    HW215531   3.231   2.516   8.649 -1.1314  0.1935 -0.6240
 1300SOL     OW15532   3.906   2.147   3.477  0.2204 -0.4175  0.5308
 1300SOL    HW115533   3.951   2.181   3.555  2.3085  0.7069 -1.1507
 1300SOL    HW215534   3.943   2.215   3.420  1.6121 -1.3690  0.2871
 1301SOL     OW15535   2.221   2.877   6.841 -0.1845  0.0469 -0.1562
 1301SOL    HW115536   2.202   2.956   6.892  1.8809  0.0503  0.6154
 1301SOL    HW215537   2.267   2.924   6.771  2.0948 -1.4292  0.3584
 1302SOL     OW15538   0.829   2.810   4.596  0.4027  0.2832  0.0713
 1302SOL    HW115539   0.791   2.887   4.639  0.7652 -0.0019  0.8993
 1302SOL    HW215540   0.824   2.741   4.662 -2.2298 -0.0217 -0.4845
 1303SOL     OW15541   2.920   2.673   2.418 -0.1742  0.5916  0.6154
 1303SOL    HW115542   2.852   2.723   2.463 -0.6128  1.0510 -0.5540
 1303SOL    HW215543   2.871   2.611   2.364  0.6063 -0.0967  0.6926
 1304SOL     OW15544   2.024   3.666   3.695  0.1160  0.3584 -0.8730
 1304SOL    HW115545   2.057   3.594   3.749 -1.5391 -0.6129 -1.1570
 1304SOL    HW215546   2.083   3.684   3.622 -2.0281  2.1705 -2.1722
 1305SOL     OW15547   4.529   1.252   1.749  0.7228 -0.5981 -0.2605
 1305SOL    HW115548   4.489   1.339   1.758  1.7644 -0.3042  1.5070
 1305SOL    HW215549   4.498   1.210   1.829  0.4394  0.4067  0.1553
 1306SOL     OW15550   0.802   2.159  12.460 -0.4800  0.2050  0.4796
 1306SOL    HW115551   0.801   2.252  12.441  1.1535  0.3524  1.0573
 1306SOL    HW215552   0.896   2.142  12.471 -0.2339  0.4453 -1.3799
 1307SOL     OW15553   2.109   3.791   6.364  0.3865  0.0862  0.4242
 1307SOL    HW115554   2.126   3.845   6.286 -3.4261 -0.6627 -0.9169
 1307SOL    HW215555   2.108   3.864   6.426 -1.5523 -0.6366  1.2194
 1308SOL     OW15556   4.235   3.245  12.457 -0.1813  0.6257 -0.9866
 1308SOL    HW115557   4.196   3.329  12.435  4.1001  2.3498 -1.9035
 1308SOL    HW215558   4.220   3.232  12.551 -1.4938  2.7290 -0.9116
 1309SOL     OW15559   1.119   1.679   5.251 -0.8796  0.4100  0.3844
 1309SOL    HW115560   1.094   1.715   5.336  1.7883  1.0925  0.8709
 1309SOL    HW215561   1.116   1.758   5.197 -0.0268  0.2854  0.1514
 1310SOL     OW15562   4.042   1.981   7.023 -0.0765  0.8045  0.0874
 1310SOL    HW115563   3.961   2.007   7.067 -0.2383 -1.7716  1.2980
 1310SOL    HW215564   4.036   1.889   7.051  0.1691  0.9175  0.5168
 1311SOL     OW15565   3.826   3.346   4.688 -0.3346 -0.2674 -0.2582
 1311SOL    HW115566   3.916   3.328   4.660 -0.5237 -0.8217 -0.5080
 1311SOL    HW215567   3.777   3.326   4.609 -2.4261  0.7562  0.7646
 1312SOL     OW15568   3.853   0.010  13.510  0.4166 -0.3524  0.3598
 1312SOL    HW115569   3.844   4.703  13.426  0.1071 -4.0241  2.3399
 1312SOL    HW215570   3.780   0.071  13.510 -0.0739 -0.9417 -0.4853
 1313SOL     OW15571   3.052   1.032   8.925  0.2683 -0.2421  0.0041
 1313SOL    HW115572   3.050   0.996   8.837 -0.4583 -0.0383 -0.0641
 1313SOL    HW215573   2.960   1.056   8.936 -0.2690 -1.8614 -0.8792
 1314SOL     OW15574   0.744   1.879   5.091  0.3600 -0.1754 -0.3495
 1314SOL    HW115575   0.684   1.922   5.031 -1.1993 -1.2634  0.4389
 1314SOL    HW215576   0.715   1.788   5.084  1.1658 -0.4830  0.2262
 1315SOL     OW15577   3.256   2.775   5.137 -0.2354  0.5765  0.2119
 1315SOL    HW115578   3.167   2.742   5.144  0.4984 -1.7328 -1.2690
 1315SOL    HW215579   3.302   2.709   5.188  0.0624  0.1622 -0.5859
 1316SOL     OW15580   4.270   3.155   5.763 -0.5003 -0.6566  0.5509
 1316SOL    HW115581   4.291   3.091   5.831 -0.2167 -1.9706 -0.7800
 1316SOL    HW215582   4.358   3.176   5.732 -0.5342  2.0962  2.3136
 1317SOL     OW15583   3.254   1.165   4.375  0.1237 -0.3744 -0.2383
 1317SOL    HW115584   3.179   1.208   4.334  0.5357  1.6129  1.0896
 1317SOL    HW215585   3.259   1.192   4.467  1.0936  1.7438 -0.9095
 1318SOL     OW15586   3.674   3.638  14.524  0.0384 -0.0986  0.5574
 1318SOL    HW115587   3.692   3.575  14.594  0.0636 -0.5419  0.1466
 1318SOL    HW215588   3.578   3.629  14.524  0.1514 -1.3144  1.3453
 1319SOL     OW15589   3.524   1.430   2.303 -0.2887  0.2390  0.0917
 1319SOL    HW115590   3.574   1.424   2.385 -0.2734  2.5264  0.2473
 1319SOL    HW215591   3.458   1.499   2.313 -0.7050 -0.4020  1.8126
 1320SOL     OW15592   0.563   0.288   7.997 -0.3312  0.2915 -0.3905
 1320SOL    HW115593   0.613   0.366   7.972 -1.9611  2.0401  1.8597
 1320SOL    HW215594   0.567   0.240   7.914 -0.6100 -1.7719  0.7793
 1321SOL     OW15595   3.310   4.610   9.300 -0.1163 -0.3965 -0.5823
 1321SOL    HW115596   3.274   4.590   9.386 -2.2111 -0.6399 -1.5253
 1321SOL    HW215597   3.230   4.593   9.252 -0.0689  1.5412 -1.3502
 1322SOL     OW15598   3.460   1.146   5.294 -0.7133  0.1247 -0.6855
 1322SOL    HW115599   3.500   1.111   5.374 -1.9369 -1.0251 -0.5767
 1322SOL    HW215600   3.449   1.235   5.326 -1.4774 -0.1907 -0.0654
 1323SOL     OW15601   0.690   0.013  10.160 -0.3061  0.0388  0.6687
 1323SOL    HW115602   0.703   4.679  10.098 -1.2417  1.0308 -0.6425
 1323SOL    HW215603   0.627   0.052  10.101  1.2348  0.7614 -0.5068
 1324SOL     OW15604   3.648   2.913   6.044 -0.4474 -0.1518 -0.6336
 1324SOL    HW115605   3.602   2.894   6.126  0.1362  2.3165  0.2515
 1324SOL    HW215606   3.597   2.977   5.995 -0.8187  0.2077  0.2185
 1325SOL     OW15607   0.894   2.688   7.830 -0.2261  0.0447  0.1040
 1325SOL    HW115608   0.956   2.617   7.844  0.3282  0.8915  1.9758
 1325SOL    HW215609   0.933   2.742   7.761  0.8235 -0.0053  0.6460
 1326SOL     OW15610   2.645   2.489  16.121  0.2271  0.2972 -0.2522
 1326SOL    HW115611   2.622   2.539  16.043  1.8503  2.0211  0.4012
 1326SOL    HW215612   2.710   2.431  16.082 -1.3096 -3.0544  2.0836
 1327SOL     OW15613   3.367   1.383   5.552  0.3022  0.0735  0.1846
 1327SOL    HW115614   3.402   1.406   5.638 -2.4046 -1.4269  1.6890
 1327SOL    HW215615   3.412   1.451   5.502 -1.3118  2.0143  1.3363
 1328SOL     OW15616   1.743   3.856   2.343 -0.3442  0.0232  0.4949
 1328SOL    HW115617   1.685   3.840   2.269 -0.6700 -0.8688  0.9462
 1328SOL    HW215618   1.827   3.862   2.297 -0.0367 -1.4732  0.8670
 1329SOL     OW15619   0.440   2.972   1.854 -0.3541 -0.0192  0.0814
 1329SOL    HW115620   0.366   3.005   1.803  0.8097 -0.0129 -1.6054
 1329SOL    HW215621   0.425   3.025   1.932 -1.8174  2.4556 -1.8720
 1330SOL     OW15622   2.927   2.201   2.103 -0.1602  0.3836 -0.0768
 1330SOL    HW115623   2.849   2.195   2.048 -1.6599  0.6477  2.0257
 1330SOL    HW215624   2.942   2.108   2.122 -1.1526 -0.4199 -3.1942
 1331SOL     OW15625   2.331   3.304   8.315  0.1199 -0.3442 -0.1161
 1331SOL    HW115626   2.410   3.351   8.289  0.1244 -1.1154 -1.4590
 1331SOL    HW215627   2.293   3.360   8.382  2.8206 -0.2565  1.3499
 1332SOL     OW15628   1.988   0.709   2.481 -0.0234  0.4630 -0.0557
 1332SOL    HW115629   2.007   0.667   2.396  0.7750  2.1970 -0.7392
 1332SOL    HW215630   2.077   0.696   2.514 -0.7407 -0.8752  1.3413
 1333SOL     OW15631   2.875   2.725  13.937 -0.0875 -0.0293  0.5134
 1333SOL    HW115632   2.867   2.683  14.023  2.1537 -2.1540 -0.3177
 1333SOL    HW215633   2.798   2.782  13.934  0.8730  1.5406  4.2982
 1334SOL     OW15634   3.294   2.847   8.801  0.5938  0.1223  0.2007
 1334SOL    HW115635   3.347   2.797   8.863 -0.2799 -1.4547 -0.3368
 1334SOL    HW215636   3.282   2.785   8.729 -0.2318  0.0978  0.3637
 1335SOL     OW15637   3.738   1.858  16.700 -0.0249  0.1577 -0.4336
 1335SOL    HW115638   3.831   1.872  16.681 -0.3093  1.3957 -0.8939
 1335SOL    HW215639   3.715   1.838  16.609  0.4197 -1.4892 -0.1837
 1336SOL     OW15640   4.509   2.859   8.024 -0.8006  0.1166 -0.2773
 1336SOL    HW115641   4.517   2.764   8.028 -1.9449  0.0029 -0.6419
 1336SOL    HW215642   4.600   2.882   8.043 -0.2064 -0.7288 -2.1158
 1337SOL     OW15643   4.134   4.065   6.109  0.0572 -0.2043 -0.4228
 1337SOL    HW115644   4.137   4.112   6.192 -2.1411 -1.3039  0.2720
 1337SOL    HW215645   4.121   4.135   6.045  0.1062  0.1527 -0.0474
 1338SOL     OW15646   3.203   0.352   7.759 -0.8998 -0.1354 -0.3380
 1338SOL    HW115647   3.202   0.438   7.718  1.5488 -0.0513 -0.2036
 1338SOL    HW215648   3.288   0.314   7.738 -0.7334 -0.5810  1.1790
 1339SOL     OW15649   2.248   2.400   4.127  0.2941  0.1403 -0.9306
 1339SOL    HW115650   2.164   2.356   4.113  0.9508 -0.4228 -3.1085
 1339SOL    HW215651   2.266   2.450   4.047 -2.5122  1.8178 -0.5172
 1340SOL     OW15652   4.401   3.699   1.157 -0.4339  0.3022  0.4843
 1340SOL    HW115653   4.381   3.694   1.064  4.0860  1.5102 -0.5193
 1340SOL    HW215654   4.343   3.632   1.194 -1.0127  0.1900 -0.6268
 1341SOL     OW15655   0.923   1.322   7.762  0.4349 -0.5746 -0.9292
 1341SOL    HW115656   0.999   1.370   7.794 -0.6633  1.9914 -2.1236
 1341SOL    HW215657   0.929   1.341   7.668  0.6508  0.5606 -0.6902
 1342SOL     OW15658   0.750   2.489   8.854 -0.4050 -0.0385 -0.2632
 1342SOL    HW115659   0.794   2.573   8.864 -1.4026  0.3476  0.8970
 1342SOL    HW215660   0.714   2.478   8.942  0.5287  2.3302  0.4295
 1343SOL     OW15661   1.350   2.714   8.334 -0.1268 -0.3030  0.4486
 1343SOL    HW115662   1.354   2.712   8.429 -0.0596  0.2484  0.4602
 1343SOL    HW215663   1.390   2.631   8.309  1.3571  0.4438  0.3233
 1344SOL     OW15664   2.660   0.124   2.720  0.0282 -0.3446  0.5712
 1344SOL    HW115665   2.610   0.205   2.712 -0.2174 -0.4975  0.5703
 1344SOL    HW215666   2.747   0.154   2.748  0.1593  0.7168 -0.9821
 1345SOL     OW15667   2.747   2.463   8.244 -0.4202  0.1048 -0.3198
 1345SOL    HW115668   2.796   2.539   8.211  1.4976 -0.2231  1.7873
 1345SOL    HW215669   2.719   2.490   8.331  1.6481  1.8893 -0.2038
 1346SOL     OW15670   2.103   3.526   4.893  0.3693 -0.1987  0.0761
 1346SOL    HW115671   2.043   3.469   4.846 -0.9073  1.3233 -0.1299
 1346SOL    HW215672   2.185   3.531   4.843  0.2217 -1.5362 -0.2839
 1347SOL     OW15673   4.512   4.032   6.599 -0.3755 -0.3782  0.0587
 1347SOL    HW115674   4.485   4.110   6.552 -1.3618 -1.1240 -0.5992
 1347SOL    HW215675   4.587   3.993   6.553  0.1253  0.1390  0.4330
 1348SOL     OW15676   0.727   2.340  14.336  0.4791  0.5688  0.0847
 1348SOL    HW115677   0.807   2.373  14.294  0.8140 -1.3984 -0.8366
 1348SOL    HW215678   0.754   2.252  14.364 -1.6600  0.0270  0.4822
 1349SOL     OW15679   4.318   3.969   8.504 -0.1222 -0.2554 -0.1801
 1349SOL    HW115680   4.292   4.039   8.564 -0.2109 -0.0306 -0.4846
 1349SOL    HW215681   4.350   3.911   8.573  0.7150  0.3017 -0.1031
 1350SOL     OW15682   2.690   3.132   6.636 -0.1261  0.0026  0.0763
 1350SOL    HW115683   2.715   3.197   6.702 -0.1230 -0.2656  0.3381
 1350SOL    HW215684   2.617   3.174   6.591 -0.6630 -1.0209 -0.0180
 1351SOL     OW15685   4.670   3.468   9.617 -0.7629 -0.7368  0.3467
 1351SOL    HW115686   4.724   3.482   9.539 -0.3814  0.0298  0.7590
 1351SOL    HW215687   4.714   3.390   9.650 -2.4860 -0.7739  2.5834
 1352SOL     OW15688   0.414   3.199   3.524  0.0406  0.0132 -0.1846
 1352SOL    HW115689   0.437   3.176   3.434  0.2960  1.2578 -0.4343
 1352SOL    HW215690   0.362   3.123   3.552  0.2794  0.2574  0.9503
 1353SOL     OW15691   2.145   0.542   3.378  0.4792  0.4138  0.4349
 1353SOL    HW115692   2.055   0.515   3.398  0.8244 -0.8377  0.2314
 1353SOL    HW215693   2.134   0.572   3.288  1.4443  4.3500  1.5888
 1354SOL     OW15694   0.782   4.641   7.034 -0.3855  0.1769 -0.0558
 1354SOL    HW115695   0.722   4.609   6.966 -0.5902  0.8762 -0.2031
 1354SOL    HW215696   0.865   4.643   6.986  0.0629 -1.0959  0.6503
 1355SOL     OW15697   1.280   0.546   5.810  0.2670 -0.3646 -0.3249
 1355SOL    HW115698   1.343   0.480   5.781 -0.6865 -1.2165 -0.4631
 1355SOL    HW215699   1.245   0.494   5.883 -0.8836 -0.0036 -0.6262
 1356SOL     OW15700   0.167   3.026   3.649  0.1504 -0.2936 -0.5655
 1356SOL    HW115701   0.182   2.945   3.600  0.8823  0.5442 -1.7125
 1356SOL    HW215702   0.241   3.034   3.710 -0.1916 -2.0937  0.0798
 1357SOL     OW15703   1.769   1.078   6.582  0.1265  0.6045  0.2922
 1357SOL    HW115704   1.727   1.110   6.502  2.1678 -0.5762 -1.2430
 1357SOL    HW215705   1.714   1.125   6.646  1.0196  3.0987 -0.8123
 1358SOL     OW15706   3.861   3.661   2.235 -0.3220 -0.3884  0.5529
 1358SOL    HW115707   3.814   3.634   2.313  2.4186 -1.4924  1.8354
 1358SOL    HW215708   3.863   3.585   2.178  0.5343 -0.0617  0.1424
 1359SOL     OW15709   1.525   2.451   5.665  0.5458  0.0811  0.2014
 1359SOL    HW115710   1.539   2.540   5.636  0.6590  0.4814  1.4671
 1359SOL    HW215711   1.563   2.456   5.753 -0.0383 -1.3204  0.5370
 1360SOL     OW15712   1.789   3.973   7.977 -0.2243 -0.0526  0.2455
 1360SOL    HW115713   1.846   3.989   8.053 -0.3268 -0.5240  0.4185
 1360SOL    HW215714   1.729   3.903   8.002 -1.5126  0.7209 -0.6812
 1361SOL     OW15715   0.185   0.798   9.372  0.5986  0.7118 -0.2141
 1361SOL    HW115716   0.172   0.836   9.459  1.4497 -1.7379  0.9938
 1361SOL    HW215717   0.272   0.759   9.384  0.6591  1.0778  0.5935
 1362SOL     OW15718   1.680   3.288  14.831  0.5917 -0.1553 -0.7512
 1362SOL    HW115719   1.669   3.199  14.796  1.3155 -0.8733  0.8876
 1362SOL    HW215720   1.591   3.317  14.809  0.8075  1.0383 -0.0179
 1363SOL     OW15721   4.062   1.688  16.872 -0.2122  0.2888 -0.3387
 1363SOL    HW115722   4.151   1.684  16.906 -1.4610  1.6822  3.0799
 1363SOL    HW215723   4.020   1.720  16.952  2.2385  0.9338  0.6965
 1364SOL     OW15724   4.387   3.716   7.176 -0.4394 -0.3300  0.0664
 1364SOL    HW115725   4.450   3.782   7.206  0.9484 -1.9646  0.7832
 1364SOL    HW215726   4.443   3.651   7.134 -1.5663 -1.4325  0.2952
 1365SOL     OW15727   0.817   2.351   7.065 -0.7946 -0.3461 -0.0268
 1365SOL    HW115728   0.778   2.277   7.018  1.2433 -1.9265  0.7656
 1365SOL    HW215729   0.885   2.313   7.120  0.0434  0.0098 -0.8054
 1366SOL     OW15730   0.179   0.775   8.812  0.9364 -0.5230  0.4908
 1366SOL    HW115731   0.121   0.794   8.739 -0.2136 -3.6976  0.5684
 1366SOL    HW215732   0.113   0.754   8.879  1.4377  0.3275  1.2450
 1367SOL     OW15733   3.463   2.912   8.400  0.0247 -0.3953  0.0335
 1367SOL    HW115734   3.548   2.880   8.370 -1.2755 -2.8304 -1.0877
 1367SOL    HW215735   3.493   2.960   8.477 -0.3145 -1.5926  0.9071
 1368SOL     OW15736   2.614   3.607   6.968 -0.2691  0.0374 -0.2309
 1368SOL    HW115737   2.652   3.647   6.890  0.0419  0.1283 -0.0349
 1368SOL    HW215738   2.601   3.522   6.926  0.5470 -0.4973  0.6089
 1369SOL     OW15739   2.498   1.808   4.003 -0.0405  0.3043  0.5773
 1369SOL    HW115740   2.579   1.828   3.957 -0.1355 -0.7744 -0.0729
 1369SOL    HW215741   2.430   1.861   3.962  2.0228 -0.6129 -4.0037
 1370SOL     OW15742   1.389   3.872  13.290  0.2194  0.0275  0.6555
 1370SOL    HW115743   1.297   3.888  13.310  0.7800  1.6054  1.9693
 1370SOL    HW215744   1.415   3.940  13.226 -1.2036 -1.9286 -1.9890
 1371SOL     OW15745   4.591   2.601   9.297 -0.2794  0.0685 -0.6178
 1371SOL    HW115746   4.663   2.540   9.315  0.6259  1.5764  0.8287
 1371SOL    HW215747   4.632   2.684   9.320  1.6118 -0.6889 -1.2879
 1372SOL     OW15748   3.078   3.194  15.651  0.0640  0.6666 -0.0296
 1372SOL    HW115749   3.156   3.248  15.658 -0.9958  2.1655  0.1768
 1372SOL    HW215750   3.109   3.143  15.576 -0.6357  1.7235 -1.0209
 1373SOL     OW15751   4.026   1.827   9.117  0.4428  0.0987 -0.5583
 1373SOL    HW115752   4.027   1.775   9.037  2.2220 -1.4295  0.4658
 1373SOL    HW215753   4.042   1.760   9.183  0.1785  0.3610 -0.2293
 1374SOL     OW15754   2.468   2.124  14.273 -0.0120  0.3316 -0.0365
 1374SOL    HW115755   2.438   2.074  14.197 -2.4171 -0.4874  1.4614
 1374SOL    HW215756   2.389   2.129  14.327 -0.4700 -1.9036 -0.4987
 1375SOL     OW15757   2.854   3.230   7.064  0.3713 -0.0080  0.3687
 1375SOL    HW115758   2.817   3.267   7.144  0.3937  1.3457 -0.2529
 1375SOL    HW215759   2.776   3.207   7.013  1.0966 -0.7575 -0.4183
 1376SOL     OW15760   1.096   4.460  10.403 -0.1381 -0.5547  0.2273
 1376SOL    HW115761   1.185   4.490  10.389 -1.1586  2.2321 -0.1992
 1376SOL    HW215762   1.079   4.515  10.479 -1.2018 -0.3899 -0.1212
 1377SOL     OW15763   1.986   0.642   5.837  0.2031 -0.4842 -0.3457
 1377SOL    HW115764   2.019   0.565   5.885 -1.7929 -1.2797 -0.2543
 1377SOL    HW215765   2.035   0.714   5.876  0.4877 -0.6182 -0.4553
 1378SOL     OW15766   4.338   2.618   6.418 -0.6097 -0.3144  0.1152
 1378SOL    HW115767   4.244   2.628   6.399 -0.2187 -0.0636 -1.6734
 1378SOL    HW215768   4.325   2.626   6.513  1.5913 -1.2113  0.4902
 1379SOL     OW15769   4.271   0.893   9.905 -0.0213  0.4890  0.7147
 1379SOL    HW115770   4.271   0.989   9.912 -2.5304  0.3792  2.5654
 1379SOL    HW215771   4.189   0.875   9.859  0.7006 -1.4148  0.1877
 1380SOL     OW15772   2.429   0.018   6.221  0.6755 -0.1475 -1.2672
 1380SOL    HW115773   2.469   0.091   6.267  1.5892 -1.0796 -0.5607
 1380SOL    HW215774   2.492   4.685   6.237 -0.9966 -1.5404 -0.8640
 1381SOL     OW15775   1.872   4.324   2.345  0.8723  0.0514  0.0963
 1381SOL    HW115776   1.829   4.245   2.379 -1.5146  0.9521 -0.7932
 1381SOL    HW215777   1.833   4.330   2.258  0.1834  1.1869  0.4745
 1382SOL     OW15778   3.481   0.151  11.541 -0.2963 -0.3562  0.7216
 1382SOL    HW115779   3.505   0.090  11.471 -0.1403 -2.0887  2.2730
 1382SOL    HW215780   3.528   0.227  11.507 -0.6888  0.0538  1.0916
 1383SOL     OW15781   4.035   0.163  12.017 -0.0301  0.3349 -0.0008
 1383SOL    HW115782   3.992   0.245  11.994  2.3902  1.5039 -0.3326
 1383SOL    HW215783   4.005   0.148  12.107 -0.3616 -0.0952 -0.1798
 1384SOL     OW15784   2.263   4.582   9.261 -0.1287  0.1949  0.4160
 1384SOL    HW115785   2.236   4.512   9.202  0.9137  1.0376 -1.0512
 1384SOL    HW215786   2.202   4.649   9.231 -0.4026  0.1101  0.7916
 1385SOL     OW15787   3.398   1.311  12.355  0.4641  0.0922 -0.1732
 1385SOL    HW115788   3.343   1.351  12.421 -1.3956 -1.0344 -1.0511
 1385SOL    HW215789   3.418   1.230  12.400  2.7461  1.6536  1.6324
 1386SOL     OW15790   0.069   3.118   1.902  0.2036 -0.6770  0.6777
 1386SOL    HW115791   0.062   3.107   1.996  0.7688 -2.7903  0.4777
 1386SOL    HW215792   4.717   3.138   1.874  1.0289  1.1512 -0.7223
 1387SOL     OW15793   3.809   4.582   4.772 -0.1575  0.2550  0.4745
 1387SOL    HW115794   3.863   4.623   4.704  0.8547 -2.7715 -0.5290
 1387SOL    HW215795   3.840   4.636   4.846 -1.4600  0.2886  0.9928
 1388SOL     OW15796   3.697   1.432   1.244 -0.1421  0.1653 -0.3318
 1388SOL    HW115797   3.677   1.520   1.212  0.8800  0.7191  0.5683
 1388SOL    HW215798   3.742   1.386   1.173 -2.6340 -0.7273 -1.3170
 1389SOL     OW15799   1.868   3.014   7.234  0.7203 -0.6430 -0.3347
 1389SOL    HW115800   1.875   2.926   7.270  1.8018 -0.6717 -0.6259
 1389SOL    HW215801   1.844   2.997   7.143 -0.7554 -3.0341  0.5094
 1390SOL     OW15802   3.813   3.024  14.227 -0.3225  0.0939 -0.6761
 1390SOL    HW115803   3.894   3.075  14.225  0.1434 -0.6160  0.4981
 1390SOL    HW215804   3.856   2.940  14.212 -0.4367  0.3715 -2.5914
 1391SOL     OW15805   4.278   2.250  16.595 -0.3236  0.1114 -0.2758
 1391SOL    HW115806   4.267   2.192  16.520  2.8002  0.5586 -1.0788
 1391SOL    HW215807   4.189   2.253  16.630  0.0151  2.2041  0.4478
 1392SOL     OW15808   3.433   2.960   5.192 -0.4935  0.1818 -0.2002
 1392SOL    HW115809   3.375   3.037   5.199  1.0572  1.0783  2.9184
 1392SOL    HW215810   3.369   2.896   5.162  2.5306 -3.3372  0.9842
 1393SOL     OW15811   2.812   2.284   9.371 -0.2512  0.2803 -0.1061
 1393SOL    HW115812   2.896   2.328   9.372 -0.3565  0.4097  2.8616
 1393SOL    HW215813   2.769   2.360   9.332 -2.2613 -1.4548 -1.2706
 1394SOL     OW15814   2.806   2.230   5.309 -0.2037  0.6237  0.0758
 1394SOL    HW115815   2.784   2.198   5.221  1.2804 -2.3302  0.7866
 1394SOL    HW215816   2.881   2.178   5.336 -0.4829  0.8426  1.2565
 1395SOL     OW15817   4.655   0.463   9.880  0.2471 -0.3205 -0.7400
 1395SOL    HW115818   4.575   0.493   9.837 -0.1814  1.5662  1.3644
 1395SOL    HW215819   4.673   0.400   9.810  1.6689 -0.8357  0.1119
 1396SOL     OW15820   0.119   4.408   5.406  0.3251  0.0425 -0.4933
 1396SOL    HW115821   0.104   4.500   5.384  1.3888  0.2251 -0.4314
 1396SOL    HW215822   0.089   4.396   5.496 -1.5672  0.4775 -1.0678
 1397SOL     OW15823   1.620   0.742   4.569 -0.0893  0.4094 -0.0021
 1397SOL    HW115824   1.612   0.735   4.474  0.6450 -0.2095 -0.0185
 1397SOL    HW215825   1.618   0.835   4.593 -0.6977  0.4181 -0.1031
 1398SOL     OW15826   0.704   4.265   0.391 -0.1084 -0.7030 -0.7012
 1398SOL    HW115827   0.678   4.262   0.299  1.8251  1.6537 -1.3167
 1398SOL    HW215828   0.797   4.243   0.387 -0.0485 -0.7870  0.9984
 1399SOL     OW15829   2.544   3.230   7.256 -0.8327 -0.0534  0.1840
 1399SOL    HW115830   2.561   3.207   7.347  1.7124  0.1198 -0.2629
 1399SOL    HW215831   2.502   3.315   7.250  0.6403  0.5190 -1.9524
 1400SOL     OW15832   2.139   4.530   1.214 -0.3885  0.6347  0.3924
 1400SOL    HW115833   2.102   4.615   1.190  1.2033  1.8270  2.1262
 1400SOL    HW215834   2.182   4.535   1.299  0.2254  0.5722  0.0863
 1401SOL     OW15835   3.265   3.167   6.412 -0.0429 -0.3816 -0.0521
 1401SOL    HW115836   3.213   3.208   6.343 -0.1503  0.2930  0.4317
 1401SOL    HW215837   3.234   3.079   6.391  1.7661 -0.7374 -1.1545
 1402SOL     OW15838   0.949   1.861   7.572 -0.2036  0.5327 -0.9809
 1402SOL    HW115839   0.887   1.797   7.607 -1.6602  2.4600  0.0415
 1402SOL    HW215840   0.910   1.945   7.599 -0.5670  0.9047 -2.6480
 1403SOL     OW15841   4.357   0.497   1.452 -0.2743 -0.4492 -0.1926
 1403SOL    HW115842   4.402   0.424   1.410  0.4222  1.0970 -2.1342
 1403SOL    HW215843   4.351   0.568   1.389 -1.2530 -0.5317 -0.1922
 1404SOL     OW15844   4.277   2.835   7.382 -0.0709  0.0885  0.4071
 1404SOL    HW115845   4.264   2.851   7.476 -0.1315 -1.4247  0.6577
 1404SOL    HW215846   4.281   2.741   7.364 -1.8604  0.3463 -1.3246
 1405SOL     OW15847   1.665   0.100   5.411  0.4932  0.0023 -0.1584
 1405SOL    HW115848   1.739   0.127   5.357 -0.9449  0.8370 -1.7355
 1405SOL    HW215849   1.684   0.144   5.494  0.7322 -2.6485  1.1805
 1406SOL     OW15850   0.839   1.123   8.345 -0.3810 -0.1629 -0.0297
 1406SOL    HW115851   0.783   1.046   8.336 -0.2107 -0.2983  0.0827
 1406SOL    HW215852   0.889   1.101   8.267 -0.7729  0.0518 -0.3422
 1407SOL     OW15853   3.207   1.057   3.646  0.2089  0.2085 -0.7160
 1407SOL    HW115854   3.126   1.092   3.609 -0.1400  1.8814  1.6106
 1407SOL    HW215855   3.264   1.129   3.672 -1.0685  0.2191  2.0418
 1408SOL     OW15856   4.494   4.519   3.332  0.5378 -0.2827 -0.5173
 1408SOL    HW115857   4.458   4.552   3.249  1.4479  1.2323 -0.3153
 1408SOL    HW215858   4.518   4.606   3.366  0.7014 -0.6379  0.2734
 1409SOL     OW15859   1.711   1.594   2.648  0.4042  0.1514  0.0094
 1409SOL    HW115860   1.720   1.680   2.689 -1.2041  0.3395 -0.0179
 1409SOL    HW215861   1.631   1.608   2.597  0.8501 -3.7846 -1.8355
 1410SOL     OW15862   4.617   4.375   8.599 -0.1130 -0.1586 -0.2957
 1410SOL    HW115863   4.673   4.363   8.676 -1.0808 -1.0259  0.2718
 1410SOL    HW215864   4.540   4.423   8.630 -0.2398 -0.8901  0.5457
 1411SOL     OW15865   2.376   2.423   8.429 -0.4274 -0.1314 -0.3721
 1411SOL    HW115866   2.318   2.440   8.354  0.1021 -1.7461 -1.1616
 1411SOL    HW215867   2.393   2.329   8.417 -2.7110 -0.7452  1.1665
 1412SOL     OW15868   3.827   1.546   4.473  0.5468 -0.3991 -0.1025
 1412SOL    HW115869   3.813   1.509   4.560  0.8270  0.0507  0.1370
 1412SOL    HW215870   3.758   1.509   4.418  1.4984 -1.3954 -0.6319
 1413SOL     OW15871   1.802   4.565   6.812  0.2130  0.1602 -0.0855
 1413SOL    HW115872   1.734   4.631   6.797 -1.5810 -1.4970  0.6196
 1413SOL    HW215873   1.867   4.622   6.853 -1.3176  1.5171  0.4629
 1414SOL     OW15874   3.343   1.922   5.115  0.4581 -0.2861 -0.3107
 1414SOL    HW115875   3.365   2.003   5.161 -0.1886 -0.8752  1.0275
 1414SOL    HW215876   3.391   1.928   5.032  0.5790  1.4155 -0.1175
 1415SOL     OW15877   4.157   0.234   3.203  0.4195 -0.1900  0.0857
 1415SOL    HW115878   4.235   0.282   3.229  1.2728 -0.4618 -2.0050
 1415SOL    HW215879   4.154   0.249   3.109  2.7250  1.5067  0.2847
 1416SOL     OW15880   4.002   3.006   5.895  0.1723 -0.2084  0.2051
 1416SOL    HW115881   4.085   2.958   5.892  0.2598 -0.0790  0.6178
 1416SOL    HW215882   3.947   2.948   5.946 -0.7064  0.8297  0.4407
 1417SOL     OW15883   1.143   0.497  16.981 -0.1370 -0.5638  0.0733
 1417SOL    HW115884   1.163   0.583  17.018 -2.6193 -0.8736  2.1738
 1417SOL    HW215885   1.168   0.520  16.891  2.8793 -1.5505  0.6822
 1418SOL     OW15886   0.746   0.438   5.035 -0.3815 -0.5073 -0.4926
 1418SOL    HW115887   0.772   0.394   4.955 -1.2562  0.8365 -1.5195
 1418SOL    HW215888   0.827   0.485   5.058 -0.3702 -0.0930 -1.3984
 1419SOL     OW15889   3.020   2.276   2.723  0.4285 -0.3036  0.2275
 1419SOL    HW115890   3.087   2.343   2.740  0.4292  0.0855 -1.3099
 1419SOL    HW215891   2.981   2.305   2.640  0.2400  0.7536  0.6852
 1420SOL     OW15892   4.658   2.816   1.795  0.5485 -0.5508  0.2297
 1420SOL    HW115893   4.702   2.740   1.756  1.4036 -0.8342  1.7419
 1420SOL    HW215894   4.736   2.861   1.829 -0.3645 -0.5235  2.2595
 1421SOL     OW15895   3.651   4.519   8.715 -0.0349 -0.3339  0.2008
 1421SOL    HW115896   3.747   4.522   8.710 -0.0798 -0.7643 -0.9581
 1421SOL    HW215897   3.638   4.486   8.804 -1.9739 -2.1086 -0.7360
 1422SOL     OW15898   2.461   1.158  10.074  0.3538 -0.0727 -0.0242
 1422SOL    HW115899   2.535   1.143  10.133  0.9451  0.7974 -0.5485
 1422SOL    HW215900   2.393   1.174  10.140 -1.1705  0.6282 -1.7742
 1423SOL     OW15901   3.325   3.679   5.010  0.5214 -0.1975  0.0296
 1423SOL    HW115902   3.399   3.640   4.965 -0.1901 -0.4502 -0.9235
 1423SOL    HW215903   3.275   3.600   5.031  1.6350 -0.8812  0.0735
 1424SOL     OW15904   3.040   3.656   4.042 -0.0418 -0.5158  0.4665
 1424SOL    HW115905   3.017   3.585   3.982  2.7448 -0.7850 -0.3044
 1424SOL    HW215906   2.994   3.637   4.124 -0.8267  0.2796  0.2063
 1425SOL     OW15907   0.902   2.661   6.582  0.5405  0.1310 -0.2902
 1425SOL    HW115908   0.883   2.568   6.580 -0.1585  0.2518  0.7912
 1425SOL    HW215909   0.835   2.692   6.521  1.1188 -0.5252 -1.2650
 1426SOL     OW15910   4.179   2.611   2.061 -0.1130 -0.3396  0.2870
 1426SOL    HW115911   4.225   2.627   1.979 -2.6929 -0.4955 -1.2125
 1426SOL    HW215912   4.220   2.675   2.119  0.7901  1.3856 -2.2877
 1427SOL     OW15913   0.465   3.802   9.820  0.8003 -0.3760  0.1470
 1427SOL    HW115914   0.375   3.771   9.807  0.1594  1.6197 -0.0735
 1427SOL    HW215915   0.512   3.719   9.831 -0.3269 -0.8654  1.3086
 1428SOL     OW15916   2.664   1.440  17.344  0.0017 -0.1032 -0.2671
 1428SOL    HW115917   2.755   1.462  17.364  0.2506 -1.6168  0.2780
 1428SOL    HW215918   2.677   1.404  17.256 -1.9468  0.6019 -0.8451
 1429SOL     OW15919   2.091   4.199   8.606  0.1401 -0.1562 -0.0747
 1429SOL    HW115920   2.060   4.203   8.696 -2.4427 -2.0016 -0.8527
 1429SOL    HW215921   2.168   4.142   8.616 -0.5190 -0.3845  3.5167
 1430SOL     OW15922   3.488   1.602  13.803 -0.4139 -0.1084 -0.1230
 1430SOL    HW115923   3.501   1.562  13.889  0.0188  1.4456  0.5352
 1430SOL    HW215924   3.549   1.555  13.746  2.1129 -0.2897  2.6801
 1431SOL     OW15925   1.971   1.030   5.783 -0.5650 -0.4555  0.2200
 1431SOL    HW115926   1.973   0.987   5.698 -1.3401 -0.2965  0.1237
 1431SOL    HW215927   2.031   1.104   5.767  1.2958 -2.0096  0.0424
 1432SOL     OW15928   3.724   2.369   4.421  0.7983  0.3461  0.0223
 1432SOL    HW115929   3.737   2.405   4.333  1.9848 -2.8621 -1.1061
 1432SOL    HW215930   3.643   2.321   4.404  1.6459 -1.1181  0.1158
 1433SOL     OW15931   2.730   2.937   4.283  0.5192 -0.8589 -0.1136
 1433SOL    HW115932   2.694   2.929   4.371 -0.8009  1.3220 -0.4599
 1433SOL    HW215933   2.666   2.999   4.250  0.9559 -1.5853 -2.3695
 1434SOL     OW15934   1.087   1.326   4.542 -0.4552 -0.1050  0.0941
 1434SOL    HW115935   1.001   1.333   4.584 -0.2073  1.4146  0.3602
 1434SOL    HW215936   1.098   1.231   4.540  1.7526  0.2460 -3.2069
 1435SOL     OW15937   2.902   4.554   3.227 -0.1089 -0.7735 -0.0464
 1435SOL    HW115938   2.882   4.587   3.314  0.8434 -0.6712  0.1416
 1435SOL    HW215939   2.813   4.537   3.196 -0.6648 -0.5060  1.4144
 1436SOL     OW15940   3.633   1.886  16.949 -0.0277 -0.9486 -0.5409
 1436SOL    HW115941   3.610   1.794  16.958  0.7999 -0.9532  1.4671
 1436SOL    HW215942   3.710   1.883  16.892 -0.2944  0.9568 -1.0188
 1437SOL     OW15943   3.185   0.394  16.112 -0.6147 -0.0940 -0.5045
 1437SOL    HW115944   3.208   0.451  16.039  1.5320 -1.5572 -0.9712
 1437SOL    HW215945   3.093   0.381  16.090 -1.0865  0.8929  0.9114
 1438SOL     OW15946   4.595   3.202  15.017  0.4302 -0.4269  0.2838
 1438SOL    HW115947   4.525   3.185  14.954 -0.7263 -0.8407  1.6996
 1438SOL    HW215948   4.596   3.297  15.012  2.0461 -0.4755 -0.5624
 1439SOL     OW15949   3.997   2.620   7.589 -0.0685  0.5857  0.2809
 1439SOL    HW115950   4.057   2.685   7.625  0.3764  0.3925 -0.1108
 1439SOL    HW215951   4.004   2.626   7.494 -1.0254  3.3189  0.4087
 1440SOL     OW15952   3.541   2.586  14.271  0.3001  0.3946  0.1651
 1440SOL    HW115953   3.632   2.565  14.289  0.1791  1.1660  1.7073
 1440SOL    HW215954   3.560   2.679  14.282 -0.1384  0.4777  0.2286
 1441SOL     OW15955   2.565   3.575  14.986 -0.2242 -1.0452  0.0833
 1441SOL    HW115956   2.595   3.665  15.001 -1.3960 -0.9583  1.8306
 1441SOL    HW215957   2.613   3.532  15.057 -1.9360 -1.4256  1.0143
 1442SOL     OW15958   0.688   3.859   4.406 -0.1215  0.1420 -0.4757
 1442SOL    HW115959   0.697   3.947   4.370  0.0883 -0.0807 -0.9735
 1442SOL    HW215960   0.755   3.858   4.474 -0.4885 -1.4725 -0.1490
 1443SOL     OW15961   2.958   3.475   5.934 -0.1147  0.1734 -0.2712
 1443SOL    HW115962   3.002   3.443   5.856 -1.8296 -1.7225 -0.4628
 1443SOL    HW215963   2.954   3.394   5.984 -0.6537  1.2615  1.4755
 1444SOL     OW15964   3.696   4.399  11.607  0.4129 -0.4718  0.4180
 1444SOL    HW115965   3.775   4.403  11.660  1.2799 -1.5584 -0.7792
 1444SOL    HW215966   3.687   4.486  11.568 -0.7444 -0.6626  0.2566
 1445SOL     OW15967   1.528   2.380   6.334  0.0896  0.3218 -0.1200
 1445SOL    HW115968   1.463   2.432   6.289 -1.1462 -0.3636  0.8769
 1445SOL    HW215969   1.529   2.419   6.422 -0.6370  0.7669 -0.3156
 1446SOL     OW15970   2.536   0.858  17.710  0.1203  0.2826  0.5883
 1446SOL    HW115971   2.594   0.791  17.748  1.8012  0.9860 -0.7557
 1446SOL    HW215972   2.588   0.935  17.691  0.2332  0.1784  0.4719
 1447SOL     OW15973   3.305   2.926  15.709 -0.1319  0.3581  0.5635
 1447SOL    HW115974   3.290   2.860  15.778  1.5962 -0.0484  0.5465
 1447SOL    HW215975   3.397   2.949  15.724  0.1943 -0.7713  0.2929
 1448SOL     OW15976   0.112   4.591   7.050  0.1054 -0.5369  0.2433
 1448SOL    HW115977   0.096   4.503   7.017  0.9132 -1.0404  1.2188
 1448SOL    HW215978   0.030   4.634   7.024 -0.1366 -1.0703  0.1281
 1449SOL     OW15979   4.378   1.943   4.729  0.1928  0.0417  0.2826
 1449SOL    HW115980   4.328   2.018   4.760 -1.3600  0.5776 -3.5049
 1449SOL    HW215981   4.324   1.899   4.664  1.4054 -0.3345 -0.4626
 1450SOL     OW15982   1.042   0.728   5.615 -0.1024  0.2959 -0.0857
 1450SOL    HW115983   1.133   0.717   5.643  0.1493  1.3842 -0.4768
 1450SOL    HW215984   1.047   0.720   5.520 -0.9821  1.2799 -0.2203
 1451SOL     OW15985   4.063   1.655   1.071 -0.0926  0.0119 -0.3123
 1451SOL    HW115986   3.994   1.673   1.006 -1.5569  0.0907  1.2600
 1451SOL    HW215987   4.075   1.565   1.041 -0.9246 -0.7377  1.5892
 1452SOL     OW15988   3.223   1.182   2.407 -0.0257  0.2359 -0.1393
 1452SOL    HW115989   3.171   1.173   2.486 -0.6207 -0.0849 -0.5710
 1452SOL    HW215990   3.267   1.098   2.399 -2.8964 -1.2446 -0.1068
 1453SOL     OW15991   1.563   2.896   2.670  1.0300 -0.3366 -0.1208
 1453SOL    HW115992   1.503   2.944   2.726 -1.3572  0.4300 -3.3004
 1453SOL    HW215993   1.559   2.807   2.702  1.7105 -0.8928 -1.5523
 1454SOL     OW15994   0.059   0.306   6.593 -0.2998 -0.5178  0.3978
 1454SOL    HW115995   0.051   0.214   6.619 -0.0829 -0.7738 -0.4174
 1454SOL    HW215996   0.091   0.290   6.504 -1.4621  0.2215 -0.1584
 1455SOL     OW15997   3.635   2.444   8.923 -0.2732 -0.4281 -0.8752
 1455SOL    HW115998   3.591   2.359   8.928  0.9053 -0.9441  0.7365
 1455SOL    HW215999   3.723   2.410   8.943  0.8685  3.8809  1.2935
 1456SOL     OW16000   1.701   0.551   1.836 -0.1926  0.0841 -0.4136
 1456SOL    HW116001   1.748   0.467   1.839  0.8927  0.6815 -0.6861
 1456SOL    HW216002   1.742   0.595   1.761 -2.1103  2.2439 -0.1876
 1457SOL     OW16003   0.197   0.430   3.122 -0.0221  0.2191 -0.2257
 1457SOL    HW116004   0.270   0.487   3.099  0.7874 -0.6001  0.3344
 1457SOL    HW216005   0.123   0.472   3.079 -0.3880  1.3127  1.4354
 1458SOL     OW16006   2.043   2.594  12.220 -0.6939 -0.0123  0.1916
 1458SOL    HW116007   2.027   2.521  12.280  2.5807 -0.9068  0.0096
 1458SOL    HW216008   2.133   2.610  12.251 -0.4416  0.2922 -0.6988
 1459SOL     OW16009   1.177   0.092  12.845  0.0675 -0.3498  0.9717
 1459SOL    HW116010   1.127   0.011  12.837  0.3369 -0.5713  1.5047
 1459SOL    HW216011   1.165   0.122  12.935 -0.2936  0.6371  0.5959
 1460SOL     OW16012   1.287   1.386   2.944 -0.1925 -0.2695  0.5821
 1460SOL    HW116013   1.305   1.372   2.851  1.2957 -0.4771  0.9006
 1460SOL    HW216014   1.227   1.460   2.934 -1.1944 -1.3438 -1.4941
 1461SOL     OW16015   4.118   2.753   8.908 -0.3228  0.4280  0.2618
 1461SOL    HW116016   4.114   2.691   8.835 -1.4748  0.2462  0.4801
 1461SOL    HW216017   4.057   2.711   8.969 -2.2882  1.5358 -0.9229
 1462SOL     OW16018   1.646   3.783  12.593 -0.3033  0.0724 -0.0255
 1462SOL    HW116019   1.741   3.771  12.591 -0.0841  1.9013 -0.1555
 1462SOL    HW216020   1.619   3.746  12.677 -1.3777 -0.6411 -0.6878
 1463SOL     OW16021   0.139   3.528   6.528 -0.3613  0.4611  0.2395
 1463SOL    HW116022   0.097   3.458   6.579  0.8007 -2.1502 -2.4113
 1463SOL    HW216023   0.135   3.489   6.441  4.1020 -0.4682  0.4372
 1464SOL     OW16024   3.802   1.766   2.085 -0.2677  0.4222  0.0537
 1464SOL    HW116025   3.867   1.708   2.045  0.3507  2.1307 -1.4231
 1464SOL    HW216026   3.834   1.766   2.175 -3.2042  0.3472  1.0992
 1465SOL     OW16027   2.852   0.258   8.931  0.1615 -0.2903 -0.1812
 1465SOL    HW116028   2.904   0.282   8.854 -0.9220  0.9492 -0.5268
 1465SOL    HW216029   2.922   0.283   8.991 -0.2577 -0.1671  0.2543
 1466SOL     OW16030   1.735   0.837   6.251  0.0266  0.2930 -0.1960
 1466SOL    HW116031   1.707   0.924   6.279 -3.2909 -0.5017 -0.9647
 1466SOL    HW216032   1.656   0.804   6.208  0.7091  0.0165 -1.2267
 1467SOL     OW16033   3.886   0.543   9.625 -0.5463  0.7019 -0.1135
 1467SOL    HW116034   3.912   0.504   9.709 -2.2628 -3.0517 -1.3128
 1467SOL    HW216035   3.907   0.475   9.561 -0.6094  0.2285  0.3761
 1468SOL     OW16036   2.161   0.889  10.442 -0.0179  0.4586  0.3240
 1468SOL    HW116037   2.144   0.945  10.366  2.0943 -0.0183 -0.4964
 1468SOL    HW216038   2.180   0.807  10.395  0.8584  0.0396  1.4226
 1469SOL     OW16039   1.662   3.393   7.207 -0.3301 -0.1758  0.0297
 1469SOL    HW116040   1.580   3.408   7.254 -1.4517  1.3865 -2.4111
 1469SOL    HW216041   1.629   3.320   7.154  1.0830 -0.5589 -0.3223
 1470SOL     OW16042   1.348   3.718   3.070 -0.1615 -0.4066  0.3218
 1470SOL    HW116043   1.344   3.678   3.157 -1.0477  1.3146  1.0863
 1470SOL    HW216044   1.311   3.657   3.007 -0.0676  0.1084 -0.2365
 1471SOL     OW16045   2.184   2.154   2.890  0.0456 -0.6273  0.7482
 1471SOL    HW116046   2.271   2.194   2.899 -1.3641  2.2408  1.4987
 1471SOL    HW216047   2.161   2.191   2.806  0.6331  0.6824  1.1627
 1472SOL     OW16048   0.128   0.020   1.800  0.1232  0.3360 -0.4503
 1472SOL    HW116049   0.095   4.685   1.747 -2.0866 -0.5240  2.1259
 1472SOL    HW216050   0.091   0.097   1.756 -0.0965 -0.0461 -0.9361
 1473SOL     OW16051   0.501   2.921   9.605  0.2314  0.6104  0.3752
 1473SOL    HW116052   0.586   2.936   9.565 -0.3737 -1.1837 -1.5894
 1473SOL    HW216053   0.496   2.999   9.661 -0.3368 -2.7771  5.1208
 1474SOL     OW16054   3.615   0.103   7.248  0.5243  0.6275 -0.0111
 1474SOL    HW116055   3.665   0.109   7.166 -0.0379 -2.3369 -0.5808
 1474SOL    HW216056   3.571   0.188   7.243 -0.3855  0.1697  0.3157
 1475SOL     OW16057   3.600   4.609   8.138 -0.3318  0.1306  0.3969
 1475SOL    HW116058   3.600   4.702   8.115 -1.9066  0.1096  0.3626
 1475SOL    HW216059   3.690   4.602   8.172 -1.3463 -0.8736  2.9005
 1476SOL     OW16060   0.608   4.391   7.877 -0.2053 -0.4187 -0.4345
 1476SOL    HW116061   0.559   4.310   7.880  1.0121 -1.0584  1.8626
 1476SOL    HW216062   0.556   4.460   7.919  0.1891 -1.6639  2.0790
 1477SOL     OW16063   2.783   1.418  13.065  0.1347  0.5970 -0.5229
 1477SOL    HW116064   2.728   1.345  13.036  0.8529 -0.3150  0.3898
 1477SOL    HW216065   2.837   1.372  13.129 -0.2553  1.4817  0.4554
 1478SOL     OW16066   0.647   2.613   7.716 -0.2912 -0.3366 -0.0342
 1478SOL    HW116067   0.623   2.687   7.660  1.5093  0.2217 -0.0624
 1478SOL    HW216068   0.730   2.641   7.755  0.1061 -1.2984 -0.1980
 1479SOL     OW16069   4.301   1.632  17.002 -0.5010 -0.0941 -0.0004
 1479SOL    HW116070   4.375   1.576  16.980 -0.8018 -0.1389 -0.9058
 1479SOL    HW216071   4.350   1.703  17.042 -1.0032  0.8459 -1.0674
 1480SOL     OW16072   0.079   0.420   8.875 -0.1305 -0.5627 -0.1757
 1480SOL    HW116073   0.087   0.433   8.969  0.3063 -0.1086 -0.2759
 1480SOL    HW216074   4.722   0.421   8.864 -0.1843 -3.1705  0.1258
 1481SOL     OW16075   3.543   4.262   7.655 -0.1094  0.1643 -0.3495
 1481SOL    HW116076   3.633   4.261   7.623 -0.4164 -1.3236 -1.1319
 1481SOL    HW216077   3.553   4.234   7.746  0.4476  1.3597 -0.0403
 1482SOL     OW16078   3.506   0.317   7.783  0.2383  0.1174 -0.4337
 1482SOL    HW116079   3.548   0.256   7.844 -1.3831 -0.4756  0.0957
 1482SOL    HW216080   3.535   0.399   7.823 -1.5652 -0.0145  1.1612
 1483SOL     OW16081   2.364   3.184   0.909 -0.0538 -0.0745  0.0708
 1483SOL    HW116082   2.333   3.192   0.999  3.5519  1.2164  1.1755
 1483SOL    HW216083   2.417   3.263   0.900 -0.2906 -0.0926 -1.4611
 1484SOL     OW16084   0.646   4.487   6.870 -0.4680 -0.6344 -0.0764
 1484SOL    HW116085   0.558   4.507   6.900  0.3187  0.1457  1.7108
 1484SOL    HW216086   0.648   4.391   6.872  1.8132 -0.5969 -0.0366
 1485SOL     OW16087   3.901   1.810   5.129 -0.1983  0.1483 -0.8777
 1485SOL    HW116088   3.909   1.714   5.136 -3.6480 -0.0398  0.3139
 1485SOL    HW216089   3.965   1.830   5.061 -1.5376 -0.5932 -2.3773
 1486SOL     OW16090   1.698   2.349   3.841 -0.0548  0.4494 -0.1313
 1486SOL    HW116091   1.712   2.302   3.923 -1.0197  0.1156 -0.1476
 1486SOL    HW216092   1.605   2.335   3.824 -0.0286  0.3799 -0.2144
 1487SOL     OW16093   3.763   3.311   6.553  0.4783 -0.1421 -0.1483
 1487SOL    HW116094   3.668   3.304   6.549  0.7189 -3.2800 -1.0165
 1487SOL    HW216095   3.767   3.263   6.636  4.4172 -0.3064 -0.4138
 1488SOL     OW16096   1.361   3.784   6.192  0.1297 -0.0187  0.0427
 1488SOL    HW116097   1.366   3.861   6.136 -1.1458  0.2445  0.2861
 1488SOL    HW216098   1.405   3.822   6.268 -2.6227 -1.7431  2.5075
 1489SOL     OW16099   2.201   2.749   9.148 -0.3463  0.5715  0.2509
 1489SOL    HW116100   2.135   2.818   9.140 -1.3045 -0.7480 -3.1506
 1489SOL    HW216101   2.176   2.724   9.237 -1.9745 -2.3693 -1.0228
 1490SOL     OW16102   2.726   0.880  16.624 -0.1249  0.2472  0.3561
 1490SOL    HW116103   2.704   0.792  16.591 -0.9270  0.6982 -0.3239
 1490SOL    HW216104   2.637   0.913  16.616 -0.2878 -0.3024 -0.1706
 1491SOL     OW16105   2.647   2.854   6.711  0.0055  0.0811  0.3306
 1491SOL    HW116106   2.716   2.851   6.644  0.8805 -1.4999  1.2941
 1491SOL    HW216107   2.643   2.949   6.722 -1.2039  0.2053 -1.2019
 1492SOL     OW16108   1.821   3.857   7.668  0.3166 -0.4028 -0.1798
 1492SOL    HW116109   1.829   3.951   7.648  1.4028 -0.7840 -1.4920
 1492SOL    HW216110   1.822   3.861   7.763  1.1863 -0.4466 -0.1926
 1493SOL     OW16111   0.924   3.009   3.344 -0.0602  0.5933 -0.1696
 1493SOL    HW116112   0.900   3.065   3.270 -2.2436 -0.4537 -0.2790
 1493SOL    HW216113   0.850   2.949   3.343  0.1521  0.3704 -1.8984
 1494SOL     OW16114   1.915   3.552   6.364  0.4201 -0.1575 -0.0935
 1494SOL    HW116115   1.844   3.554   6.300  1.0108 -0.4471 -0.7463
 1494SOL    HW216116   1.958   3.636   6.347 -0.6011  0.4169  0.1227
 1495SOL     OW16117   4.238   2.418   9.359  0.3183 -0.1430 -0.4649
 1495SOL    HW116118   4.200   2.358   9.294  0.3615 -0.2841 -0.3613
 1495SOL    HW216119   4.163   2.461   9.400  1.3627  0.9507  0.2716
 1496SOL     OW16120   1.659   4.502   7.085  0.3367 -0.9465 -0.1918
 1496SOL    HW116121   1.662   4.508   6.990 -1.5635  0.7069 -0.1459
 1496SOL    HW216122   1.727   4.562   7.115  0.2726 -1.0824  0.2314
 1497SOL     OW16123   3.305   0.452   4.232  0.3379  0.2277 -0.0214
 1497SOL    HW116124   3.226   0.408   4.201  1.7907 -3.8915  2.0862
 1497SOL    HW216125   3.331   0.379   4.288  1.2695  0.1978 -0.4928
 1498SOL     OW16126   0.338   0.281   2.941 -1.0874  0.2189 -0.6460
 1498SOL    HW116127   0.256   0.287   2.990 -1.3920  0.1541 -1.1511
 1498SOL    HW216128   0.359   0.188   2.945  0.1957  0.5000 -0.6583
 1499SOL     OW16129   1.808   4.301   2.060 -0.3039 -0.0063 -0.1211
 1499SOL    HW116130   1.731   4.298   2.117 -1.5543  0.2601 -1.7926
 1499SOL    HW216131   1.777   4.241   1.992 -0.0466 -0.8614  0.5018
 1500SOL     OW16132   1.525   0.413  13.127 -0.3311  0.2302 -0.0293
 1500SOL    HW116133   1.549   0.445  13.214  0.1250 -0.9061  0.2741
 1500SOL    HW216134   1.577   0.332  13.123 -1.1529 -0.4707  2.9094
 1501SOL     OW16135   2.771   1.329  12.769  0.0496 -0.0414  0.5117
 1501SOL    HW116136   2.800   1.416  12.796  0.0211 -0.4331  1.7858
 1501SOL    HW216137   2.703   1.301  12.831 -0.7020  1.4566  0.3815
 1502SOL     OW16138   0.957   1.446   5.162  0.1518 -0.5019 -0.1280
 1502SOL    HW116139   1.003   1.386   5.221 -2.3855 -1.8135  0.5323
 1502SOL    HW216140   0.998   1.529   5.185 -2.2412  1.5844 -3.4043
 1503SOL     OW16141   1.275   4.587   9.210  0.6700  0.5047  0.5124
 1503SOL    HW116142   1.305   4.643   9.138  1.5770  0.4562  0.8503
 1503SOL    HW216143   1.204   4.646   9.237  1.2998  1.3289  0.3770
 1504SOL     OW16144   1.659   3.148   2.213  0.0950 -0.1305 -0.2391
 1504SOL    HW116145   1.752   3.151   2.233  0.3834  0.8435 -1.7262
 1504SOL    HW216146   1.650   3.099   2.131 -2.4477 -0.8630  0.4515
 1505SOL     OW16147   2.707   2.338   6.483 -0.4273  0.2882 -0.0120
 1505SOL    HW116148   2.742   2.335   6.572  1.2773  1.4272 -0.6588
 1505SOL    HW216149   2.626   2.386   6.501 -0.0190 -0.3465  3.4694
 1506SOL     OW16150   0.117   0.879  11.858 -0.0973 -0.3931 -0.1536
 1506SOL    HW116151   0.146   0.825  11.784  0.1699 -2.4936  1.4781
 1506SOL    HW216152   0.039   0.827  11.880 -1.3591  1.1258 -1.0039
 1507SOL     OW16153   4.017   0.405  15.231 -0.1523 -0.4747  0.5284
 1507SOL    HW116154   3.974   0.488  15.254  1.9419  0.8879 -0.4663
 1507SOL    HW216155   4.106   0.422  15.199 -1.0769 -0.6293 -2.0791
 1508SOL     OW16156   3.829   2.059   8.814 -0.6201 -0.5323  0.1061
 1508SOL    HW116157   3.848   2.028   8.903 -0.4603 -0.7917 -0.0150
 1508SOL    HW216158   3.782   1.984   8.776 -2.3993  0.8813 -0.4470
 1509SOL     OW16159   1.477   1.718   1.655  0.2811  0.2683 -0.3001
 1509SOL    HW116160   1.436   1.800   1.681 -0.5288 -0.4220  0.6003
 1509SOL    HW216161   1.567   1.720   1.688 -0.0046  0.7515  0.4320
 1510SOL     OW16162   1.778   0.766   9.887  0.3614  0.0262 -0.2383
 1510SOL    HW116163   1.828   0.785   9.967 -2.2188  1.8371  0.9321
 1510SOL    HW216164   1.718   0.841   9.883 -0.2429 -0.3019  2.6108
 1511SOL     OW16165   0.226   3.077  11.139  0.1104 -0.2695  0.1583
 1511SOL    HW116166   0.149   3.130  11.157 -1.3684 -2.5767  0.5914
 1511SOL    HW216167   0.176   3.007  11.096 -0.8347  1.3906 -1.4554
 1512SOL     OW16168   2.182   3.187   2.335 -0.3244 -0.8116 -0.1586
 1512SOL    HW116169   2.193   3.279   2.362 -0.1311 -0.7672 -0.3896
 1512SOL    HW216170   2.270   3.158   2.313  0.0000  0.5762 -0.6759
 1513SOL     OW16171   4.670   3.824  14.479  0.3681  0.3809 -0.0865
 1513SOL    HW116172   4.665   3.748  14.421  2.5306 -1.8808  2.6758
 1513SOL    HW216173   0.027   3.829  14.487  0.5117  0.1559 -1.6055
 1514SOL     OW16174   0.691   2.429   0.761  0.1519  0.2349  0.5500
 1514SOL    HW116175   0.750   2.365   0.721 -0.2648  0.8103 -1.0079
 1514SOL    HW216176   0.753   2.484   0.809  0.0724  0.3534  0.5185
 1515SOL     OW16177   1.505   0.155   8.915  0.2059 -0.3704  0.4897
 1515SOL    HW116178   1.558   0.092   8.964  2.7869 -1.3053 -3.4786
 1515SOL    HW216179   1.558   0.234   8.928 -0.9408  0.7077 -1.3173
 1516SOL     OW16180   2.218   0.914   5.301 -0.7340 -0.1284  0.3350
 1516SOL    HW116181   2.148   0.944   5.359 -0.5371  1.9554 -0.5301
 1516SOL    HW216182   2.238   0.991   5.249  1.4672 -0.3970  0.7686
 1517SOL     OW16183   0.511   3.013   4.660  0.7100 -0.4990  0.0899
 1517SOL    HW116184   0.588   2.968   4.695 -0.1151 -2.6214 -0.8523
 1517SOL    HW216185   0.445   2.978   4.720  0.2072  0.4276  0.0876
 1518SOL     OW16186   2.566   0.932  11.037 -0.0288  0.0116 -0.1898
 1518SOL    HW116187   2.575   1.018  11.078  0.4126  0.5902 -1.5141
 1518SOL    HW216188   2.640   0.914  10.979 -1.0033  0.3587 -1.5442
 1519SOL     OW16189   3.374   0.246   9.359 -0.7083  0.0204 -0.4866
 1519SOL    HW116190   3.388   0.210   9.446 -0.5277 -0.3892 -0.6858
 1519SOL    HW216191   3.384   0.169   9.304 -0.9542 -1.1280  1.0732
 1520SOL     OW16192   3.007   0.886  11.716 -0.4486 -0.2423  0.2669
 1520SOL    HW116193   3.035   0.966  11.671  0.3112 -0.5872  0.1280
 1520SOL    HW216194   2.935   0.923  11.766 -1.2938 -1.4097 -0.0997
 1521SOL     OW16195   0.661   4.218   5.463 -0.0910  0.5448  0.5344
 1521SOL    HW116196   0.619   4.289   5.512  0.7568  0.8466  0.8138
 1521SOL    HW216197   0.716   4.185   5.533 -0.9140 -0.4454  0.7174
 1522SOL     OW16198   0.713   3.370   2.860 -0.5180  0.4967  0.0515
 1522SOL    HW116199   0.727   3.394   2.952 -0.2009 -0.0133  0.1355
 1522SOL    HW216200   0.741   3.453   2.822  0.1757  0.0482 -0.4126
 1523SOL     OW16201   4.554   0.742   4.616 -0.3729  0.2380 -0.0361
 1523SOL    HW116202   4.499   0.815   4.589 -1.4446 -1.5937 -2.8537
 1523SOL    HW216203   4.496   0.671   4.588 -0.3907 -0.0960  0.8654
 1524SOL     OW16204   0.354   2.334  15.704 -0.0799  0.1377  0.1100
 1524SOL    HW116205   0.410   2.404  15.738  0.1852  0.7513 -1.6203
 1524SOL    HW216206   0.310   2.384  15.636 -1.4733  1.3647  1.9016
 1525SOL     OW16207   4.703   0.469   7.739  0.4957 -0.6341 -0.2409
 1525SOL    HW116208   0.007   0.386   7.715  1.6998 -0.4569  1.1836
 1525SOL    HW216209   4.629   0.452   7.797 -0.0120  0.9046 -0.4450
 1526SOL     OW16210   4.355   2.374  17.082  0.2800  0.3253 -0.1594
 1526SOL    HW116211   4.343   2.284  17.053  0.5618 -0.3070  1.7213
 1526SOL    HW216212   4.331   2.425  17.004  1.0965  0.0263 -0.6032
 1527SOL     OW16213   3.574   3.370   6.926 -0.1229 -0.3900  0.0192
 1527SOL    HW116214   3.607   3.434   6.863  1.7069 -0.4282  0.9319
 1527SOL    HW216215   3.614   3.410   7.003  1.0730  3.7050 -2.7360
 1528SOL     OW16216   0.087   3.399  13.132  0.1382 -0.4359  0.6571
 1528SOL    HW116217   0.132   3.411  13.216  2.4071  3.4089 -1.0877
 1528SOL    HW216218   0.083   3.304  13.142 -0.0469 -0.3735  1.1907
 1529SOL     OW16219   4.506   3.879   9.625  0.1692 -0.0960  0.1908
 1529SOL    HW116220   4.569   3.919   9.565  0.3794  1.4192  1.4209
 1529SOL    HW216221   4.573   3.829   9.673  0.9339  0.1382 -0.6259
 1530SOL     OW16222   3.202   1.911  16.956  0.9509  0.1388  0.0314
 1530SOL    HW116223   3.245   1.828  16.971  1.7421  0.7578  1.1748
 1530SOL    HW216224   3.120   1.894  16.909  1.2589 -0.3789 -0.3190
 1531SOL     OW16225   2.457   2.719   5.463 -0.3494  0.5058 -0.0394
 1531SOL    HW116226   2.451   2.812   5.487 -0.8342  0.3102  0.5620
 1531SOL    HW216227   2.399   2.675   5.524  1.6801 -0.5299  1.1469
 1532SOL     OW16228   3.132   2.195   5.691  0.6650  0.7515 -0.2071
 1532SOL    HW116229   3.193   2.130   5.727  0.7623 -0.2080 -2.1177
 1532SOL    HW216230   3.051   2.167   5.733 -0.4136  2.7801 -0.9521
 1533SOL     OW16231   3.637   1.086   2.509  0.1463 -0.1211  0.4999
 1533SOL    HW116232   3.604   1.133   2.585  0.0889  0.8154 -0.1048
 1533SOL    HW216233   3.571   1.017   2.498 -1.0801  1.0202  0.7710
 1534SOL     OW16234   0.637   3.327   3.333 -0.1947  0.3511 -0.0811
 1534SOL    HW116235   0.608   3.339   3.424 -0.1350 -0.9517  0.1193
 1534SOL    HW216236   0.600   3.240   3.313 -1.9121  0.4735  2.5245
 1535SOL     OW16237   4.295   3.600   7.420 -0.4067  0.1674 -0.0324
 1535SOL    HW116238   4.200   3.603   7.431 -0.3415  2.2953 -0.1510
 1535SOL    HW216239   4.308   3.629   7.330 -1.6869 -1.3698 -0.7332
 1536SOL     OW16240   4.593   2.182   8.613 -0.6505  0.1107 -0.6437
 1536SOL    HW116241   4.688   2.173   8.623 -0.3239  1.3175 -2.7372
 1536SOL    HW216242   4.569   2.273   8.630  2.7445  0.3006  2.9918
 1537SOL     OW16243   1.382   3.831   6.895 -0.5955 -0.1991 -0.0941
 1537SOL    HW116244   1.314   3.875   6.945 -0.7885 -0.8637  0.2389
 1537SOL    HW216245   1.450   3.897   6.886  1.3677 -2.4924 -2.2612
 1538SOL     OW16246   3.965   4.400   4.424  0.0625  0.2421  0.0398
 1538SOL    HW116247   4.028   4.330   4.438 -1.6866 -1.1527  0.8372
 1538SOL    HW216248   3.883   4.351   4.429  0.4638 -0.6464 -2.0384
 1539SOL     OW16249   0.087   0.213   7.707 -0.1994  0.1218 -0.0732
 1539SOL    HW116250   0.019   0.149   7.727 -1.1462  1.6443  1.5323
 1539SOL    HW216251   0.143   0.175   7.638  0.5125 -0.3708  0.7810
 1540SOL     OW16252   2.256   2.536   8.209  0.0621 -0.0058 -0.0799
 1540SOL    HW116253   2.189   2.589   8.165  1.1548  1.7014  0.3339
 1540SOL    HW216254   2.321   2.605   8.219 -0.0720  0.3402 -1.5875
 1541SOL     OW16255   2.626   2.816   3.815  0.1466 -0.0758  0.2326
 1541SOL    HW116256   2.709   2.857   3.790 -0.2143  1.0339  0.8491
 1541SOL    HW216257   2.559   2.873   3.777  0.3742  0.6053  0.8675
 1542SOL     OW16258   1.493   0.412   6.058 -0.0802 -0.2701  0.1188
 1542SOL    HW116259   1.405   0.381   6.037 -0.6047  1.5446 -0.3952
 1542SOL    HW216260   1.488   0.507   6.065  1.9608 -0.0507 -1.2879
 1543SOL     OW16261   2.717   4.075   1.729  0.2245 -0.2151  0.4812
 1543SOL    HW116262   2.709   4.140   1.799  1.3564  1.3790 -0.8805
 1543SOL    HW216263   2.704   3.994   1.778  0.1234 -0.6019 -0.1950
 1544SOL     OW16264   1.958   4.475   8.122 -0.4708  0.3204 -0.3625
 1544SOL    HW116265   1.889   4.412   8.145  1.9394 -2.8651 -1.9161
 1544SOL    HW216266   2.032   4.456   8.180 -0.7209 -0.8422 -0.4154
 1545SOL     OW16267   3.760   3.504   6.101 -0.1975  0.2792  0.4121
 1545SOL    HW116268   3.765   3.414   6.132 -0.5821  0.2984  0.5259
 1545SOL    HW216269   3.671   3.513   6.067 -0.0803  0.1365  0.0707
 1546SOL     OW16270   0.618   4.594   5.480  0.4444 -0.1829  0.2719
 1546SOL    HW116271   0.533   4.637   5.489  0.3189 -0.1322 -1.1622
 1546SOL    HW216272   0.604   4.518   5.536  0.7296 -0.1093  0.4423
 1547SOL     OW16273   2.939   2.890  10.864 -0.6405  0.0566 -0.0744
 1547SOL    HW116274   2.894   2.813  10.829 -1.1076 -0.2064  1.0884
 1547SOL    HW216275   2.892   2.896  10.947 -0.0054 -3.0618  0.5320
 1548SOL     OW16276   0.865   2.723   8.153 -0.0132  0.4042 -0.1053
 1548SOL    HW116277   0.945   2.679   8.123  0.6390  2.1535 -0.9351
 1548SOL    HW216278   0.791   2.670   8.125 -0.7052  1.7077 -0.7174
 1549SOL     OW16279   0.427   0.684  11.610 -0.0125 -0.0614 -0.3910
 1549SOL    HW116280   0.335   0.686  11.636  0.0310 -3.6525 -0.0087
 1549SOL    HW216281   0.469   0.722  11.687 -0.9414  1.0592 -0.4443
 1550SOL     OW16282   2.819   3.689   6.539  0.0843  1.0121  0.0728
 1550SOL    HW116283   2.735   3.659   6.505  0.0541 -0.0299  1.0764
 1550SOL    HW216284   2.889   3.635   6.501 -1.7694  0.0080 -1.9014
 1551SOL     OW16285   3.991   2.442   4.703 -0.5803  0.2256 -0.0542
 1551SOL    HW116286   4.081   2.445   4.671 -1.0510  1.3366 -1.2917
 1551SOL    HW216287   3.965   2.531   4.679  1.3557  0.5380 -0.9608
 1552SOL     OW16288   1.166   1.643   7.040  0.4246  0.0549  0.1863
 1552SOL    HW116289   1.168   1.629   7.134 -0.2024  0.1423  0.2069
 1552SOL    HW216290   1.077   1.628   7.009  0.6999 -1.4734  0.0986
 1553SOL     OW16291   1.523   1.661   9.910 -0.3705 -0.2792 -0.1952
 1553SOL    HW116292   1.549   1.715   9.836 -0.0006  0.4975  0.4941
 1553SOL    HW216293   1.596   1.677   9.970 -1.1574 -0.9404  0.9428
 1554SOL     OW16294   2.392   0.208  10.763 -0.4661  0.6463  0.1146
 1554SOL    HW116295   2.343   0.275  10.809 -1.3465 -0.0632  0.2197
 1554SOL    HW216296   2.485   0.221  10.781 -1.1844  2.7965  2.1696
 1555SOL     OW16297   4.558   1.187   4.639 -0.0750  0.0277 -0.1273
 1555SOL    HW116298   4.647   1.154   4.645 -0.5263 -0.8821  1.5841
 1555SOL    HW216299   4.555   1.282   4.627  2.2923  0.1162  0.1107
 1556SOL     OW16300   1.963   2.852  15.281  0.3199  0.0658 -0.1948
 1556SOL    HW116301   1.869   2.868  15.292  0.1623 -0.1267 -1.3505
 1556SOL    HW216302   1.996   2.925  15.333  1.6832  0.2111 -1.2754
 1557SOL     OW16303   1.126   1.337  15.267 -0.1067 -0.2501  0.1487
 1557SOL    HW116304   1.109   1.247  15.242  0.0574 -0.7450  1.7697
 1557SOL    HW216305   1.155   1.332  15.359  0.4310 -1.9768 -0.1256
 1558SOL     OW16306   0.485   0.970   6.681  0.0451 -0.5776  0.4466
 1558SOL    HW116307   0.418   0.902   6.679 -0.0255 -0.4573 -1.0754
 1558SOL    HW216308   0.427   1.046   6.668  1.0258 -0.3480 -2.6309
 1559SOL     OW16309   2.199   2.754   3.616 -0.2677  0.7090 -0.5814
 1559SOL    HW116310   2.134   2.706   3.564 -0.9860  0.1892  0.7682
 1559SOL    HW216311   2.259   2.803   3.560 -1.2538 -0.7979 -2.9439
 1560SOL     OW16312   1.709   3.661   3.992 -0.4162  0.5681 -0.4094
 1560SOL    HW116313   1.736   3.571   4.010  0.8207  0.5141 -2.6340
 1560SOL    HW216314   1.615   3.641   3.998 -0.4186  0.9594  1.0346
 1561SOL     OW16315   1.181   2.472   8.632 -0.0540 -0.0967  0.4728
 1561SOL    HW116316   1.155   2.394   8.584  0.7670 -0.4967  0.6833
 1561SOL    HW216317   1.144   2.452   8.718 -1.2259  0.6145  0.1337
 1562SOL     OW16318   2.854   3.636   6.197  0.4985  0.1904 -0.3815
 1562SOL    HW116319   2.915   3.705   6.173 -0.2423  1.4616  1.4039
 1562SOL    HW216320   2.826   3.605   6.111  1.4259  2.3347 -1.4494
 1563SOL     OW16321   2.095   0.965   9.864  0.1754  0.2979  0.0816
 1563SOL    HW116322   2.182   0.936   9.893  1.6431  3.1981 -1.3717
 1563SOL    HW216323   2.071   1.022   9.937 -1.5436 -0.9625  0.4835
 1564SOL     OW16324   4.465   3.789  11.443  0.0713  0.0101 -0.0549
 1564SOL    HW116325   4.379   3.781  11.402 -0.1189 -1.8080  0.7071
 1564SOL    HW216326   4.473   3.884  11.434  3.1909 -0.1088  1.2538
 1565SOL     OW16327   0.928   1.425   2.485  0.1497  0.1885 -0.4395
 1565SOL    HW116328   0.852   1.470   2.449 -0.6436 -0.5793  0.2803
 1565SOL    HW216329   0.958   1.487   2.552 -0.9211  0.5728 -0.3259
 1566SOL     OW16330   3.784   2.684   8.620 -0.1794  0.0637  0.1423
 1566SOL    HW116331   3.818   2.664   8.707 -2.0046 -0.3142  0.7685
 1566SOL    HW216332   3.691   2.690   8.641 -0.7499 -0.6920 -2.2053
 1567SOL     OW16333   4.186   1.669   5.530  0.4308 -0.6820 -0.0425
 1567SOL    HW116334   4.276   1.645   5.509  1.9667  3.7073  1.3658
 1567SOL    HW216335   4.197   1.721   5.610 -0.6873 -0.5819  0.0514
 1568SOL     OW16336   4.383   2.572   4.864  0.3661  0.5294 -0.4344
 1568SOL    HW116337   4.368   2.666   4.865  4.5232  1.2005 -1.3320
 1568SOL    HW216338   4.455   2.561   4.926  0.7388  0.3645 -0.8925
 1569SOL     OW16339   3.109   0.013   5.853 -0.1783  0.0699 -0.0297
 1569SOL    HW116340   3.032   4.713   5.809 -1.1166 -0.4106  2.0439
 1569SOL    HW216341   3.178   0.000   5.787  0.4604  2.0511  0.2520
 1570SOL     OW16342   2.211   0.596   6.617 -0.5365  0.1439 -0.1696
 1570SOL    HW116343   2.165   0.666   6.571  1.0772  1.5685  0.3872
 1570SOL    HW216344   2.255   0.555   6.543  0.3409  0.2272  0.3032
 1571SOL     OW16345   0.632   4.507   3.371  0.0221 -0.3053 -0.0944
 1571SOL    HW116346   0.722   4.497   3.340  0.6995 -0.2259  1.8586
 1571SOL    HW216347   0.639   4.462   3.455 -1.2306 -0.3026  0.0140
 1572SOL     OW16348   4.410   2.638   3.918 -0.9626  0.2953  0.0542
 1572SOL    HW116349   4.424   2.723   3.878  0.6089  0.5014  1.0194
 1572SOL    HW216350   4.449   2.574   3.858  0.3041  0.8552  0.2780
 1573SOL     OW16351   2.329   2.612   6.299  0.0176  0.7503  0.8674
 1573SOL    HW116352   2.361   2.542   6.242 -3.0883 -1.1391  1.4417
 1573SOL    HW216353   2.249   2.631   6.251  0.6186 -2.9209 -1.5588
 1574SOL     OW16354   2.518   1.301   5.426  0.5867  0.2356  0.8815
 1574SOL    HW116355   2.428   1.288   5.456  0.0215 -1.6277 -1.5225
 1574SOL    HW216356   2.567   1.257   5.495 -2.1303  0.0288  2.6713
 1575SOL     OW16357   2.437   0.012  12.114  0.1051  0.5859  0.5228
 1575SOL    HW116358   2.379   0.076  12.154 -1.1752 -0.0095 -0.3795
 1575SOL    HW216359   2.511   0.020  12.175  0.5304 -0.3399  0.1346
 1576SOL     OW16360   0.908   1.246   9.680 -0.1628  0.5087  0.3509
 1576SOL    HW116361   0.947   1.186   9.617  1.5332  1.5513  0.3937
 1576SOL    HW216362   0.980   1.257   9.743  0.2451  0.2559 -0.0686
 1577SOL     OW16363   0.597   1.450  13.047  0.5352 -0.0123  0.4683
 1577SOL    HW116364   0.663   1.438  12.979 -0.3923 -2.1615 -0.0212
 1577SOL    HW216365   0.635   1.513  13.108  0.3302  1.4560 -0.9264
 1578SOL     OW16366   0.176   2.103   7.999 -0.1078 -0.3194 -0.3093
 1578SOL    HW116367   0.253   2.160   8.009 -1.2796  1.3366 -0.7493
 1578SOL    HW216368   0.168   2.086   7.905 -1.6154 -0.9861 -0.0650
 1579SOL     OW16369   2.734   3.331   1.985 -0.3472  0.0290 -0.2899
 1579SOL    HW116370   2.657   3.275   1.984  2.6995 -4.1706  1.4691
 1579SOL    HW216371   2.703   3.418   2.012 -0.2016 -0.0064 -0.0054
 1580SOL     OW16372   0.124   3.668   6.921 -0.1619 -0.4215 -0.2152
 1580SOL    HW116373   0.196   3.716   6.880 -0.5699 -0.9650 -1.5608
 1580SOL    HW216374   0.054   3.731   6.908 -0.5858 -0.7788  0.3285
 1581SOL     OW16375   4.357   1.764  11.947 -0.7671  0.2803 -0.0030
 1581SOL    HW116376   4.409   1.833  11.987 -0.4192 -0.7882  1.3827
 1581SOL    HW216377   4.404   1.763  11.863 -0.3003  1.2948  0.2536
 1582SOL     OW16378   1.081   3.159   7.070  0.4662  0.0776 -0.0073
 1582SOL    HW116379   1.036   3.180   7.153 -0.7228 -3.0239  0.1332
 1582SOL    HW216380   1.111   3.070   7.087  0.4588 -0.2981 -2.0033
 1583SOL     OW16381   2.894   1.426   5.656 -0.3714 -0.0994 -0.2825
 1583SOL    HW116382   2.807   1.450   5.686 -0.4276  0.7434 -1.1233
 1583SOL    HW216383   2.895   1.336   5.690  1.8693 -0.9189 -2.4644
 1584SOL     OW16384   2.804   2.383   4.680  0.5015 -0.7334  0.0257
 1584SOL    HW116385   2.792   2.292   4.654 -2.1028 -0.2151 -0.5418
 1584SOL    HW216386   2.717   2.413   4.655  0.5376 -1.2034 -0.6601
 1585SOL     OW16387   0.933   3.184   5.226  0.1728  0.4356 -0.3446
 1585SOL    HW116388   0.933   3.275   5.256  0.0415  0.9417 -1.8662
 1585SOL    HW216389   0.878   3.145   5.294  1.7985  0.1826  0.8227
 1586SOL     OW16390   3.099   3.445   4.906 -0.4971  0.5169 -0.3415
 1586SOL    HW116391   3.065   3.501   4.837 -1.8445  0.5726  0.3791
 1586SOL    HW216392   3.111   3.359   4.865  0.4976  0.6962 -0.4287
 1587SOL     OW16393   1.439   4.083  16.282 -0.0638  0.1312  0.7576
 1587SOL    HW116394   1.369   4.140  16.249  1.0137  0.8824 -0.2515
 1587SOL    HW216395   1.508   4.110  16.221  0.1471  0.6934  1.2449
 1588SOL     OW16396   3.396   3.836   6.732 -0.0944 -0.6640 -0.2727
 1588SOL    HW116397   3.344   3.915   6.747  2.3681  0.4628  2.3441
 1588SOL    HW216398   3.344   3.798   6.661 -1.2434 -0.3851  0.4235
 1589SOL     OW16399   0.026   3.008   6.035  0.6842  0.4982 -0.1728
 1589SOL    HW116400   0.071   2.924   6.040 -0.1293  0.0888  0.1933
 1589SOL    HW216401   4.683   2.984   5.989  0.2979  2.3360 -0.4762
 1590SOL     OW16402   0.945   2.113   7.975  0.3701 -0.2888  0.1949
 1590SOL    HW116403   0.933   2.062   8.055  1.5329  0.6120  0.9423
 1590SOL    HW216404   0.877   2.067   7.926 -1.2114  0.7955  1.3788
 1591SOL     OW16405   3.718   1.637   4.035 -0.0679  0.4040 -0.3318
 1591SOL    HW116406   3.705   1.558   3.983 -0.1742  0.4860 -0.4293
 1591SOL    HW216407   3.757   1.594   4.111 -0.0519 -1.0262 -1.1539
 1592SOL     OW16408   3.917   4.610   9.105 -0.6234  0.4927 -0.2805
 1592SOL    HW116409   3.924   4.514   9.107  0.3917  0.5993  0.9942
 1592SOL    HW216410   3.852   4.627   9.037 -1.1844 -2.2183 -0.4305
 1593SOL     OW16411   4.185   3.319   3.518  1.1603  0.2199 -0.1160
 1593SOL    HW116412   4.179   3.414   3.520  1.0338  0.2299 -0.8449
 1593SOL    HW216413   4.273   3.305   3.554  1.2241 -1.5642 -0.9138
 1594SOL     OW16414   4.645   0.544   2.628  0.0738  0.4811  0.2204
 1594SOL    HW116415   4.557   0.506   2.623  1.1694 -2.2949  2.0140
 1594SOL    HW216416   4.683   0.518   2.544 -0.3436  2.4389 -0.5655
 1595SOL     OW16417   4.191   1.040   1.486  0.0473  0.2165  0.1915
 1595SOL    HW116418   4.127   0.972   1.504  1.2027 -0.9171  0.0187
 1595SOL    HW216419   4.137   1.101   1.435  1.6609  1.5783  0.0898
 1596SOL     OW16420   1.782   2.360   9.151 -0.2567  0.4763  0.8772
 1596SOL    HW116421   1.686   2.353   9.145  0.1752 -3.7484 -1.6027
 1596SOL    HW216422   1.808   2.331   9.063  0.3462 -1.0453  1.5448
 1597SOL     OW16423   4.580   0.770  17.336 -0.2156 -0.3899 -0.6706
 1597SOL    HW116424   4.612   0.686  17.301  1.2981  0.0064 -0.1841
 1597SOL    HW216425   4.618   0.766  17.424  0.1375  0.2291 -0.7961
 1598SOL     OW16426   2.281   2.583   3.343  0.0243 -0.0752  0.2664
 1598SOL    HW116427   2.261   2.603   3.434  0.1257  0.9349  0.0717
 1598SOL    HW216428   2.352   2.645   3.325  0.3081  0.0311  1.7159
 1599SOL     OW16429   0.660   4.556  14.266  0.3841 -0.0394  0.0246
 1599SOL    HW116430   0.714   4.477  14.268  1.0245  0.4260  0.9261
 1599SOL    HW216431   0.724   4.624  14.288  0.6747  0.1196 -1.2797
 1600SOL     OW16432   0.618   0.271   0.186  0.0204 -0.0782 -0.2554
 1600SOL    HW116433   0.696   0.299   0.234  0.4602 -3.6256  1.0645
 1600SOL    HW216434   0.629   0.176   0.193  0.5304  0.0319  0.4347
 1601SOL     OW16435   1.562   4.418  15.939 -0.1050 -0.1333 -0.3210
 1601SOL    HW116436   1.515   4.455  16.013 -0.7016  1.9126 -1.7149
 1601SOL    HW216437   1.618   4.489  15.907 -2.0670  0.5802 -2.1727
 1602SOL     OW16438   1.947   3.719  11.772 -0.5163  0.0096  0.0370
 1602SOL    HW116439   1.867   3.722  11.824  0.0621 -1.2679  0.9857
 1602SOL    HW216440   1.950   3.803  11.726 -0.6383  0.1310  0.2497
 1603SOL     OW16441   2.060   3.456  11.361 -0.3369  0.3530  0.3970
 1603SOL    HW116442   2.058   3.360  11.367  1.7921  0.3966  2.0001
 1603SOL    HW216443   2.049   3.469  11.455 -2.3742  0.0517  0.1981
 1604SOL     OW16444   4.257   3.658  11.958  0.0756  0.7811  0.0608
 1604SOL    HW116445   4.180   3.633  11.906  2.0485 -0.6540 -2.2167
 1604SOL    HW216446   4.324   3.648  11.890 -0.5445  1.4557 -0.6590
 1605SOL     OW16447   1.555   0.111   6.543 -0.0517 -0.1560 -0.1112
 1605SOL    HW116448   1.468   0.111   6.502 -0.5203  0.2307  0.8911
 1605SOL    HW216449   1.583   0.190   6.498 -2.0010  0.2393 -0.6257
 1606SOL     OW16450   1.761   3.688  11.025  0.6400 -0.1806  0.3458
 1606SOL    HW116451   1.838   3.631  11.033  0.9751  0.3347  0.8171
 1606SOL    HW216452   1.749   3.722  11.113  3.5144  2.3801 -0.2562
 1607SOL     OW16453   1.695   3.507   6.646  0.4929 -0.3413 -0.2518
 1607SOL    HW116454   1.656   3.558   6.717  0.4471  0.7529 -1.0650
 1607SOL    HW216455   1.655   3.548   6.570 -1.0117 -0.1255  0.6610
 1608SOL     OW16456   3.492   2.843  14.642 -0.5860 -0.4727 -0.0456
 1608SOL    HW116457   3.505   2.907  14.712 -1.3021 -2.5081  1.9581
 1608SOL    HW216458   3.412   2.869  14.597  0.1120 -2.1776 -2.3158
 1609SOL     OW16459   2.163   2.396  14.052 -0.4440 -0.0945 -0.5155
 1609SOL    HW116460   2.246   2.351  14.036  0.2573  1.3599 -0.9738
 1609SOL    HW216461   2.163   2.480  14.006  1.9342  0.1591 -0.0625
 1610SOL     OW16462   1.237   2.994   6.271  0.1652  0.1990 -0.2316
 1610SOL    HW116463   1.173   2.957   6.331  1.4198  0.1101  1.0705
 1610SOL    HW216464   1.314   2.949   6.307 -0.4786 -1.2870 -0.7180
 1611SOL     OW16465   1.303   0.707   7.673 -0.5254  0.0619  0.2331
 1611SOL    HW116466   1.289   0.651   7.750  2.2136  0.6039  1.1089
 1611SOL    HW216467   1.286   0.651   7.598  1.4422 -1.6180  1.0544
 1612SOL     OW16468   1.315   2.444   1.052  0.6572  0.4975 -0.1829
 1612SOL    HW116469   1.403   2.460   1.087  0.5547 -0.2353  0.4070
 1612SOL    HW216470   1.293   2.532   1.022 -0.9948  0.1947  0.1464
 1613SOL     OW16471   3.721   3.975  12.236 -0.1250 -0.2420 -0.9487
 1613SOL    HW116472   3.658   4.000  12.303  0.2202  0.2477 -0.8046
 1613SOL    HW216473   3.784   3.913  12.274 -1.7346 -1.7001 -0.6603
 1614SOL     OW16474   2.392   1.574   6.109 -0.0596  0.1640  0.3871
 1614SOL    HW116475   2.321   1.514   6.088  0.4092 -0.7368  1.3242
 1614SOL    HW216476   2.344   1.627   6.173  0.2796  1.2593 -0.2688
 1615SOL     OW16477   0.247   4.387   9.346 -0.0205  0.7232  0.1316
 1615SOL    HW116478   0.185   4.418   9.412 -3.2442 -0.2396 -2.4550
 1615SOL    HW216479   0.295   4.320   9.394 -1.0129  0.9309  1.4129
 1616SOL     OW16480   1.323   0.626   9.743 -0.5454  0.0258  0.2563
 1616SOL    HW116481   1.272   0.550   9.773 -0.6687 -0.0479 -0.1473
 1616SOL    HW216482   1.339   0.608   9.651 -1.0662  1.8501 -0.1845
 1617SOL     OW16483   0.924   2.642   3.171 -0.7743  0.0371 -0.4150
 1617SOL    HW116484   0.905   2.724   3.217  1.4705  0.9364 -1.0775
 1617SOL    HW216485   0.947   2.592   3.249 -4.5234  0.8446  1.2099
 1618SOL     OW16486   1.557   3.887  11.097  0.1861 -0.4725  0.3109
 1618SOL    HW116487   1.481   3.910  11.044  0.2523 -0.3892  0.2507
 1618SOL    HW216488   1.612   3.832  11.041  0.8367 -0.4992  0.9739
 1619SOL     OW16489   4.475   1.709   5.904 -0.0971  0.1757 -0.5415
 1619SOL    HW116490   4.419   1.672   5.973 -0.3407 -1.2784 -1.5187
 1619SOL    HW216491   4.433   1.665   5.830 -1.8540 -3.2284  2.4730
 1620SOL     OW16492   0.239   4.732  15.225 -0.3793  0.5483 -0.4208
 1620SOL    HW116493   0.265   0.049  15.151  1.1190 -0.8751 -0.9634
 1620SOL    HW216494   0.317   4.676  15.238  0.6433  1.5536 -2.2485
 1621SOL     OW16495   0.718   2.951   9.201  0.3074 -0.0291 -0.0972
 1621SOL    HW116496   0.744   3.034   9.162  0.2436  0.2429  0.4421
 1621SOL    HW216497   0.800   2.902   9.201  1.2037  1.4865 -3.0042
 1622SOL     OW16498   1.252   0.847   8.725  0.1887  0.2300  0.3698
 1622SOL    HW116499   1.340   0.828   8.693 -0.3302  0.3829 -1.1537
 1622SOL    HW216500   1.223   0.757   8.739 -1.2881  0.5234 -0.8423
 1623SOL     OW16501   3.988   2.929   8.283  0.2769  0.2761 -0.0309
 1623SOL    HW116502   3.955   2.930   8.373 -2.7060  1.6045 -1.1629
 1623SOL    HW216503   3.939   3.005   8.254  1.5601  0.8818 -0.5997
 1624SOL     OW16504   0.029   1.941   8.691 -0.4539 -0.1972 -0.4520
 1624SOL    HW116505   0.064   1.852   8.694 -2.2865 -0.9454 -1.1519
 1624SOL    HW216506   0.063   1.962   8.604  0.4185 -2.5373 -0.6754
 1625SOL     OW16507   3.310   1.364   6.196  0.2768  0.3797 -0.6441
 1625SOL    HW116508   3.360   1.434   6.237 -0.5571  0.4007  0.3475
 1625SOL    HW216509   3.238   1.413   6.154 -1.2053 -0.8147  0.4920
 1626SOL     OW16510   0.940   0.284  12.601 -0.4196 -0.1495  0.5069
 1626SOL    HW116511   0.991   0.356  12.640  1.0314 -2.2978  2.5720
 1626SOL    HW216512   0.874   0.325  12.546 -1.5533 -1.0896  1.1806
 1627SOL     OW16513   3.492   3.845  15.890 -0.4887 -0.0614 -0.2478
 1627SOL    HW116514   3.543   3.924  15.906 -1.3902  0.4571  0.0282
 1627SOL    HW216515   3.538   3.777  15.940 -0.0094  1.4800  1.3911
 1628SOL     OW16516   0.772   4.071   8.159 -0.7772 -0.2862 -0.1286
 1628SOL    HW116517   0.687   4.029   8.146 -0.9493  0.4049 -1.2975
 1628SOL    HW216518   0.743   4.158   8.188  1.7224  0.7281 -0.6596
 1629SOL     OW16519   4.018   3.551  11.873  0.1082 -0.5714 -0.3098
 1629SOL    HW116520   3.985   3.509  11.952  0.4339 -1.7260 -0.7807
 1629SOL    HW216521   3.938   3.598  11.852  1.4698  1.3649 -1.2012
 1630SOL     OW16522   4.434   0.098   1.188 -0.1235  0.6000 -0.0728
 1630SOL    HW116523   4.395   0.012   1.173 -0.6313  0.3552  2.7679
 1630SOL    HW216524   4.429   0.136   1.100 -0.1813  0.4707 -0.1250
 1631SOL     OW16525   3.062   3.720   5.991 -0.4326  0.0264 -0.1710
 1631SOL    HW116526   3.080   3.742   5.900  0.3790  0.0535 -0.0007
 1631SOL    HW216527   3.034   3.629   5.980  0.0257 -0.3507  1.6907
 1632SOL     OW16528   2.177   3.199   4.585  0.3396  0.3036  0.0751
 1632SOL    HW116529   2.094   3.152   4.590  0.3589  0.1162 -1.4650
 1632SOL    HW216530   2.228   3.137   4.636  1.2965 -0.2116 -1.5247
 1633SOL     OW16531   2.100   4.355   5.503 -0.0171 -0.3100 -0.3462
 1633SOL    HW116532   2.099   4.328   5.594  0.0092  1.4743  0.1889
 1633SOL    HW216533   2.171   4.419   5.502 -0.2055 -0.1018  0.2657
 1634SOL     OW16534   0.479   0.977   7.416  0.0995  0.1767 -0.5982
 1634SOL    HW116535   0.533   1.055   7.427 -1.2215  1.0424 -0.2777
 1634SOL    HW216536   0.461   0.952   7.506 -3.5517 -1.8309 -1.8578
 1635SOL     OW16537   0.839   4.550   6.090 -0.2093  1.0971 -0.4493
 1635SOL    HW116538   0.770   4.594   6.138 -2.1704 -1.9329 -0.5108
 1635SOL    HW216539   0.879   4.504   6.164 -1.9893  2.9469  1.6439
 1636SOL     OW16540   2.506   2.959   7.441 -0.6025  0.1917  0.4243
 1636SOL    HW116541   2.452   3.036   7.460 -1.3540 -0.3031  0.2886
 1636SOL    HW216542   2.470   2.931   7.357  0.5395  0.2731 -0.0946
 1637SOL     OW16543   2.677   3.036   0.673 -0.6941  0.2269  0.0580
 1637SOL    HW116544   2.748   2.972   0.671 -1.8488 -1.0920  1.8197
 1637SOL    HW216545   2.642   3.025   0.585 -2.4533 -0.6316  0.8786
 1638SOL     OW16546   3.861   1.463   9.814  0.7925  0.0099 -0.3604
 1638SOL    HW116547   3.850   1.510   9.732 -1.9225 -1.6737 -0.9551
 1638SOL    HW216548   3.828   1.529   9.875  0.3233 -1.4337  0.9487
 1639SOL     OW16549   1.371   3.482   5.528  0.2774  1.1289 -0.2975
 1639SOL    HW116550   1.402   3.441   5.447  0.7388  1.4890 -0.2995
 1639SOL    HW216551   1.416   3.565   5.513  1.1745  0.6667 -0.1326
 1640SOL     OW16552   0.969   2.129   5.267  0.2023  0.1475 -0.4372
 1640SOL    HW116553   0.900   2.073   5.303 -1.0973  1.4013 -0.9915
 1640SOL    HW216554   1.046   2.087   5.305  0.2805  2.8140  2.4237
 1641SOL     OW16555   1.690   3.354   7.606 -0.0327  0.3285 -0.0180
 1641SOL    HW116556   1.615   3.363   7.548  1.5936 -1.4446 -2.4334
 1641SOL    HW216557   1.753   3.411   7.562  0.5534  0.4375  0.9614
 1642SOL     OW16558   3.917   1.317  15.104  0.0310 -0.2038  0.2762
 1642SOL    HW116559   3.898   1.410  15.093  0.6619  0.1635  2.3759
 1642SOL    HW216560   3.998   1.311  15.054 -0.0633  3.0182 -0.2768
 1643SOL     OW16561   2.688   4.194   1.974  0.4471 -0.0572  0.5069
 1643SOL    HW116562   2.738   4.246   2.037 -0.9963 -1.9758  3.2216
 1643SOL    HW216563   2.611   4.161   2.019  0.7686 -2.0986 -0.4151
 1644SOL     OW16564   2.584   1.853   9.138  0.2174  0.1682  0.1736
 1644SOL    HW116565   2.639   1.927   9.165  1.9637 -0.8596 -0.5335
 1644SOL    HW216566   2.627   1.776   9.177 -4.1029 -1.7252  1.1397
 1645SOL     OW16567   1.455   4.607   3.637  0.2718 -0.2349 -0.0047
 1645SOL    HW116568   1.413   4.692   3.629 -1.1244 -0.7107  2.6276
 1645SOL    HW216569   1.446   4.566   3.551  0.0515  3.2487 -1.6270
 1646SOL     OW16570   2.112   4.331  16.580  0.0816 -0.3857 -0.3137
 1646SOL    HW116571   2.043   4.394  16.562  0.5637 -0.0382 -0.9520
 1646SOL    HW216572   2.158   4.326  16.496  0.4364 -1.8522 -0.0330
 1647SOL     OW16573   1.938   1.045   4.832 -0.0062 -0.0542 -0.7894
 1647SOL    HW116574   2.019   1.027   4.880  1.6070  1.7683 -2.7946
 1647SOL    HW216575   1.955   1.128   4.787 -0.3938  1.0118  1.0343
 1648SOL     OW16576   1.960   3.431   6.633 -0.5673 -0.2415 -0.3011
 1648SOL    HW116577   1.969   3.436   6.538 -0.8196 -1.7074 -0.4004
 1648SOL    HW216578   1.871   3.462   6.646 -1.1000 -1.1926 -1.7950
 1649SOL     OW16579   0.629   1.959  14.125 -0.2198  0.1947 -0.1138
 1649SOL    HW116580   0.722   1.960  14.147 -0.3374  1.6761  0.3092
 1649SOL    HW216581   0.616   2.053  14.109 -0.2068  0.4869  1.5848
 1650SOL     OW16582   0.761   4.684  14.631  0.2525  0.1072 -0.2346
 1650SOL    HW116583   0.686   4.730  14.594  0.0355 -0.5097 -0.5803
 1650SOL    HW216584   0.733   4.593  14.619  1.8718 -0.3576 -0.5286
 1651SOL     OW16585   3.037   1.856   8.123 -0.2323  0.3075  0.4403
 1651SOL    HW116586   3.110   1.857   8.061  0.4213  2.1208  1.2370
 1651SOL    HW216587   2.965   1.814   8.075 -0.3960  1.2419 -0.1398
 1652SOL     OW16588   4.271   1.996   6.520 -0.4082 -0.1713  0.6162
 1652SOL    HW116589   4.201   2.055   6.495 -0.7350 -0.2205  1.4074
 1652SOL    HW216590   4.347   2.023   6.468  0.4815  0.0931  2.0374
 1653SOL     OW16591   1.654   0.764   8.213  0.3278  0.1712 -0.5365
 1653SOL    HW116592   1.612   0.802   8.291  3.1146  0.0091  1.0474
 1653SOL    HW216593   1.731   0.718   8.249  0.5416 -0.1957 -1.4740
 1654SOL     OW16594   2.839   1.114   0.487  0.1485 -0.2077 -0.5410
 1654SOL    HW116595   2.787   1.139   0.563  1.5305  0.9111  0.0441
 1654SOL    HW216596   2.871   1.200   0.460 -0.8019  0.2175 -0.3030
 1655SOL     OW16597   1.613   0.847   6.536 -0.1587 -0.2746  0.3136
 1655SOL    HW116598   1.694   0.895   6.552  0.2668 -0.7327 -0.4648
 1655SOL    HW216599   1.544   0.912   6.554  0.6312  0.6499  0.0419
 1656SOL     OW16600   2.259   3.868   2.399  0.4144 -0.0234 -0.2966
 1656SOL    HW116601   2.268   3.963   2.407 -0.8016  0.1356 -0.7794
 1656SOL    HW216602   2.301   3.841   2.480  0.2922 -1.0732 -0.5895
 1657SOL     OW16603   0.291   1.197   3.692 -0.2728 -0.0567 -0.4616
 1657SOL    HW116604   0.243   1.236   3.765 -1.6039  0.4187 -1.5931
 1657SOL    HW216605   0.343   1.132   3.738 -1.2195  0.1030  0.8605
 1658SOL     OW16606   0.855   4.376   2.559  0.2457  0.1425  0.4182
 1658SOL    HW116607   0.782   4.430   2.588 -0.7269 -2.0643  1.9940
 1658SOL    HW216608   0.851   4.379   2.463  0.9272  1.8550  0.4338
 1659SOL     OW16609   0.306   3.420   5.561  0.3505 -0.1810  0.0950
 1659SOL    HW116610   0.273   3.509   5.560  1.9090  0.4216  1.2847
 1659SOL    HW216611   0.320   3.403   5.468  0.8191 -1.8482  0.4539
 1660SOL     OW16612   1.399   1.892   7.337 -0.3743 -0.2214 -0.0485
 1660SOL    HW116613   1.486   1.931   7.330 -2.3847  4.0059 -1.4055
 1660SOL    HW216614   1.414   1.799   7.321  0.4947 -0.1434  0.3517
 1661SOL     OW16615   0.259   4.288   6.514  0.3437  0.1938 -0.1246
 1661SOL    HW116616   0.296   4.212   6.468 -0.2820  0.6859 -1.4152
 1661SOL    HW216617   0.333   4.347   6.504 -0.4098  0.6927 -2.7097
 1662SOL     OW16618   0.973   2.595   2.451 -0.6561 -0.5245  0.5531
 1662SOL    HW116619   0.975   2.685   2.418 -1.2236 -0.8808 -0.4211
 1662SOL    HW216620   0.907   2.572   2.387 -1.0525 -0.9042  1.1040
 1663SOL     OW16621   2.592   3.175   3.577  0.0647 -0.7418 -0.1516
 1663SOL    HW116622   2.570   3.237   3.508  1.2516 -0.3321 -0.1424
 1663SOL    HW216623   2.670   3.132   3.543  1.9859  2.6702 -0.0126
 1664SOL     OW16624   4.046   4.599   7.649  0.6380  0.0927 -0.2233
 1664SOL    HW116625   4.083   4.626   7.733  0.1270 -0.7664  0.2741
 1664SOL    HW216626   4.078   4.510   7.639 -0.0483 -0.2277  0.4575
 1665SOL     OW16627   1.682   3.350   4.883 -0.3036 -0.7035  0.1241
 1665SOL    HW116628   1.718   3.434   4.855 -1.4531 -0.6264 -1.1018
 1665SOL    HW216629   1.612   3.336   4.820  0.9614 -0.6757 -1.2890
 1666SOL     OW16630   4.345   3.668   5.013 -0.4110 -0.1970  0.5134
 1666SOL    HW116631   4.290   3.732   5.058  1.2293  1.0258  0.8118
 1666SOL    HW216632   4.382   3.620   5.086 -0.4755 -2.3053 -0.8414
 1667SOL     OW16633   3.758   0.559  11.314  0.3007  0.1268 -0.1377
 1667SOL    HW116634   3.794   0.634  11.361 -1.3032  0.5932  0.3288
 1667SOL    HW216635   3.839   0.522  11.279 -1.5277 -2.2701 -1.8904
 1668SOL     OW16636   1.816   2.794   5.629 -0.3413 -0.1166 -0.3182
 1668SOL    HW116637   1.911   2.795   5.643 -0.4366  0.6696  0.3345
 1668SOL    HW216638   1.797   2.888   5.628 -0.3566 -0.1793 -3.4563
 1669SOL     OW16639   3.541   3.285   4.852 -0.5946  0.4577 -0.0408
 1669SOL    HW116640   3.625   3.240   4.857 -0.2451  1.1414  0.2122
 1669SOL    HW216641   3.490   3.208   4.824  0.2726 -0.3468  0.5721
 1670SOL     OW16642   0.436   1.622   7.519  0.2972  0.4269  0.5942
 1670SOL    HW116643   0.519   1.587   7.487 -0.1188 -2.1154  2.3472
 1670SOL    HW216644   0.462   1.714   7.532 -2.8867  1.3159  0.4786
 1671SOL     OW16645   0.608   1.874   5.790  0.1977  0.1760  0.0967
 1671SOL    HW116646   0.642   1.953   5.831  0.9935 -0.7451  1.2102
 1671SOL    HW216647   0.529   1.865   5.843 -0.1529  1.4451 -0.2051
 1672SOL     OW16648   4.022   1.380   5.993  0.0651  0.5864  0.3454
 1672SOL    HW116649   3.971   1.299   5.996 -0.1067  0.7204  1.2380
 1672SOL    HW216650   4.033   1.391   5.899  0.7870  0.2490  0.3902
 1673SOL     OW16651   3.251   0.820   1.796 -0.0099  0.1727  0.3816
 1673SOL    HW116652   3.251   0.747   1.734  0.8798  0.1375  0.4312
 1673SOL    HW216653   3.289   0.885   1.737 -0.2004 -1.0482 -1.0830
 1674SOL     OW16654   3.423   1.618   9.165 -0.2020 -0.3782  0.0690
 1674SOL    HW116655   3.435   1.627   9.070 -0.4480  2.6250  0.3419
 1674SOL    HW216656   3.491   1.561   9.200  1.4800  2.0710  0.7694
 1675SOL     OW16657   0.350   2.947   8.499 -0.0346  0.2604  0.1556
 1675SOL    HW116658   0.355   2.940   8.404 -1.1570  0.8362  0.0548
 1675SOL    HW216659   0.406   2.874   8.523 -1.0030 -0.8301 -0.9204
 1676SOL     OW16660   2.397   3.033  14.386  0.1040  0.3929  0.5348
 1676SOL    HW116661   2.392   3.081  14.469  1.3096  1.2256  0.1337
 1676SOL    HW216662   2.438   3.102  14.334 -0.1174  1.3551  1.6264
 1677SOL     OW16663   0.375   3.662  16.055 -0.2350 -0.7375 -0.0490
 1677SOL    HW116664   0.350   3.753  16.038 -3.6901 -1.7249 -0.1442
 1677SOL    HW216665   0.367   3.640  15.962  0.3607  1.8311 -0.7138
 1678SOL     OW16666   3.191   4.622   3.629  0.2132  0.1769 -0.2585
 1678SOL    HW116667   3.246   4.635   3.707  1.2133 -0.8717 -0.7735
 1678SOL    HW216668   3.158   4.532   3.620  1.8997 -0.1942 -2.7529
 1679SOL     OW16669   0.161   3.831   9.389  0.0124  0.3095  0.3490
 1679SOL    HW116670   0.114   3.773   9.330  0.6714 -0.2928  0.4178
 1679SOL    HW216671   0.104   3.837   9.466 -1.6548 -0.1411 -0.8605
 1680SOL     OW16672   3.161   4.380   2.958  0.6490 -0.0552  0.2165
 1680SOL    HW116673   3.256   4.388   2.956  0.5075  1.7805  0.5771
 1680SOL    HW216674   3.138   4.395   2.866 -0.3880 -0.9736  0.3217
 1681SOL     OW16675   3.213   4.400   8.742  0.8051 -0.9242 -0.7231
 1681SOL    HW116676   3.142   4.404   8.678  0.2804  1.1145 -0.0192
 1681SOL    HW216677   3.275   4.444   8.683 -1.7997  0.6793 -2.2838
 1682SOL     OW16678   4.634   3.971   3.720 -0.1834  0.3089  0.5668
 1682SOL    HW116679   4.616   3.994   3.811 -0.6109 -0.4099  0.6653
 1682SOL    HW216680   4.592   4.050   3.685 -0.9213 -1.4526 -2.5413
 1683SOL     OW16681   0.335   3.074   1.317  0.2656 -0.0114  0.6340
 1683SOL    HW116682   0.383   3.139   1.368 -1.1784  2.7283 -1.4756
 1683SOL    HW216683   0.274   3.128   1.267 -1.2398 -1.0438  1.3726
 1684SOL     OW16684   3.181   2.482   2.747 -0.0150 -0.4351 -0.0265
 1684SOL    HW116685   3.173   2.572   2.714  1.2726 -0.3126 -0.0025
 1684SOL    HW216686   3.276   2.486   2.761 -0.2998 -1.3913  2.0814
 1685SOL     OW16687   4.516   4.719   3.113 -0.4927 -0.2301  0.3335
 1685SOL    HW116688   4.433   4.716   3.065 -1.3183 -0.8380  1.7930
 1685SOL    HW216689   4.517   0.076   3.122 -2.9407 -0.2549  0.8438
 1686SOL     OW16690   1.537   2.096   5.919  0.2670  0.4060  0.7639
 1686SOL    HW116691   1.618   2.052   5.943 -2.1726 -2.7111  3.4316
 1686SOL    HW216692   1.486   2.030   5.967  0.2920 -0.6421 -0.6696
 1687SOL     OW16693   2.891   3.147   1.025  0.5706  0.1517  0.1191
 1687SOL    HW116694   2.830   3.084   0.987  1.3745  1.2239 -2.9583
 1687SOL    HW216695   2.966   3.154   0.967  1.8054 -0.0294  1.6732
 1688SOL     OW16696   1.349   2.239   0.869 -0.0824 -0.0509 -0.5690
 1688SOL    HW116697   1.299   2.170   0.912 -1.6368  1.5443  0.1588
 1688SOL    HW216698   1.318   2.315   0.918 -2.8189 -0.3349 -1.8716
 1689SOL     OW16699   2.151   2.881  12.319  0.2510 -0.2205 -0.0468
 1689SOL    HW116700   2.212   2.807  12.315  1.4746  0.8123 -0.5746
 1689SOL    HW216701   2.194   2.935  12.385 -1.1102 -0.9405  1.4266
 1690SOL     OW16702   0.699   2.393   1.089  0.9137  0.4307  0.1298
 1690SOL    HW116703   0.783   2.399   1.135  0.7922 -0.9932  0.5367
 1690SOL    HW216704   0.653   2.474   1.110 -1.7914 -0.8122 -0.9895
 1691SOL     OW16705   1.571   1.157   2.803  1.1105  0.4963 -0.2613
 1691SOL    HW116706   1.652   1.168   2.753  1.7816 -1.8825  0.3165
 1691SOL    HW216707   1.503   1.137   2.738  0.5809  2.0229 -0.1780
 1692SOL     OW16708   3.126   2.298  12.007 -0.0576  0.4815 -0.2340
 1692SOL    HW116709   3.124   2.224  12.068 -0.7695 -0.1051 -0.9811
 1692SOL    HW216710   3.161   2.371  12.058 -0.3665  0.4350  0.0462
 1693SOL     OW16711   2.761   2.907   8.306  0.1758  0.5692  0.3664
 1693SOL    HW116712   2.737   2.999   8.294  2.1123  1.0306  0.1233
 1693SOL    HW216713   2.852   2.909   8.337  0.1688 -3.1198  0.5533
 1694SOL     OW16714   1.445   0.812   5.345  0.0134  0.2201  0.0371
 1694SOL    HW116715   1.402   0.826   5.261  0.3753 -1.9214 -0.4927
 1694SOL    HW216716   1.452   0.717   5.351  1.3065  0.3129  0.1199
 1695SOL     OW16717   4.061   3.124   6.680 -0.2876  0.7452 -0.2163
 1695SOL    HW116718   4.099   3.203   6.719  0.8747 -0.2277  0.6644
 1695SOL    HW216719   3.973   3.138   6.714 -1.7049  0.1032 -3.6323
 1696SOL     OW16720   0.386   0.156  14.356 -0.3467  0.0351  0.1099
 1696SOL    HW116721   0.413   0.235  14.309  0.1977  0.3888  1.0237
 1696SOL    HW216722   0.407   0.083  14.298 -0.5751  0.9574 -1.1368
 1697SOL     OW16723   2.826   0.366   6.719  0.3964  0.2552 -0.2573
 1697SOL    HW116724   2.733   0.377   6.736  0.3975  1.4374 -1.0670
 1697SOL    HW216725   2.862   0.422   6.788  0.2571 -0.5417  0.4679
 1698SOL     OW16726   3.291   0.086   2.425  1.0535  0.3841  0.1732
 1698SOL    HW116727   3.258   0.168   2.461  1.8608  0.7722  0.0371
 1698SOL    HW216728   3.307   0.111   2.334 -0.2420 -0.0107 -0.1680
 1699SOL     OW16729   3.787   2.038  17.231  0.4484 -0.0424  0.2079
 1699SOL    HW116730   3.829   2.092  17.298 -1.7019  1.7782  0.0737
 1699SOL    HW216731   3.771   1.962  17.287  0.9401 -1.4736 -1.5831
 1700SOL     OW16732   1.845   2.793  12.375  0.3524 -0.4040  0.0968
 1700SOL    HW116733   1.900   2.841  12.438 -2.8319  0.9185  1.8604
 1700SOL    HW216734   1.906   2.777  12.303  1.0432 -1.4545  0.9033
 1701SOL     OW16735   3.887   2.798  14.139 -0.1245 -0.4845  0.1563
 1701SOL    HW116736   3.829   2.728  14.108 -1.2586  0.5460 -0.0412
 1701SOL    HW216737   3.922   2.822  14.053 -2.4425 -0.9413 -0.9041
 1702SOL     OW16738   3.653   2.588   6.122 -0.2107 -0.0584 -0.1523
 1702SOL    HW116739   3.567   2.569   6.160  0.3470 -0.4988  0.8722
 1702SOL    HW216740   3.634   2.585   6.028  0.3281  2.4141 -0.3498
 1703SOL     OW16741   3.476   0.531   3.302  0.3523  0.1775  0.3116
 1703SOL    HW116742   3.561   0.570   3.323 -0.6857  0.5837  3.8156
 1703SOL    HW216743   3.489   0.437   3.310 -0.1019  0.1849  1.1296
 1704SOL     OW16744   2.092   2.653   6.827  0.4433  0.1555  0.7020
 1704SOL    HW116745   2.035   2.680   6.899  0.0643 -1.0229  0.8364
 1704SOL    HW216746   2.153   2.727   6.838  0.5665 -0.2406  2.5938
 1705SOL     OW16747   0.740   3.781   6.439 -0.2096  0.0106  0.3873
 1705SOL    HW116748   0.802   3.727   6.488 -0.0527  0.1904  0.3889
 1705SOL    HW216749   0.790   3.792   6.358 -1.7344  0.7724 -0.4566
 1706SOL     OW16750   1.611   3.781   6.673  0.4592  0.2293  0.2742
 1706SOL    HW116751   1.550   3.821   6.612  1.8650  2.6898  0.4507
 1706SOL    HW216752   1.694   3.826   6.655  1.4284 -0.8954  1.8868
 1707SOL     OW16753   2.804   4.133  17.311  0.4036 -0.0407  0.1058
 1707SOL    HW116754   2.785   4.195  17.241  6.2215  1.6797  0.0394
 1707SOL    HW216755   2.897   4.145  17.327  0.7212 -1.8948 -0.3452
 1708SOL     OW16756   2.176   1.418  15.910  0.2163 -0.4671 -0.4870
 1708SOL    HW116757   2.095   1.387  15.950 -0.1023  2.6709  1.3125
 1708SOL    HW216758   2.145   1.479  15.844 -0.4248 -2.8390 -2.3929
 1709SOL     OW16759   3.775   3.794   7.338 -0.2546  0.1061 -0.1081
 1709SOL    HW116760   3.705   3.843   7.381 -0.1908  0.7483 -0.7431
 1709SOL    HW216761   3.739   3.800   7.249  2.1082  0.3387 -1.0347
 1710SOL     OW16762   2.013   1.209  12.192 -0.0187  0.0971  0.2496
 1710SOL    HW116763   1.949   1.144  12.219 -1.2401  1.1139 -0.2002
 1710SOL    HW216764   1.966   1.288  12.168  0.0354 -0.2701 -1.0560
 1711SOL     OW16765   4.355   0.403   7.019 -0.7571  0.2094  0.6890
 1711SOL    HW116766   4.385   0.453   6.943 -2.0723 -0.9234 -0.5762
 1711SOL    HW216767   4.409   0.450   7.083  0.1657 -1.2271  0.9627
 1712SOL     OW16768   1.730   0.427   4.581 -0.4285  0.3882 -0.2930
 1712SOL    HW116769   1.770   0.348   4.619 -2.0879 -0.4978 -0.3939
 1712SOL    HW216770   1.786   0.496   4.619 -1.0833  1.1766 -0.7770
 1713SOL     OW16771   0.251   0.082   9.159  0.5794 -0.6115 -0.2631
 1713SOL    HW116772   0.297   0.088   9.076 -2.5117 -2.2015 -2.0737
 1713SOL    HW216773   0.247   4.727   9.180  0.7610 -1.1239 -2.5826
 1714SOL     OW16774   0.171   1.222  10.785  0.4966 -0.2702 -0.4765
 1714SOL    HW116775   0.236   1.272  10.736  0.1831  2.5629  2.0306
 1714SOL    HW216776   0.103   1.208  10.719  0.3669 -2.3300  0.0854
 1715SOL     OW16777   0.983   1.196   6.519 -0.1274 -0.0742 -0.1504
 1715SOL    HW116778   0.902   1.202   6.569 -1.0115 -0.7504 -1.4684
 1715SOL    HW216779   0.955   1.222   6.431 -0.5713  1.0370  0.3206
 1716SOL     OW16780   2.586   1.820   4.261 -0.0758 -0.1088  0.1002
 1716SOL    HW116781   2.549   1.821   4.172  0.3886 -0.4361 -0.0944
 1716SOL    HW216782   2.653   1.752   4.258 -1.1938 -1.3169  2.9931
 1717SOL     OW16783   1.307   0.914   3.172  0.0636 -0.0418 -0.7629
 1717SOL    HW116784   1.321   0.893   3.265  1.2470  1.1353 -0.6805
 1717SOL    HW216785   1.370   0.982   3.151  1.0824 -0.5330  0.6468
 1718SOL     OW16786   1.912   3.847   4.260 -0.7120 -0.0720  0.2788
 1718SOL    HW116787   1.958   3.872   4.340  2.2379 -0.9506 -1.1543
 1718SOL    HW216788   1.912   3.752   4.270  0.0455 -0.4037 -2.8589
 1719SOL     OW16789   4.263   1.906   2.685  0.5874  0.8692 -0.0402
 1719SOL    HW116790   4.174   1.871   2.696  1.2714 -0.8281  0.0965
 1719SOL    HW216791   4.246   1.999   2.671 -0.6695  0.9351  1.8509
 1720SOL     OW16792   0.214   3.710   9.810 -0.0037 -0.1981 -0.6057
 1720SOL    HW116793   0.213   3.673   9.721  1.0263 -0.1351 -0.6511
 1720SOL    HW216794   0.134   3.762   9.807 -0.4593 -0.8883 -0.0694
 1721SOL     OW16795   1.368   0.360   7.025 -0.4278  0.2657 -0.6643
 1721SOL    HW116796   1.378   0.304   7.103  0.2429 -0.1096 -1.0260
 1721SOL    HW216797   1.394   0.441   7.067 -0.1596 -0.4524  0.5665
 1722SOL     OW16798   1.648   4.228   6.142  0.5256  0.1355 -0.1017
 1722SOL    HW116799   1.701   4.149   6.136 -1.7394 -1.2472 -2.0284
 1722SOL    HW216800   1.693   4.284   6.205  0.0359  1.1974 -0.7009
 1723SOL     OW16801   1.122   2.423   7.693 -0.0618  0.1800 -0.7553
 1723SOL    HW116802   1.175   2.462   7.762 -2.3164  1.2320  0.3764
 1723SOL    HW216803   1.149   2.332   7.706  0.3712  0.3556 -0.4269
 1724SOL     OW16804   2.323   0.382   8.780 -0.5939 -0.0037  0.8834
 1724SOL    HW116805   2.344   0.288   8.782 -1.6806 -0.2825 -0.4424
 1724SOL    HW216806   2.410   0.419   8.771 -1.1404  1.1586  0.3944
 1725SOL     OW16807   0.585   0.510   7.364  0.2779 -0.1685  0.4471
 1725SOL    HW116808   0.545   0.549   7.441  0.2961  0.6799  0.0343
 1725SOL    HW216809   0.556   0.578   7.303  0.5090  0.1572  0.6973
 1726SOL     OW16810   3.837   4.633   3.338 -0.0359 -0.1875  0.3259
 1726SOL    HW116811   3.828   4.696   3.410  1.7542  0.0705  0.3210
 1726SOL    HW216812   3.933   4.633   3.332 -0.1950  1.7166 -1.9320
 1727SOL     OW16813   2.273   3.066  16.962  0.2117  0.3204  0.2266
 1727SOL    HW116814   2.205   3.003  16.983 -1.1158  1.9601  0.8416
 1727SOL    HW216815   2.329   3.045  17.036 -0.5616 -0.6213  0.5389
 1728SOL     OW16816   0.575   1.494   8.995 -0.7689 -0.1182  0.5286
 1728SOL    HW116817   0.520   1.426   9.032  0.8995 -1.4612  0.5186
 1728SOL    HW216818   0.663   1.461   9.012  0.6071  2.3771 -1.6864
 1729SOL     OW16819   0.146   4.717   6.358 -0.6530 -0.3903  0.2062
 1729SOL    HW116820   0.062   4.681   6.387 -1.5441  1.1513 -0.4581
 1729SOL    HW216821   0.203   4.705   6.434 -2.4798  1.0166  1.8085
 1730SOL     OW16822   2.400   2.547   9.218  0.0098  0.0037 -0.0991
 1730SOL    HW116823   2.417   2.616   9.154  0.3243  1.9727  2.1112
 1730SOL    HW216824   2.307   2.529   9.204  0.3840 -1.6116 -0.4931
 1731SOL     OW16825   3.168   2.694   2.587  0.6377 -0.1084  0.4287
 1731SOL    HW116826   3.175   2.657   2.500 -1.9035 -0.5944  0.4270
 1731SOL    HW216827   3.085   2.741   2.579  0.7252  0.6693  4.1114
 1732SOL     OW16828   0.800   0.813  16.274  0.7977 -0.0361 -0.3903
 1732SOL    HW116829   0.776   0.899  16.308  1.5313 -0.2890  0.7691
 1732SOL    HW216830   0.872   0.826  16.212  1.5213  1.8752  0.8851
 1733SOL     OW16831   3.474   1.578   2.681 -0.3246  0.3199  0.1345
 1733SOL    HW116832   3.459   1.638   2.608 -1.1423 -0.0131  0.0339
 1733SOL    HW216833   3.397   1.589   2.736 -0.7009  2.5040 -0.8314
 1734SOL     OW16834   0.393   1.224   6.183 -0.1207 -0.3067  1.0613
 1734SOL    HW116835   0.311   1.220   6.135 -0.7683 -0.1876  2.1535
 1734SOL    HW216836   0.395   1.130   6.204 -1.2391 -0.3474  0.9704
 1735SOL     OW16837   2.418   2.934   5.640  0.1477 -0.3966  0.3955
 1735SOL    HW116838   2.482   3.004   5.653 -0.5243  0.3183 -0.1565
 1735SOL    HW216839   2.413   2.910   5.732  2.5707  2.4626  1.2797
 1736SOL     OW16840   0.008   2.705   7.314 -0.6437 -0.3989  0.1224
 1736SOL    HW116841   4.725   2.768   7.383 -1.6623  1.1536 -1.6100
 1736SOL    HW216842   4.700   2.747   7.241  0.0534 -1.1673 -0.7527
 1737SOL     OW16843   2.970   1.581  17.654  0.1479 -0.0111  0.2753
 1737SOL    HW116844   2.882   1.614  17.666  0.4029  0.3007  1.2565
 1737SOL    HW216845   3.029   1.656  17.661  0.0258  0.0153  1.0408
 1738SOL     OW16846   0.539   2.470   4.602 -0.5816 -0.4981 -0.2114
 1738SOL    HW116847   0.489   2.551   4.608 -1.3366 -1.0203  0.4708
 1738SOL    HW216848   0.625   2.488   4.641 -0.1789 -0.7791 -0.9620
 1739SOL     OW16849   1.080   2.843   5.556  1.0703  0.1106 -0.3390
 1739SOL    HW116850   1.011   2.891   5.601 -0.0363 -0.9869 -0.8531
 1739SOL    HW216851   1.141   2.819   5.626  1.0634  0.5974 -0.1686
 1740SOL     OW16852   3.754   3.166   0.696  0.5977 -0.3060 -0.5423
 1740SOL    HW116853   3.733   3.082   0.655  0.4946  0.5809 -2.3041
 1740SOL    HW216854   3.757   3.226   0.622  1.3704 -0.9901 -1.0582
 1741SOL     OW16855   4.602   2.510   7.507 -0.4226  0.7439  0.1567
 1741SOL    HW116856   4.523   2.461   7.481 -1.1519  0.5319  2.7046
 1741SOL    HW216857   4.619   2.553   7.424 -0.3514 -1.7193 -1.1274
 1742SOL     OW16858   0.722   1.117   7.500  0.0547 -0.1830 -0.3370
 1742SOL    HW116859   0.672   1.129   7.580 -0.8336  0.8903 -1.0546
 1742SOL    HW216860   0.683   1.188   7.450 -0.8597 -1.5161 -1.5272
 1743SOL     OW16861   3.335   1.714  17.096  0.4836  0.0954  0.5296
 1743SOL    HW116862   3.425   1.691  17.119  0.2306 -0.2404  1.2042
 1743SOL    HW216863   3.308   1.762  17.175  0.1479 -1.0689  1.1105
 1744SOL     OW16864   2.820   2.416   5.992  0.5462  0.1934  0.0561
 1744SOL    HW116865   2.759   2.365   6.045  1.9319 -0.6271  0.8692
 1744SOL    HW216866   2.765   2.492   5.975  1.7517  0.8956 -0.6993
 1745SOL     OW16867   0.679   2.662  11.356  0.4142 -0.4006 -0.2770
 1745SOL    HW116868   0.762   2.708  11.344 -0.1096  0.5851 -0.1335
 1745SOL    HW216869   0.610   2.728  11.362 -2.4290 -3.1712 -2.8450
 1746SOL     OW16870   1.382   0.965   3.685  0.3688 -0.1489 -0.5946
 1746SOL    HW116871   1.355   1.055   3.669  2.2303  0.6115  0.5335
 1746SOL    HW216872   1.477   0.978   3.685  0.3509 -0.0356 -1.8058
 1747SOL     OW16873   0.500   0.664  15.956  0.4711  0.2891  0.5059
 1747SOL    HW116874   0.593   0.641  15.951  0.2174 -0.2398 -1.6587
 1747SOL    HW216875   0.454   0.581  15.948  1.4449 -0.1360 -0.6733
 1748SOL     OW16876   1.212   4.236  15.951  0.0164  0.0038 -0.7524
 1748SOL    HW116877   1.194   4.142  15.957  4.0916 -0.8022 -1.2079
 1748SOL    HW216878   1.284   4.235  15.887  0.4770  0.8577 -0.2447
 1749SOL     OW16879   2.500   2.240   7.680  0.0391 -0.2863 -0.0415
 1749SOL    HW116880   2.567   2.174   7.667 -0.6083 -1.3819  2.2247
 1749SOL    HW216881   2.555   2.306   7.723  0.2654 -0.7063  0.3058
 1750SOL     OW16882   0.266   2.463   8.848  0.2599 -0.5920  1.0301
 1750SOL    HW116883   0.329   2.396   8.823 -0.6852 -0.7588 -0.9500
 1750SOL    HW216884   0.269   2.514   8.767 -1.2977 -0.5858  0.9703
 1751SOL     OW16885   1.093   3.942   4.215 -0.4013 -0.3202 -0.2786
 1751SOL    HW116886   1.006   3.942   4.175  0.2980  0.3831 -1.7874
 1751SOL    HW216887   1.087   3.870   4.278 -0.0079 -0.8268 -0.8175
 1752SOL     OW16888   2.074   4.172   5.274  0.2071  0.2823  0.4354
 1752SOL    HW116889   1.985   4.195   5.245 -0.1983 -0.5450  1.0127
 1752SOL    HW216890   2.074   4.221   5.357 -0.6461  0.6626  0.2159
 1753SOL     OW16891   1.317   0.629  12.774 -0.0567 -0.6545  0.2778
 1753SOL    HW116892   1.324   0.572  12.851  2.2625 -0.3701  0.2962
 1753SOL    HW216893   1.256   0.580  12.720 -0.0816 -1.5553  1.1226
 1754SOL     OW16894   1.371   3.951   2.561 -0.0366  0.7481 -0.6454
 1754SOL    HW116895   1.409   3.962   2.648 -2.2834  2.7880  0.0713
 1754SOL    HW216896   1.322   4.033   2.558  2.0585  2.0722  1.5487
 1755SOL     OW16897   3.897   3.397   5.499  0.4462  0.2531 -0.2246
 1755SOL    HW116898   3.954   3.360   5.567 -0.2193 -1.2204 -0.4746
 1755SOL    HW216899   3.874   3.318   5.451  1.9572  0.5600 -1.4620
 1756SOL     OW16900   4.022   2.244   2.459  0.2633 -0.1703  0.1764
 1756SOL    HW116901   3.979   2.283   2.383 -1.9651  0.5073  1.7457
 1756SOL    HW216902   3.990   2.156   2.436  1.0174 -0.6396  0.9439
 1757SOL     OW16903   0.870   3.910   4.624 -0.2943  0.1001  0.2617
 1757SOL    HW116904   0.835   3.946   4.706  1.3838 -1.6756  1.7498
 1757SOL    HW216905   0.941   3.969   4.600 -2.5912  3.0791  0.7288
 1758SOL     OW16906   1.584   4.687   4.586  0.1855  0.1472  0.1605
 1758SOL    HW116907   1.605   0.013   4.517  0.1594 -1.9481 -1.7625
 1758SOL    HW216908   1.543   4.627   4.524 -0.9398  1.9338 -0.8301
 1759SOL     OW16909   0.605   4.498  17.351 -0.3531 -0.1053 -0.3718
 1759SOL    HW116910   0.548   4.425  17.327 -0.3753 -0.8856  2.0528
 1759SOL    HW216911   0.554   4.552  17.412  0.1143  0.4908 -0.5022
 1760SOL     OW16912   0.282   2.653   3.484  0.2734  0.5701  0.2401
 1760SOL    HW116913   0.341   2.625   3.414 -1.1272  0.8409 -1.0598
 1760SOL    HW216914   0.301   2.588   3.552 -0.6373 -0.6094 -0.6450
 1761SOL     OW16915   1.094   2.980  12.774  0.0145 -0.3827  0.1343
 1761SOL    HW116916   1.115   3.053  12.833  0.9400 -0.8575  0.3993
 1761SOL    HW216917   1.146   3.002  12.697  0.4665 -1.4314  0.1333
 1762SOL     OW16918   1.335   2.526  14.844 -0.0160 -0.5123 -0.2466
 1762SOL    HW116919   1.251   2.572  14.841  1.6166  2.5368  1.3306
 1762SOL    HW216920   1.393   2.601  14.856 -2.8424  1.6679 -0.0835
 1763SOL     OW16921   1.496   0.909  13.819 -0.2039 -0.0252 -0.4826
 1763SOL    HW116922   1.576   0.956  13.841  1.2754 -2.1208 -1.3432
 1763SOL    HW216923   1.542   0.828  13.795 -0.5926 -0.7490  1.1723
 1764SOL     OW16924   2.518   2.370   0.890 -0.0689 -0.2043  0.2932
 1764SOL    HW116925   2.473   2.403   0.811 -0.5111  0.3483  0.7723
 1764SOL    HW216926   2.456   2.299   0.909 -0.9185  0.2341 -0.8328
 1765SOL     OW16927   3.204   4.035   5.709 -0.1643 -0.6007  0.3988
 1765SOL    HW116928   3.297   4.036   5.685 -0.0413 -0.9552  0.8531
 1765SOL    HW216929   3.211   4.064   5.800  0.2243  1.0188 -0.1538
 1766SOL     OW16930   2.335   2.865   1.798  0.3793  0.5811  0.1758
 1766SOL    HW116931   2.402   2.901   1.740  0.7839  2.2530  1.6945
 1766SOL    HW216932   2.369   2.889   1.884  1.3416  2.2425 -0.6790
 1767SOL     OW16933   4.065   3.924  12.551 -0.6918  0.4483  0.1026
 1767SOL    HW116934   4.054   4.001  12.607  2.3686  1.9717 -1.3844
 1767SOL    HW216935   4.113   3.951  12.472 -0.9441 -0.2425 -0.2937
 1768SOL     OW16936   0.725   0.364   4.755  0.7749 -0.3170  0.0035
 1768SOL    HW116937   0.690   0.450   4.735 -0.9340  0.6681  7.3198
 1768SOL    HW216938   0.642   0.319   4.773  0.0900  0.6607 -0.7150
 1769SOL     OW16939   1.800   3.065   1.013 -0.0983  0.2829  0.0716
 1769SOL    HW116940   1.713   3.029   1.027  0.4502 -1.7315 -1.8083
 1769SOL    HW216941   1.842   2.986   0.980 -2.5307 -1.9030  2.2513
 1770SOL     OW16942   0.114   3.394   7.380  0.0877  0.6474 -0.2273
 1770SOL    HW116943   0.190   3.338   7.366 -0.9959 -1.3962  2.1863
 1770SOL    HW216944   0.099   3.390   7.474  0.4758  0.3462 -0.1777
 1771SOL     OW16945   2.032   2.130  16.827 -0.7245 -0.3395 -0.6894
 1771SOL    HW116946   1.957   2.074  16.845 -0.8500 -0.1776 -0.7082
 1771SOL    HW216947   1.990   2.201  16.777  1.6975  1.7600  0.2151
 1772SOL     OW16948   2.924   3.991   7.090  0.0670 -0.3278 -0.2074
 1772SOL    HW116949   2.901   4.050   7.161  0.3466 -0.7535  0.2350
 1772SOL    HW216950   3.000   3.946   7.126  0.1898  2.3429  2.9030
 1773SOL     OW16951   0.414   3.904   9.454 -0.2288  0.5882 -0.2607
 1773SOL    HW116952   0.413   3.997   9.474  2.5598  0.3951  0.8149
 1773SOL    HW216953   0.319   3.891   9.453 -0.2716  0.8193  0.8004
 1774SOL     OW16954   0.574   3.817  12.333 -0.3764 -0.4848  0.4012
 1774SOL    HW116955   0.539   3.786  12.416 -0.3910  0.1922  0.6509
 1774SOL    HW216956   0.497   3.829  12.277  0.0425  2.3366  0.4406
 1775SOL     OW16957   4.160   1.875   2.325  0.5156 -0.3191  0.3818
 1775SOL    HW116958   4.239   1.923   2.299  0.8856 -1.7020 -1.0610
 1775SOL    HW216959   4.096   1.942   2.302  1.0844 -0.7067 -2.3447
 1776SOL     OW16960   3.946   0.564   8.394 -0.5707  0.0144 -0.0292
 1776SOL    HW116961   3.994   0.641   8.363  0.6793 -0.4258  0.8016
 1776SOL    HW216962   3.865   0.604   8.426 -1.6575 -2.0464 -0.1709
 1777SOL     OW16963   1.359   2.295   5.918  0.5502 -0.1797  0.0052
 1777SOL    HW116964   1.289   2.230   5.928 -0.0719  0.3802 -0.7701
 1777SOL    HW216965   1.433   2.236   5.902  0.8290  0.4823 -1.1283
 1778SOL     OW16966   0.398   0.661   6.912  0.0736  0.6691  0.2171
 1778SOL    HW116967   0.470   0.613   6.955 -0.0062 -0.2147 -0.6363
 1778SOL    HW216968   0.368   0.728   6.973 -1.8631 -0.8215  0.9034
 1779SOL     OW16969   4.559   0.095   7.689 -0.1405  0.0195  0.1465
 1779SOL    HW116970   4.479   0.144   7.710 -1.6208 -1.8602 -1.1627
 1779SOL    HW216971   4.577   0.118   7.598  1.8014 -0.6591  0.3572
 1780SOL     OW16972   0.580   1.444   4.673 -0.0284  0.3555 -0.1574
 1780SOL    HW116973   0.526   1.514   4.635 -0.3472  0.2956  0.1959
 1780SOL    HW216974   0.509   1.398   4.717  0.9079  0.2543  1.2267
 1781SOL     OW16975   3.054   4.513   1.650  0.2532  0.2523  0.0381
 1781SOL    HW116976   3.037   4.607   1.656 -2.5671 -0.1433 -1.8284
 1781SOL    HW216977   2.967   4.474   1.657 -0.4048  1.7372  0.1717
 1782SOL     OW16978   1.632   0.194  12.992 -0.3246 -0.1389 -0.0774
 1782SOL    HW116979   1.666   0.228  12.909 -0.6558  2.4238  0.8392
 1782SOL    HW216980   1.709   0.157  13.034 -1.0769 -0.1955  1.2421
 1783SOL     OW16981   0.553   3.555  10.602 -0.3479 -0.2536 -0.2785
 1783SOL    HW116982   0.530   3.486  10.540 -0.9236 -1.5110  1.3468
 1783SOL    HW216983   0.470   3.589  10.633  0.0483 -0.6686  1.2208
 1784SOL     OW16984   2.404   0.094   3.676  0.0591  0.1246  0.4770
 1784SOL    HW116985   2.388   0.072   3.584 -0.5418  0.4563  0.5044
 1784SOL    HW216986   2.358   0.177   3.688  1.0279  0.9745 -1.5337
 1785SOL     OW16987   1.902   0.086  10.867  0.4080  0.5284 -0.2041
 1785SOL    HW116988   1.989   0.122  10.884  1.1122 -1.4819  0.4769
 1785SOL    HW216989   1.870   0.149  10.803 -0.0122  1.3906  0.8633
 1786SOL     OW16990   3.983   3.626  16.381  0.4627  0.1339 -0.0337
 1786SOL    HW116991   4.002   3.719  16.390 -0.2264 -0.0582  3.3387
 1786SOL    HW216992   4.030   3.604  16.301  1.4577  3.0804 -0.2664
 1787SOL     OW16993   3.669   0.811   8.645 -0.1362  0.3903 -0.4738
 1787SOL    HW116994   3.713   0.773   8.569 -0.9640  0.4483 -0.9720
 1787SOL    HW216995   3.714   0.896   8.649 -1.4644  1.2297 -3.6160
 1788SOL     OW16996   3.160   0.645   2.450 -0.2823  0.3012  0.0542
 1788SOL    HW116997   3.184   0.736   2.430  3.4627 -1.1619 -2.1483
 1788SOL    HW216998   3.220   0.632   2.524  0.4371 -1.4276 -0.8388
 1789SOL     OW16999   0.538   0.768   4.388 -0.1468 -0.0678 -0.1584
 1789SOL    HW117000   0.528   0.745   4.296 -0.2720  1.9950 -0.6543
 1789SOL    HW217001   0.628   0.749   4.415 -1.2005 -0.7773  2.8788
 1790SOL     OW17002   1.147   3.504  17.551  0.2848  0.3972  0.0807
 1790SOL    HW117003   1.169   3.534  17.463 -1.3640  0.9664 -0.1361
 1790SOL    HW217004   1.232   3.474  17.585  0.9976 -0.9453 -2.8413
 1791SOL     OW17005   2.459   4.102   5.777  0.2345 -0.5182  0.1724
 1791SOL    HW117006   2.477   4.193   5.752 -0.0863 -0.5825 -0.3015
 1791SOL    HW217007   2.550   4.075   5.790  0.1523 -1.5018 -1.2158
 1792SOL     OW17008   1.455   1.452   2.115 -0.1134  0.5851  0.9798
 1792SOL    HW117009   1.506   1.505   2.176 -1.0953  1.1381  1.3267
 1792SOL    HW217010   1.478   1.361   2.133  0.3369  0.5789  0.3373
 1793SOL     OW17011   4.050   3.896  16.410 -0.4017 -0.6292  0.2018
 1793SOL    HW117012   4.123   3.867  16.465 -0.2651 -2.7224 -1.0827
 1793SOL    HW217013   4.084   3.979  16.378 -1.3197 -0.7256 -1.0108
 1794SOL     OW17014   1.208   2.816   3.336 -0.6022  0.0719 -0.1447
 1794SOL    HW117015   1.192   2.910   3.322 -1.8569 -0.6663 -3.4949
 1794SOL    HW217016   1.128   2.780   3.373 -0.5587  1.1431  0.9887
 1795SOL     OW17017   2.419   1.981  14.054 -0.6173 -0.2179  0.0034
 1795SOL    HW117018   2.330   1.949  14.041 -1.4138  1.4254  1.4074
 1795SOL    HW217019   2.461   1.897  14.033  0.7853  0.5025 -0.0742
 1796SOL     OW17020   1.597   2.385   0.784  0.7664 -0.4579  0.6993
 1796SOL    HW117021   1.536   2.334   0.838  1.3045  0.1152  1.8293
 1796SOL    HW217022   1.644   2.322   0.729 -0.8053 -0.4955 -0.6081
 1797SOL     OW17023   3.101   3.238   2.742  0.1680  0.4381 -0.0750
 1797SOL    HW117024   3.014   3.241   2.703 -0.1929 -0.1227  0.6936
 1797SOL    HW217025   3.123   3.145   2.746  0.6866  0.5583 -0.0999
 1798SOL     OW17026   3.468   1.964   6.682  0.6226  0.2346 -0.0549
 1798SOL    HW117027   3.482   2.059   6.675 -0.9606  0.6526  2.3482
 1798SOL    HW217028   3.554   1.928   6.701 -0.0647 -1.8094 -0.8624
 1799SOL     OW17029   2.086   0.722   5.589 -0.0660  0.2893  0.4366
 1799SOL    HW117030   2.169   0.675   5.581 -1.3987 -2.0459  0.4022
 1799SOL    HW217031   2.054   0.690   5.673  0.4486 -0.0802  0.4900
 1800SOL     OW17032   3.501   1.543   6.279 -0.1846  0.1542 -0.4132
 1800SOL    HW117033   3.557   1.504   6.212  0.1684 -0.6152  0.3244
 1800SOL    HW217034   3.485   1.630   6.242  0.7005  0.3303 -0.3849
 1801SOL     OW17035   0.734   4.092   8.586  0.6510  0.4727 -0.2821
 1801SOL    HW117036   0.697   4.122   8.670  1.6838  0.5716  0.1349
 1801SOL    HW217037   0.654   4.065   8.541  0.2976  2.0373 -0.5901
 1802SOL     OW17038   2.892   1.199   5.816  0.6743  0.1856  0.3696
 1802SOL    HW117039   2.925   1.109   5.821  1.6507  0.5591  0.6945
 1802SOL    HW217040   2.837   1.210   5.893  0.2633 -0.0914  0.1179
 1803SOL     OW17041   2.469   0.745   7.233 -0.2565 -0.2915  0.0119
 1803SOL    HW117042   2.387   0.756   7.282 -0.1826  0.8696 -0.1275
 1803SOL    HW217043   2.439   0.785   7.152 -2.2523 -0.8715  0.4666
 1804SOL     OW17044   1.498   4.523   6.811  0.0442  0.5523  0.1968
 1804SOL    HW117045   1.413   4.566   6.808 -0.8616 -1.1081  1.9516
 1804SOL    HW217046   1.557   4.596   6.791 -0.1175  1.2291  2.1696
 1805SOL     OW17047   4.547   1.891   2.608  0.2725 -0.7062  0.3862
 1805SOL    HW117048   4.545   1.875   2.514  2.5692  1.6949 -0.0842
 1805SOL    HW217049   4.456   1.876   2.635 -0.2623  0.3338 -0.8707
 1806SOL     OW17050   3.993   4.281  11.233 -0.2408 -0.0963  0.1983
 1806SOL    HW117051   4.038   4.310  11.153  1.6918 -0.5620  1.1164
 1806SOL    HW217052   3.933   4.353  11.247 -2.0596 -1.3798 -1.0138
 1807SOL     OW17053   0.611   2.154   8.179 -0.4463  0.5132 -0.3581
 1807SOL    HW117054   0.641   2.073   8.220  3.1419  1.5394 -0.9510
 1807SOL    HW217055   0.691   2.205   8.162  0.3074 -0.4534  0.3130
 1808SOL     OW17056   1.794   3.880  16.031  0.2452 -0.1843 -0.0454
 1808SOL    HW117057   1.877   3.847  15.996  0.2075 -0.5220  0.1777
 1808SOL    HW217058   1.800   3.975  16.018 -0.4801 -0.5290 -2.7443
 1809SOL     OW17059   0.338   0.992   1.724  0.2623 -0.1482 -0.1381
 1809SOL    HW117060   0.372   0.903   1.731  0.8202  0.0685 -0.1233
 1809SOL    HW217061   0.290   1.001   1.806  0.5875  0.0634  0.0286
 1810SOL     OW17062   0.765   0.034  13.040 -0.3912  0.2097 -0.5702
 1810SOL    HW117063   0.822   0.048  13.115 -0.3714 -0.1275 -0.5238
 1810SOL    HW217064   0.804   0.086  12.970  0.0100 -2.2897 -2.2059
 1811SOL     OW17065   4.083   2.839   6.580 -0.6457 -0.3923  0.1261
 1811SOL    HW117066   4.071   2.862   6.488  1.2187  1.7836  0.4286
 1811SOL    HW217067   4.052   2.919   6.621 -0.9772 -0.3001 -0.3016
 1812SOL     OW17068   1.955   2.637   3.866 -0.3397 -0.0264  0.4000
 1812SOL    HW117069   1.978   2.548   3.838 -0.7698  0.2897 -0.9993
 1812SOL    HW217070   1.918   2.617   3.951 -0.3125  0.8926  0.6250
 1813SOL     OW17071   1.667   0.335   8.552 -0.0920  0.1072 -0.3451
 1813SOL    HW117072   1.653   0.243   8.577  2.8096 -0.9123 -2.3619
 1813SOL    HW217073   1.698   0.383   8.628  3.5759  1.5245 -2.7178
 1814SOL     OW17074   2.216   0.345   3.661  0.4226 -0.3503  0.5359
 1814SOL    HW117075   2.285   0.412   3.655 -1.6538  1.7567  0.2817
 1814SOL    HW217076   2.155   0.379   3.597 -1.4840 -0.7911  2.1193
 1815SOL     OW17077   2.584   0.470   6.351  0.0384  0.2379 -0.0902
 1815SOL    HW117078   2.504   0.515   6.381  0.2722 -0.2240  1.2422
 1815SOL    HW217079   2.645   0.535   6.386 -1.0497  1.9945 -1.4537
 1816SOL     OW17080   0.073   1.778   4.191  0.3722  0.3472  0.0736
 1816SOL    HW117081   0.070   1.760   4.285  0.2777 -0.1809 -0.0334
 1816SOL    HW217082   0.113   1.865   4.198  0.5532  0.3063 -0.5150
 1817SOL     OW17083   0.797   2.296   9.604  0.6670  0.0104 -0.0985
 1817SOL    HW117084   0.705   2.274   9.619  0.2211  0.5373 -2.1448
 1817SOL    HW217085   0.802   2.337   9.691 -1.1117 -3.2378  1.5346
 1818SOL     OW17086   0.336   4.578   5.356 -0.2310  0.4010 -0.9096
 1818SOL    HW117087   0.357   4.668   5.331 -0.0773  0.2591 -1.2953
 1818SOL    HW217088   0.277   4.546   5.289 -1.8664 -1.3743  1.3581
 1819SOL     OW17089   3.976   1.413   3.412 -0.3646  0.0587  0.4386
 1819SOL    HW117090   3.955   1.334   3.460  0.5457 -0.1922  0.4209
 1819SOL    HW217091   4.051   1.381   3.362 -1.9602 -0.7251 -1.4525
 1820SOL     OW17092   1.711   3.319  16.009 -0.1299  0.3200  0.5752
 1820SOL    HW117093   1.732   3.396  15.955 -1.3138 -0.7609 -1.4436
 1820SOL    HW217094   1.618   3.302  15.994  0.2190 -0.4014 -0.8435
 1821SOL     OW17095   1.300   3.455  14.085  0.0377  0.3179  0.2556
 1821SOL    HW117096   1.292   3.549  14.100  1.0243  0.8305 -2.4617
 1821SOL    HW217097   1.393   3.442  14.103 -0.4578  0.3195  2.7937
 1822SOL     OW17098   2.759   1.695   0.981  0.3416  0.2704  0.6318
 1822SOL    HW117099   2.788   1.661   1.066  1.1125 -0.6088  0.0261
 1822SOL    HW217100   2.820   1.767   0.971  0.5385  0.1247  0.7708
 1823SOL     OW17101   4.131   4.501   3.727 -0.2834 -0.4540 -0.0686
 1823SOL    HW117102   4.121   4.563   3.654 -0.6409 -0.0231  0.3516
 1823SOL    HW217103   4.067   4.534   3.790 -0.5876 -0.6148 -0.2934
 1824SOL     OW17104   3.646   1.663   1.641 -0.5790  0.1940  0.7136
 1824SOL    HW117105   3.595   1.719   1.583  1.8880  4.4720  2.6692
 1824SOL    HW217106   3.723   1.718   1.648 -1.8216  1.9127  0.7245
 1825SOL     OW17107   1.409   1.509   6.806 -0.3705  0.1410  0.1216
 1825SOL    HW117108   1.314   1.503   6.816 -0.1657 -2.0821  0.7249
 1825SOL    HW217109   1.428   1.562   6.729 -0.4085  0.8848  0.6231
 1826SOL     OW17110   0.372   2.145  13.120  0.6296  0.3407 -0.4662
 1826SOL    HW117111   0.430   2.076  13.153 -0.2826 -0.1848  0.0394
 1826SOL    HW217112   0.442   2.191  13.074  0.0725 -0.0792 -1.7113
 1827SOL     OW17113   1.056   2.873   1.839 -0.3095 -0.3618 -0.5376
 1827SOL    HW117114   1.077   2.956   1.795 -1.4779 -0.3392 -1.0491
 1827SOL    HW217115   1.100   2.806   1.787  1.7364  0.1363  0.5680
 1828SOL     OW17116   3.433   4.517   1.843 -0.2946  0.2839 -0.1640
 1828SOL    HW117117   3.370   4.446   1.828 -0.9055  0.8005 -0.0276
 1828SOL    HW217118   3.413   4.525   1.937 -0.1236  2.0392 -0.2844
 1829SOL     OW17119   3.583   0.159   4.082 -0.9772 -0.2304  0.2130
 1829SOL    HW117120   3.528   0.165   4.003  0.2199  1.4022 -0.5057
 1829SOL    HW217121   3.653   0.097   4.062  0.9124  1.8968  0.2626
 1830SOL     OW17122   1.894   3.165   4.648  0.0800 -0.0882 -0.2057
 1830SOL    HW117123   1.873   3.153   4.740 -0.4438 -0.4541 -0.3713
 1830SOL    HW217124   1.815   3.129   4.609 -1.5303  1.8378  1.2792
 1831SOL     OW17125   4.362   4.275  17.124  0.0509  0.0382 -0.5325
 1831SOL    HW117126   4.331   4.350  17.073  0.3503  0.4389 -0.1227
 1831SOL    HW217127   4.437   4.259  17.068  0.0576  1.8693 -1.0661
 1832SOL     OW17128   2.675   4.237   4.891 -0.5657  0.1338 -0.3076
 1832SOL    HW117129   2.753   4.284   4.918 -0.3163  0.3998 -1.4798
 1832SOL    HW217130   2.603   4.281   4.935 -0.2506 -1.4055  1.7393
 1833SOL     OW17131   4.396   0.151   9.089 -0.3829 -0.5361 -0.3436
 1833SOL    HW117132   4.327   0.204   9.128  0.2580 -0.7834  1.1311
 1833SOL    HW217133   4.384   0.063   9.125  0.2594  0.0183  1.1985
 1834SOL     OW17134   3.325   2.269   0.805  0.6813 -1.0077 -0.2958
 1834SOL    HW117135   3.282   2.334   0.749 -0.1865 -1.6050 -0.3218
 1834SOL    HW217136   3.272   2.287   0.882 -0.8174 -0.0018 -1.5535
 1835SOL     OW17137   1.177   1.172   5.850 -0.4080 -1.2846 -0.2806
 1835SOL    HW117138   1.101   1.115   5.834 -0.8094 -0.4998 -1.1470
 1835SOL    HW217139   1.192   1.200   5.760 -0.1313 -1.8963 -0.4226
 1836SOL     OW17140   1.655   1.777   8.142  0.1184  0.0918 -0.3165
 1836SOL    HW117141   1.645   1.689   8.177 -1.6035  1.1755  1.8796
 1836SOL    HW217142   1.741   1.761   8.104  0.5608  3.7321 -0.8418
 1837SOL     OW17143   3.067   1.463  15.202  0.3058  0.2140  0.2940
 1837SOL    HW117144   2.975   1.453  15.224  0.2336 -0.5178 -0.3339
 1837SOL    HW217145   3.117   1.386  15.230 -0.3180 -0.8576 -1.5434
 1838SOL     OW17146   3.284   3.632  15.832  0.1701 -0.0889  0.2381
 1838SOL    HW117147   3.228   3.658  15.906 -1.5047  0.5199 -1.2226
 1838SOL    HW217148   3.359   3.691  15.825 -0.2807  0.2929 -1.3546
 1839SOL     OW17149   3.633   4.382   4.898 -0.1178  0.1708  0.2389
 1839SOL    HW117150   3.682   4.433   4.834  0.1613  2.7742  2.5110
 1839SOL    HW217151   3.707   4.333   4.933 -0.4942 -1.0966 -0.7372
 1840SOL     OW17152   0.408   4.621  17.009  0.1832 -0.2773  0.0175
 1840SOL    HW117153   0.464   4.694  17.036 -1.5876  0.6389  1.2288
 1840SOL    HW217154   0.472   4.558  16.977  0.0731 -0.8450  0.9235
 1841SOL     OW17155   4.067   0.799  14.200 -0.1227 -0.0896  0.0298
 1841SOL    HW117156   3.988   0.767  14.244  0.0116 -1.7569 -0.9606
 1841SOL    HW217157   4.114   0.841  14.272  0.8114 -0.3408 -0.4369
 1842SOL     OW17158   0.935   4.172  16.582  0.2469  0.3555 -0.7361
 1842SOL    HW117159   0.957   4.162  16.489 -0.7918  0.4735 -0.9882
 1842SOL    HW217160   0.878   4.248  16.572  1.9041  1.8276  1.0952
 1843SOL     OW17161   4.717   3.468   4.694 -0.0141 -0.1774 -0.5758
 1843SOL    HW117162   4.666   3.525   4.751 -0.5028 -0.4804 -0.7157
 1843SOL    HW217163   4.678   3.381   4.694  0.6653 -0.4842 -0.6066
 1844SOL     OW17164   1.791   3.556   9.014  0.2223  0.2456  0.3987
 1844SOL    HW117165   1.813   3.483   9.072 -1.0272  1.2130  2.1287
 1844SOL    HW217166   1.699   3.533   8.998 -0.2663  0.6310  2.5378
 1845SOL     OW17167   4.270   3.575   8.467 -0.3002  0.1089  0.6244
 1845SOL    HW117168   4.193   3.613   8.509 -0.9270 -0.9412  0.4329
 1845SOL    HW217169   4.341   3.616   8.518  0.2578  0.1228 -0.1626
 1846SOL     OW17170   2.197   0.687   3.820  0.0863  0.2910 -0.0081
 1846SOL    HW117171   2.287   0.655   3.813  0.2132  0.5601  0.4033
 1846SOL    HW217172   2.157   0.603   3.842  0.9843  0.3560  1.8036
 1847SOL     OW17173   0.343   0.759  15.576  0.5746  0.2312  0.0849
 1847SOL    HW117174   0.434   0.788  15.575  0.9548 -1.1473 -3.2452
 1847SOL    HW217175   0.314   0.803  15.656 -0.1947 -0.9054  0.4423
 1848SOL     OW17176   2.494   1.377   7.116 -0.4135  0.3464 -0.2512
 1848SOL    HW117177   2.583   1.404   7.091  0.2392 -2.7289 -1.2439
 1848SOL    HW217178   2.487   1.303   7.056  0.0137 -1.3748  1.8488
 1849SOL     OW17179   3.369   2.032   4.638 -0.1204 -0.3308  1.0592
 1849SOL    HW117180   3.294   2.087   4.618 -0.0827 -0.2271  1.2047
 1849SOL    HW217181   3.377   1.979   4.558 -2.4469 -1.6077  1.6894
 1850SOL     OW17182   1.950   2.632   3.507 -0.2930  0.3151  0.1105
 1850SOL    HW117183   1.894   2.562   3.475  0.5013 -0.0526 -0.4970
 1850SOL    HW217184   1.943   2.612   3.600 -0.5725 -1.3505 -0.2793
 1851SOL     OW17185   2.211   0.244   3.161  0.2773  0.7998 -0.3937
 1851SOL    HW117186   2.174   0.156   3.171 -0.4189  1.2952  1.3725
 1851SOL    HW217187   2.228   0.248   3.067 -2.0846  0.7416 -0.8380
 1852SOL     OW17188   0.159   0.833  10.237 -0.2080 -0.7353 -0.3814
 1852SOL    HW117189   0.139   0.765  10.301 -0.5058 -0.5294 -0.2514
 1852SOL    HW217190   0.134   0.792  10.155 -0.5724 -0.7453 -0.2657
 1853SOL     OW17191   3.083   3.555   9.817 -0.3209 -0.0128  0.5753
 1853SOL    HW117192   3.055   3.574   9.907  0.4005 -1.4772  1.1150
 1853SOL    HW217193   3.045   3.624   9.762 -1.4328 -1.1665 -0.1021
 1854SOL     OW17194   3.151   1.035   1.998  0.3866 -0.0587  0.4490
 1854SOL    HW117195   3.178   0.967   1.936  1.7552  0.7573  0.1539
 1854SOL    HW217196   3.135   0.985   2.078  0.0314 -2.4426 -1.0804
 1855SOL     OW17197   2.783   1.749   8.110 -0.4528  0.4812  0.1367
 1855SOL    HW117198   2.726   1.817   8.075 -0.8324 -0.1221 -0.4068
 1855SOL    HW217199   2.767   1.673   8.055 -2.8722  1.7546 -0.9302
 1856SOL     OW17200   4.343   1.206   9.305  0.0136 -0.1599  0.5091
 1856SOL    HW117201   4.280   1.203   9.234  1.8768 -3.1172 -0.9924
 1856SOL    HW217202   4.391   1.123   9.309  1.9736  0.7951 -3.0454
 1857SOL     OW17203   4.657   1.589  15.998 -0.3376 -0.7248  0.8187
 1857SOL    HW117204   4.635   1.500  15.970  1.5439 -1.3819  1.4289
 1857SOL    HW217205   4.586   1.602  16.060  1.2421 -0.6200  2.5760
 1858SOL     OW17206   2.221   2.357  14.820 -0.1943 -0.2847 -0.4317
 1858SOL    HW117207   2.194   2.296  14.888  2.0620  0.8872  1.5158
 1858SOL    HW217208   2.141   2.410  14.821 -0.3980 -0.5878 -0.8301
 1859SOL     OW17209   1.451   2.051   6.267 -0.2422 -1.0017 -0.4224
 1859SOL    HW117210   1.415   2.111   6.333  1.1132  0.7735 -1.2989
 1859SOL    HW217211   1.522   2.103   6.229  0.4180 -2.2456 -0.8949
 1860SOL     OW17212   4.536   1.781   0.279  0.3730  0.1571 -0.0105
 1860SOL    HW117213   4.526   1.864   0.232 -0.9978 -0.1281 -0.2087
 1860SOL    HW217214   4.618   1.796   0.325 -0.8381 -1.4106  2.6302
 1861SOL     OW17215   4.229   0.031   1.535  0.4392 -0.1583 -0.2494
 1861SOL    HW117216   4.320   0.050   1.557  0.3923  0.0918 -0.2735
 1861SOL    HW217217   4.231   4.724   1.450  2.4706 -0.3216 -0.1238
 1862SOL     OW17218   2.816   1.762   4.680 -0.6661 -0.8402 -0.0151
 1862SOL    HW117219   2.830   1.767   4.775  1.7371 -1.4337 -0.3502
 1862SOL    HW217220   2.894   1.796   4.637 -0.5094  1.3489  1.9513
 1863SOL     OW17221   2.496   2.288  17.429  0.0371  0.8747 -0.6435
 1863SOL    HW117222   2.575   2.276  17.376  1.7863  2.3936  1.6017
 1863SOL    HW217223   2.540   2.306  17.512  0.5306  0.7094 -0.8682
 1864SOL     OW17224   1.845   3.840  10.011  0.4527 -0.3476 -0.3129
 1864SOL    HW117225   1.752   3.817  10.005  0.1811  1.7535 -4.3410
 1864SOL    HW217226   1.863   3.853   9.918  0.7119  2.6461  0.1493
 1865SOL     OW17227   3.173   2.494   0.657 -0.4468 -0.1678  0.1047
 1865SOL    HW117228   3.078   2.489   0.668 -0.2233 -1.2265  1.4573
 1865SOL    HW217229   3.179   2.466   0.565 -0.9747  1.8852 -0.5622
 1866SOL     OW17230   3.108   3.285   3.470 -0.1853  0.5987  0.5494
 1866SOL    HW117231   3.078   3.289   3.560  1.3202  2.5364  0.9680
 1866SOL    HW217232   3.129   3.377   3.454 -0.8729  0.8678  1.2460
 1867SOL     OW17233   2.135   4.538   7.023  0.1149  0.6275  0.0381
 1867SOL    HW117234   2.063   4.476   7.029  0.0330  0.4095 -3.0926
 1867SOL    HW217235   2.185   4.501   6.950  2.3236  0.8306  1.4470
 1868SOL     OW17236   1.180   3.839   5.449  0.1920 -0.0013 -0.1457
 1868SOL    HW117237   1.210   3.748   5.445  2.2597  0.7120 -0.7783
 1868SOL    HW217238   1.224   3.875   5.371  1.2318 -0.9388  0.0192
 1869SOL     OW17239   1.266   4.136  12.387  0.3751  0.5477  0.1275
 1869SOL    HW117240   1.195   4.093  12.341  1.2859  0.9981 -1.6881
 1869SOL    HW217241   1.349   4.110  12.347 -0.1051 -0.8633  0.0633
 1870SOL     OW17242   4.040   3.682   8.595 -0.3619 -0.5661 -0.1130
 1870SOL    HW117243   3.953   3.665   8.560 -1.0835  0.4089  1.1976
 1870SOL    HW217244   4.015   3.707   8.684 -1.9899  0.5774 -0.8779
 1871SOL     OW17245   2.554   1.924   4.877  0.3036 -0.0365 -0.0316
 1871SOL    HW117246   2.518   1.859   4.816  3.3049  0.2567 -2.1467
 1871SOL    HW217247   2.641   1.888   4.897 -0.2930 -1.8339 -0.6099
 1872SOL     OW17248   0.710   3.194   5.036 -0.3118 -0.0887  0.1260
 1872SOL    HW117249   0.789   3.147   5.063 -1.0798 -1.3275  0.2068
 1872SOL    HW217250   0.687   3.253   5.108 -0.4791 -1.4946  1.2087
 1873SOL     OW17251   3.296   4.616   6.560  0.0757 -0.1554 -0.0338
 1873SOL    HW117252   3.232   4.640   6.492  0.2075 -2.1956 -0.8622
 1873SOL    HW217253   3.249   4.550   6.611  1.3432 -0.0278  1.2843
 1874SOL     OW17254   1.825   2.386   9.419  0.0118  0.4741 -0.2523
 1874SOL    HW117255   1.795   2.385   9.328 -1.7335 -3.2663  0.3645
 1874SOL    HW217256   1.745   2.356   9.464 -0.1733 -2.1206 -2.2662
 1875SOL     OW17257   4.204   0.185   5.071  0.0592  0.2373 -0.1819
 1875SOL    HW117258   4.210   0.108   5.015  0.6758  0.4219 -0.3651
 1875SOL    HW217259   4.155   0.236   5.006 -0.3443  0.5837  0.3885
 1876SOL     OW17260   3.987   4.426   5.279  0.3208 -0.1649  0.9593
 1876SOL    HW117261   4.016   4.343   5.241  0.5887 -0.2188  1.2821
 1876SOL    HW217262   4.068   4.475   5.270  0.9557 -1.7921 -2.4818
 1877SOL     OW17263   4.068   1.453   8.455  0.0996  0.2333 -0.0017
 1877SOL    HW117264   4.163   1.437   8.450 -0.2160 -1.7789  0.5750
 1877SOL    HW217265   4.053   1.404   8.374 -0.3433  1.2957 -0.5500
 1878SOL     OW17266   1.117   2.950   1.037  0.4443 -0.1805 -0.2887
 1878SOL    HW117267   1.184   3.008   1.074 -0.7498  0.5786  0.6716
 1878SOL    HW217268   1.063   2.962   1.116 -0.8575 -2.1188 -0.8966
 1879SOL     OW17269   3.772   3.269   8.802 -0.1294 -0.2296 -0.2041
 1879SOL    HW117270   3.790   3.184   8.841 -1.1180 -0.5067 -0.3512
 1879SOL    HW217271   3.850   3.295   8.754 -0.1800  1.3453  0.5418
 1880SOL     OW17272   1.718   2.530   8.460 -0.1243 -0.1559 -0.2750
 1880SOL    HW117273   1.756   2.443   8.450  2.1339  0.8333 -0.1068
 1880SOL    HW217274   1.642   2.514   8.403  0.5850  1.0315 -1.5649
 1881SOL     OW17275   1.373   0.677   3.003  0.2654 -0.2004 -0.1193
 1881SOL    HW117276   1.453   0.649   3.048  0.2134 -0.7154 -0.3508
 1881SOL    HW217277   1.339   0.738   3.069 -1.2487 -1.6285  0.4094
 1882SOL     OW17278   3.089   4.325   4.113  0.2681 -0.3071 -0.4263
 1882SOL    HW117279   3.174   4.367   4.102  0.3057 -0.3532 -0.3070
 1882SOL    HW217280   3.048   4.325   4.026 -0.1337 -0.9481 -0.2379
 1883SOL     OW17281   3.649   2.252   1.961 -0.4866 -0.0315 -0.0202
 1883SOL    HW117282   3.599   2.234   1.882  1.4898 -1.8700 -0.8147
 1883SOL    HW217283   3.697   2.331   1.937 -1.6680  0.7405  0.1258
 1884SOL     OW17284   1.215   1.473  16.301 -0.0027 -0.0802  0.6152
 1884SOL    HW117285   1.125   1.469  16.333 -0.7233 -2.3709 -1.6068
 1884SOL    HW217286   1.248   1.392  16.340 -0.7977  0.0160  1.4646
 1885SOL     OW17287   2.274   2.010   7.953 -0.2185  0.2750  0.9966
 1885SOL    HW117288   2.217   1.980   8.024 -0.1621  0.7866  1.2595
 1885SOL    HW217289   2.300   2.095   7.989 -0.6257  1.3722 -1.2910
 1886SOL     OW17290   2.951   1.426   2.082 -0.4294 -0.1877 -0.7134
 1886SOL    HW117291   3.025   1.367   2.095  1.2082  1.9803 -0.1000
 1886SOL    HW217292   2.983   1.491   2.019  3.3856 -0.0945  1.3208
 1887SOL     OW17293   2.909   3.619   0.433 -0.0194 -0.0850  0.0024
 1887SOL    HW117294   2.906   3.629   0.338  0.6326  0.2392  0.0154
 1887SOL    HW217295   2.931   3.709   0.458 -1.4011  0.4345 -0.7044
 1888SOL     OW17296   3.650   1.527  17.396  0.2962 -0.2747 -0.1898
 1888SOL    HW117297   3.603   1.510  17.478  1.9144 -1.4395  0.5021
 1888SOL    HW217298   3.727   1.471  17.407 -1.1989 -2.3514 -0.2809
 1889SOL     OW17299   1.003   4.683   6.502  0.2048  0.1628 -0.0591
 1889SOL    HW117300   0.961   4.716   6.581  1.3157  0.5434  0.3626
 1889SOL    HW217301   0.999   0.021   6.444  1.7532  0.1268 -0.1879
 1890SOL     OW17302   3.384   2.577   5.302 -0.1938  0.4041 -0.4868
 1890SOL    HW117303   3.478   2.591   5.318 -0.4641  1.4760  0.1802
 1890SOL    HW217304   3.381   2.507   5.237  0.3331  1.1850 -1.3553
 1891SOL     OW17305   3.561   3.198  17.373 -0.6344  0.1958  0.2183
 1891SOL    HW117306   3.644   3.244  17.387 -0.4738  0.3221 -1.0833
 1891SOL    HW217307   3.535   3.177  17.462  1.1724  0.3834  0.7992
 1892SOL     OW17308   0.537   2.480   1.716 -0.0330  0.4369  0.1542
 1892SOL    HW117309   0.552   2.465   1.810  0.1728 -0.3438  0.0000
 1892SOL    HW217310   0.533   2.575   1.716 -0.0868  0.4353 -0.6705
 1893SOL     OW17311   3.867   0.387   5.499  0.4192 -0.4321 -0.4261
 1893SOL    HW117312   3.877   0.481   5.487 -4.1129 -0.1747 -2.1545
 1893SOL    HW217313   3.788   0.379   5.445  0.8034  2.0337 -1.3366
 1894SOL     OW17314   4.260   4.251   3.615 -0.2202 -0.4029 -0.1417
 1894SOL    HW117315   4.233   4.334   3.654 -1.2363 -0.4749 -0.7017
 1894SOL    HW217316   4.200   4.256   3.541 -0.5557 -1.2950  0.0781
 1895SOL     OW17317   3.738   3.761   5.499  0.0426 -0.5227  0.1121
 1895SOL    HW117318   3.810   3.816   5.530 -0.1278 -0.8106  1.0071
 1895SOL    HW217319   3.702   3.802   5.420 -4.6344 -0.1730  2.4644
 1896SOL     OW17320   0.029   3.926   5.898  0.1969 -0.1968 -0.2472
 1896SOL    HW117321   0.022   3.978   5.819  1.0620 -0.0757 -0.2359
 1896SOL    HW217322   0.031   3.837   5.862 -4.6809 -0.1003 -0.8188
 1897SOL     OW17323   2.291   4.243  16.793  0.0067 -0.4833 -0.1990
 1897SOL    HW117324   2.303   4.287  16.877 -0.7285 -0.6024 -0.0258
 1897SOL    HW217325   2.234   4.301  16.743 -0.6898 -0.7637  0.2677
 1898SOL     OW17326   1.408   1.875   3.117 -0.1806  0.4252  0.1723
 1898SOL    HW117327   1.409   1.859   3.212 -2.6919  3.0380  0.6470
 1898SOL    HW217328   1.315   1.873   3.095 -0.4945 -1.7877  1.7048
 1899SOL     OW17329   2.409   0.881   0.730  0.5165  0.5463  0.3647
 1899SOL    HW117330   2.364   0.878   0.646  1.7950  2.0142 -0.3737
 1899SOL    HW217331   2.363   0.958   0.762 -1.7556 -0.3797 -0.6997
 1900SOL     OW17332   3.858   3.154   7.154  0.2447 -0.6717 -0.0585
 1900SOL    HW117333   3.935   3.165   7.210  0.4018 -0.0778 -0.3881
 1900SOL    HW217334   3.783   3.188   7.202 -1.0169 -1.4453 -1.4882
 1901SOL     OW17335   1.160   4.601   8.836 -0.4127  0.3930 -0.9290
 1901SOL    HW117336   1.205   4.667   8.889 -0.2439 -0.6113  0.1790
 1901SOL    HW217337   1.223   4.531   8.855  0.0328  1.5761  1.9705
 1902SOL     OW17338   3.243   0.124   6.907  0.3940  0.2612  0.0568
 1902SOL    HW117339   3.148   0.111   6.909  0.7336 -2.3647 -0.2144
 1902SOL    HW217340   3.265   0.031   6.913 -2.0603 -0.2281  1.4458
 1903SOL     OW17341   4.480   1.669  14.989  0.2014  0.0158 -0.4406
 1903SOL    HW117342   4.432   1.609  14.932  0.0098 -0.6768  0.4509
 1903SOL    HW217343   4.403   1.683  15.046  0.4482 -0.2361 -0.0439
 1904SOL     OW17344   3.755   4.209   7.213 -0.0415  0.0602 -0.3320
 1904SOL    HW117345   3.744   4.261   7.133  1.4395  0.4953 -0.2524
 1904SOL    HW217346   3.847   4.235   7.227 -0.6877  0.8879  2.4474
 1905SOL     OW17347   3.600   1.697   7.927 -0.3853  0.6085 -0.1225
 1905SOL    HW117348   3.554   1.641   7.865 -0.3164  0.6514 -0.2114
 1905SOL    HW217349   3.688   1.687   7.893  0.0607  1.2454  0.8302
 1906SOL     OW17350   0.245   1.310  17.299  0.9943 -0.1765 -0.2483
 1906SOL    HW117351   0.154   1.307  17.330  1.1678  1.4782  0.3972
 1906SOL    HW217352   0.255   1.240  17.234  1.0893 -2.4451  2.1840
 1907SOL     OW17353   0.934   2.352   6.188 -0.1113 -0.1141 -0.1512
 1907SOL    HW117354   0.905   2.371   6.277  1.9051 -1.1098  0.6987
 1907SOL    HW217355   0.905   2.262   6.174  0.5548  0.2094 -3.7530
 1908SOL     OW17356   0.311   1.861   6.772 -0.0350 -0.3040  0.6285
 1908SOL    HW117357   0.285   1.944   6.732  2.2845 -0.2410 -0.7203
 1908SOL    HW217358   0.237   1.804   6.753 -0.0201  0.0131 -0.3465
 1909SOL     OW17359   2.332   2.387   0.658  0.8299 -0.5743  0.0950
 1909SOL    HW117360   2.299   2.477   0.656 -0.3961 -1.0582 -1.1936
 1909SOL    HW217361   2.296   2.355   0.576 -0.7398  0.5611  0.3433
 1910SOL     OW17362   2.776   4.413   6.211 -0.2070  0.3064  0.4913
 1910SOL    HW117363   2.865   4.407   6.177 -0.3410  1.1023  0.0154
 1910SOL    HW217364   2.732   4.358   6.146  2.9322 -2.0252  0.3200
 1911SOL     OW17365   2.611   2.242   1.455  0.1827 -0.5181 -0.1588
 1911SOL    HW117366   2.616   2.248   1.360 -2.0808 -0.5366 -0.2827
 1911SOL    HW217367   2.531   2.288   1.479  1.0518  0.7548  0.3343
 1912SOL     OW17368   1.668   4.619   3.328 -0.1041  0.0607 -0.0068
 1912SOL    HW117369   1.679   4.703   3.284  0.3740 -0.0952 -0.1886
 1912SOL    HW217370   1.710   4.622   3.414 -1.0214 -1.0683  0.4866
 1913SOL     OW17371   0.352   2.783   7.200  0.0224  0.4424 -0.3549
 1913SOL    HW117372   0.432   2.754   7.155  1.6980 -0.4637  3.1895
 1913SOL    HW217373   0.317   2.703   7.240  0.4983  0.1604 -0.5058
 1914SOL     OW17374   4.578   3.919   7.256 -0.0659 -0.4660 -0.0120
 1914SOL    HW117375   4.666   3.883   7.268 -0.6711 -2.0322 -0.2895
 1914SOL    HW217376   4.547   3.938   7.344  2.5704  0.7047  0.6673
 1915SOL     OW17377   2.454   3.137   2.239  0.0292  0.0464  0.1103
 1915SOL    HW117378   2.482   3.147   2.148  1.0795 -1.0435  0.3116
 1915SOL    HW217379   2.533   3.102   2.280  0.6790  0.0974 -1.0982
 1916SOL     OW17380   2.405   0.808  11.815  0.2510 -0.3485 -1.0434
 1916SOL    HW117381   2.376   0.895  11.788 -0.8047 -0.2837  0.3131
 1916SOL    HW217382   2.444   0.774  11.734 -0.6748 -1.2749 -1.0962
 1917SOL     OW17383   2.129   0.037   7.186 -0.0838 -0.8069  0.2028
 1917SOL    HW117384   2.144   4.701   7.126 -1.9082 -1.7081  0.8467
 1917SOL    HW217385   2.182   0.095   7.132 -0.0112  0.6854  1.8623
 1918SOL     OW17386   3.812   3.254   6.182 -0.1009  0.1033 -0.1269
 1918SOL    HW117387   3.888   3.257   6.240  0.7925  2.1431 -1.3937
 1918SOL    HW217388   3.782   3.165   6.201 -0.9255  0.1086 -1.3505
 1919SOL     OW17389   2.240   0.877  13.572  0.0374 -0.1113  0.2109
 1919SOL    HW117390   2.320   0.901  13.526 -0.1323 -1.1017 -0.6221
 1919SOL    HW217391   2.170   0.899  13.510 -2.2097 -0.3824  2.6340
 1920SOL     OW17392   0.437   1.201   4.506 -0.0850 -0.7936 -0.8473
 1920SOL    HW117393   0.507   1.226   4.446 -2.4413  1.0583 -2.8413
 1920SOL    HW217394   0.358   1.224   4.457  0.6795  0.2088 -1.6132
 1921SOL     OW17395   3.927   1.993  10.360 -0.2050 -0.3836 -0.1563
 1921SOL    HW117396   3.844   1.973  10.316 -1.1276  1.3103  0.8462
 1921SOL    HW217397   3.986   2.010  10.285 -0.5847 -0.2982 -0.4350
 1922SOL     OW17398   3.865   1.013   8.654 -0.4067 -0.0469  0.4386
 1922SOL    HW117399   3.917   0.937   8.628 -0.7040  1.1061 -3.5656
 1922SOL    HW217400   3.857   1.068   8.576  0.2223 -4.0478 -2.4375
 1923SOL     OW17401   3.929   2.610   2.196  0.1488  0.2673 -0.0374
 1923SOL    HW117402   3.875   2.623   2.118  1.4312  1.8221 -0.6574
 1923SOL    HW217403   4.016   2.605   2.156 -0.9521  0.3877 -2.4216
 1924SOL     OW17404   2.470   3.629   2.341  0.4585  0.0730 -0.2354
 1924SOL    HW117405   2.473   3.724   2.354 -0.3656  0.0562  0.0603
 1924SOL    HW217406   2.519   3.627   2.259  2.3617  1.1949  0.8816
 1925SOL     OW17407   3.933   1.715   1.301 -0.1163  0.4942 -0.4365
 1925SOL    HW117408   4.000   1.707   1.234 -0.1043 -1.8043 -0.1662
 1925SOL    HW217409   3.854   1.679   1.259 -0.3111  1.7789 -1.1732
 1926SOL     OW17410   1.984   3.521  11.114  0.1662  0.2238 -0.1446
 1926SOL    HW117411   2.016   3.505  11.203  0.7690  2.4489  0.0440
 1926SOL    HW217412   2.050   3.585  11.087 -0.2486  1.2756  1.3600
 1927SOL     OW17413   1.119   4.380  12.502  0.0819  0.1093  0.1535
 1927SOL    HW117414   1.097   4.332  12.422 -1.4207  2.6449 -0.9714
 1927SOL    HW217415   1.133   4.472  12.478  1.3200 -0.5179 -1.5029
 1928SOL     OW17416   4.580   2.259   3.404 -0.0179  0.4866 -0.4840
 1928SOL    HW117417   4.568   2.247   3.498  2.3531 -1.6700 -0.4745
 1928SOL    HW217418   4.493   2.259   3.363  1.2122  1.4852 -3.1100
 1929SOL     OW17419   0.660   2.503   5.008  0.2883  0.5206 -0.6255
 1929SOL    HW117420   0.730   2.443   5.034 -0.9955 -0.6930 -0.0075
 1929SOL    HW217421   0.667   2.499   4.913 -2.7187 -1.1753 -0.7607
 1930SOL     OW17422   4.109   3.667   5.851  0.3561 -0.3494 -0.1115
 1930SOL    HW117423   4.031   3.722   5.839  0.4598 -0.0692  0.4488
 1930SOL    HW217424   4.085   3.598   5.912  1.2010  0.3694  1.0505
 1931SOL     OW17425   3.923   1.584   9.522  0.0746  0.4887 -0.5935
 1931SOL    HW117426   4.018   1.583   9.518  0.1128  0.9129  0.2375
 1931SOL    HW217427   3.911   1.672   9.558 -0.9727  0.6205 -1.2675
 1932SOL     OW17428   1.273   1.689  14.791 -0.2171 -0.1505 -0.4435
 1932SOL    HW117429   1.196   1.676  14.847 -0.2150  2.5651  0.1907
 1932SOL    HW217430   1.332   1.743  14.844 -2.4454  1.3187  0.5360
 1933SOL     OW17431   2.691   3.436   7.676 -0.2424 -0.0393  0.1717
 1933SOL    HW117432   2.677   3.352   7.633 -0.4262  0.7003 -1.1800
 1933SOL    HW217433   2.602   3.462   7.698  0.3451  1.8272  0.3006
 1934SOL     OW17434   4.671   0.967  13.318  0.3813 -0.1461 -0.3541
 1934SOL    HW117435   4.733   1.002  13.381 -0.1487  2.4910 -1.2926
 1934SOL    HW217436   4.733   0.967  13.245  1.7495 -0.0917  0.8031
 1935SOL     OW17437   2.442   0.557   2.426  0.4931  0.5950 -0.4700
 1935SOL    HW117438   2.392   0.593   2.353 -3.5169 -1.5667  1.2235
 1935SOL    HW217439   2.522   0.609   2.417  0.3683  0.6951 -1.0057
 1936SOL     OW17440   0.361   0.220  17.029  0.4026  0.3185 -0.1010
 1936SOL    HW117441   0.336   0.196  17.118 -1.6049  0.9615 -0.4894
 1936SOL    HW217442   0.452   0.243  17.047  0.7398  0.1010 -1.5007
 1937SOL     OW17443   0.936   3.612   6.124 -0.1609 -0.3673  0.1314
 1937SOL    HW117444   0.984   3.577   6.199  1.0519  3.4430  1.1598
 1937SOL    HW217445   0.943   3.704   6.150 -1.8704 -0.5068  1.1120
 1938SOL     OW17446   0.371   3.917   7.865  0.4301 -0.7364  0.6087
 1938SOL    HW117447   0.315   3.928   7.942 -0.1588 -2.2796  0.3986
 1938SOL    HW217448   0.334   3.839   7.822 -1.0319  0.2891 -0.0112
 1939SOL     OW17449   3.517   0.165   2.240 -0.0231  0.0122  0.5063
 1939SOL    HW117450   3.591   0.226   2.233  2.5965 -2.9320  2.5863
 1939SOL    HW217451   3.478   0.165   2.153 -1.4391 -3.1858  1.1579
 1940SOL     OW17452   1.201   1.549   7.544 -0.0615 -0.6018 -0.1807
 1940SOL    HW117453   1.277   1.542   7.602  0.4716 -0.4163 -0.8624
 1940SOL    HW217454   1.146   1.613   7.589  0.2761 -1.8696  2.0483
 1941SOL     OW17455   4.074   3.711   7.247  0.1555  0.5462  0.6371
 1941SOL    HW117456   4.120   3.789   7.218 -0.5339  1.0560  0.9294
 1941SOL    HW217457   3.992   3.749   7.276 -0.0710  0.7456 -0.2876
 1942SOL     OW17458   1.414   2.904  11.284  0.2095 -0.4427 -0.2315
 1942SOL    HW117459   1.456   2.827  11.246  0.4504 -0.1164 -0.6194
 1942SOL    HW217460   1.487   2.965  11.274 -1.3840  1.3646 -0.7196
 1943SOL     OW17461   3.430   2.551   0.679  0.9130  0.0084 -0.7164
 1943SOL    HW117462   3.335   2.536   0.683  0.9405  0.4375  1.6774
 1943SOL    HW217463   3.453   2.588   0.764 -0.8226 -0.7467  0.0911
 1944SOL     OW17464   0.775   1.016   2.627 -0.1802 -0.0338  0.4518
 1944SOL    HW117465   0.846   0.985   2.684  0.1414  1.8691  1.1023
 1944SOL    HW217466   0.797   0.979   2.542  0.3668  0.8937  0.1872
 1945SOL     OW17467   2.923   2.744   8.764  0.1315  0.5594 -0.2991
 1945SOL    HW117468   2.968   2.815   8.717 -0.8206 -0.2241 -2.3691
 1945SOL    HW217469   2.843   2.732   8.714  1.3300 -0.5621 -1.9320
 1946SOL     OW17470   0.976   2.177   3.040 -0.0428 -0.5443  0.0569
 1946SOL    HW117471   0.936   2.237   2.977 -0.5309  0.4429  1.3039
 1946SOL    HW217472   1.062   2.177   2.998  0.5463  1.5461  1.2521
 1947SOL     OW17473   1.984   2.005   7.811 -0.4162 -0.4056  0.7011
 1947SOL    HW117474   2.070   2.047   7.820 -0.3026 -0.5671  0.3582
 1947SOL    HW217475   1.926   2.079   7.826  0.0495  0.2942 -0.8960
 1948SOL     OW17476   1.639   1.464   5.507  0.2422  0.2288 -0.1985
 1948SOL    HW117477   1.659   1.519   5.431  2.2827  0.1261  0.2669
 1948SOL    HW217478   1.671   1.380   5.473 -0.9804  0.2008 -1.2794
 1949SOL     OW17479   0.341   0.282   6.795 -0.6231 -0.7564  0.3299
 1949SOL    HW117480   0.302   0.282   6.883 -2.9334  0.5635 -0.6825
 1949SOL    HW217481   0.330   0.373   6.766  1.5289 -0.5674  0.1332
 1950SOL     OW17482   1.863   1.236   4.029  0.3494 -0.1950 -0.2831
 1950SOL    HW117483   1.897   1.311   3.979 -1.0730  0.4957 -0.2325
 1950SOL    HW217484   1.940   1.181   4.041  1.9098  2.5904  2.3937
 1951SOL     OW17485   2.546   4.048  14.866  0.5455  0.2951  0.0895
 1951SOL    HW117486   2.594   3.978  14.911  0.7632  0.4051  0.0289
 1951SOL    HW217487   2.464   3.999  14.858  0.5455 -0.1795  2.9813
 1952SOL     OW17488   3.243   0.563   7.592  0.2862 -0.3170 -0.5611
 1952SOL    HW117489   3.206   0.512   7.521 -0.1120 -3.3946  1.8485
 1952SOL    HW217490   3.335   0.558   7.568  0.1232 -2.6485 -0.6862
 1953SOL     OW17491   3.612   3.936   4.453 -0.1170 -0.0135  0.4169
 1953SOL    HW117492   3.689   3.888   4.424  0.0802  1.6806 -1.9353
 1953SOL    HW217493   3.548   3.870   4.480 -1.4130  1.2311  0.3748
 1954SOL     OW17494   4.150   0.133  16.682 -0.3730  0.2898  0.5209
 1954SOL    HW117495   4.124   0.115  16.592 -0.7848 -0.6150  0.8247
 1954SOL    HW217496   4.228   0.079  16.695  1.4226  2.8355  0.4308
 1955SOL     OW17497   0.441   2.140   5.034 -0.2112  0.2700  0.3016
 1955SOL    HW117498   0.384   2.079   5.080 -1.8690  0.5352 -1.3702
 1955SOL    HW217499   0.376   2.203   5.002 -2.3694 -1.5219  1.1248
 1956SOL     OW17500   3.876   3.952   2.108 -0.4921 -0.2423 -0.2984
 1956SOL    HW117501   3.847   3.869   2.146  0.3490  0.2774  1.5011
 1956SOL    HW217502   3.887   4.008   2.185 -0.6649  0.3481 -0.7063
 1957SOL     OW17503   4.560   1.307   6.065 -0.4582 -0.1333 -0.3042
 1957SOL    HW117504   4.542   1.250   6.140 -0.5896  1.8826  1.1814
 1957SOL    HW217505   4.542   1.248   5.992  0.9027 -2.7050  1.4345
 1958SOL     OW17506   0.791   3.096   8.637  0.4557  0.0604 -0.4454
 1958SOL    HW117507   0.802   3.172   8.579  2.0354 -0.5684 -0.9485
 1958SOL    HW217508   0.732   3.141   8.698  0.1318 -1.6464  0.4845
 1959SOL     OW17509   2.401   3.910   9.865 -0.4465 -0.3283  0.1757
 1959SOL    HW117510   2.403   3.828   9.816 -2.9790 -0.3853  0.2074
 1959SOL    HW217511   2.356   3.889   9.947 -0.4308  2.3368  0.8633
 1960SOL     OW17512   2.601   2.971   0.422 -0.5397  0.2525  0.3887
 1960SOL    HW117513   2.615   3.060   0.390  1.0143  0.1587  0.8062
 1960SOL    HW217514   2.603   2.921   0.340 -1.4018  0.6153  0.1495
 1961SOL     OW17515   4.612   3.610  10.026  0.2535 -0.1512  0.0101
 1961SOL    HW117516   4.668   3.636  10.099 -2.0182 -0.4423  1.8303
 1961SOL    HW217517   4.528   3.646  10.054  0.0638 -1.1617  0.7239
 1962SOL     OW17518   3.141   2.558  10.920  0.0609  0.1693 -0.4520
 1962SOL    HW117519   3.190   2.505  10.983  0.2658  0.6535 -0.2072
 1962SOL    HW217520   3.201   2.627  10.892  1.8902 -0.7998  1.0621
 1963SOL     OW17521   1.789   4.103   7.051  0.0302 -0.5530  0.6700
 1963SOL    HW117522   1.824   4.181   7.094 -0.1202  0.3538 -0.8774
 1963SOL    HW217523   1.865   4.072   7.001  1.2559  0.4446  1.9147
 1964SOL     OW17524   3.482   1.716   5.667  0.4179  0.3076 -0.3199
 1964SOL    HW117525   3.433   1.656   5.723 -0.9823 -1.6730 -3.7115
 1964SOL    HW217526   3.484   1.670   5.584  1.1863 -2.1946  1.0956
 1965SOL     OW17527   4.718   3.100   6.280 -0.4558  0.0335 -0.8967
 1965SOL    HW117528   0.018   3.060   6.202 -1.1676  1.2654 -1.8752
 1965SOL    HW217529   4.727   3.038   6.353  1.2569  0.5242 -0.6869
 1966SOL     OW17530   2.374   1.210  12.544 -0.3455 -0.2448 -0.2618
 1966SOL    HW117531   2.384   1.235  12.636 -1.9505  1.6314 -0.5995
 1966SOL    HW217532   2.455   1.162  12.527 -0.1130 -0.1652  0.6231
 1967SOL     OW17533   4.029   3.371   8.677 -0.1504  0.1101 -0.6339
 1967SOL    HW117534   4.014   3.370   8.582  2.6346  2.5272 -1.1165
 1967SOL    HW217535   4.007   3.461   8.702 -0.2594  0.2919 -1.3689
 1968SOL     OW17536   3.382   3.766   3.819 -0.5956  0.5199  0.0683
 1968SOL    HW117537   3.391   3.834   3.752  0.5414 -1.8173 -2.1497
 1968SOL    HW217538   3.328   3.698   3.780 -2.2519  0.6084  2.2274
 1969SOL     OW17539   3.951   3.854   2.496  0.4436  0.1869 -0.3959
 1969SOL    HW117540   3.981   3.933   2.452  0.3728  1.0422  1.0797
 1969SOL    HW217541   3.857   3.875   2.488 -0.2725 -2.6606  0.6504
 1970SOL     OW17542   2.767   0.552   2.009  0.7563  0.1794  0.2697
 1970SOL    HW117543   2.843   0.593   2.050  1.2112 -0.5577  0.1496
 1970SOL    HW217544   2.786   0.551   1.916  1.6133  0.6155  0.4392
 1971SOL     OW17545   4.004   2.207  10.511 -0.1778 -0.5060 -0.5092
 1971SOL    HW117546   3.973   2.138  10.453 -1.0936  0.0879 -0.7206
 1971SOL    HW217547   3.932   2.269  10.522 -0.2290 -0.0937 -3.2010
 1972SOL     OW17548   3.042   1.359   5.069 -0.5893 -0.2299 -0.1686
 1972SOL    HW117549   2.973   1.310   5.114 -0.7699  0.4808  0.3223
 1972SOL    HW217550   3.071   1.295   5.004 -1.0766 -0.9453  0.3135
 1973SOL     OW17551   1.047   1.759   9.668 -0.1804  0.4487  0.2395
 1973SOL    HW117552   1.094   1.700   9.727 -1.1339  0.6243  1.1756
 1973SOL    HW217553   1.009   1.692   9.612  0.5056 -0.5023  0.9007
 1974SOL     OW17554   2.578   4.349   5.698 -0.0119  0.1418  0.0573
 1974SOL    HW117555   2.584   4.433   5.744  0.7621 -0.1034  0.4019
 1974SOL    HW217556   2.521   4.373   5.625  2.3822  1.9342 -1.2116
 1975SOL     OW17557   4.041   0.821   8.017  0.2392  0.1997 -0.4413
 1975SOL    HW117558   4.019   0.732   7.988  0.2807  0.3690 -0.9873
 1975SOL    HW217559   4.033   0.869   7.935  0.6864  0.8408 -0.1083
 1976SOL     OW17560   2.775   2.140   3.924  0.3519  0.1529  0.2349
 1976SOL    HW117561   2.859   2.183   3.943  0.1493  0.7615 -0.2783
 1976SOL    HW217562   2.748   2.162   4.014 -1.9562 -1.9828  0.0631
 1977SOL     OW17563   4.059   2.022  14.644 -0.8154  0.1203 -0.2291
 1977SOL    HW117564   4.113   2.060  14.713  0.8132 -0.1801 -1.3339
 1977SOL    HW217565   4.090   1.932  14.628 -2.4081 -0.7447  1.5593
 1978SOL     OW17566   0.709   3.296   9.531 -0.6368 -0.0652 -0.2369
 1978SOL    HW117567   0.673   3.209   9.511 -0.3027 -0.3786  0.5482
 1978SOL    HW217568   0.800   3.282   9.507 -0.3958  0.3542  0.4400
 1979SOL     OW17569   3.814   2.707   1.946 -0.0465  0.2298  0.1244
 1979SOL    HW117570   3.893   2.759   1.931  0.9913 -0.9882  1.4516
 1979SOL    HW217571   3.748   2.759   1.900  1.3695 -0.6547 -2.8623
 1980SOL     OW17572   2.970   1.802   0.337  0.2528  0.3273 -0.1501
 1980SOL    HW117573   2.900   1.798   0.272 -0.0942 -0.7822  0.2802
 1980SOL    HW217574   2.971   1.895   0.359  1.7651  0.5242 -1.0282
 1981SOL     OW17575   3.886   4.340   3.484 -0.0326  1.0198 -0.4949
 1981SOL    HW117576   3.941   4.413   3.511  0.2398  1.5721 -2.5263
 1981SOL    HW217577   3.957   4.288   3.445  1.0625  0.1135  2.7739
 1982SOL     OW17578   4.085   3.231  13.513  0.2535 -0.8229 -0.1835
 1982SOL    HW117579   4.137   3.283  13.451  0.9993 -1.5804 -0.1946
 1982SOL    HW217580   4.130   3.259  13.593  1.1556 -0.1338 -0.9355
 1983SOL     OW17581   1.094   0.680   4.076  0.1661  0.0862  0.1459
 1983SOL    HW117582   1.079   0.755   4.019 -1.2928 -0.8124 -0.6466
 1983SOL    HW217583   1.190   0.679   4.075  0.1740 -0.2751  1.2645
 1984SOL     OW17584   3.097   0.911   3.140  0.0950  0.0514 -0.4758
 1984SOL    HW117585   3.083   1.006   3.138  0.7589  0.2117  2.4658
 1984SOL    HW217586   3.182   0.907   3.184 -0.2978  0.7905  0.3388
 1985SOL     OW17587   3.667   0.384  12.322  0.2757 -0.5573 -0.2006
 1985SOL    HW117588   3.757   0.409  12.302 -0.1265  1.0640  0.0384
 1985SOL    HW217589   3.641   0.453  12.383  1.6942 -0.6593  0.5112
 1986SOL     OW17590   4.644   4.578   5.056  0.0770  0.4155  0.7011
 1986SOL    HW117591   4.597   4.575   4.973  1.4447  1.5679 -0.1270
 1986SOL    HW217592   4.701   4.653   5.038  0.4481 -0.4829 -1.8833
 1987SOL     OW17593   3.259   0.904   7.002  0.7018  0.7424 -0.4151
 1987SOL    HW117594   3.178   0.929   7.047  1.5823  2.5698  0.1417
 1987SOL    HW217595   3.244   0.810   6.992  2.2560  0.3588  0.8913
 1988SOL     OW17596   3.425   3.002   5.731  0.2719  0.3208  0.3138
 1988SOL    HW117597   3.506   3.053   5.727 -0.2383  0.9224 -2.6419
 1988SOL    HW217598   3.368   3.055   5.787 -0.2332  1.6743 -1.4921
 1989SOL     OW17599   3.334   2.521  14.123 -0.0422 -0.2735  0.5157
 1989SOL    HW117600   3.282   2.483  14.193 -0.1790 -1.1781 -0.0615
 1989SOL    HW217601   3.419   2.542  14.161  0.5766 -2.4541  0.3760
 1990SOL     OW17602   1.711   2.088   8.810  0.2419 -0.5619 -0.0278
 1990SOL    HW117603   1.759   2.065   8.890  0.8471  0.4579 -0.0958
 1990SOL    HW217604   1.749   2.176   8.801  1.1614 -1.0695 -1.0897
 1991SOL     OW17605   0.911   2.909   2.484 -0.1094  0.0544 -0.0481
 1991SOL    HW117606   0.862   2.989   2.504  0.8589  0.6204  0.0322
 1991SOL    HW217607   0.935   2.920   2.392  0.3746 -2.8629 -0.2624
 1992SOL     OW17608   3.197   1.820   3.859  0.3398  0.4258  0.0889
 1992SOL    HW117609   3.278   1.835   3.810 -0.8147  2.0258 -1.3253
 1992SOL    HW217610   3.227   1.835   3.948 -1.7861  1.2226  0.6655
 1993SOL     OW17611   4.376   2.403   2.076  0.0936  0.3093  0.0644
 1993SOL    HW117612   4.328   2.485   2.088  0.5764  0.5834  0.1176
 1993SOL    HW217613   4.455   2.436   2.034 -0.0045  0.3797 -0.0654
 1994SOL     OW17614   0.984   0.851  10.491 -0.3212 -0.1745 -0.4333
 1994SOL    HW117615   1.008   0.778  10.548  0.0244  0.7375  0.5909
 1994SOL    HW217616   1.043   0.914  10.533 -0.1704 -1.1441  0.7715
 1995SOL     OW17617   4.645   0.909   2.873  0.0138 -0.3673 -0.0141
 1995SOL    HW117618   4.604   0.827   2.903  2.6686 -2.1297 -1.1739
 1995SOL    HW217619   4.679   0.883   2.787 -0.9193  1.2850 -0.8804
 1996SOL     OW17620   0.300   0.085   6.605 -0.4161 -0.5761  0.4324
 1996SOL    HW117621   0.299   0.148   6.678  0.0846 -1.2247  0.9948
 1996SOL    HW217622   0.238   0.020   6.636 -2.7757  1.0595 -0.8435
 1997SOL     OW17623   4.590   1.055   5.015  0.8552  0.1309  0.7638
 1997SOL    HW117624   4.602   0.970   4.972 -0.2351  0.8479 -0.9636
 1997SOL    HW217625   4.527   1.030   5.082  0.0276  0.5246  0.1406
 1998SOL     OW17626   2.435   0.649   1.003 -0.6985 -0.5399  0.0514
 1998SOL    HW117627   2.444   0.599   1.084  0.2568  2.2101  1.6671
 1998SOL    HW217628   2.523   0.687   1.011 -0.3964 -1.2145 -0.0582
 1999SOL     OW17629   0.231   3.424   7.017 -0.1577  0.2181 -0.1850
 1999SOL    HW117630   0.226   3.448   7.110  2.3177  0.0721 -0.0042
 1999SOL    HW217631   0.188   3.501   6.980  0.4029  0.6254  0.0002
 2000SOL     OW17632   0.516   0.384  17.469  0.4538 -0.3481  0.4633
 2000SOL    HW117633   0.573   0.408  17.396  0.1756  0.1907  0.4207
 2000SOL    HW217634   0.538   0.449  17.535  0.1930  1.1546 -0.9240
 2001SOL     OW17635   1.876   3.069  11.175  0.0941  0.2229  0.5826
 2001SOL    HW117636   1.957   3.059  11.225  1.5690  0.6453 -1.7282
 2001SOL    HW217637   1.891   3.131  11.104 -1.8569 -1.6178 -1.4420
 2002SOL     OW17638   3.708   1.041   3.690  0.1330 -0.1152 -0.3117
 2002SOL    HW117639   3.646   0.984   3.644 -0.1766  0.0745 -0.1326
 2002SOL    HW217640   3.643   1.075   3.751  0.0735 -1.9705  0.6693
 2003SOL     OW17641   2.478   0.196   5.983 -0.1595 -0.2032  0.3023
 2003SOL    HW117642   2.559   0.235   6.015 -0.1096  0.2337 -0.3502
 2003SOL    HW217643   2.468   0.124   6.045  2.8016 -2.1156 -1.4572
 2004SOL     OW17644   3.394   0.877  13.799  0.2957  0.2845  0.0981
 2004SOL    HW117645   3.414   0.953  13.854  2.1338 -0.1013 -0.0199
 2004SOL    HW217646   3.448   0.900  13.723 -0.1481  0.7439 -0.0697
 2005SOL     OW17647   4.655   2.616  14.376  0.4246  0.3262 -0.8322
 2005SOL    HW117648   4.624   2.539  14.329  1.7541 -0.7794  0.0947
 2005SOL    HW217649   0.009   2.594  14.392  0.2431  1.2291  1.5100
 2006SOL     OW17650   0.501   0.407   9.420 -0.1936 -0.0182  0.2826
 2006SOL    HW117651   0.484   0.315   9.436  0.0479 -0.1636 -0.2972
 2006SOL    HW217652   0.490   0.416   9.325  3.5478  0.0087 -0.1549
 2007SOL     OW17653   0.217   4.482   7.935 -0.1576  0.0402  0.7910
 2007SOL    HW117654   0.266   4.527   7.866  1.4633 -1.1892  1.1339
 2007SOL    HW217655   0.159   4.556   7.954  0.5465  0.5014  1.1352
 2008SOL     OW17656   2.018   1.693  13.205  0.2803  0.5336 -0.3817
 2008SOL    HW117657   2.082   1.706  13.275  0.2102 -1.8699  0.1227
 2008SOL    HW217658   1.964   1.771  13.215 -0.5933 -0.1978  0.6404
 2009SOL     OW17659   3.310   4.640   4.405 -0.6434  0.1163  0.0473
 2009SOL    HW117660   3.394   4.602   4.431 -0.1424  1.7980  0.9109
 2009SOL    HW217661   3.288   4.576   4.338 -0.0500 -0.4886  0.4319
 2010SOL     OW17662   0.143   3.183   5.694  0.0485  0.1233 -0.2281
 2010SOL    HW117663   0.179   3.258   5.646  2.7719 -1.0197  0.0257
 2010SOL    HW217664   0.170   3.204   5.783 -0.3075 -2.2103  0.4198
 2011SOL     OW17665   0.301   2.548   2.252  0.4932  0.4543  0.0735
 2011SOL    HW117666   0.208   2.556   2.276  0.5353  0.1388  0.3369
 2011SOL    HW217667   0.298   2.522   2.160 -1.7336  3.4388 -0.7206
 2012SOL     OW17668   1.585   2.960   8.572  0.1962 -0.6567 -0.2026
 2012SOL    HW117669   1.638   2.898   8.522 -1.2191 -2.0541  0.0367
 2012SOL    HW217670   1.517   2.971   8.505 -1.1292 -0.8862  1.0960
 2013SOL     OW17671   3.921   1.255   6.515 -0.1817  0.4623 -0.1346
 2013SOL    HW117672   3.826   1.247   6.510  0.0453 -1.8760 -0.7726
 2013SOL    HW217673   3.940   1.317   6.445  2.6097 -1.6552 -1.2543
 2014SOL     OW17674   3.545   2.674   8.726  0.6231 -0.4956 -0.0394
 2014SOL    HW117675   3.501   2.597   8.690  0.5981  0.7093 -2.6475
 2014SOL    HW217676   3.540   2.665   8.821  2.2287  0.5639  0.1423
 2015SOL     OW17677   0.186   3.853   3.310  0.0796  0.8036 -0.0103
 2015SOL    HW117678   0.266   3.844   3.361 -2.1104 -2.2212  2.8945
 2015SOL    HW217679   0.213   3.813   3.227 -3.4087  1.8554 -1.6659
 2016SOL     OW17680   1.153   2.582  17.176  0.2702 -0.2347 -0.2948
 2016SOL    HW117681   1.244   2.604  17.158 -0.0077 -1.0763 -2.8561
 2016SOL    HW217682   1.129   2.503  17.128  1.1738  0.3759 -1.7469
 2017SOL     OW17683   1.809   4.182   3.173  0.5430 -0.4570 -0.1516
 2017SOL    HW117684   1.767   4.168   3.258  0.4744  0.1618 -0.0847
 2017SOL    HW217685   1.777   4.271   3.160 -0.7586 -1.1894 -1.9078
 2018SOL     OW17686   3.667   3.978  10.231  0.5777 -0.0089  0.3346
 2018SOL    HW117687   3.589   3.952  10.281 -0.3502  1.6290 -0.2811
 2018SOL    HW217688   3.665   4.068  10.263 -3.1739 -0.1282  0.4511
 2019SOL     OW17689   1.039   4.656   2.625 -0.5344  0.6482  0.2096
 2019SOL    HW117690   1.024   0.010   2.648 -1.9100  0.4009  0.2812
 2019SOL    HW217691   1.006   4.664   2.535 -0.1430 -1.2815 -0.0969
 2020SOL     OW17692   4.248   0.622   2.148  0.7327  0.5907  0.0472
 2020SOL    HW117693   4.229   0.582   2.063  0.0108 -0.2741  0.6192
 2020SOL    HW217694   4.220   0.560   2.215  3.9534 -2.9097 -1.8053
 2021SOL     OW17695   1.459   4.005   1.892  0.1925  0.2531 -0.6390
 2021SOL    HW117696   1.439   3.911   1.891  1.5965  0.0016 -2.9383
 2021SOL    HW217697   1.388   4.048   1.941  1.9620 -0.1429  2.2857
 2022SOL     OW17698   3.255   0.724   4.386 -0.0875 -0.7955 -0.3000
 2022SOL    HW117699   3.197   0.663   4.432  1.0431 -0.3200  1.7124
 2022SOL    HW217700   3.297   0.665   4.323 -2.0315 -0.7823 -1.6279
 2023SOL     OW17701   4.448   3.122  12.339 -0.1752  0.3778  1.0172
 2023SOL    HW117702   4.481   3.167  12.261  0.4223  1.0601  1.6559
 2023SOL    HW217703   4.368   3.172  12.352 -1.3195 -0.3077 -3.4899
 2024SOL     OW17704   0.958   3.384  13.789 -0.4831 -0.0448  0.0263
 2024SOL    HW117705   1.039   3.338  13.812 -0.8942 -1.5429 -1.4933
 2024SOL    HW217706   0.942   3.338  13.707  0.4576 -0.5422  0.1193
 2025SOL     OW17707   3.652   2.625   7.753 -0.1312 -0.5984 -0.1428
 2025SOL    HW117708   3.629   2.681   7.678  0.2068  0.0131  0.2096
 2025SOL    HW217709   3.748   2.623   7.751 -0.1142  0.9544 -1.2526
 2026SOL     OW17710   4.244   1.718   6.533  0.2250  0.2481  0.0615
 2026SOL    HW117711   4.282   1.683   6.453  0.5843 -0.4797  0.5465
 2026SOL    HW217712   4.235   1.812   6.516 -3.1096  0.2698  1.9173
 2027SOL     OW17713   2.146   4.519   3.067 -0.5457  0.6916 -0.2285
 2027SOL    HW117714   2.115   4.592   3.121  0.6063  0.9154  0.1331
 2027SOL    HW217715   2.174   4.456   3.133  0.5561  1.1922 -0.2090
 2028SOL     OW17716   2.188   2.789   4.957 -0.5139  0.6036 -0.3787
 2028SOL    HW117717   2.200   2.837   5.039 -0.1779  0.6039 -0.4285
 2028SOL    HW217718   2.148   2.708   4.989  2.6211 -0.6008  0.4119
 2029SOL     OW17719   3.825   2.361   2.287 -0.4691 -0.0614  0.0113
 2029SOL    HW117720   3.867   2.439   2.249  0.4244  0.2440  1.6452
 2029SOL    HW217721   3.734   2.370   2.261 -0.8324 -0.0175  1.3085
 2030SOL     OW17722   4.681   0.933   1.828 -0.2408  0.2293 -0.5924
 2030SOL    HW117723   4.601   0.885   1.847  0.7086 -0.6432  1.1509
 2030SOL    HW217724   4.642   0.996   1.767 -0.8256 -2.1276 -2.6267
 2031SOL     OW17725   3.879   0.666   7.176  0.2508  0.5573  0.0952
 2031SOL    HW117726   3.784   0.659   7.161  0.3799 -1.2040  0.0877
 2031SOL    HW217727   3.910   0.584   7.138 -0.7619 -0.1346  0.7662
 2032SOL     OW17728   2.547   3.644  10.406 -0.4120  0.2132  0.5123
 2032SOL    HW117729   2.556   3.554  10.375  0.9555  0.6310 -0.2894
 2032SOL    HW217730   2.636   3.678  10.396  0.4670 -2.3250 -0.4402
 2033SOL     OW17731   3.604   1.497  16.055  0.0490  0.2970 -0.2344
 2033SOL    HW117732   3.518   1.488  16.013 -1.9245  2.7209  3.2974
 2033SOL    HW217733   3.653   1.427  16.011  1.3170  1.2751 -0.3566
 2034SOL     OW17734   3.036   4.517  13.685 -0.7698  0.5270  0.0811
 2034SOL    HW117735   3.084   4.591  13.721  1.9502 -0.5755 -1.2303
 2034SOL    HW217736   2.957   4.520  13.738 -1.0595 -1.2934 -0.2433
 2035SOL     OW17737   1.513   3.642   6.017  0.3286  0.3898 -0.1865
 2035SOL    HW117738   1.462   3.712   6.059  3.9042  2.0679  1.3819
 2035SOL    HW217739   1.472   3.644   5.931  0.6062  0.9291 -0.3027
 2036SOL     OW17740   0.132   3.828   7.169  0.0757 -0.4136  0.3909
 2036SOL    HW117741   0.126   3.762   7.100 -0.6916  2.1493 -1.9877
 2036SOL    HW217742   0.181   3.768   7.226  1.3603 -1.1624 -1.4908
 2037SOL     OW17743   0.202   4.706   7.285  0.1474 -0.5885 -0.4162
 2037SOL    HW117744   0.149   4.643   7.334 -1.9240  2.0654  0.7259
 2037SOL    HW217745   0.202   4.650   7.207 -0.6129 -3.3550  1.5368
 2038SOL     OW17746   3.636   1.305  11.801  0.3187 -0.3284 -0.2122
 2038SOL    HW117747   3.730   1.314  11.784  0.5388 -1.6954  0.2807
 2038SOL    HW217748   3.640   1.313  11.896  1.4177 -1.6285 -0.1544
 2039SOL     OW17749   3.137   2.362   9.665  0.5072 -0.5270 -0.1656
 2039SOL    HW117750   3.122   2.346   9.572 -1.3264  0.4705 -0.0614
 2039SOL    HW217751   3.148   2.276   9.705 -0.9651  0.0524  1.5265
 2040SOL     OW17752   0.921   2.776  11.227  0.0042 -0.0509 -0.2290
 2040SOL    HW117753   0.959   2.808  11.309  2.5586 -0.5458 -1.2177
 2040SOL    HW217754   0.918   2.850  11.166 -0.1053 -0.1589 -0.3550
 2041SOL     OW17755   3.639   0.346  11.463  0.3639  0.3151 -0.6222
 2041SOL    HW117756   3.603   0.392  11.539  0.3948  0.6355 -0.7998
 2041SOL    HW217757   3.683   0.423  11.428  2.8266 -1.8530 -2.2699
 2042SOL     OW17758   2.197   4.459   8.747  0.2508 -0.0797 -0.6022
 2042SOL    HW117759   2.284   4.497   8.735 -0.2979  1.3266 -0.0673
 2042SOL    HW217760   2.209   4.378   8.697  0.4723  0.5556 -1.5698
 2043SOL     OW17761   3.859   0.208   5.734 -0.3080  0.1164 -0.2611
 2043SOL    HW117762   3.827   0.248   5.653 -0.6367 -0.3040 -0.3331
 2043SOL    HW217763   3.935   0.156   5.710  0.7240  2.2402 -1.5973
 2044SOL     OW17764   4.156   0.784   2.448  0.0137 -0.0266  0.0300
 2044SOL    HW117765   4.104   0.862   2.467 -1.6630 -1.5835  1.7644
 2044SOL    HW217766   4.097   0.740   2.388 -0.4169 -2.0447  1.9424
 2045SOL     OW17767   4.391   3.376   6.638 -0.3167 -0.0170  0.6878
 2045SOL    HW117768   4.308   3.397   6.681 -0.5000 -2.7654  1.6907
 2045SOL    HW217769   4.447   3.379   6.715  0.6895 -1.0957 -0.0014
 2046SOL     OW17770   0.192   1.202   5.999 -0.2963 -0.1826  0.4740
 2046SOL    HW117771   0.158   1.256   5.927  0.3454 -0.6028 -0.1494
 2046SOL    HW217772   0.162   1.116   5.969 -0.3976  0.4550 -1.3010
 2047SOL     OW17773   4.487   2.259   1.281  0.0057  0.1297 -0.2368
 2047SOL    HW117774   4.486   2.224   1.191 -1.5882 -1.4506  0.3807
 2047SOL    HW217775   4.495   2.176   1.329 -0.8183 -1.5239 -2.9291
 2048SOL     OW17776   3.562   1.325   7.926  0.4632 -0.0537 -0.3247
 2048SOL    HW117777   3.543   1.308   8.018 -0.1382  0.2831 -0.3897
 2048SOL    HW217778   3.626   1.256   7.905 -0.0076 -0.6783  0.2876
 2049SOL     OW17779   1.108   1.252   6.123 -0.2661 -0.0295  0.5287
 2049SOL    HW117780   1.174   1.245   6.192 -0.9622 -0.9240  1.1010
 2049SOL    HW217781   1.156   1.209   6.052 -0.6302 -0.1710  0.3699
 2050SOL     OW17782   2.965   3.700   7.081 -0.0087 -0.7957 -0.2496
 2050SOL    HW117783   3.050   3.744   7.075  0.3865 -1.4594  0.7114
 2050SOL    HW217784   2.905   3.774   7.068  0.3080 -0.2318  1.5638
 2051SOL     OW17785   1.284   3.135  15.684  0.3511 -0.4136 -0.5833
 2051SOL    HW117786   1.371   3.156  15.651 -0.3734 -2.7162 -4.0527
 2051SOL    HW217787   1.263   3.227  15.697  2.3626  0.0412 -0.5280
 2052SOL     OW17788   0.441   3.287   1.452  0.1234  0.7869 -0.6740
 2052SOL    HW117789   0.435   3.371   1.406  0.6420  2.2326  1.8887
 2052SOL    HW217790   0.349   3.282   1.477  0.2781  0.0725 -0.2744
 2053SOL     OW17791   1.505   4.614   8.345  0.0583 -0.4059 -0.3996
 2053SOL    HW117792   1.541   4.642   8.429  1.5809 -0.6654 -0.9803
 2053SOL    HW217793   1.429   4.566   8.378 -0.2547 -0.3220 -0.9915
 2054SOL     OW17794   2.735   3.348  15.735 -0.7586 -0.0600 -0.4532
 2054SOL    HW117795   2.808   3.326  15.793  0.2781  0.9665 -1.3627
 2054SOL    HW217796   2.775   3.403  15.668  2.8850 -0.0333  1.7543
 2055SOL     OW17797   3.455   1.735   1.119  0.2288  0.2990  0.3988
 2055SOL    HW117798   3.405   1.710   1.042  0.3385  0.5345  0.2518
 2055SOL    HW217799   3.433   1.661   1.177  1.5346  0.3960  1.0329
 2056SOL     OW17800   2.240   0.212   7.404  0.3837  0.3584  0.3629
 2056SOL    HW117801   2.270   0.153   7.335  1.6608 -0.6836  1.8345
 2056SOL    HW217802   2.189   0.168   7.472 -1.7340  1.8214 -0.2332
 2057SOL     OW17803   0.915   3.030   5.684  0.0815 -0.2867  0.3511
 2057SOL    HW117804   0.932   3.116   5.724  0.7378 -0.4308  0.3796
 2057SOL    HW217805   0.849   2.995   5.743 -0.6361  1.6805  0.7216
 2058SOL     OW17806   4.694   0.582   7.383  0.3741 -0.1080  0.2021
 2058SOL    HW117807   4.722   0.492   7.400 -0.6959 -1.0142 -2.7600
 2058SOL    HW217808   4.602   0.574   7.406 -0.4651  2.8344 -2.1366
 2059SOL     OW17809   0.121   3.337   6.322  0.1813  0.1995 -0.0563
 2059SOL    HW117810   0.057   3.274   6.289  0.2405 -0.4531  1.1102
 2059SOL    HW217811   0.189   3.271   6.335  0.5359  0.7834  1.0581
 2060SOL     OW17812   4.043   1.030   2.230  0.4382 -0.1104 -0.7030
 2060SOL    HW117813   3.955   0.994   2.222  0.8375 -0.9395 -1.4019
 2060SOL    HW217814   4.058   1.043   2.324  0.5916 -2.4248 -0.4148
 2061SOL     OW17815   0.821   2.437   0.163 -0.0126  0.1307  0.0457
 2061SOL    HW117816   0.884   2.403   0.226 -0.3261  0.0700  0.3258
 2061SOL    HW217817   0.866   2.421   0.080 -1.6272  0.9489 -0.9969
 2062SOL     OW17818   3.666   0.649   2.189 -0.2708  0.3218  0.1578
 2062SOL    HW117819   3.613   0.677   2.115 -0.7428  0.9320  0.7375
 2062SOL    HW217820   3.695   0.561   2.164 -0.0813  0.2631  0.5874
 2063SOL     OW17821   2.380   2.879  13.472  0.2029 -0.6538 -0.5208
 2063SOL    HW117822   2.336   2.863  13.389 -0.7059  1.0634 -0.3830
 2063SOL    HW217823   2.464   2.916  13.444 -0.7206  0.8487 -1.3112
 2064SOL     OW17824   4.467   0.522  13.439  0.0599  0.7243  0.0851
 2064SOL    HW117825   4.373   0.502  13.443  0.0620  0.5619 -0.6590
 2064SOL    HW217826   4.476   0.546  13.347 -0.7284  4.1925  0.9141
 2065SOL     OW17827   1.481   2.860   9.754  0.5782 -0.2353  0.1007
 2065SOL    HW117828   1.567   2.902   9.749  0.1076  0.8601  1.3432
 2065SOL    HW217829   1.488   2.796   9.825 -0.9716  0.8825  1.2692
 2066SOL     OW17830   1.747   3.449  13.243 -0.7309  0.2771 -0.0224
 2066SOL    HW117831   1.675   3.387  13.239  1.1250 -1.8703 -0.4090
 2066SOL    HW217832   1.703   3.527  13.276  1.5333  1.7393 -0.4203
 2067SOL     OW17833   1.731   1.666   7.372 -0.1957  0.3822 -0.6162
 2067SOL    HW117834   1.706   1.744   7.422 -2.7202 -1.2709  0.7312
 2067SOL    HW217835   1.644   1.635   7.346 -1.3875  0.6958  2.9951
 2068SOL     OW17836   3.417   0.462   4.595  0.7477 -0.5248  0.4818
 2068SOL    HW117837   3.356   0.476   4.667  0.5747  1.2949 -0.0286
 2068SOL    HW217838   3.358   0.475   4.521  2.4524  2.7958 -0.2790
 2069SOL     OW17839   0.200   1.037  17.409  0.8348 -0.3270  0.1622
 2069SOL    HW117840   0.167   0.952  17.381  1.3800 -0.6669  0.5549
 2069SOL    HW217841   0.118   1.085  17.395  1.8351  2.1223  2.5849
 2070SOL     OW17842   0.581   0.124   9.493 -0.8569  0.4187 -0.0321
 2070SOL    HW117843   0.582   0.038   9.533 -1.4461  0.9388  1.0900
 2070SOL    HW217844   0.499   0.115   9.445 -0.4867  2.0897 -0.9997
 2071SOL     OW17845   3.270   0.116  12.879  0.1827  0.0451 -0.1821
 2071SOL    HW117846   3.329   0.148  12.811  0.9408  2.8104  1.7424
 2071SOL    HW217847   3.292   0.176  12.950  0.2275 -0.7911  0.5162
 2072SOL     OW17848   3.362   3.000  14.290  0.1636 -0.8878  0.0042
 2072SOL    HW117849   3.277   3.013  14.247 -0.2919 -2.3854  0.4719
 2072SOL    HW217850   3.334   2.936  14.355  3.1825  0.2609  2.4577
 2073SOL     OW17851   0.903   1.981   9.607 -0.6634 -0.0443  0.0376
 2073SOL    HW117852   0.968   2.039   9.566 -0.0311 -1.5024 -1.0033
 2073SOL    HW217853   0.950   1.901   9.631 -3.6318 -2.0463 -0.8347
 2074SOL     OW17854   1.229   2.265   5.321 -0.1094 -0.3269 -0.0612
 2074SOL    HW117855   1.215   2.250   5.227 -0.6607 -2.0605  0.2825
 2074SOL    HW217856   1.148   2.312   5.343  2.2640  3.2061  0.9872
 2075SOL     OW17857   0.070   2.990   4.294 -0.1112  0.2286 -0.0297
 2075SOL    HW117858   0.118   3.014   4.373  0.8590 -0.7012 -0.3388
 2075SOL    HW217859   4.720   2.993   4.333 -1.2275 -2.5225 -2.2800
 2076SOL     OW17860   2.979   4.595   8.904  0.2804 -0.3730  0.4575
 2076SOL    HW117861   2.892   4.555   8.907  0.0069  0.0061 -2.4061
 2076SOL    HW217862   3.001   4.586   8.997 -0.1947  0.5931  0.6746
 2077SOL     OW17863   1.839   2.089   2.736  0.1360 -0.2767 -0.1701
 2077SOL    HW117864   1.917   2.116   2.687  0.9923 -1.1632  0.7161
 2077SOL    HW217865   1.823   2.165   2.792  2.2053  0.5963 -0.7670
 2078SOL     OW17866   3.993   0.784  10.306 -0.2813  0.6698  0.3300
 2078SOL    HW117867   3.914   0.830  10.333 -0.0139  1.1079  0.3767
 2078SOL    HW217868   4.032   0.750  10.387 -0.6470 -0.1091  0.1762
 2079SOL     OW17869   0.749   4.331   6.419  0.2088  0.1985  0.0949
 2079SOL    HW117870   0.797   4.403   6.379 -0.9707  0.4198 -0.9119
 2079SOL    HW217871   0.760   4.264   6.351  2.6551  1.6190 -0.8977
 2080SOL     OW17872   1.910   3.575  13.044 -0.1682 -0.2985 -0.3393
 2080SOL    HW117873   1.860   3.527  13.110  2.0676  2.2333  3.1900
 2080SOL    HW217874   1.946   3.649  13.093  0.8712 -0.8635 -0.2351
 2081SOL     OW17875   4.367   2.066   6.798  0.3700  0.0249  0.2792
 2081SOL    HW117876   4.346   2.035   6.710  1.2241  0.8084 -0.1999
 2081SOL    HW217877   4.363   2.161   6.787 -0.2103 -0.2771 -2.0373
 2082SOL     OW17878   1.349   4.100  11.773  1.0355 -0.4981 -0.2417
 2082SOL    HW117879   1.282   4.047  11.817  0.5515  0.3846  0.0796
 2082SOL    HW217880   1.348   4.051  11.690 -2.1659  0.1823 -0.5873
 2083SOL     OW17881   1.693   4.645  10.946 -0.2313 -0.1317  0.2602
 2083SOL    HW117882   1.773   4.695  10.934 -0.2350  0.0557  1.0032
 2083SOL    HW217883   1.725   4.569  10.996 -1.5443 -1.5657 -1.0743
 2084SOL     OW17884   2.942   3.124  10.203  0.5236 -0.1401 -0.4485
 2084SOL    HW117885   2.892   3.130  10.285 -0.8032 -0.3430 -1.2396
 2084SOL    HW217886   2.932   3.214  10.172  0.7370  0.0262 -0.0367
 2085SOL     OW17887   4.406   3.167   3.745  0.3537  0.5858 -0.1068
 2085SOL    HW117888   4.439   3.201   3.662  0.8212 -0.2613 -0.2736
 2085SOL    HW217889   4.445   3.079   3.746  1.0522  0.8918 -1.0266
 2086SOL     OW17890   4.034   1.521   1.543 -0.1391  0.3708 -0.5273
 2086SOL    HW117891   4.067   1.434   1.567 -0.2194  0.7204  0.8485
 2086SOL    HW217892   3.940   1.504   1.538 -0.0975 -0.2430  0.7546
 2087SOL     OW17893   2.412   4.500   3.221 -0.2369 -0.0423 -0.0043
 2087SOL    HW117894   2.376   4.416   3.194 -1.8718  0.3092  1.0969
 2087SOL    HW217895   2.390   4.492   3.313  2.0347 -1.0454  0.4525
 2088SOL     OW17896   3.904   2.084   9.087 -0.6327 -0.5838  0.0223
 2088SOL    HW117897   3.973   2.018   9.089  0.3211  0.3690 -1.7845
 2088SOL    HW217898   3.844   2.041   9.147 -0.6353 -1.7691 -0.8395
 2089SOL     OW17899   1.530   3.152   3.551 -0.2955  0.2237 -0.0791
 2089SOL    HW117900   1.621   3.165   3.579  0.4643 -2.5786 -1.2638
 2089SOL    HW217901   1.548   3.102   3.472  0.6770 -1.1068  0.9646
 2090SOL     OW17902   1.354   1.827  11.067 -0.1073  0.1702  0.1588
 2090SOL    HW117903   1.310   1.912  11.077 -2.9657 -1.0614 -1.7710
 2090SOL    HW217904   1.432   1.842  11.120 -0.1427  0.8672  0.0169
 2091SOL     OW17905   3.949   4.688  14.629 -0.4375  0.0664  0.3667
 2091SOL    HW117906   3.874   4.676  14.571  1.0101 -0.0178 -1.4880
 2091SOL    HW217907   3.974   4.598  14.651 -1.8549 -0.0147  1.6656
 2092SOL     OW17908   3.932   2.704   4.651 -0.3738 -0.3812  0.2145
 2092SOL    HW117909   3.966   2.743   4.732  3.2165  0.2780 -1.6038
 2092SOL    HW217910   3.940   2.772   4.584  1.5080 -2.4017 -1.6029
 2093SOL     OW17911   2.546   4.163  15.940 -0.4306  0.5042  0.1068
 2093SOL    HW117912   2.577   4.233  15.998 -0.0322  0.0742  0.4221
 2093SOL    HW217913   2.465   4.144  15.988 -0.1594  0.1239  0.4229
 2094SOL     OW17914   0.158   1.866   7.165  0.1126  0.3626 -0.4635
 2094SOL    HW117915   0.206   1.926   7.222 -0.1588  1.0366 -0.9413
 2094SOL    HW217916   0.112   1.927   7.107 -0.7205  1.3809  1.2600
 2095SOL     OW17917   3.178   2.938   7.163  0.1969  0.8530 -0.2344
 2095SOL    HW117918   3.156   3.020   7.208 -1.0718 -0.3433  1.2978
 2095SOL    HW217919   3.155   2.968   7.074 -0.6633  0.9292  0.0157
 2096SOL     OW17920   0.754   1.672   7.712 -0.5181 -0.2184  0.0706
 2096SOL    HW117921   0.790   1.650   7.797 -2.3438 -3.9577 -0.1271
 2096SOL    HW217922   0.722   1.588   7.679  0.8145 -0.5855 -0.2804
 2097SOL     OW17923   0.387   4.590   9.284  0.4870 -0.1225  0.1506
 2097SOL    HW117924   0.339   4.508   9.293  0.3945 -0.0387  0.4384
 2097SOL    HW217925   0.380   4.591   9.189  0.4733  2.6705  0.1669
 2098SOL     OW17926   0.646   3.519   5.418 -0.3233 -0.3771  0.0302
 2098SOL    HW117927   0.640   3.545   5.510 -1.5678 -0.5990  0.0136
 2098SOL    HW217928   0.553   3.528   5.395  0.3913  0.3497 -2.5440
 2099SOL     OW17929   0.001   1.260   7.821  0.6784 -0.2492  0.1487
 2099SOL    HW117930   4.729   1.279   7.727  2.2860 -0.9104 -0.1410
 2099SOL    HW217931   0.036   1.171   7.816 -2.5544 -1.6102  1.4095
 2100SOL     OW17932   0.003   4.051   2.946  0.1441 -0.0461 -0.6855
 2100SOL    HW117933   0.050   4.024   2.867  1.1156  0.1305 -0.1642
 2100SOL    HW217934   0.073   4.065   3.010 -0.8098 -2.4625  0.8847
 2101SOL     OW17935   1.915   2.180  15.415  0.0086  0.7342  0.3366
 2101SOL    HW117936   1.913   2.087  15.389 -0.5817  0.9271 -0.3183
 2101SOL    HW217937   2.005   2.204  15.397 -0.3215  0.9403 -1.0050
 2102SOL     OW17938   3.134   1.630   7.818 -0.4025 -0.2173 -0.1054
 2102SOL    HW117939   3.193   1.608   7.890  1.5438 -1.5406 -2.1187
 2102SOL    HW217940   3.194   1.659   7.750 -2.0560  3.0573 -0.1527
 2103SOL     OW17941   1.796   3.720  11.308 -0.1645  0.1527  0.3479
 2103SOL    HW117942   1.781   3.626  11.324 -2.8164 -0.0329 -3.1326
 2103SOL    HW217943   1.863   3.746  11.370 -0.0332 -2.9013  1.4892
 2104SOL     OW17944   2.016   1.258   3.009 -0.2345  0.0283  0.3665
 2104SOL    HW117945   2.051   1.347   3.006 -0.9812  0.3122  0.0338
 2104SOL    HW217946   1.957   1.262   2.933  0.3044  1.4714  0.0392
 2105SOL     OW17947   3.051   3.307   3.751 -0.5086 -0.3373  0.0003
 2105SOL    HW117948   3.110   3.270   3.817  0.6465  3.8388  1.2931
 2105SOL    HW217949   2.980   3.300   3.814 -1.3912 -0.1688 -0.9683
 2106SOL     OW17950   1.789   3.437  15.734 -0.2217  0.3314  0.7102
 2106SOL    HW117951   1.702   3.460  15.704 -0.5784 -1.7138  0.1507
 2106SOL    HW217952   1.806   3.502  15.802  0.6439  1.9315 -1.0299
 2107SOL     OW17953   4.155   0.503   5.333 -0.2706 -0.0645 -0.4772
 2107SOL    HW117954   4.107   0.420   5.333 -2.8288  1.3981  0.0163
 2107SOL    HW217955   4.081   0.563   5.349  0.0714 -0.3586  2.2819
 2108SOL     OW17956   2.170   0.515   7.779  0.5604 -0.4442  0.3038
 2108SOL    HW117957   2.237   0.500   7.846  1.0499  0.2810 -0.0269
 2108SOL    HW217958   2.149   0.608   7.777 -2.3215 -1.1008 -0.1446
 2109SOL     OW17959   3.517   0.253   6.070 -0.4243 -0.2958 -0.5950
 2109SOL    HW117960   3.556   0.202   6.141 -0.5275 -0.5296 -0.7080
 2109SOL    HW217961   3.431   0.255   6.112 -1.3078  0.2999 -2.4186
 2110SOL     OW17962   3.135   2.605   6.914  0.2683  0.1241 -0.3072
 2110SOL    HW117963   3.119   2.697   6.897 -0.9926 -0.5677 -2.8419
 2110SOL    HW217964   3.109   2.569   6.829 -0.8615  2.0476 -0.7765
 2111SOL     OW17965   1.189   4.076   4.557  0.4454  0.2039 -0.1128
 2111SOL    HW117966   1.257   4.139   4.533 -1.0029  0.4603 -3.5739
 2111SOL    HW217967   1.165   4.044   4.470 -2.1369 -1.7978  1.3100
 2112SOL     OW17968   3.214   0.007   4.091  0.1203  0.3130 -0.3338
 2112SOL    HW117969   3.299   4.725   4.052  1.1268  1.8637  1.0718
 2112SOL    HW217970   3.153   4.698   4.034  0.7062 -3.4399  2.1268
 2113SOL     OW17971   4.361   3.218   7.514  0.2077  0.2602 -0.3333
 2113SOL    HW117972   4.316   3.238   7.596 -1.0546 -0.4017 -0.8586
 2113SOL    HW217973   4.414   3.143   7.540 -2.2309 -1.6803 -0.9955
 2114SOL     OW17974   4.577   4.663  11.784 -0.0471  0.5711 -0.2449
 2114SOL    HW117975   4.657   4.611  11.773 -1.0265 -0.6735 -1.6258
 2114SOL    HW217976   4.523   4.627  11.714 -0.0865 -1.7287  0.9821
 2115SOL     OW17977   1.401   3.761   7.201 -0.3461 -0.6875 -0.9105
 2115SOL    HW117978   1.493   3.783   7.193 -0.4471  0.8259  2.1768
 2115SOL    HW217979   1.358   3.836   7.160  2.0772  1.6789  0.9755
 2116SOL     OW17980   1.586   0.854  14.236  0.2326  0.0155 -0.9199
 2116SOL    HW117981   1.642   0.882  14.163 -1.1731  2.6554 -0.9968
 2116SOL    HW217982   1.597   0.759  14.230  1.8235  0.2619 -1.9281
 2117SOL     OW17983   3.422   2.709  13.663  0.1162 -0.0763 -0.0395
 2117SOL    HW117984   3.420   2.768  13.588  0.1777 -1.2386 -0.9636
 2117SOL    HW217985   3.483   2.640  13.637 -1.1231 -1.9787  2.1097
 2118SOL     OW17986   4.679   0.790   3.986 -0.0925  0.9080 -0.8131
 2118SOL    HW117987   4.658   0.773   3.894  1.0700 -2.4893 -0.4454
 2118SOL    HW217988   4.640   0.716   4.032 -0.1571  1.7417  0.5035
 2119SOL     OW17989   4.481   0.764  11.657 -0.3300  0.9976  0.4358
 2119SOL    HW117990   4.501   0.820  11.582 -0.8205 -1.0110 -1.2032
 2119SOL    HW217991   4.530   0.684  11.636  1.4071  2.8425 -2.4291
 2120SOL     OW17992   1.223   2.163   7.379 -0.1948  0.2632  0.2260
 2120SOL    HW117993   1.231   2.092   7.443  1.0185 -1.1374 -1.4754
 2120SOL    HW217994   1.284   2.132   7.312  1.7351  0.8159  1.7074
 2121SOL     OW17995   1.540   3.121   6.448  0.1059  0.0645 -0.1092
 2121SOL    HW117996   1.479   3.192   6.469 -1.4767 -1.2798 -0.1885
 2121SOL    HW217997   1.561   3.137   6.356  1.6493 -0.4406  0.1525
 2122SOL     OW17998   0.377   3.718   9.032 -0.0709 -0.1670  0.1366
 2122SOL    HW117999   0.432   3.776   9.085 -1.2673 -0.8884  2.1856
 2122SOL    HW218000   0.353   3.783   8.966  0.8310  0.8312  0.7894
 2123SOL     OW18001   2.467   3.566   3.578 -0.5289 -0.2026  0.3038
 2123SOL    HW118002   2.511   3.532   3.656  0.1753  1.2422  0.5454
 2123SOL    HW218003   2.524   3.641   3.561 -0.8099  0.7661  3.6903
 2124SOL     OW18004   2.592   1.116  16.147 -0.0500 -0.2902 -0.5044
 2124SOL    HW118005   2.553   1.088  16.064 -0.7663  0.0063 -0.2697
 2124SOL    HW218006   2.516   1.113  16.205  0.1506  0.2520 -0.2127
 2125SOL     OW18007   4.367   0.720  10.380  0.1391 -0.3998  0.0491
 2125SOL    HW118008   4.352   0.794  10.321  0.3538 -0.0263  0.4602
 2125SOL    HW218009   4.463   0.717  10.386 -0.0732 -0.8450  2.8332
 2126SOL     OW18010   0.661   0.621   5.267  0.5674 -0.1987  0.4329
 2126SOL    HW118011   0.608   0.690   5.307  1.3582  0.4484  0.3452
 2126SOL    HW218012   0.603   0.590   5.198  1.1193 -0.1402 -0.0484
 2127SOL     OW18013   3.494   2.756   4.243  0.0912 -0.0133  0.3991
 2127SOL    HW118014   3.399   2.761   4.234  0.2428 -0.1977 -1.2947
 2127SOL    HW218015   3.505   2.668   4.207  1.0419 -0.3310  1.4548
 2128SOL     OW18016   4.172   0.439   2.329  0.2983 -0.3708  0.7922
 2128SOL    HW118017   4.154   0.403   2.416 -1.1071 -0.3521  0.4972
 2128SOL    HW218018   4.215   0.367   2.284 -2.8089 -1.1979 -0.8435
 2129SOL     OW18019   4.358   2.239   0.151 -0.5693 -0.1021  0.3938
 2129SOL    HW118020   4.398   2.310   0.101  0.3948  0.7509  2.3766
 2129SOL    HW218021   4.278   2.285   0.177 -1.1091 -1.3225  0.8922
 2130SOL     OW18022   3.131   3.864   4.367  0.1634  0.1082 -0.1902
 2130SOL    HW118023   3.094   3.933   4.423  2.3315 -0.5705  2.1226
 2130SOL    HW218024   3.142   3.917   4.288  0.0212  1.0115  0.3957
 2131SOL     OW18025   2.517   2.316   5.796  0.4058  0.5844 -0.7795
 2131SOL    HW118026   2.607   2.283   5.798  0.5083  0.9234  0.7880
 2131SOL    HW218027   2.473   2.286   5.717 -0.8157  0.0243  0.1266
 2132SOL     OW18028   1.931   1.265   7.217  0.4470 -0.6050  0.2837
 2132SOL    HW118029   1.976   1.341   7.255  0.1705  0.2423 -1.0730
 2132SOL    HW218030   2.000   1.206   7.188  0.6229 -1.7849  3.0634
 2133SOL     OW18031   3.650   0.468   3.659 -0.6778  0.4858 -0.4829
 2133SOL    HW118032   3.710   0.526   3.706 -0.9891 -0.9520  1.6480
 2133SOL    HW218033   3.568   0.516   3.646 -0.1700  0.9790 -1.9394
 2134SOL     OW18034   3.095   3.579   3.196  0.1047  0.2057  0.2466
 2134SOL    HW118035   3.008   3.607   3.225 -0.5590 -1.0762 -0.5136
 2134SOL    HW218036   3.074   3.525   3.121  1.1478  0.3853 -0.1752
 2135SOL     OW18037   0.904   4.042  13.110 -0.6601 -0.1910  0.1979
 2135SOL    HW118038   0.940   4.054  13.198  2.1107  1.0435 -1.0839
 2135SOL    HW218039   0.988   4.030  13.066 -1.5574 -2.2964 -0.9033
 2136SOL     OW18040   0.576   3.048   3.854 -0.3247  0.6638 -0.1008
 2136SOL    HW118041   0.539   3.040   3.942  2.2819  1.0725  1.0451
 2136SOL    HW218042   0.587   3.142   3.840 -1.1961  0.7994  0.1502
 2137SOL     OW18043   4.542   0.017   2.046 -0.2129  0.6490  0.0878
 2137SOL    HW118044   4.619   0.062   2.011 -2.3581  2.5700 -2.0831
 2137SOL    HW218045   4.586   4.681   2.089 -0.3437  0.2879 -0.3989
 2138SOL     OW18046   4.384   3.806   6.472  0.0433  0.2769 -0.2831
 2138SOL    HW118047   4.292   3.828   6.456 -0.5158 -2.9035 -1.3972
 2138SOL    HW218048   4.420   3.883   6.515  0.1081  0.3025 -0.3855
 2139SOL     OW18049   3.022   4.577   3.962 -0.3884 -0.2649 -0.4231
 2139SOL    HW118050   2.941   4.562   4.011  0.5175 -1.0234  0.8373
 2139SOL    HW218051   3.022   4.506   3.897 -1.4868 -0.8112  0.1780
 2140SOL     OW18052   0.230   0.099   2.725  0.5473 -0.5019  0.4517
 2140SOL    HW118053   0.248   0.007   2.705  0.6443 -0.7189  1.5727
 2140SOL    HW218054   0.203   0.095   2.816  0.6834 -0.2298  0.5045
 2141SOL     OW18055   2.910   4.359   7.062  0.1293  0.7043 -0.2821
 2141SOL    HW118056   2.827   4.333   7.100  0.2391 -1.2292 -1.3394
 2141SOL    HW218057   2.928   4.451   7.084 -1.9367  0.9084  0.4712
 2142SOL     OW18058   1.226   3.887   8.851  0.5085 -1.0168  0.2468
 2142SOL    HW118059   1.162   3.896   8.780  1.5009  0.0684 -0.5054
 2142SOL    HW218060   1.245   3.977   8.877  1.5527 -0.9989 -0.5902
 2143SOL     OW18061   3.511   2.694   4.770 -0.8201  0.7820  0.0107
 2143SOL    HW118062   3.517   2.648   4.855  2.1865  1.2304  0.0561
 2143SOL    HW218063   3.563   2.642   4.709 -1.9070 -1.5948  1.0974
 2144SOL     OW18064   3.141   4.425   3.230 -0.2142  0.2472  0.1842
 2144SOL    HW118065   3.055   4.462   3.210 -0.1404  1.4575  2.1347
 2144SOL    HW218066   3.173   4.398   3.144  1.4728  0.1605  0.8297
 2145SOL     OW18067   1.647   2.122   4.830 -0.3657  0.3844 -0.0667
 2145SOL    HW118068   1.633   2.175   4.908  1.1451  1.4427 -0.5122
 2145SOL    HW218069   1.568   2.069   4.841  0.0418  0.0738  1.4097
 2146SOL     OW18070   3.938   4.673   7.393  0.3840  0.2281 -0.2472
 2146SOL    HW118071   3.960   4.655   7.484 -0.5629 -2.6243 -0.5843
 2146SOL    HW218072   3.989   0.015   7.375  0.4885 -0.0409 -1.1429
 2147SOL     OW18073   3.982   1.629   6.539  0.2365 -0.3614 -0.4629
 2147SOL    HW118074   4.077   1.637   6.542  0.4335 -3.6124  1.5652
 2147SOL    HW218075   3.967   1.558   6.601  0.7770  1.1597  1.4088
 2148SOL     OW18076   0.013   0.817  13.718  0.1301 -0.2779 -0.0915
 2148SOL    HW118077   4.674   0.789  13.668 -0.6952  0.0163  1.0058
 2148SOL    HW218078   0.044   0.886  13.659 -0.1701  1.3366  1.6576
 2149SOL     OW18079   3.419   3.208   2.668  0.0837  0.2377 -0.3487
 2149SOL    HW118080   3.514   3.212   2.659  0.2969 -2.8925  0.5141
 2149SOL    HW218081   3.395   3.148   2.597  0.3723 -1.3611  0.8919
 2150SOL     OW18082   4.040   1.055   3.262  1.0373  0.0186 -0.1578
 2150SOL    HW118083   3.994   1.063   3.345  1.3562  1.7749 -0.1560
 2150SOL    HW218084   3.994   0.981   3.222  2.8696  0.4044 -2.9882
 2151SOL     OW18085   2.957   1.946   2.150 -0.1695  0.3539  0.4483
 2151SOL    HW118086   2.932   1.859   2.118  1.6358 -0.2522  0.6852
 2151SOL    HW218087   2.944   1.921   2.242  0.5599 -0.4484  0.3370
 2152SOL     OW18088   3.417   0.896   8.817 -0.1887 -0.1198 -0.1497
 2152SOL    HW118089   3.381   0.943   8.892 -0.8223 -1.8515  0.6274
 2152SOL    HW218090   3.441   0.815   8.863  0.9393 -0.0272 -0.5772
 2153SOL     OW18091   0.670   2.824  13.816  0.5056 -0.0787  0.4883
 2153SOL    HW118092   0.657   2.856  13.905  0.5348  3.6621 -0.8713
 2153SOL    HW218093   0.766   2.832  13.816  0.5055 -0.0829 -0.6581
 2154SOL     OW18094   0.992   4.702   7.731  0.5387 -0.4199 -0.4991
 2154SOL    HW118095   1.054   4.699   7.804  0.3229  2.0854 -0.2431
 2154SOL    HW218096   0.924   4.640   7.757  0.5165 -0.8799 -1.6568
 2155SOL     OW18097   3.484   3.113   1.193  0.3369  0.0074 -0.0873
 2155SOL    HW118098   3.444   3.193   1.228  1.2518  0.4051  0.0446
 2155SOL    HW218099   3.486   3.127   1.099  1.3370 -1.9734 -0.3559
 2156SOL     OW18100   1.630   4.157  16.022 -0.2936  0.1496 -0.3902
 2156SOL    HW118101   1.712   4.166  16.070 -0.4383  1.2474 -0.3558
 2156SOL    HW218102   1.602   4.243  15.992  1.2641  1.5628  2.1777
 2157SOL     OW18103   1.917   2.274   3.538 -0.0446 -0.1617 -0.0719
 2157SOL    HW118104   1.973   2.252   3.464  0.5549 -0.1834  0.3848
 2157SOL    HW218105   1.836   2.300   3.495 -0.7399 -0.4123  1.0875
 2158SOL     OW18106   2.073   4.039  14.075 -0.8006  0.4108 -0.0493
 2158SOL    HW118107   2.128   4.063  14.149 -0.0435 -2.5452  0.3423
 2158SOL    HW218108   2.013   3.978  14.118  1.6552 -0.7384  1.7704
 2159SOL     OW18109   2.570   1.453  11.976 -0.2332 -0.0957  0.3706
 2159SOL    HW118110   2.561   1.515  12.048  0.1015  1.6526 -1.0779
 2159SOL    HW218111   2.505   1.389  12.006 -2.0313  0.1286 -2.9828
 2160SOL     OW18112   1.026   2.484  11.921 -1.4909  0.8802  0.1693
 2160SOL    HW118113   1.067   2.445  11.844  0.7220  0.5328  1.5082
 2160SOL    HW218114   1.032   2.575  11.890  0.0364 -0.2321 -2.8229
 2161SOL     OW18115   2.756   2.816   2.581 -0.2615 -0.2462 -0.0952
 2161SOL    HW118116   2.675   2.853   2.544 -0.8802  0.2120  1.7159
 2161SOL    HW218117   2.736   2.813   2.675  0.1468  3.3902  0.1181
 2162SOL     OW18118   1.203   1.943   5.791  0.3272 -0.3033 -0.4549
 2162SOL    HW118119   1.294   1.920   5.808  1.0616  1.1998 -2.3092
 2162SOL    HW218120   1.173   1.855   5.769 -1.2255  1.2774 -4.5904
 2163SOL     OW18121   0.294   1.594   4.428  0.4290 -0.0607  0.0561
 2163SOL    HW118122   0.289   1.602   4.333 -0.4241  0.8602  0.1749
 2163SOL    HW218123   0.381   1.631   4.443  0.7276 -0.0190 -1.7582
 2164SOL     OW18124   2.643   0.108   6.554  0.6408  0.1156 -0.7083
 2164SOL    HW118125   2.649   0.106   6.649 -0.0954  0.4209 -0.6521
 2164SOL    HW218126   2.584   0.033   6.542 -0.0170  0.8490 -2.1884
 2165SOL     OW18127   3.794   1.369  15.599 -0.2285  0.1808  0.1054
 2165SOL    HW118128   3.705   1.349  15.571 -0.4289 -2.3446  2.4912
 2165SOL    HW218129   3.814   1.448  15.549  0.9459 -0.3914 -0.3403
 2166SOL     OW18130   2.492   2.513   8.806  0.1767  0.6244  0.3486
 2166SOL    HW118131   2.495   2.580   8.874 -1.1046 -0.4231  1.4193
 2166SOL    HW218132   2.487   2.568   8.727 -1.7927 -0.5664 -0.3503
 2167SOL     OW18133   0.701   2.112   8.760  0.6807 -0.1206  0.0046
 2167SOL    HW118134   0.781   2.101   8.812 -0.6020  0.1296  2.0383
 2167SOL    HW218135   0.667   2.197   8.789  0.7152 -0.3011  0.5639
 2168SOL     OW18136   0.230   3.213   5.969 -0.7201  0.5205 -0.3170
 2168SOL    HW118137   0.300   3.150   5.983 -1.4801 -0.1857  0.3429
 2168SOL    HW218138   0.163   3.149   5.993  0.3454  0.2429  1.9105
 2169SOL     OW18139   3.512   0.801   3.846  0.4351 -1.3331 -0.0011
 2169SOL    HW118140   3.483   0.728   3.901 -0.7702 -1.0544 -0.2758
 2169SOL    HW218141   3.450   0.871   3.864  2.5142  0.2289  1.1256
 2170SOL     OW18142   4.605   3.732   4.285 -0.0680  0.3926 -0.0707
 2170SOL    HW118143   4.700   3.726   4.282  0.0002  2.9713 -3.6696
 2170SOL    HW218144   4.591   3.717   4.378  2.6275  1.1458  0.4489
 2171SOL     OW18145   0.213   0.384   0.582  0.6639 -0.2694 -0.1442
 2171SOL    HW118146   0.213   0.335   0.499  1.3435 -0.8733  0.2084
 2171SOL    HW218147   0.288   0.443   0.577 -0.8075  1.6420  0.6117
 2172SOL     OW18148   2.641   3.646   5.372 -0.4800  0.7640 -0.5113
 2172SOL    HW118149   2.712   3.698   5.335 -0.7165  1.6999  0.3317
 2172SOL    HW218150   2.617   3.590   5.298 -0.5675  0.2612 -0.1051
 2173SOL     OW18151   1.093   0.508  15.493  1.0880 -0.3365 -0.1630
 2173SOL    HW118152   1.081   0.454  15.415  0.0682  2.0667 -1.6773
 2173SOL    HW218153   1.187   0.499  15.507  0.9785  1.6282  1.8344
 2174SOL     OW18154   4.205   0.214   0.417  0.5638 -0.3493 -0.2393
 2174SOL    HW118155   4.187   0.122   0.397 -1.0521  0.4762 -2.5225
 2174SOL    HW218156   4.283   0.230   0.363 -0.7058  0.0328 -1.9537
 2175SOL     OW18157   2.636   0.989   7.554 -0.5085 -1.1467 -0.0260
 2175SOL    HW118158   2.708   0.931   7.581 -1.1662 -1.4642  1.0768
 2175SOL    HW218159   2.574   0.956   7.620 -0.9554 -0.0981  0.0754
 2176SOL     OW18160   4.125   2.322   1.172 -0.0296  1.4549 -0.4969
 2176SOL    HW118161   4.091   2.250   1.119  1.2022  0.8382 -0.4463
 2176SOL    HW218162   4.212   2.322   1.133  0.4528  0.7345  0.5738
 2177SOL     OW18163   2.687   2.361   1.984  0.6525  0.0516  0.4364
 2177SOL    HW118164   2.711   2.454   1.985  0.9658 -0.0186 -1.1198
 2177SOL    HW218165   2.594   2.380   1.994 -0.0889 -2.9407 -0.8072
 2178SOL     OW18166   3.256   1.113   9.070 -0.1087  0.3506  0.0505
 2178SOL    HW118167   3.183   1.095   9.011  1.9008 -1.0955 -1.9922
 2178SOL    HW218168   3.306   1.170   9.011  0.9569  1.5779  2.1170
 2179SOL     OW18169   3.972   0.839   9.055 -0.2228 -0.4671 -0.1070
 2179SOL    HW118170   3.896   0.804   9.007  0.2302 -0.0910 -1.1022
 2179SOL    HW218171   3.965   0.934   9.054  0.1282 -0.4538 -1.8476
 2180SOL     OW18172   1.862   4.611   3.934 -0.4819 -0.1458  0.0436
 2180SOL    HW118173   1.788   4.633   3.878  0.9085  3.4236 -0.4306
 2180SOL    HW218174   1.894   4.531   3.893 -0.1848 -0.3344  0.6482
 2181SOL     OW18175   0.554   1.192   1.723  0.2077 -0.1490 -0.0431
 2181SOL    HW118176   0.486   1.139   1.682 -1.7219  1.7414  0.7094
 2181SOL    HW218177   0.563   1.153   1.810 -1.0708  0.1616  0.2310
 2182SOL     OW18178   3.044   4.006  15.392  0.3413 -0.2810 -0.6249
 2182SOL    HW118179   3.040   4.083  15.335 -0.4531 -1.5346 -2.2552
 2182SOL    HW218180   2.951   4.005  15.417  0.7658 -0.0458  0.9699
 2183SOL     OW18181   0.082   0.035   2.958 -0.0761 -0.2438  0.2860
 2183SOL    HW118182   0.066   0.113   3.011 -1.6526 -1.0870  1.0434
 2183SOL    HW218183   0.006   0.023   2.901 -0.2694  1.5185  0.1715
 2184SOL     OW18184   1.387   2.307  11.529  0.2962 -0.3843 -0.3218
 2184SOL    HW118185   1.347   2.221  11.515 -0.8611  0.0503  0.3014
 2184SOL    HW218186   1.332   2.357  11.469 -1.2117  1.2019  2.3818
 2185SOL     OW18187   1.302   2.408  17.662  0.1129 -0.2785 -0.7130
 2185SOL    HW118188   1.360   2.452  17.724 -0.6483 -1.8070  1.1026
 2185SOL    HW218189   1.277   2.477  17.601 -0.9518 -0.7666 -0.8418
 2186SOL     OW18190   1.818   0.882   5.396 -0.3402  0.4100 -0.4491
 2186SOL    HW118191   1.756   0.925   5.454  0.4990 -0.0468  0.7905
 2186SOL    HW218192   1.804   0.788   5.409 -3.0114  0.7715 -0.7195
 2187SOL     OW18193   1.598   4.193   5.551 -0.3334 -0.2088  0.6970
 2187SOL    HW118194   1.678   4.179   5.602  0.3359 -3.1006 -1.1679
 2187SOL    HW218195   1.553   4.256   5.608 -2.1540 -1.5785  0.7703
 2188SOL     OW18196   4.116   1.687   3.774  0.0950  0.0623 -0.5772
 2188SOL    HW118197   4.054   1.738   3.825  1.0265  0.5588  0.0611
 2188SOL    HW218198   4.191   1.671   3.832 -1.2067 -0.5589  0.9178
 2189SOL     OW18199   1.702   4.388  10.584 -0.4893 -0.4384  0.3975
 2189SOL    HW118200   1.612   4.416  10.599  0.1316  1.9760 -0.2429
 2189SOL    HW218201   1.722   4.374  10.676  1.3909 -0.4710 -0.0129
 2190SOL     OW18202   2.528   1.550   0.953  0.0107 -0.4881  0.4329
 2190SOL    HW118203   2.472   1.627   0.963  1.8130  0.8138  0.5529
 2190SOL    HW218204   2.615   1.589   0.952 -0.1762 -0.0406  1.5655
 2191SOL     OW18205   0.880   4.686   3.499  0.1093 -0.5786 -0.3787
 2191SOL    HW118206   0.917   4.599   3.519 -0.1568 -0.2150  1.6658
 2191SOL    HW218207   0.823   4.672   3.423  0.4796  0.9948 -0.9310
 2192SOL     OW18208   1.238   4.049   8.337 -0.2121  0.3796  0.1582
 2192SOL    HW118209   1.165   4.034   8.278  0.1914 -0.0878 -0.2274
 2192SOL    HW218210   1.252   4.143   8.332  1.4260  0.1370 -0.1262
 2193SOL     OW18211   4.097   1.777   0.040 -0.2626 -0.4800  0.0407
 2193SOL    HW118212   4.042   1.825  17.726  2.2652 -1.0828 -2.6773
 2193SOL    HW218213   4.031   1.728   0.088  1.0595 -1.3435  0.9577
 2194SOL     OW18214   2.541   4.156   3.365  0.5175  0.1534  0.1114
 2194SOL    HW118215   2.603   4.083   3.369  1.0194  0.4377 -2.7425
 2194SOL    HW218216   2.550   4.198   3.451 -1.1396 -2.5042  1.5780
 2195SOL     OW18217   1.056   1.588   3.733 -0.3075  0.5255 -0.4099
 2195SOL    HW118218   1.029   1.657   3.672 -3.0027 -0.2360 -0.0514
 2195SOL    HW218219   1.031   1.629   3.816 -0.7672  2.2059 -1.3861
 2196SOL     OW18220   0.276   3.048  11.410 -0.0789 -0.2768  0.0753
 2196SOL    HW118221   0.268   3.057  11.315  0.0826  2.1116  0.3057
 2196SOL    HW218222   0.281   3.143  11.422 -0.1176 -0.4733  1.5957
 2197SOL     OW18223   2.205   0.217   6.972 -0.6668  0.2087  0.5936
 2197SOL    HW118224   2.219   0.308   6.997 -1.5839  0.7131 -0.7110
 2197SOL    HW218225   2.276   0.201   6.909 -1.9548 -1.3973 -0.4638
 2198SOL     OW18226   4.272   1.001   9.587  0.6907 -0.0391 -0.4187
 2198SOL    HW118227   4.246   1.092   9.595  0.4359 -0.0401 -1.3313
 2198SOL    HW218228   4.285   0.991   9.493  0.9007  0.0429 -0.3992
 2199SOL     OW18229   3.109   0.715   4.992  0.4394  0.0745  0.2243
 2199SOL    HW118230   3.110   0.773   4.916 -2.9118  1.6807  1.4365
 2199SOL    HW218231   3.018   0.685   4.987  0.5942 -0.4574  0.5572
 2200SOL     OW18232   4.185   2.748   7.747  0.3708  0.0137 -0.1927
 2200SOL    HW118233   4.169   2.842   7.741  2.8127  0.5230  1.3289
 2200SOL    HW218234   4.230   2.739   7.831  0.6250 -0.5085 -0.3816
 2201SOL     OW18235   3.771   3.363   0.512  0.2847 -0.0273 -0.4977
 2201SOL    HW118236   3.735   3.448   0.538 -2.3969 -0.8403 -1.5986
 2201SOL    HW218237   3.719   3.356   0.432  0.6230 -0.2553 -0.7013
 2202SOL     OW18238   3.180   3.649  14.631  0.0330  0.2485  0.1273
 2202SOL    HW118239   3.143   3.732  14.599 -3.2670 -0.8887  0.9810
 2202SOL    HW218240   3.138   3.593  14.565  1.9940 -0.5871 -0.4265
 2203SOL     OW18241   3.408   4.119  12.200 -0.0170 -0.0514 -0.1173
 2203SOL    HW118242   3.323   4.074  12.202  0.2269 -0.4640  0.9171
 2203SOL    HW218243   3.449   4.097  12.284  0.5325  1.8472  0.1028
 2204SOL     OW18244   2.423   1.218   1.982 -0.3902 -0.2328  0.0062
 2204SOL    HW118245   2.376   1.208   2.065 -1.2163 -0.2456 -0.4589
 2204SOL    HW218246   2.460   1.305   1.977  0.3930 -0.6300 -1.1955
 2205SOL     OW18247   1.170   1.375   9.463 -0.2306 -0.3260  0.0219
 2205SOL    HW118248   1.203   1.457   9.500 -2.3173 -0.2268  1.7104
 2205SOL    HW218249   1.097   1.410   9.412  0.2167  1.5911  0.6938
 2206SOL     OW18250   3.135   0.861   4.755 -0.6574 -0.4275  0.2197
 2206SOL    HW118251   3.105   0.855   4.665 -0.4085 -2.8620  0.3079
 2206SOL    HW218252   3.230   0.865   4.747 -0.6984 -1.3711 -0.7231
 2207SOL     OW18253   4.051   0.119   6.365 -0.1461  0.0199 -0.4244
 2207SOL    HW118254   4.043   0.127   6.270 -1.3899  2.7814 -0.0688
 2207SOL    HW218255   3.968   0.089   6.402  0.4983  0.0906  1.1249
 2208SOL     OW18256   1.137   2.286   2.231  0.0130 -0.5442  0.0149
 2208SOL    HW118257   1.157   2.289   2.324 -0.0244  2.5719 -0.0685
 2208SOL    HW218258   1.087   2.367   2.217  0.2640 -0.7722 -2.1842
 2209SOL     OW18259   2.848   3.135   3.463 -0.1144 -0.5756 -0.2696
 2209SOL    HW118260   2.943   3.128   3.471 -0.0350  0.4467 -0.2435
 2209SOL    HW218261   2.831   3.215   3.413  0.0670  0.3817  1.2080
 2210SOL     OW18262   3.746   3.252   4.367  0.7127 -0.6716  0.4420
 2210SOL    HW118263   3.794   3.260   4.284  0.2077 -1.9042  0.0214
 2210SOL    HW218264   3.662   3.220   4.335  0.1165  0.2696  1.0531
 2211SOL     OW18265   3.389   1.513   7.882 -0.3023  0.2457  0.2027
 2211SOL    HW118266   3.402   1.563   7.962  0.4207 -0.3827  0.4729
 2211SOL    HW218267   3.455   1.448   7.904  2.1032  3.3863  2.2944
 2212SOL     OW18268   4.628   3.960  11.017 -0.9654  0.1833 -0.0802
 2212SOL    HW118269   4.710   4.005  11.038 -1.5685  1.2364 -0.0379
 2212SOL    HW218270   4.584   3.963  11.102  0.5712 -1.7527  0.7944
 2213SOL     OW18271   1.357   2.847   2.040 -0.0180 -0.0647  0.0086
 2213SOL    HW118272   1.311   2.767   2.066 -2.3145  0.8173 -1.3745
 2213SOL    HW218273   1.416   2.853   2.115 -0.0742  3.4258 -0.2494
 2214SOL     OW18274   2.605   1.276   7.980 -0.2622  0.0334 -0.3954
 2214SOL    HW118275   2.560   1.240   7.904 -0.9474  0.0237  0.0123
 2214SOL    HW218276   2.544   1.287   8.053 -1.6578  0.4434 -1.6435
 2215SOL     OW18277   3.890   4.099   6.416  0.2449 -0.0206 -0.1635
 2215SOL    HW118278   3.980   4.067   6.423  0.3646  0.0252 -1.6427
 2215SOL    HW218279   3.913   4.189   6.440  1.2198 -0.0086 -1.1422
 2216SOL     OW18280   3.548   2.005   1.166  0.5177  0.3151  0.4706
 2216SOL    HW118281   3.475   2.057   1.197 -0.9447 -1.7745  0.5174
 2216SOL    HW218282   3.504   1.922   1.148  1.1498  0.4470 -1.6940
 2217SOL     OW18283   2.618   2.542   5.632 -0.3173 -0.6193 -0.5812
 2217SOL    HW118284   2.535   2.570   5.594 -0.3337 -1.0785 -0.8840
 2217SOL    HW218285   2.615   2.459   5.585  1.6560  0.2124 -2.1984
 2218SOL     OW18286   2.399   0.342  15.801  0.1835  0.2323  0.0338
 2218SOL    HW118287   2.409   0.332  15.706 -1.1522 -0.7998  0.0110
 2218SOL    HW218288   2.327   0.405  15.805  1.0165  1.0467  2.4661
 2219SOL     OW18289   4.263   4.031  17.279  0.2009 -0.0140 -0.1276
 2219SOL    HW118290   4.266   3.950  17.229  1.4762  0.7857 -1.3609
 2219SOL    HW218291   4.330   4.081  17.233  1.1782 -1.3626 -0.1676
 2220SOL     OW18292   2.970   4.014   3.462 -0.7094 -0.3235 -0.1816
 2220SOL    HW118293   2.982   3.976   3.549 -1.9451 -1.1782 -0.3899
 2220SOL    HW218294   3.007   4.102   3.468  0.8164 -0.8862 -1.4848
 2221SOL     OW18295   2.489   0.586   4.514 -0.6315  0.3758 -0.0366
 2221SOL    HW118296   2.475   0.516   4.577 -1.9540 -1.5710 -2.4810
 2221SOL    HW218297   2.402   0.623   4.498 -1.2095  0.3154  3.0097
 2222SOL     OW18298   4.714   1.954   3.339  0.1762  0.0506 -0.5626
 2222SOL    HW118299   4.737   1.862   3.349  0.4654 -0.1200 -2.7047
 2222SOL    HW218300   0.057   1.988   3.300  0.4892  0.4595  0.4465
 2223SOL     OW18301   3.196   4.199   8.910  0.3887 -0.2106  0.6164
 2223SOL    HW118302   3.258   4.135   8.876  2.8231  1.7138  1.4621
 2223SOL    HW218303   3.190   4.261   8.838 -0.9634 -0.5390  0.4396
 2224SOL     OW18304   3.793   3.326   3.798  0.2790  0.1732 -0.0633
 2224SOL    HW118305   3.806   3.386   3.725 -1.0365 -0.5691 -0.8989
 2224SOL    HW218306   3.841   3.248   3.770 -1.4457  0.2740 -3.2191
 2225SOL     OW18307   1.322   1.324   1.165  0.1312  0.0765 -0.0407
 2225SOL    HW118308   1.227   1.337   1.158  0.3439  0.8214 -1.5426
 2225SOL    HW218309   1.346   1.285   1.081  1.0933 -1.4368  0.9393
 2226SOL     OW18310   1.233   2.072  11.080 -0.0683  0.2285 -0.1601
 2226SOL    HW118311   1.225   2.161  11.112  0.4826  0.2571 -0.1093
 2226SOL    HW218312   1.199   2.081  10.991  1.2074 -1.5781 -0.8456
 2227SOL     OW18313   2.306   3.942  13.878  0.0328  0.1929  0.4368
 2227SOL    HW118314   2.270   4.007  13.818 -1.9408 -1.5466 -0.2495
 2227SOL    HW218315   2.237   3.950  13.944 -2.1903 -1.0952 -1.7377
 2228SOL     OW18316   3.496   1.200  12.106 -0.0852  0.1975 -0.7441
 2228SOL    HW118317   3.452   1.256  12.171  0.2354  0.1229 -0.4650
 2228SOL    HW218318   3.561   1.265  12.081 -0.9304  1.1144 -0.5555
 2229SOL     OW18319   2.305   2.492   2.683 -0.5853 -0.2687  0.4709
 2229SOL    HW118320   2.384   2.441   2.666 -0.4660 -0.2195  0.8797
 2229SOL    HW218321   2.263   2.452   2.760 -0.1982 -0.3940  0.6154
 2230SOL     OW18322   1.072   2.467   0.884 -0.6366  0.7669  0.1534
 2230SOL    HW118323   1.016   2.424   0.949  0.3508  1.0696  1.2013
 2230SOL    HW218324   1.055   2.560   0.893 -2.1484  0.4622  0.4749
 2231SOL     OW18325   4.677   2.000  14.113 -0.6056  0.0563 -0.9969
 2231SOL    HW118326   0.021   2.041  14.140 -1.3329  1.0093 -0.2008
 2231SOL    HW218327   4.697   1.909  14.135 -1.8094  0.4955  1.9297
 2232SOL     OW18328   1.070   4.546  11.437 -0.0279  0.2302  0.2694
 2232SOL    HW118329   1.016   4.625  11.447 -2.6708 -1.4803 -0.4970
 2232SOL    HW218330   1.158   4.579  11.455  0.1566 -0.4670  0.6453
 2233SOL     OW18331   0.866   1.452   9.031  0.1257  0.0236 -0.0709
 2233SOL    HW118332   0.917   1.427   8.954 -0.4734  0.0331 -0.4707
 2233SOL    HW218333   0.880   1.546   9.038  0.4653 -0.1444  1.5441
 2234SOL     OW18334   4.329   4.146  12.740  0.8534 -0.4503  0.4523
 2234SOL    HW118335   4.383   4.076  12.777  0.1302  0.2500  2.8257
 2234SOL    HW218336   4.243   4.103  12.736  1.3965 -1.5116 -0.1100
 2235SOL     OW18337   0.918   2.733  11.575 -0.9207  0.7046 -0.5446
 2235SOL    HW118338   0.927   2.809  11.517  0.2546  1.0827  0.1267
 2235SOL    HW218339   0.988   2.763  11.633 -1.0635 -0.5859  0.3051
 2236SOL     OW18340   1.421   0.145   6.006  0.8726 -0.0092  0.1360
 2236SOL    HW118341   1.403   0.162   5.914  0.1333 -1.2832  0.0404
 2236SOL    HW218342   1.476   0.219   6.032 -0.0486  0.3959  0.9488
 2237SOL     OW18343   3.163   0.294  14.932  0.2432  0.0634  0.3556
 2237SOL    HW118344   3.137   0.330  14.848  1.5882 -0.0865 -0.1304
 2237SOL    HW218345   3.076   0.260  14.955  0.3013 -0.5494 -0.3295
 2238SOL     OW18346   3.098   3.831   2.704  0.0438 -1.1406  0.2612
 2238SOL    HW118347   3.094   3.755   2.762 -1.9486  0.1052  1.7778
 2238SOL    HW218348   3.029   3.890   2.736  2.6773  1.6590  0.7474
 2239SOL     OW18349   4.383   4.248   4.507 -0.2223 -0.3112  0.1374
 2239SOL    HW118350   4.377   4.210   4.420 -0.2378  0.7150 -0.3035
 2239SOL    HW218351   4.425   4.186   4.566 -0.9070 -0.1331  0.8187
 2240SOL     OW18352   4.719   1.618   8.862  0.5334  0.5833  0.1704
 2240SOL    HW118353   4.671   1.609   8.945 -0.2281 -0.6781 -0.4093
 2240SOL    HW218354   4.670   1.571   8.795 -1.9030  2.3390  0.7068
 2241SOL     OW18355   4.386   3.923   5.241  0.1741 -0.0735 -0.0111
 2241SOL    HW118356   4.405   3.866   5.315  3.1971 -0.9631 -1.4990
 2241SOL    HW218357   4.295   3.902   5.215  0.2724  2.3997 -2.3508
 2242SOL     OW18358   0.424   0.136  11.813 -0.3146  0.1422  0.0107
 2242SOL    HW118359   0.404   0.066  11.876 -0.0747  0.0157 -0.0567
 2242SOL    HW218360   0.413   0.213  11.869  0.2089  0.3262 -0.1460
 2243SOL     OW18361   0.412   4.001   7.416  0.1329  0.0400 -0.0485
 2243SOL    HW118362   0.503   4.010   7.444 -0.2778  2.1331  0.6211
 2243SOL    HW218363   0.400   3.910   7.442  1.0262 -0.5652 -1.7114
 2244SOL     OW18364   3.223   3.324   2.209 -0.6448 -0.2192  0.5740
 2244SOL    HW118365   3.282   3.252   2.185 -2.0351 -0.8299 -0.9732
 2244SOL    HW218366   3.279   3.375   2.268 -0.8700 -1.2155  1.6512
 2245SOL     OW18367   1.114   4.536  16.325  0.5035  0.0070  0.6315
 2245SOL    HW118368   1.064   4.608  16.287  2.8007  1.4420  0.3456
 2245SOL    HW218369   1.121   4.550  16.419 -1.8368 -0.1477  0.8134
 2246SOL     OW18370   1.848   4.681   7.156  0.6093 -0.0924 -0.0594
 2246SOL    HW118371   1.926   4.662   7.208  0.8831 -0.0477 -0.4610
 2246SOL    HW218372   1.887   0.003   7.093  0.2003  1.8896  1.5382
 2247SOL     OW18373   0.130   2.407  15.501  1.0339  0.5404 -0.3453
 2247SOL    HW118374   0.130   2.426  15.407  0.1314 -0.7845 -0.6041
 2247SOL    HW218375   0.093   2.319  15.492  3.3279 -0.3750 -0.9068
 2248SOL     OW18376   1.795   4.532   1.243  0.3234 -0.1894  0.0151
 2248SOL    HW118377   1.834   4.522   1.156 -0.1031  0.0092 -0.1964
 2248SOL    HW218378   1.833   4.454   1.284  1.1106  0.3893  0.3862
 2249SOL     OW18379   3.622   0.683   4.748  1.0314  0.1801 -0.2008
 2249SOL    HW118380   3.536   0.721   4.727  0.4701  0.9950  3.6607
 2249SOL    HW218381   3.616   0.687   4.843  1.2019 -0.6179 -0.1575
 2250SOL     OW18382   0.356   0.396  10.080  0.2822  0.1899 -0.1218
 2250SOL    HW118383   0.390   0.482  10.055 -0.2376 -0.1314 -1.9527
 2250SOL    HW218384   0.264   0.415  10.097  0.6279 -0.8531  2.9867
 2251SOL     OW18385   2.453   1.394   8.166  0.3596 -0.1626  0.0188
 2251SOL    HW118386   2.408   1.400   8.250 -1.7380  0.9815 -1.1892
 2251SOL    HW218387   2.542   1.386   8.201  0.7095  1.9192 -0.3929
 2252SOL     OW18388   1.543   4.283  11.827 -0.3360 -0.3593 -0.0301
 2252SOL    HW118389   1.469   4.233  11.791 -0.4787 -0.3573  0.2598
 2252SOL    HW218390   1.553   4.253  11.917  1.2960 -2.0023 -0.7603
 2253SOL     OW18391   3.953   3.578   5.258 -0.1044 -0.0913 -0.2670
 2253SOL    HW118392   4.031   3.524   5.254 -0.2821 -0.3181 -0.6868
 2253SOL    HW218393   3.922   3.554   5.345 -0.7161  0.4522 -0.3313
 2254SOL     OW18394   4.093   3.527   7.065  0.1505 -0.1201  0.1447
 2254SOL    HW118395   4.086   3.582   7.144 -2.8178  0.9480 -0.8756
 2254SOL    HW218396   4.054   3.578   6.994 -0.4428  1.7005  1.7703
 2255SOL     OW18397   2.764   4.626   5.294 -0.2680  0.2152  0.7175
 2255SOL    HW118398   2.821   4.697   5.264  3.1373 -1.9842  1.9620
 2255SOL    HW218399   2.827   4.571   5.340 -0.5470 -0.5381  0.1932
 2256SOL     OW18400   1.122   0.302  15.317  0.4972  0.0822  0.2635
 2256SOL    HW118401   1.151   0.323  15.229  0.6751 -1.1105  0.0373
 2256SOL    HW218402   1.164   0.217  15.327  1.6460  0.6327  0.0518
 2257SOL     OW18403   1.592   0.304   0.453  0.0816 -0.9638  0.5750
 2257SOL    HW118404   1.632   0.246   0.389 -0.1159 -1.5646  0.9925
 2257SOL    HW218405   1.655   0.315   0.524  0.5124  1.2505 -0.1552
 2258SOL     OW18406   1.116   2.131  14.412 -0.2307  0.4655 -0.0874
 2258SOL    HW118407   1.186   2.136  14.478 -1.1610 -2.1798  1.1094
 2258SOL    HW218408   1.149   2.189  14.344 -0.4307  2.8378  1.8515
 2259SOL     OW18409   4.180   2.532   3.996  0.4942  0.2693  0.1955
 2259SOL    HW118410   4.242   2.480   4.047 -0.1738  0.1908  0.9276
 2259SOL    HW218411   4.234   2.609   3.979  1.1474 -0.0619  0.7794
 2260SOL     OW18412   2.529   2.936   2.982 -0.2178  0.0830 -0.2223
 2260SOL    HW118413   2.482   2.856   3.005 -0.4873 -0.1926 -1.7430
 2260SOL    HW218414   2.476   2.974   2.912  0.7658 -1.0601 -1.5790
 2261SOL     OW18415   1.881   0.500  12.001  0.0918 -0.1565  0.3530
 2261SOL    HW118416   1.958   0.477  12.053  1.4501  0.2045 -1.4923
 2261SOL    HW218417   1.929   0.537  11.926 -0.3755 -0.9404 -0.3275
 2262SOL     OW18418   4.392   2.232   7.853  0.2417 -0.0001  0.6431
 2262SOL    HW118419   4.465   2.245   7.793  0.0173  0.0133  0.3681
 2262SOL    HW218420   4.326   2.218   7.785 -0.8902 -0.5018  1.8406
 2263SOL     OW18421   1.976   4.106  10.600 -0.7463 -0.4301  0.4948
 2263SOL    HW118422   1.987   4.164  10.675 -0.4609 -2.6805  2.1845
 2263SOL    HW218423   2.062   4.066  10.603 -0.6679 -0.5534 -3.8117
 2264SOL     OW18424   3.922   2.828   5.266  0.6305  0.0248  0.2409
 2264SOL    HW118425   3.840   2.855   5.226 -0.0096  0.9247  2.1863
 2264SOL    HW218426   3.971   2.888   5.210  0.1101 -0.5474 -0.8380
 2265SOL     OW18427   1.890   0.586   4.766 -0.5403 -0.1986 -0.0483
 2265SOL    HW118428   1.978   0.618   4.783 -1.8399  2.6172  1.3429
 2265SOL    HW218429   1.884   0.519   4.835  0.5570 -0.0154  0.2305
 2266SOL     OW18430   0.269   0.303   3.349 -0.0447 -0.5025 -0.3976
 2266SOL    HW118431   0.275   0.349   3.264  1.2021  2.4292  1.2460
 2266SOL    HW218432   0.227   0.373   3.398  3.1547 -0.2119  1.9244
 2267SOL     OW18433   1.161   2.766   8.148  0.1724 -0.3775  0.1344
 2267SOL    HW118434   1.209   2.723   8.219 -0.1101  1.0972  1.2228
 2267SOL    HW218435   1.222   2.837   8.129 -0.4299  1.0493  3.5506
 2268SOL     OW18436   1.298   1.966   7.572 -0.2958 -0.4324  0.3182
 2268SOL    HW118437   1.384   1.948   7.610 -0.8939 -0.1859  1.7743
 2268SOL    HW218438   1.312   1.919   7.490  1.6966  2.6819 -1.0814
 2269SOL     OW18439   4.713   4.396   4.425  0.1713  0.3970  0.0369
 2269SOL    HW118440   4.687   4.482   4.393 -0.3051  0.1961 -0.1207
 2269SOL    HW218441   4.687   4.353   4.343 -2.1946 -0.5036  1.2760
 2270SOL     OW18442   0.469   0.437  13.679  0.0201  0.0666  0.0674
 2270SOL    HW118443   0.374   0.444  13.690  0.1478 -0.4954  1.5978
 2270SOL    HW218444   0.497   0.508  13.737  0.5407  0.6958 -0.9498
 2271SOL     OW18445   3.568   2.381   2.200  0.1409 -0.3173 -0.0399
 2271SOL    HW118446   3.568   2.345   2.112 -1.5117  1.3090 -0.7067
 2271SOL    HW218447   3.526   2.313   2.252 -2.2421 -1.2524 -3.2271
 2272SOL     OW18448   2.313   2.344   3.210  0.1270  0.1022 -0.3532
 2272SOL    HW118449   2.219   2.328   3.225  0.7251 -0.5217  2.7819
 2272SOL    HW218450   2.328   2.430   3.249 -1.2048 -1.2758  3.2224
 2273SOL     OW18451   3.346   2.958   8.110  0.0443  0.0468  0.2124
 2273SOL    HW118452   3.288   2.919   8.045 -1.7831  1.0514  1.2503
 2273SOL    HW218453   3.326   2.909   8.190  0.3284  1.4012  1.1155
 2274SOL     OW18454   3.896   0.826   4.626 -0.0935  0.3047 -0.0620
 2274SOL    HW118455   3.988   0.822   4.654 -0.2853 -0.9470  0.4167
 2274SOL    HW218456   3.856   0.756   4.677 -0.3189 -1.0880 -2.1078
 2275SOL     OW18457   4.564   1.948   5.319 -0.1475 -0.3035 -0.4827
 2275SOL    HW118458   4.475   1.949   5.353  0.3279  0.4852  0.7596
 2275SOL    HW218459   4.564   1.883   5.249 -1.8192  0.3429 -1.0634
 2276SOL     OW18460   0.023   0.057   4.936  0.0457  0.0344 -0.4132
 2276SOL    HW118461   0.084   0.117   4.980 -0.0017 -0.1325 -0.1164
 2276SOL    HW218462   0.074   0.025   4.861 -0.4032  3.3959 -2.1683
 2277SOL     OW18463   4.496   2.685   4.199 -0.3017 -0.4475  0.0258
 2277SOL    HW118464   4.431   2.616   4.207 -1.9462  0.9794 -1.0003
 2277SOL    HW218465   4.480   2.727   4.114  0.9446 -0.0365 -0.0179
 2278SOL     OW18466   2.161   0.524   1.812  0.3771 -0.1447  0.0526
 2278SOL    HW118467   2.223   0.458   1.844 -2.2298 -2.1054  1.0710
 2278SOL    HW218468   2.106   0.534   1.890  0.4117 -0.8178  0.1618
 2279SOL     OW18469   3.726   3.490   8.329  0.0180 -0.3670  0.3338
 2279SOL    HW118470   3.643   3.456   8.360 -0.3331  0.2963  0.1326
 2279SOL    HW218471   3.695   3.550   8.261 -0.7260  0.4287  1.3602
 2280SOL     OW18472   4.304   2.634   8.489  0.4914  0.9484  0.2412
 2280SOL    HW118473   4.271   2.713   8.446  0.7377  1.4925  1.0432
 2280SOL    HW218474   4.237   2.621   8.556 -0.2032 -1.6584 -1.0021
 2281SOL     OW18475   4.306   3.948  13.126  0.3038  0.5685  0.7622
 2281SOL    HW118476   4.358   4.027  13.112  0.0685  0.5934  0.0280
 2281SOL    HW218477   4.374   3.881  13.115 -2.0085 -1.6585  0.0840
 2282SOL     OW18478   2.114   4.045  10.823  0.2006 -0.6840  0.4541
 2282SOL    HW118479   2.031   4.000  10.839 -0.3490  0.2387  0.2326
 2282SOL    HW218480   2.158   3.995  10.754  1.7195  0.1579  0.8235
 2283SOL     OW18481   0.578   3.718   6.686 -0.5595  0.0081 -0.1803
 2283SOL    HW118482   0.656   3.716   6.630 -0.9880  1.4351 -0.8265
 2283SOL    HW218483   0.588   3.638   6.737  0.8119  0.3158  0.0401
 2284SOL     OW18484   2.569   2.430   4.560  0.4474  0.2090 -0.0616
 2284SOL    HW118485   2.484   2.465   4.588  0.1275  0.1039 -0.9005
 2284SOL    HW218486   2.547   2.376   4.484  3.5276  0.5331 -1.1569
 2285SOL     OW18487   4.696   0.460   9.460  0.7468 -0.2559  0.1530
 2285SOL    HW118488   4.732   0.510   9.386  0.5593 -1.7610 -0.9547
 2285SOL    HW218489   4.660   0.531   9.513 -1.2397 -1.1606 -0.0043
 2286SOL     OW18490   3.182   0.990   9.581 -0.1467  0.0059 -0.1330
 2286SOL    HW118491   3.218   1.055   9.521  0.4112  1.5198  1.8502
 2286SOL    HW218492   3.097   0.972   9.541 -0.3033 -1.2228  0.7458
 2287SOL     OW18493   3.707   1.094   9.371 -0.0780 -0.3531  0.4870
 2287SOL    HW118494   3.685   1.052   9.454 -1.9301  0.6749  0.5295
 2287SOL    HW218495   3.752   1.170   9.406  0.6074 -0.6805  0.3069
 2288SOL     OW18496   3.677   0.206   1.953  0.1274  0.2370  0.5902
 2288SOL    HW118497   3.692   0.205   1.859 -3.3125  3.0339 -0.0123
 2288SOL    HW218498   3.745   0.142   1.973 -1.1794 -0.8603  1.5874
 2289SOL     OW18499   1.710   1.794   6.703 -0.0576 -0.3645  0.3372
 2289SOL    HW118500   1.693   1.871   6.649 -0.9660 -0.1273  0.9724
 2289SOL    HW218501   1.806   1.794   6.710 -0.0382 -0.5778  0.0916
 2290SOL     OW18502   2.631   1.777  13.068 -0.2254 -0.4882 -0.5025
 2290SOL    HW118503   2.645   1.856  13.015  2.4650 -0.4993  0.1748
 2290SOL    HW218504   2.580   1.816  13.140  0.2288 -0.0440 -0.4207
 2291SOL     OW18505   3.159   2.833   3.677 -0.6311  0.1042  0.2491
 2291SOL    HW118506   3.211   2.798   3.750  0.3613  0.5823 -0.2285
 2291SOL    HW218507   3.215   2.823   3.600 -1.8231 -0.7495 -0.5014
 2292SOL     OW18508   1.868   1.650   9.706 -0.3504  0.1301  0.6529
 2292SOL    HW118509   1.924   1.597   9.649  1.3571 -1.3568  3.6731
 2292SOL    HW218510   1.849   1.592   9.780 -2.6204  1.8355  1.4134
 2293SOL     OW18511   3.268   3.867   3.247 -0.3939  0.1972 -0.7794
 2293SOL    HW118512   3.263   3.961   3.228 -0.1752  0.2566 -0.5473
 2293SOL    HW218513   3.193   3.838   3.196 -0.3606 -0.6305 -0.3508
 2294SOL     OW18514   1.139   3.183   8.431  0.2321  0.0484 -0.1867
 2294SOL    HW118515   1.137   3.192   8.336 -2.4539 -0.4055 -0.1767
 2294SOL    HW218516   1.078   3.109   8.422  0.6131 -0.5108  1.8871
 2295SOL     OW18517   0.264   1.127   6.689  0.0612 -0.0424  1.0117
 2295SOL    HW118518   0.263   1.188   6.616  1.8174 -1.0213  0.1579
 2295SOL    HW218519   0.195   1.160   6.746  2.0200  2.4005  1.9900
 2296SOL     OW18520   2.125   3.751   8.630  0.4232  0.4178 -0.2344
 2296SOL    HW118521   2.072   3.710   8.561 -0.7950 -1.0995  1.6116
 2296SOL    HW218522   2.059   3.742   8.699 -1.1347  1.3424 -1.5784
 2297SOL     OW18523   0.968   3.991   5.492 -0.1751  0.1283  0.4713
 2297SOL    HW118524   0.942   3.969   5.402 -0.8300  0.7468  0.5115
 2297SOL    HW218525   1.039   3.928   5.499 -1.3743 -1.2982 -0.1881
 2298SOL     OW18526   3.698   2.951   5.067  0.2014 -0.2404  0.1822
 2298SOL    HW118527   3.608   2.934   5.092  0.2357 -0.2444  0.3024
 2298SOL    HW218528   3.689   2.945   4.972 -0.2214  1.6523  0.1184
 2299SOL     OW18529   2.243   1.066   7.405  0.8102  0.2086  0.1790
 2299SOL    HW118530   2.285   1.151   7.393 -0.1003  0.4752 -1.1173
 2299SOL    HW218531   2.310   1.022   7.458 -0.7445 -2.0491  0.2626
 2300SOL     OW18532   1.017   1.079  12.796 -0.3467  0.4262  0.1796
 2300SOL    HW118533   1.078   1.037  12.734 -0.3625 -1.1325  1.2184
 2300SOL    HW218534   1.071   1.075  12.874  0.3006 -0.9414 -0.3297
 2301SOL     OW18535   1.054   2.061   9.363  0.8100 -0.2077 -0.0452
 2301SOL    HW118536   1.148   2.043   9.359  1.0636  0.9854  0.5410
 2301SOL    HW218537   1.037   2.150   9.394  1.2369 -1.1846  3.0499
 2302SOL     OW18538   0.680   0.389   5.934 -0.0269  0.2374  0.4058
 2302SOL    HW118539   0.728   0.329   5.877  2.0675  0.5239  1.8739
 2302SOL    HW218540   0.741   0.397   6.008  0.3588  0.1243  0.1040
 2303SOL     OW18541   2.453   1.493  15.260 -0.1147  0.4229 -0.1836
 2303SOL    HW118542   2.483   1.576  15.224  1.5314  0.2409  0.7561
 2303SOL    HW218543   2.428   1.525  15.347  2.6250 -0.2996  0.8816
 2304SOL     OW18544   1.762   2.249   8.369  0.0430  0.5923  0.8970
 2304SOL    HW118545   1.850   2.268   8.337  0.1347 -0.4495  0.5323
 2304SOL    HW218546   1.718   2.222   8.288 -0.3061  2.1555  0.5656
 2305SOL     OW18547   4.486   0.530   4.930 -0.7031  0.0656 -0.2841
 2305SOL    HW118548   4.447   0.616   4.914 -0.4001  0.6931  2.4267
 2305SOL    HW218549   4.435   0.495   5.003  0.6017 -1.0176  0.1221
 2306SOL     OW18550   3.164   3.388   8.834  0.4530 -0.1816 -0.1933
 2306SOL    HW118551   3.198   3.380   8.745 -0.3580 -1.6037 -0.3738
 2306SOL    HW218552   3.098   3.457   8.821  1.0096  0.3058 -0.4457
 2307SOL     OW18553   2.133   0.195  10.925 -0.1833  0.0823 -0.1749
 2307SOL    HW118554   2.115   0.244  11.005  0.3547 -0.9581  0.5921
 2307SOL    HW218555   2.227   0.210  10.919 -0.7578  2.7488 -2.4950
 2308SOL     OW18556   0.687   2.110   3.452  0.0689 -0.5718 -0.1273
 2308SOL    HW118557   0.633   2.176   3.409  1.9845  1.7257  1.0486
 2308SOL    HW218558   0.726   2.065   3.377 -1.9263 -1.0058 -0.8996
 2309SOL     OW18559   1.291   0.810   7.076 -0.6661 -0.4100 -0.3840
 2309SOL    HW118560   1.364   0.827   7.016  0.4590  2.0680  1.6756
 2309SOL    HW218561   1.295   0.884   7.136 -0.6257 -2.2016  1.8248
 2310SOL     OW18562   2.174   2.666   5.341  0.0107  0.2569  0.1558
 2310SOL    HW118563   2.160   2.761   5.339  1.0957  0.3595 -2.7118
 2310SOL    HW218564   2.260   2.663   5.383  0.6573 -0.7356 -1.2296
 2311SOL     OW18565   0.628   0.332   4.157  0.8275  0.2035  0.0522
 2311SOL    HW118566   0.690   0.387   4.205  0.7978 -0.4030  0.7817
 2311SOL    HW218567   0.678   0.329   4.076 -0.0296 -0.5223 -0.4395
 2312SOL     OW18568   0.465   0.599   7.606  0.0273  0.0246  0.7752
 2312SOL    HW118569   0.412   0.550   7.668 -1.2532  1.5708  0.8971
 2312SOL    HW218570   0.525   0.648   7.662 -0.4132  1.8087 -0.2821
 2313SOL     OW18571   4.023   1.499   2.449 -0.2436  0.0365 -0.6691
 2313SOL    HW118572   3.965   1.426   2.429 -1.1455  0.2767  1.1363
 2313SOL    HW218573   4.101   1.464   2.406  0.5980 -1.1413  1.8060
 2314SOL     OW18574   2.480   2.064  11.502 -0.1238 -0.0215  0.5707
 2314SOL    HW118575   2.475   2.062  11.407  0.1222  2.9042  0.5110
 2314SOL    HW218576   2.575   2.061  11.508 -0.2882 -0.0645  3.3013
 2315SOL     OW18577   4.553   1.741   5.136  0.6338 -0.1232  0.1983
 2315SOL    HW118578   4.631   1.689   5.117  1.2920  0.9568 -0.1001
 2315SOL    HW218579   4.532   1.747   5.043 -0.1150 -0.7417  0.3333
 2316SOL     OW18580   3.894   2.807   4.226 -0.3021 -0.0967  0.1762
 2316SOL    HW118581   3.955   2.866   4.182 -0.4928  0.4320  0.6231
 2316SOL    HW218582   3.819   2.866   4.213  0.3541  0.9575  1.2742
 2317SOL     OW18583   3.667   2.234  11.624 -0.2452  0.1152 -0.3283
 2317SOL    HW118584   3.676   2.286  11.704  1.6849  2.6400 -2.1864
 2317SOL    HW218585   3.643   2.148  11.658 -1.2705  0.6691  0.3314
 2318SOL     OW18586   3.126   3.290   1.161  0.3160 -0.1304  0.4810
 2318SOL    HW118587   3.178   3.238   1.222 -1.8080 -0.0615  2.3189
 2318SOL    HW218588   3.108   3.360   1.223  0.7711  0.3995  0.0167
 2319SOL     OW18589   1.224   1.819   6.428 -0.6507  0.0954  0.7166
 2319SOL    HW118590   1.289   1.882   6.461  1.3317 -0.8817 -1.2987
 2319SOL    HW218591   1.274   1.757   6.374 -1.8432 -0.1129 -0.1396
 2320SOL     OW18592   3.114   2.305   1.728  0.1482  0.1327 -0.0791
 2320SOL    HW118593   3.115   2.257   1.646 -2.4847 -0.7274  0.3875
 2320SOL    HW218594   3.122   2.225   1.779  3.4737  0.2583 -0.4123
 2321SOL     OW18595   2.392   1.834   5.999 -0.5778  0.3545 -0.1085
 2321SOL    HW118596   2.378   1.747   6.036  0.6896  0.5699  0.9063
 2321SOL    HW218597   2.469   1.858   6.051 -0.9210  1.2083  0.0074
 2322SOL     OW18598   4.464   3.403   7.338  0.1409 -0.0938  0.3746
 2322SOL    HW118599   4.432   3.352   7.413 -1.0998  3.6558  2.3770
 2322SOL    HW218600   4.429   3.488   7.363 -1.4812 -0.9718  1.1169
 2323SOL     OW18601   0.838   0.211   3.287  0.4236  0.0811  0.4563
 2323SOL    HW118602   0.751   0.171   3.291 -0.3874  2.1666  3.2342
 2323SOL    HW218603   0.825   0.292   3.238 -2.0365 -1.0358 -0.7626
 2324SOL     OW18604   4.048   0.822   3.076 -0.0398 -0.3444 -0.2772
 2324SOL    HW118605   4.065   0.819   2.982  3.0721  1.5399  0.2349
 2324SOL    HW218606   4.085   0.739   3.105  0.1905 -1.1907 -3.0063
 2325SOL     OW18607   0.553   1.609  16.243 -0.3410 -0.3489  0.1436
 2325SOL    HW118608   0.495   1.619  16.318 -0.8734  0.1498 -0.3312
 2325SOL    HW218609   0.533   1.695  16.205  1.6745  0.0632  0.0015
 2326SOL     OW18610   0.704   2.117   4.915  0.2026  0.5936 -0.2433
 2326SOL    HW118611   0.615   2.111   4.950  0.6825 -0.9405  0.7447
 2326SOL    HW218612   0.679   2.126   4.823 -3.5907 -1.1999  0.6166
 2327SOL     OW18613   3.231   1.676   6.236  0.8611 -0.0902 -0.0857
 2327SOL    HW118614   3.299   1.702   6.173 -0.0122  1.3787 -0.4230
 2327SOL    HW218615   3.190   1.755   6.270  1.5047 -0.1945  0.9105
 2328SOL     OW18616   3.644   4.475   4.070  0.1075  0.5268  0.1653
 2328SOL    HW118617   3.661   4.409   4.138 -0.2601  0.0150 -0.2392
 2328SOL    HW218618   3.594   4.424   4.007 -2.5075  1.4153  1.5142
 2329SOL     OW18619   0.239   0.475  15.141  0.2462 -0.5894 -0.4265
 2329SOL    HW118620   0.196   0.504  15.222  0.4181  0.6189 -0.7689
 2329SOL    HW218621   0.312   0.422  15.173 -0.0528 -1.3634 -1.0075
 2330SOL     OW18622   2.776   3.715  15.794  0.6602  0.0172  0.3059
 2330SOL    HW118623   2.808   3.650  15.732  2.8937  0.5419  0.9363
 2330SOL    HW218624   2.720   3.770  15.738  0.1287 -1.3662 -0.5387
 2331SOL     OW18625   1.845   4.606   2.244 -0.7085 -0.4927 -0.3729
 2331SOL    HW118626   1.823   4.591   2.152  1.2422  1.9261 -1.2264
 2331SOL    HW218627   1.846   4.701   2.240  0.9811 -0.5447 -1.3772
 2332SOL     OW18628   0.345   1.778   9.215  0.3891  0.0051 -0.6244
 2332SOL    HW118629   0.371   1.729   9.137  0.8424  0.3250 -0.6728
 2332SOL    HW218630   0.398   1.731   9.280  2.4361  2.8127 -0.2472
 2333SOL     OW18631   3.375   2.457  12.853 -0.0134 -0.5314  0.4556
 2333SOL    HW118632   3.344   2.387  12.911  0.2049 -0.5591  0.5394
 2333SOL    HW218633   3.304   2.449  12.789 -0.8781  0.1098  1.3408
 2334SOL     OW18634   3.818   3.226   4.919  0.7875 -0.9420 -0.4440
 2334SOL    HW118635   3.905   3.247   4.951  0.7396  2.7102 -2.6352
 2334SOL    HW218636   3.809   3.285   4.844  0.3826  0.2393  0.5349
 2335SOL     OW18637   3.635   3.625   3.654  0.2931  0.2820 -0.4046
 2335SOL    HW118638   3.725   3.616   3.685 -0.0861 -0.5334  0.4509
 2335SOL    HW218639   3.654   3.679   3.577  1.0759  0.5592 -0.0149
 2336SOL     OW18640   1.533   2.184   2.692  0.2293  0.3147  0.1202
 2336SOL    HW118641   1.553   2.146   2.777  0.7237 -0.4876 -0.3431
 2336SOL    HW218642   1.465   2.246   2.717  0.4446  0.9215 -0.7957
 2337SOL     OW18643   1.383   3.686   9.648  0.0743  0.0864  0.2317
 2337SOL    HW118644   1.451   3.622   9.625 -1.5823 -2.2867  1.8676
 2337SOL    HW218645   1.439   3.759   9.674  0.7506 -0.1903 -0.4300
 2338SOL     OW18646   0.097   0.382  10.083 -0.3767 -0.5595  0.0323
 2338SOL    HW118647   0.076   0.289  10.087  0.7495 -0.7208  2.5073
 2338SOL    HW218648   0.029   0.408  10.021  2.3172  1.3489 -2.1407
 2339SOL     OW18649   2.154   3.113  14.050 -0.2431  0.3123 -0.9319
 2339SOL    HW118650   2.156   3.099  13.955  0.8738  0.4609 -0.9242
 2339SOL    HW218651   2.247   3.100  14.067 -0.3871 -1.1297 -1.2997
 2340SOL     OW18652   2.772   1.831   0.140 -0.1577 -0.5016  0.4300
 2340SOL    HW118653   2.684   1.848   0.173  0.1298  0.4784  0.7148
 2340SOL    HW218654   2.782   1.887   0.063  1.7713 -0.4468  0.7117
 2341SOL     OW18655   1.221   2.640   0.521  0.7273 -0.7524  0.5289
 2341SOL    HW118656   1.129   2.659   0.542  0.6992  0.1769 -0.4435
 2341SOL    HW218657   1.252   2.646   0.611 -0.5694  4.3448  0.6044
 2342SOL     OW18658   2.932   0.320   2.172 -0.3368 -0.1831  0.4831
 2342SOL    HW118659   2.881   0.280   2.243 -0.9337  0.2463  0.3019
 2342SOL    HW218660   2.950   0.406   2.211 -0.3646 -0.4999  1.2028
 2343SOL     OW18661   2.302   3.639  12.506  0.0373  0.2194 -0.2786
 2343SOL    HW118662   2.284   3.678  12.591  3.3928  0.3251  0.4052
 2343SOL    HW218663   2.216   3.611  12.478 -0.4749  0.7779  0.7356
 2344SOL     OW18664   1.764   3.778   3.722 -0.0546 -0.1674 -0.3656
 2344SOL    HW118665   1.734   3.730   3.799 -0.0176 -1.7527 -1.3585
 2344SOL    HW218666   1.855   3.748   3.723  0.1261  0.4611  1.8162
 2345SOL     OW18667   1.103   2.605  11.137 -0.6729 -0.0833  0.6430
 2345SOL    HW118668   1.125   2.629  11.047 -1.5272  0.3639  0.5524
 2345SOL    HW218669   1.031   2.663  11.161 -0.1923  1.3349 -1.3557
 2346SOL     OW18670   4.001   2.453   9.678 -0.0817  0.0987  0.1576
 2346SOL    HW118671   3.990   2.491   9.591 -0.7564 -0.2079  0.1086
 2346SOL    HW218672   4.024   2.362   9.661 -0.9259 -0.0620 -0.1167
 2347SOL     OW18673   4.364   2.643   5.369 -1.4561 -0.1364 -1.2421
 2347SOL    HW118674   4.437   2.686   5.325  1.0472  0.2452  3.3608
 2347SOL    HW218675   4.363   2.686   5.454  1.0505  0.5231 -1.5531
 2348SOL     OW18676   0.848   1.971   3.790  0.6512 -0.4105 -0.4383
 2348SOL    HW118677   0.920   1.944   3.847 -0.2406 -2.3629 -0.2303
 2348SOL    HW218678   0.870   1.929   3.707  2.1080  0.1491 -0.3409
 2349SOL     OW18679   2.628   2.483   8.499  0.2543 -0.0968  0.0131
 2349SOL    HW118680   2.547   2.483   8.448  1.9088  1.4090 -2.6276
 2349SOL    HW218681   2.610   2.421   8.570  3.7620  1.1208  1.9883
 2350SOL     OW18682   1.496   3.062   5.863 -0.2589  0.5592  0.2749
 2350SOL    HW118683   1.423   3.061   5.925 -0.0142  1.2495  0.5699
 2350SOL    HW218684   1.441   3.062   5.784 -0.9201 -2.0992  0.7277
 2351SOL     OW18685   3.695   4.424   7.968  0.4448  0.0029 -0.6144
 2351SOL    HW118686   3.694   4.478   7.889  1.4612  0.3042 -0.4222
 2351SOL    HW218687   3.645   4.484   8.022 -0.0689  0.6362 -1.7967
 2352SOL     OW18688   3.717   2.470   1.332 -0.1120 -0.1772 -0.5575
 2352SOL    HW118689   3.637   2.490   1.285 -0.6799  0.7579  0.8008
 2352SOL    HW218690   3.690   2.427   1.413 -1.6353  0.2790 -0.8277
 2353SOL     OW18691   1.067   1.660  14.968 -0.4641 -0.2164  0.0389
 2353SOL    HW118692   1.109   1.658  15.054 -0.2316 -0.1898 -0.0742
 2353SOL    HW218693   1.003   1.726  14.993 -0.7774 -1.4741  2.5272
 2354SOL     OW18694   1.923   1.007   8.791 -0.6052  0.2793 -0.4002
 2354SOL    HW118695   1.986   0.974   8.855 -2.3517  1.1308  1.7293
 2354SOL    HW218696   1.958   0.963   8.713 -1.6795  1.1379 -1.3677
 2355SOL     OW18697   0.941   2.498   2.179  0.0068  0.1254 -0.0722
 2355SOL    HW118698   0.894   2.420   2.210  1.4616 -0.7327 -0.0171
 2355SOL    HW218699   0.874   2.562   2.204  0.0176  0.0749  0.0893
 2356SOL     OW18700   3.267   3.524   9.203 -0.5344 -0.4336 -0.0881
 2356SOL    HW118701   3.261   3.429   9.215  0.3670 -0.4861 -0.0620
 2356SOL    HW218702   3.322   3.535   9.126  0.3781 -2.7829  0.2109
 2357SOL     OW18703   0.220   2.188  16.801  0.0312 -0.3281  0.2113
 2357SOL    HW118704   0.229   2.093  16.798 -1.0647 -0.4039 -0.4510
 2357SOL    HW218705   0.134   2.200  16.839 -0.5067  1.4908 -1.5956
 2358SOL     OW18706   0.612   2.806   6.093 -0.1116 -0.0684  0.2387
 2358SOL    HW118707   0.581   2.794   6.183  0.6919 -2.9910  0.1070
 2358SOL    HW218708   0.697   2.762   6.096 -0.7385 -1.3861 -1.6538
 2359SOL     OW18709   0.997   3.865   3.677 -0.1489  0.3511  0.2704
 2359SOL    HW118710   1.072   3.806   3.682 -0.8750 -0.3654  2.7343
 2359SOL    HW218711   1.032   3.929   3.616  1.3965 -0.9370 -0.2056
 2360SOL     OW18712   0.506   3.079   3.323  0.8053  0.1960  0.3525
 2360SOL    HW118713   0.532   3.005   3.378 -0.0092 -0.6874 -0.4587
 2360SOL    HW218714   0.448   3.042   3.257  2.9544 -0.4583 -1.1638
 2361SOL     OW18715   3.810   2.433   1.867  0.3585 -0.8655 -0.5178
 2361SOL    HW118716   3.897   2.404   1.838 -0.3667 -0.6726 -2.8191
 2361SOL    HW218717   3.839   2.521   1.892 -1.7670 -0.8660  1.9092
 2362SOL     OW18718   2.512   1.439   8.952 -0.0967  0.7210 -0.3371
 2362SOL    HW118719   2.449   1.411   9.018  0.5649  0.4090  0.1553
 2362SOL    HW218720   2.458   1.412   8.877 -1.5319  2.0071  0.2380
 2363SOL     OW18721   1.088   2.784   0.286  0.2854 -0.7379 -0.4797
 2363SOL    HW118722   0.999   2.817   0.302  1.1888  1.8207 -0.7997
 2363SOL    HW218723   1.107   2.748   0.372 -1.4695 -0.4391  0.0320
 2364SOL     OW18724   2.605   4.714   3.835 -0.0546  0.1116 -1.0463
 2364SOL    HW118725   2.560   4.736   3.916 -1.4367 -1.6709 -1.3233
 2364SOL    HW218726   2.536   0.005   3.776 -2.5265 -1.1730  1.2100
 2365SOL     OW18727   3.498   3.547   4.855 -0.2978 -0.7684 -0.2158
 2365SOL    HW118728   3.438   3.539   4.780 -2.2336 -1.2430  1.3935
 2365SOL    HW218729   3.520   3.454   4.865  0.9508 -0.3684  0.7115
 2366SOL     OW18730   1.970   3.982  11.724 -0.1038  0.5347 -0.3936
 2366SOL    HW118731   1.911   3.981  11.800 -0.3559 -1.1425 -0.6209
 2366SOL    HW218732   1.985   4.076  11.731  2.0813  0.0436  1.4421
 2367SOL     OW18733   3.544   1.301   8.197  0.1840 -0.1953  0.2496
 2367SOL    HW118734   3.548   1.350   8.280 -2.6940  1.1622 -0.3941
 2367SOL    HW218735   3.534   1.212   8.231 -2.0072  0.1369  0.4934
 2368SOL     OW18736   4.471   0.037  15.771 -0.2065  0.2349 -0.4627
 2368SOL    HW118737   4.432   0.084  15.697  0.4217  0.2291 -0.8022
 2368SOL    HW218738   4.489   4.689  15.734  0.3270  0.1203  0.0504
 2369SOL     OW18739   2.631   0.768  16.072 -0.2409 -0.0037  0.3060
 2369SOL    HW118740   2.560   0.831  16.060  0.7909  0.6645 -2.2829
 2369SOL    HW218741   2.627   0.726  15.987 -1.0082 -1.2404  0.9573
 2370SOL     OW18742   0.637   2.193   6.213 -0.7102 -0.0776  0.2914
 2370SOL    HW118743   0.726   2.157   6.209  0.3180  2.6621 -1.2328
 2370SOL    HW218744   0.617   2.192   6.307  1.5184  1.9097  0.7726
 2371SOL     OW18745   0.068   0.616  11.383  0.1531  0.0217  0.0154
 2371SOL    HW118746   0.099   0.531  11.352 -1.7526 -0.1359 -1.3763
 2371SOL    HW218747   4.719   0.602  11.421 -0.7345  2.7165 -1.0333
 2372SOL     OW18748   1.929   1.587   0.341  0.3820 -0.3183 -0.1637
 2372SOL    HW118749   1.926   1.502   0.384  2.6941 -1.4516 -2.2510
 2372SOL    HW218750   1.837   1.608   0.323  0.8455  1.0401 -0.9523
 2373SOL     OW18751   1.975   4.590   5.416  0.0562 -0.7480 -0.6692
 2373SOL    HW118752   1.994   4.513   5.470  2.7241  1.2576  1.2474
 2373SOL    HW218753   1.971   4.656   5.486 -1.1704  1.2556 -2.6185
 2374SOL     OW18754   3.601   0.546   4.125  0.0934  0.1921 -0.3466
 2374SOL    HW118755   3.572   0.637   4.135  1.1432  0.4512  0.3339
 2374SOL    HW218756   3.533   0.517   4.063  1.6134  0.7605 -2.2982
 2375SOL     OW18757   0.699   0.774   6.750  0.1407 -0.4282 -0.4473
 2375SOL    HW118758   0.694   0.841   6.819 -1.4462 -0.1236 -0.8613
 2375SOL    HW218759   0.641   0.807   6.682 -1.2219  0.3718  1.0989
 2376SOL     OW18760   2.470   3.255   6.484 -0.1178  0.3023 -0.3250
 2376SOL    HW118761   2.529   3.273   6.411 -2.4342 -1.2292 -2.5924
 2376SOL    HW218762   2.463   3.343   6.519 -1.7325  0.1435 -0.2545
 2377SOL     OW18763   3.489   0.700   2.442 -0.7168 -0.1095 -0.4438
 2377SOL    HW118764   3.525   0.646   2.513 -2.7358  0.8606  1.3217
 2377SOL    HW218765   3.516   0.654   2.363 -0.6556  0.9547 -1.0356
 2378SOL     OW18766   4.558   0.165   8.205  0.3169 -0.1015  0.3944
 2378SOL    HW118767   4.499   0.234   8.235 -1.6312 -1.9502  0.7940
 2378SOL    HW218768   4.534   0.092   8.261 -1.6612 -0.1776 -0.5299
 2379SOL     OW18769   2.465   2.084   4.218  0.1602  0.3650  0.2647
 2379SOL    HW118770   2.476   1.993   4.247 -0.8644  0.0015 -0.4678
 2379SOL    HW218771   2.553   2.115   4.197 -0.3133  1.4063 -0.1802
 2380SOL     OW18772   1.365   1.742   1.004 -0.1824  0.8050  0.1218
 2380SOL    HW118773   1.402   1.824   1.036 -0.7681  1.0020  0.2826
 2380SOL    HW218774   1.328   1.708   1.086 -0.1461  1.1304  0.2703
 2381SOL     OW18775   1.453   1.410  14.839  0.0696  0.2513 -0.5848
 2381SOL    HW118776   1.390   1.355  14.792 -1.6261  1.4788  0.2599
 2381SOL    HW218777   1.480   1.463  14.763  3.1111  1.0035  1.0390
 2382SOL     OW18778   4.391   4.222  10.508  0.1411  0.0188  0.2422
 2382SOL    HW118779   4.447   4.176  10.570  1.1984  0.0119 -0.7073
 2382SOL    HW218780   4.326   4.156  10.485  2.8133 -2.1186 -1.1690
 2383SOL     OW18781   3.659   3.883   3.122  0.3849  0.1031  0.7228
 2383SOL    HW118782   3.686   3.975   3.126  0.6593  0.0425  0.2120
 2383SOL    HW218783   3.563   3.887   3.123  0.2623 -2.3078 -0.7172
 2384SOL     OW18784   4.471   0.232   6.679  0.3058  0.1167  0.2486
 2384SOL    HW118785   4.397   0.199   6.629  1.7402 -2.4502 -0.1524
 2384SOL    HW218786   4.544   0.185   6.639  0.5370  0.3931  0.3441
 2385SOL     OW18787   2.439   2.064   8.661  0.0281  0.3757  0.2135
 2385SOL    HW118788   2.344   2.071   8.652  0.2377  2.7568  0.0339
 2385SOL    HW218789   2.444   1.968   8.669 -2.6515  0.1649 -0.4437
 2386SOL     OW18790   0.004   1.711  14.991  0.0316 -0.3628 -0.5711
 2386SOL    HW118791   4.647   1.706  14.977 -0.0733 -0.6527  0.2214
 2386SOL    HW218792   0.012   1.638  15.053 -1.6887 -0.3022 -0.2756
 2387SOL     OW18793   0.100   0.165   8.785 -0.3347 -0.0979  0.1266
 2387SOL    HW118794   0.120   0.257   8.768 -0.5283 -0.0789  0.0041
 2387SOL    HW218795   0.048   0.185   8.863  0.1890 -0.3125  0.5265
 2388SOL     OW18796   0.419   2.203   2.357  0.1741 -0.1920 -0.3409
 2388SOL    HW118797   0.498   2.243   2.320  0.5903  1.2341  2.0672
 2388SOL    HW218798   0.370   2.186   2.277 -0.8430 -1.4534  0.5448
 2389SOL     OW18799   4.736   1.502   6.131 -0.0251 -0.2883 -0.0583
 2389SOL    HW118800   0.006   1.474   6.222 -0.4424  0.1076  0.1010
 2389SOL    HW218801   4.683   1.431   6.094 -0.7425 -0.6313  1.6194
 2390SOL     OW18802   1.128   3.316   8.689  0.3751 -0.1028 -0.1733
 2390SOL    HW118803   1.151   3.237   8.640 -1.0477  0.2620 -1.4126
 2390SOL    HW218804   1.206   3.362   8.719 -2.5135  2.2862  3.6258
 2391SOL     OW18805   0.969   0.581   7.051  0.0355 -0.5334 -0.6485
 2391SOL    HW118806   1.034   0.565   6.982  0.4306  0.9479 -0.6171
 2391SOL    HW218807   1.001   0.513   7.110  0.1695  1.2908  1.3470
 2392SOL     OW18808   1.409   0.062   7.764 -0.4224  0.3884  0.2678
 2392SOL    HW118809   1.326   0.086   7.805 -0.6275  0.1611 -0.0199
 2392SOL    HW218810   1.471   0.067   7.837  0.3297 -3.4680 -0.0741
 2393SOL     OW18811   3.593   3.940  13.326 -0.5995  0.3559 -0.0954
 2393SOL    HW118812   3.574   3.895  13.244 -0.5383 -0.2236  0.2060
 2393SOL    HW218813   3.516   3.994  13.345 -1.4246 -0.0749 -2.1463
 2394SOL     OW18814   2.011   3.476   8.048 -0.4707  0.7656  0.3310
 2394SOL    HW118815   1.961   3.485   8.129 -0.0961  0.9755  0.5399
 2394SOL    HW218816   2.007   3.385   8.019  0.3753  0.6960  0.4165
 2395SOL     OW18817   2.872   3.578  15.538  0.0111  0.5265 -0.3487
 2395SOL    HW118818   2.900   3.508  15.479 -0.5492 -0.0610  0.0822
 2395SOL    HW218819   2.960   3.612  15.555  0.9320 -1.2151 -1.5915
 2396SOL     OW18820   0.579   3.598   4.432 -0.1240  0.3386  0.4876
 2396SOL    HW118821   0.654   3.540   4.420 -0.1233  0.2602  0.8594
 2396SOL    HW218822   0.621   3.677   4.398  2.4071 -0.4081  1.8745
 2397SOL     OW18823   4.542   2.152   0.534 -0.0180  0.2804 -0.3334
 2397SOL    HW118824   4.504   2.239   0.527  0.2768  0.4865  0.6506
 2397SOL    HW218825   4.471   2.096   0.501  0.2296 -0.0800 -0.2478
 2398SOL     OW18826   4.417   1.909   8.580  0.3891  0.0392 -0.0688
 2398SOL    HW118827   4.496   1.960   8.597 -0.0343  0.7848 -0.3583
 2398SOL    HW218828   4.452   1.820   8.577  1.9381  0.5742  1.5130
 2399SOL     OW18829   2.340   3.086   0.295 -0.2500  0.2578 -0.6839
 2399SOL    HW118830   2.358   3.168   0.341 -0.1434 -0.7813  1.1264
 2399SOL    HW218831   2.417   3.074   0.239  0.0360  0.9348 -0.4322
 2400SOL     OW18832   3.403   3.175  14.605 -0.9387  0.3343  0.1894
 2400SOL    HW118833   3.387   3.239  14.674 -0.3340 -0.1798  0.7931
 2400SOL    HW218834   3.325   3.119  14.604 -0.2720 -0.6048  0.9894
 2401SOL     OW18835   3.463   2.486  11.943 -0.1035 -0.3818  0.0670
 2401SOL    HW118836   3.532   2.421  11.944  1.8166  1.6572  0.3871
 2401SOL    HW218837   3.431   2.453  12.026 -3.5223 -0.1920 -1.1416
 2402SOL     OW18838   0.487   2.122  16.870 -0.0846  0.3342  0.1673
 2402SOL    HW118839   0.403   2.094  16.834 -0.4795  1.8036 -0.0349
 2402SOL    HW218840   0.547   2.061  16.828 -0.2727  0.9099 -0.9302
 2403SOL     OW18841   4.494   2.752  14.043 -0.1607 -0.8297  0.5030
 2403SOL    HW118842   4.406   2.780  14.017 -0.3003 -0.1848  1.6409
 2403SOL    HW218843   4.481   2.658  14.049 -0.5013 -0.6785  2.2589
 2404SOL     OW18844   0.761   0.360  17.307  0.9647  0.2938  0.2409
 2404SOL    HW118845   0.816   0.291  17.341  1.9362  0.8662 -0.1817
 2404SOL    HW218846   0.831   0.425  17.314  1.6218 -0.5422  1.2155
 2405SOL     OW18847   3.119   1.131   4.871 -0.2439 -0.1650 -0.2441
 2405SOL    HW118848   3.049   1.138   4.807  0.5528  0.2125 -1.0787
 2405SOL    HW218849   3.113   1.038   4.892 -0.3466 -0.3838 -1.2695
 2406SOL     OW18850   2.205   0.982   4.270  0.3795  0.2759  0.2965
 2406SOL    HW118851   2.248   0.942   4.345 -0.5245 -1.2528  0.0065
 2406SOL    HW218852   2.181   0.907   4.215  3.9352 -0.4393 -0.2376
 2407SOL     OW18853   4.689   2.788   5.634 -0.5917  0.6164 -0.0985
 2407SOL    HW118854   4.608   2.738   5.644 -0.3761  0.1219 -0.8834
 2407SOL    HW218855   4.679   2.842   5.556 -2.4530  1.3312  0.6053
 2408SOL     OW18856   0.325   3.608  15.803 -0.0856 -0.2520 -0.3759
 2408SOL    HW118857   0.302   3.520  15.773  0.1526  0.0242 -1.3980
 2408SOL    HW218858   0.242   3.655  15.797  0.2447  0.6923  2.5595
 2409SOL     OW18859   4.402   0.621   3.389  0.1726 -0.3842 -0.0334
 2409SOL    HW118860   4.388   0.715   3.397  0.4665 -0.3838  0.5097
 2409SOL    HW218861   4.497   0.617   3.395  0.1425 -0.4295  0.4406
 2410SOL     OW18862   1.408   0.148   8.679 -0.7480 -0.8448 -0.0955
 2410SOL    HW118863   1.437   0.153   8.770  0.6812  0.4389 -0.6283
 2410SOL    HW218864   1.468   0.083   8.643  0.3947  1.1302 -1.7291
 2411SOL     OW18865   0.113   2.266  11.816 -0.2828 -0.2668  0.1638
 2411SOL    HW118866   0.131   2.232  11.904  0.3706 -0.8635 -0.2038
 2411SOL    HW218867   0.076   2.353  11.830  0.3055  0.0553 -0.3108
 2412SOL     OW18868   3.109   3.467   1.349 -0.1328 -0.3336 -0.7898
 2412SOL    HW118869   3.121   3.495   1.440 -0.1726  0.6284 -1.0746
 2412SOL    HW218870   3.047   3.536   1.323 -0.5392  0.2996  1.8953
 2413SOL     OW18871   2.163   0.927   0.052  0.2736 -0.5676  0.0484
 2413SOL    HW118872   2.085   0.973   0.083  0.5083  0.4303 -0.8136
 2413SOL    HW218873   2.165   0.867   0.126  0.4538 -0.5701  0.0397
 2414SOL     OW18874   2.559   3.953   5.039  0.0042  0.2500  0.3903
 2414SOL    HW118875   2.560   4.014   4.965 -0.0505 -0.5640 -0.2794
 2414SOL    HW218876   2.621   3.886   5.012 -1.3811 -1.0261  0.3583
 2415SOL     OW18877   4.081   3.136  14.830  0.4716 -0.0251 -0.1191
 2415SOL    HW118878   4.040   3.055  14.863  3.8788 -1.5889  0.2752
 2415SOL    HW218879   4.031   3.150  14.750  1.7767 -2.2295 -1.3371
 2416SOL     OW18880   0.617   4.498   2.646 -0.2121 -0.3389  0.6117
 2416SOL    HW118881   0.627   4.449   2.728 -1.1340  0.7809  1.3812
 2416SOL    HW218882   0.534   4.462   2.616  0.3687  0.7418 -2.3781
 2417SOL     OW18883   2.917   0.591   4.171 -0.3968 -0.1023  0.4257
 2417SOL    HW118884   2.863   0.647   4.226 -0.4814 -0.0976  0.3386
 2417SOL    HW218885   2.846   0.531   4.146 -2.3532  1.7954  1.4563
 2418SOL     OW18886   3.259   1.890  15.226  0.0754 -0.7028  0.1425
 2418SOL    HW118887   3.236   1.930  15.310 -1.8918  0.5041 -0.9716
 2418SOL    HW218888   3.275   1.797  15.244 -0.7350 -1.0326 -0.8680
 2419SOL     OW18889   3.538   1.581   8.664  0.2861 -0.0255 -0.2881
 2419SOL    HW118890   3.594   1.606   8.590 -0.4552 -0.8939 -1.1437
 2419SOL    HW218891   3.596   1.528   8.719  0.5664  1.5388  0.9320
 2420SOL     OW18892   3.874   1.726   6.197 -0.3327  0.9335  0.0289
 2420SOL    HW118893   3.908   1.642   6.227 -1.0484  0.4378 -0.5575
 2420SOL    HW218894   3.959   1.765   6.173  0.2713 -0.3722  0.0271
 2421SOL     OW18895   4.042   2.109  11.568  0.1573 -0.3308 -0.2055
 2421SOL    HW118896   4.054   2.163  11.490  2.7214 -0.1817  0.3069
 2421SOL    HW218897   4.130   2.117  11.605 -0.0074 -1.3168  0.3896
 2422SOL     OW18898   0.391   1.985   0.521  0.0309 -0.3751 -0.1994
 2422SOL    HW118899   0.305   1.978   0.563 -0.4097 -3.0049 -1.5461
 2422SOL    HW218900   0.440   2.031   0.589 -0.1344  0.6130 -0.7581
 2423SOL     OW18901   1.857   0.658  10.400  0.0669  1.0284  0.1000
 2423SOL    HW118902   1.926   0.593  10.409 -1.1533  0.0649  2.3719
 2423SOL    HW218903   1.780   0.624  10.446  0.4032 -0.8127 -0.7088
 2424SOL     OW18904   3.949   4.116   1.884 -0.0340 -0.2528 -0.1195
 2424SOL    HW118905   3.974   4.179   1.816 -1.8153 -0.4831 -0.9705
 2424SOL    HW218906   3.865   4.156   1.907  0.0364  1.2870 -2.6131
 2425SOL     OW18907   2.529   3.125   4.983 -0.4305 -0.0316 -0.4799
 2425SOL    HW118908   2.591   3.055   4.963 -0.6663 -0.7863  1.4624
 2425SOL    HW218909   2.518   3.107   5.076  0.6099 -2.0915 -0.7563
 2426SOL     OW18910   2.652   0.217   9.124  0.4070 -0.3129 -0.4505
 2426SOL    HW118911   2.649   0.310   9.099  0.1628  0.0874  1.0595
 2426SOL    HW218912   2.723   0.187   9.069  0.7512  0.5977 -0.5077
 2427SOL     OW18913   3.610   4.402   8.976  0.4851 -0.1755  0.2305
 2427SOL    HW118914   3.582   4.310   8.974  0.1892 -0.0811  0.0176
 2427SOL    HW218915   3.529   4.447   8.998  1.1758  0.9784  0.3936
 2428SOL     OW18916   1.801   3.932  10.470  0.6333  1.0777 -0.6675
 2428SOL    HW118917   1.860   4.001  10.501 -0.8839  1.9527  0.3363
 2428SOL    HW218918   1.728   3.985  10.437  0.3639  0.9010 -0.3620
 2429SOL     OW18919   4.411   2.524   2.752  0.1487  0.5354 -0.0677
 2429SOL    HW118920   4.326   2.559   2.725  1.4761  1.8338 -2.5882
 2429SOL    HW218921   4.394   2.434   2.723 -0.9509  0.5685  0.4548
 2430SOL     OW18922   1.333   0.838  10.561  0.0545 -0.0167  0.1637
 2430SOL    HW118923   1.356   0.873  10.647  1.2461  0.4562 -0.3470
 2430SOL    HW218924   1.281   0.909  10.523 -1.6489 -3.0012 -3.0000
 2431SOL     OW18925   1.569   2.768   3.950 -0.1813  0.0488 -0.1019
 2431SOL    HW118926   1.628   2.739   3.880  1.9691 -0.1663  1.8159
 2431SOL    HW218927   1.550   2.684   3.992  0.6888  0.8385  1.8593
 2432SOL     OW18928   1.125   2.253   2.506  0.0640  0.1292 -0.7322
 2432SOL    HW118929   1.098   2.331   2.555  1.2500  0.1453 -0.1192
 2432SOL    HW218930   1.058   2.194   2.540  0.5463  0.2036  0.3458
 2433SOL     OW18931   4.500   2.070  12.996 -0.0204 -0.3030  0.5644
 2433SOL    HW118932   4.454   2.135  12.943  0.3770  0.1997  0.8279
 2433SOL    HW218933   4.526   2.124  13.071 -2.1271  1.5465 -0.0416
 2434SOL     OW18934   4.173   3.309  17.679 -0.0558  0.3998 -0.2552
 2434SOL    HW118935   4.084   3.274  17.683 -0.3701  1.3033  0.6581
 2434SOL    HW218936   4.164   3.397  17.716 -0.2230 -0.0019  0.6398
 2435SOL     OW18937   0.680   3.861   9.621  0.4616  0.3999 -0.3716
 2435SOL    HW118938   0.671   3.952   9.593  1.8114  1.1083  1.5015
 2435SOL    HW218939   0.609   3.855   9.685  1.5803 -1.1590  0.7205
 2436SOL     OW18940   2.766   2.444   1.562 -0.2825  0.2149 -0.1655
 2436SOL    HW118941   2.710   2.378   1.521 -0.6598  0.1888  0.4035
 2436SOL    HW218942   2.827   2.462   1.490 -0.2471 -3.6594 -1.0696
 2437SOL     OW18943   0.354   4.347   6.821  0.6574  0.3667 -0.6822
 2437SOL    HW118944   0.409   4.360   6.898 -0.8904  1.5709  0.2061
 2437SOL    HW218945   0.426   4.301   6.777 -0.0198 -1.9363  0.6094
 2438SOL     OW18946   2.780   2.946   2.236 -0.5617 -0.5262  0.5503
 2438SOL    HW118947   2.744   2.864   2.270 -0.8994 -0.1289  1.1600
 2438SOL    HW218948   2.774   2.934   2.141 -0.6262 -0.6450  0.5697
 2439SOL     OW18949   3.389   2.523   6.596  0.3311 -0.2918 -0.3657
 2439SOL    HW118950   3.462   2.464   6.577  2.4308  1.8769  0.9919
 2439SOL    HW218951   3.434   2.607   6.610  0.5470 -0.7763  1.7530
 2440SOL     OW18952   2.914   2.974   1.805 -0.0356 -0.6580  0.2844
 2440SOL    HW118953   2.950   2.893   1.770  2.6441  0.6196  0.1093
 2440SOL    HW218954   2.882   3.016   1.725 -0.7326  0.2531  1.0440
 2441SOL     OW18955   0.004   0.973   3.390  0.1962  0.1329  0.6372
 2441SOL    HW118956   0.095   0.986   3.415  0.6362 -0.3749 -0.7618
 2441SOL    HW218957   4.701   1.034   3.452  1.2662  0.7026  0.7710
 2442SOL     OW18958   1.071   2.616   7.234 -0.3328  0.2454 -0.1036
 2442SOL    HW118959   1.126   2.595   7.159  0.5803  0.4360  0.5048
 2442SOL    HW218960   1.053   2.527   7.263 -0.6037  0.6355  0.9265
 2443SOL     OW18961   0.127   3.692   7.490 -0.3090  0.0514  0.4747
 2443SOL    HW118962   0.213   3.679   7.450 -0.2556 -1.2045  0.9848
 2443SOL    HW218963   0.091   3.604   7.482  0.5760 -0.2031 -0.6896
 2444SOL     OW18964   2.954   3.389   0.591  0.4533 -0.1695  0.0866
 2444SOL    HW118965   2.940   3.460   0.528  1.6606 -0.2835 -0.3066
 2444SOL    HW218966   2.863   3.362   0.603 -0.2412  2.0510 -0.1125
 2445SOL     OW18967   2.992   0.721   1.605 -0.6285  0.3257 -0.1516
 2445SOL    HW118968   2.906   0.718   1.647  0.4273 -4.5158  1.6414
 2445SOL    HW218969   3.030   0.794   1.653  1.0578  0.2536 -1.3559
 2446SOL     OW18970   4.639   0.935  17.584  0.1671  0.0406 -0.7604
 2446SOL    HW118971   4.603   0.953  17.498 -1.2112 -1.3553 -0.4803
 2446SOL    HW218972   4.560   0.904  17.629  1.5808 -0.2814  1.5021
 2447SOL     OW18973   4.258   3.861   4.504 -0.3730 -0.0765 -0.2339
 2447SOL    HW118974   4.292   3.821   4.583  0.2935  0.1309 -0.4162
 2447SOL    HW218975   4.336   3.858   4.448 -0.2263 -1.9973  0.0651
 2448SOL     OW18976   2.671   2.684   4.796 -0.4426  0.3409  0.5394
 2448SOL    HW118977   2.597   2.651   4.848  0.4982 -0.6662  1.2440
 2448SOL    HW218978   2.728   2.718   4.864 -0.2752 -0.1397  0.6430
 2449SOL     OW18979   4.020   4.325   2.095 -0.0451 -0.1564  0.1614
 2449SOL    HW118980   3.941   4.276   2.072  1.4057 -2.4586  0.0354
 2449SOL    HW218981   4.031   4.373   2.013  1.7951  2.5103  1.9666
 2450SOL     OW18982   0.108   1.015   3.973 -0.2712 -0.6843 -0.0731
 2450SOL    HW118983   0.066   0.933   3.999  1.1551 -1.1410  0.7533
 2450SOL    HW218984   0.191   0.996   3.928 -0.8649  1.4139 -2.0838
 2451SOL     OW18985   2.926   3.502   6.868  0.0740  0.1586  0.0817
 2451SOL    HW118986   2.837   3.475   6.888 -0.4065  2.2100  0.7046
 2451SOL    HW218987   2.949   3.573   6.928 -0.6845 -1.5032  2.3358
 2452SOL     OW18988   3.101   1.466   3.675  0.2784  0.0629  0.2754
 2452SOL    HW118989   3.175   1.494   3.622  0.3235  0.6606  0.6408
 2452SOL    HW218990   3.041   1.537   3.652 -2.2452 -2.1011  0.1911
 2453SOL     OW18991   0.567   4.707  12.232 -0.4726 -0.6730 -0.1164
 2453SOL    HW118992   0.626   4.695  12.307 -1.5107  1.5063  1.0546
 2453SOL    HW218993   0.564   0.065  12.232 -0.3010 -0.6728 -2.1021
 2454SOL     OW18994   1.645   4.683  17.497  0.3394 -0.4919 -0.5994
 2454SOL    HW118995   1.626   4.608  17.554 -1.5705  2.1799  2.2744
 2454SOL    HW218996   1.679   4.632  17.424  0.1281  0.3548 -1.2842
 2455SOL     OW18997   1.781   3.090   5.605  0.1452  0.1825  0.1870
 2455SOL    HW118998   1.826   3.103   5.521 -0.2241  1.9288  0.2766
 2455SOL    HW218999   1.728   3.168   5.616  0.8279  0.7612 -0.5820
 2456SOL     OW19000   0.168   2.889   2.862 -0.2189 -0.8116  0.1833
 2456SOL    HW119001   0.078   2.918   2.844 -0.0702 -0.8203 -0.5903
 2456SOL    HW219002   0.148   2.843   2.943  0.0109  0.8797  1.1948
 2457SOL     OW19003   2.930   4.454  10.769  0.5859 -0.1286  0.4982
 2457SOL    HW119004   2.897   4.535  10.805  1.4128  1.4737 -2.3187
 2457SOL    HW219005   2.867   4.388  10.799 -1.0407 -0.0747 -2.7811
 2458SOL     OW19006   2.125   4.440   6.165  0.3678  0.5070 -0.2812
 2458SOL    HW119007   2.182   4.494   6.111 -0.5512  1.4439 -0.3022
 2458SOL    HW219008   2.067   4.392   6.105  1.1836 -0.4236 -0.3263
 2459SOL     OW19009   3.727   1.815   8.166  0.3683 -0.1074 -0.3598
 2459SOL    HW119010   3.765   1.761   8.096  1.6153 -3.2013  2.6501
 2459SOL    HW219011   3.676   1.756   8.220 -0.5285  1.3367  0.3530
 2460SOL     OW19012   0.582   0.042  15.341  0.3651 -0.1224  0.1786
 2460SOL    HW119013   0.490   0.019  15.353  0.1219  1.0536  0.6190
 2460SOL    HW219014   0.624   4.697  15.318 -0.9093 -0.4936 -0.8595
 2461SOL     OW19015   3.543   3.823  16.995  0.2428  0.1469 -0.4687
 2461SOL    HW119016   3.453   3.819  16.963 -0.5902  2.0211  1.6381
 2461SOL    HW219017   3.581   3.889  16.937  1.5623 -2.4864 -2.6224
 2462SOL     OW19018   1.425   0.600   3.950  0.0483 -0.6580 -0.6507
 2462SOL    HW119019   1.463   0.553   4.024  0.9552 -1.2554 -1.4972
 2462SOL    HW219020   1.442   0.688   3.982 -0.3196  0.2264 -2.8630
 2463SOL     OW19021   0.496   1.144   4.778 -0.2412 -0.0392 -0.0685
 2463SOL    HW119022   0.473   1.054   4.802 -1.1835  0.4487  0.8218
 2463SOL    HW219023   0.482   1.155   4.684  0.1786  0.5225 -0.0651
 2464SOL     OW19024   2.892   1.572   8.308  0.3280  0.4845  0.1754
 2464SOL    HW119025   2.941   1.586   8.226 -0.6974 -0.9805 -0.6832
 2464SOL    HW219026   2.830   1.645   8.305  0.0902  0.1483 -2.6545
 2465SOL     OW19027   4.723   0.857  15.302 -0.0829  0.1256  0.4565
 2465SOL    HW119028   4.665   0.803  15.357 -2.0686  2.1485  0.3293
 2465SOL    HW219029   4.689   0.845  15.213  0.9859 -0.4075  0.1188
 2466SOL     OW19030   4.536   1.175   2.023  0.2246  0.7316  0.3211
 2466SOL    HW119031   4.580   1.244   2.071 -1.1298 -0.7145  3.6424
 2466SOL    HW219032   4.594   1.099   2.026  0.6237  0.9438 -2.3373
 2467SOL     OW19033   2.261   3.306   4.249  0.1521 -0.2777  0.2174
 2467SOL    HW119034   2.262   3.222   4.294  0.2284 -0.5543 -0.3028
 2467SOL    HW219035   2.190   3.288   4.188 -1.5535  1.8823  1.5633
 2468SOL     OW19036   0.510   3.999   8.815 -0.1652  0.0443  0.0380
 2468SOL    HW119037   0.437   3.961   8.765  1.4878 -3.7156  0.4996
 2468SOL    HW219038   0.559   3.920   8.836  1.6409  1.3804  0.8248
 2469SOL     OW19039   0.907   3.595   5.608  0.4500 -0.2484 -0.3606
 2469SOL    HW119040   0.857   3.556   5.679  3.4586  0.8492  2.3786
 2469SOL    HW219041   0.955   3.516   5.582  2.2059  1.2464 -1.6897
 2470SOL     OW19042   3.708   2.741  14.733  0.2511  0.5653  0.0774
 2470SOL    HW119043   3.625   2.780  14.707 -0.6668 -2.5949 -1.8391
 2470SOL    HW219044   3.709   2.726  14.827 -0.0267  3.6731  0.5667
 2471SOL     OW19045   3.172   4.088   2.580 -0.0376  0.4177 -0.2546
 2471SOL    HW119046   3.125   4.076   2.498  0.6837 -1.2729 -0.4267
 2471SOL    HW219047   3.147   4.008   2.626  1.0408 -0.3092 -0.9280
 2472SOL     OW19048   0.615   3.195   8.823 -0.0652 -0.1245  0.2639
 2472SOL    HW119049   0.598   3.288   8.835 -0.5315 -0.5173  2.7931
 2472SOL    HW219050   0.575   3.165   8.905  0.5550 -1.0016  0.2513
 2473SOL     OW19051   1.955   2.298   7.783 -0.2380  0.4335  0.3682
 2473SOL    HW119052   1.969   2.294   7.689 -0.5239 -1.1500  0.3933
 2473SOL    HW219053   2.035   2.344   7.810 -0.8566  1.9030 -0.3013
 2474SOL     OW19054   4.280   4.188   7.110  0.6771  0.0180 -0.0485
 2474SOL    HW119055   4.239   4.105   7.135 -0.2215  0.5264  0.1641
 2474SOL    HW219056   4.364   4.167   7.070  2.6751  0.6953  3.7142
 2475SOL     OW19057   1.175   1.518  12.281 -0.2697 -0.3853  0.0970
 2475SOL    HW119058   1.090   1.475  12.281 -0.7410  0.5546  1.3572
 2475SOL    HW219059   1.183   1.548  12.190  0.3207 -0.5010  0.1137
 2476SOL     OW19060   4.622   3.025   1.597 -0.5582  0.0695 -0.5175
 2476SOL    HW119061   4.688   2.980   1.543  1.0424  1.0067  0.6480
 2476SOL    HW219062   4.608   2.968   1.672  0.6304 -2.8613 -2.5106
 2477SOL     OW19063   0.708   2.169   6.932  0.2913 -0.5095  0.1516
 2477SOL    HW119064   0.754   2.093   6.896 -1.3680 -0.0843 -2.8356
 2477SOL    HW219065   0.621   2.131   6.947  0.2907 -0.3756  0.5051
 2478SOL     OW19066   3.667   0.249   9.040  0.7501 -0.7527 -0.3809
 2478SOL    HW119067   3.675   0.154   9.048 -2.9506 -0.9769  0.6190
 2478SOL    HW219068   3.572   0.260   9.032  0.5792 -1.4905  0.5569
 2479SOL     OW19069   4.302   0.754   1.351  0.0842 -0.6574 -0.1234
 2479SOL    HW119070   4.263   0.708   1.277 -0.2770 -1.6093  0.6605
 2479SOL    HW219071   4.345   0.826   1.304 -2.2412  1.4594  0.9963
 2480SOL     OW19072   1.667   1.454  12.783  0.0133  0.8175  0.6538
 2480SOL    HW119073   1.629   1.369  12.761 -0.7904  0.9164  1.6787
 2480SOL    HW219074   1.757   1.437  12.756  0.1695  1.9988  0.4180
 2481SOL     OW19075   3.675   2.594   5.334  0.4558 -0.0977 -0.6417
 2481SOL    HW119076   3.764   2.560   5.338  1.4667  2.4230 -2.3424
 2481SOL    HW219077   3.685   2.671   5.390 -0.8478 -0.6234  0.3231
 2482SOL     OW19078   1.206   3.926   7.444  0.0460  0.2385  0.7194
 2482SOL    HW119079   1.197   3.937   7.539 -0.8531  1.0065  0.5436
 2482SOL    HW219080   1.299   3.944   7.431 -0.4535  0.9899 -1.6511
 2483SOL     OW19081   0.740   3.460   3.120 -0.0547 -0.5109  0.0793
 2483SOL    HW119082   0.824   3.488   3.157  0.4382 -2.0323  0.0968
 2483SOL    HW219083   0.701   3.418   3.197 -1.4366 -0.7750 -0.7625
 2484SOL     OW19084   1.554   4.462   7.460 -0.2503  0.1755 -0.2017
 2484SOL    HW119085   1.604   4.533   7.419 -0.7415  1.3689  1.2528
 2484SOL    HW219086   1.557   4.492   7.551  2.3850 -0.4216 -0.0940
 2485SOL     OW19087   3.882   2.876  14.564 -0.5317 -0.6264  0.0696
 2485SOL    HW119088   3.856   2.969  14.567  1.2091 -0.1648  0.7248
 2485SOL    HW219089   3.826   2.838  14.632 -2.0848 -0.1643 -0.9528
 2486SOL     OW19090   0.088   3.569  10.612  0.2085  0.0789  0.0498
 2486SOL    HW119091   0.145   3.616  10.674  0.4161  1.2240 -1.0171
 2486SOL    HW219092   0.094   3.482  10.652 -1.1573 -0.0016  0.0691
 2487SOL     OW19093   2.982   2.000   4.725  0.4176 -0.3506  0.3478
 2487SOL    HW119094   3.008   1.947   4.799  1.5021 -0.2060  0.0769
 2487SOL    HW219095   3.062   2.038   4.687 -1.7303  1.2473 -2.6337
 2488SOL     OW19096   1.486   4.019   2.243  0.3125  0.0084  0.4408
 2488SOL    HW119097   1.460   3.928   2.228  2.0199 -0.7160  1.8634
 2488SOL    HW219098   1.426   4.045   2.312  1.2049 -0.0505  1.2511
 2489SOL     OW19099   0.423   1.400   5.583 -0.3771  0.3242 -0.2228
 2489SOL    HW119100   0.432   1.468   5.517 -1.9690  0.4998 -0.2702
 2489SOL    HW219101   0.433   1.448   5.666  0.8876  0.1061 -0.2509
 2490SOL     OW19102   2.860   1.261  13.266 -0.2252 -0.1203  0.4558
 2490SOL    HW119103   2.931   1.254  13.329  0.8411 -1.1578 -0.8600
 2490SOL    HW219104   2.855   1.166  13.253 -0.7680  0.2669 -2.0366
 2491SOL     OW19105   2.433   1.587   5.382  0.3477  0.0012 -0.3288
 2491SOL    HW119106   2.431   1.500   5.421  0.7049  0.7440  1.3466
 2491SOL    HW219107   2.501   1.619   5.441  2.0910 -0.7067 -1.9669
 2492SOL     OW19108   3.314   4.635  12.751  0.0386  0.5045  0.2684
 2492SOL    HW119109   3.282   4.712  12.798 -0.6378  0.1678  0.3629
 2492SOL    HW219110   3.397   4.611  12.793 -0.6323 -1.4308  0.4870
 2493SOL     OW19111   2.825   1.178  14.392 -0.1547  0.1151 -0.3292
 2493SOL    HW119112   2.766   1.208  14.461 -1.2198 -0.0857 -1.1518
 2493SOL    HW219113   2.807   1.244  14.325 -4.0321  0.4408  1.0648
 2494SOL     OW19114   3.323   2.862   4.672  0.4663  0.1019 -0.1725
 2494SOL    HW119115   3.388   2.799   4.703  0.1871  0.2480  0.7104
 2494SOL    HW219116   3.273   2.798   4.621 -1.2175 -0.0056  1.6071
 2495SOL     OW19117   3.868   4.101  14.934 -0.2417 -0.4045 -0.1560
 2495SOL    HW119118   3.898   4.028  14.881 -0.9076 -0.4913 -0.4174
 2495SOL    HW219119   3.921   4.165  14.886 -0.3351  0.0902  0.4069
 2496SOL     OW19120   4.670   3.312   9.320  0.7579 -0.0605  0.1838
 2496SOL    HW119121   4.730   3.379   9.353 -0.4603  1.8657 -1.5020
 2496SOL    HW219122   4.595   3.370   9.319  0.3242 -0.6024  1.6051
 2497SOL     OW19123   2.259   0.979   3.380  0.4986  0.1314  0.1742
 2497SOL    HW119124   2.291   0.969   3.470  0.1398  0.4674  0.3362
 2497SOL    HW219125   2.179   1.030   3.391  1.0843  1.4906 -1.8510
 2498SOL     OW19126   0.961   0.783   7.240 -0.3681 -0.3364  0.4959
 2498SOL    HW119127   1.045   0.762   7.279  0.7405  2.1980 -0.5554
 2498SOL    HW219128   0.961   0.718   7.169 -0.7876  1.2336 -0.9623
 2499SOL     OW19129   3.247   3.195  15.216 -0.7834  0.0215 -0.1519
 2499SOL    HW119130   3.338   3.184  15.187  0.3888  1.6474  2.8555
 2499SOL    HW219131   3.212   3.278  15.184 -1.0301 -0.2090 -0.4779
 2500SOL     OW19132   4.620   3.734   8.490 -0.0472 -0.1201  1.0832
 2500SOL    HW119133   4.557   3.670   8.524  0.5763 -0.4580  1.5928
 2500SOL    HW219134   4.573   3.818   8.492 -0.5204 -0.3417 -0.7461
 2501SOL     OW19135   3.130   2.779   9.048  1.0291 -0.0758  0.1021
 2501SOL    HW119136   3.068   2.707   9.038  0.7525  0.3551 -1.2270
 2501SOL    HW219137   3.150   2.809   8.959  0.0970  0.8420  0.2104
 2502SOL     OW19138   3.250   2.633   6.073  0.5157 -0.0555 -0.6317
 2502SOL    HW119139   3.194   2.556   6.059  0.5171  0.0068 -0.9788
 2502SOL    HW219140   3.277   2.657   5.984 -1.3583 -2.0032 -1.7230
 2503SOL     OW19141   0.862   3.888  11.358  0.1421 -0.1186 -0.1927
 2503SOL    HW119142   0.776   3.928  11.372  0.0188 -0.9020  1.3108
 2503SOL    HW219143   0.920   3.964  11.358  0.2624 -0.2069  0.3736
 2504SOL     OW19144   2.382   1.482   1.670 -0.0827  0.0436 -0.7057
 2504SOL    HW119145   2.376   1.398   1.626 -0.0533  0.4286 -1.4361
 2504SOL    HW219146   2.455   1.450   1.724 -0.6841  1.6941  1.1082
 2505SOL     OW19147   4.493   3.228   4.282  0.7496 -0.2179 -0.2123
 2505SOL    HW119148   4.476   3.318   4.309 -1.0586 -0.9134  0.9977
 2505SOL    HW219149   4.446   3.169   4.342  0.0485 -1.6292 -2.1694
 2506SOL     OW19150   1.572   4.117   6.408 -0.0397 -0.0730  0.1160
 2506SOL    HW119151   1.638   4.187   6.401 -0.1846  0.1094  0.6035
 2506SOL    HW219152   1.526   4.143   6.328  2.8210 -1.2075 -1.9074
 2507SOL     OW19153   3.350   1.650  11.477  0.2586 -0.1804  0.5304
 2507SOL    HW119154   3.329   1.574  11.531  0.7962 -0.5609  0.2025
 2507SOL    HW219155   3.363   1.715  11.546  4.2755 -0.8238  0.4083
 2508SOL     OW19156   2.679   2.936   3.203 -0.1315 -0.3962 -0.3171
 2508SOL    HW119157   2.681   3.031   3.212 -1.2520 -0.2569 -1.6450
 2508SOL    HW219158   2.624   2.925   3.125 -2.7410 -0.0260  1.4971
 2509SOL     OW19159   3.097   2.827  11.680  0.0116  0.2119 -0.3746
 2509SOL    HW119160   3.047   2.817  11.760 -2.5273 -0.4708 -2.0392
 2509SOL    HW219161   3.133   2.738  11.680  0.3996  0.3716  0.5100
 2510SOL     OW19162   2.234   0.226  12.114  0.2255 -0.1174  0.0631
 2510SOL    HW119163   2.245   0.242  12.021  1.5106 -1.2118  0.0278
 2510SOL    HW219164   2.139   0.218  12.121  0.4632 -1.6224  1.4959
 2511SOL     OW19165   0.042   2.880   1.438  0.6173 -0.4492  0.1279
 2511SOL    HW119166   0.028   2.798   1.392 -2.3935  0.7424 -1.0770
 2511SOL    HW219167   0.118   2.867   1.495  0.2366  0.3705  0.8403
 2512SOL     OW19168   4.625   3.190  12.554 -0.2017  0.3275 -0.5208
 2512SOL    HW119169   4.571   3.269  12.560 -2.0744 -0.9747 -0.1859
 2512SOL    HW219170   4.578   3.147  12.483 -0.2495 -1.3452  0.5367
 2513SOL     OW19171   4.474   4.544   5.580  0.3824  0.3679  0.3230
 2513SOL    HW119172   4.460   4.607   5.650 -1.3001 -1.9680  2.0701
 2513SOL    HW219173   4.464   4.600   5.503  3.2777  0.5269  0.0427
 2514SOL     OW19174   0.704   1.701   4.314  0.1028  0.4835 -0.3392
 2514SOL    HW119175   0.688   1.624   4.259 -1.5900  1.6902 -1.5223
 2514SOL    HW219176   0.771   1.658   4.367 -1.1094 -0.9396  0.0422
 2515SOL     OW19177   2.926   4.406  14.172  0.8035 -0.5558 -0.1457
 2515SOL    HW119178   2.927   4.501  14.174 -1.7824 -0.6394  3.8781
 2515SOL    HW219179   2.988   4.392  14.100  0.3594  0.0525 -0.6445
 2516SOL     OW19180   3.266   0.894   9.252 -0.1568 -0.9280  0.0361
 2516SOL    HW119181   3.266   0.990   9.244  0.2305 -1.0449 -1.2162
 2516SOL    HW219182   3.293   0.868   9.165  0.0617  0.1996 -0.2282
 2517SOL     OW19183   3.355   2.713   3.825  0.4849  0.3361  0.5551
 2517SOL    HW119184   3.439   2.672   3.801  1.1187  0.8185  1.9425
 2517SOL    HW219185   3.386   2.800   3.799  0.9398 -0.1542 -0.5863
 2518SOL     OW19186   4.414   0.731  12.124  0.4251  0.1877 -0.3781
 2518SOL    HW119187   4.435   0.709  12.033 -1.6810 -0.0986 -0.8025
 2518SOL    HW219188   4.382   0.648  12.160 -0.2316  1.0393  0.9995
 2519SOL     OW19189   1.860   2.755   3.103 -0.7612 -0.4500  0.4722
 2519SOL    HW119190   1.888   2.670   3.136  0.0340 -1.0372 -1.6875
 2519SOL    HW219191   1.946   2.797   3.104  0.3405 -2.6676 -1.0435
 2520SOL     OW19192   3.985   3.959  14.705  0.2654  0.1812 -0.0251
 2520SOL    HW119193   4.075   3.988  14.687  0.6282  0.2320  1.8141
 2520SOL    HW219194   3.964   3.928  14.618 -2.2128  2.6193 -0.3055
 2521SOL     OW19195   1.017   1.589   8.541 -0.2991  0.2491 -0.2220
 2521SOL    HW119196   1.032   1.504   8.501 -0.1725  0.1560  0.0257
 2521SOL    HW219197   0.949   1.620   8.480 -1.0360  2.0372  1.5044
 2522SOL     OW19198   4.616   1.212  17.002  0.5613 -0.1600 -0.0911
 2522SOL    HW119199   4.661   1.289  16.967 -0.6775  0.8385  0.5172
 2522SOL    HW219200   4.563   1.189  16.926  1.7377 -1.1033 -0.6320
 2523SOL     OW19201   1.783   1.247   6.959  0.3386 -0.1620 -0.0269
 2523SOL    HW119202   1.739   1.318   7.006 -1.6837 -1.3714 -0.0451
 2523SOL    HW219203   1.761   1.174   7.018  0.0076 -0.1102 -0.0850
 2524SOL     OW19204   2.443   0.810   0.249 -0.2043  0.0543 -0.2878
 2524SOL    HW119205   2.488   0.882   0.205 -0.9164 -1.3768 -3.3769
 2524SOL    HW219206   2.402   0.757   0.180 -1.6940  1.2978 -0.3352
 2525SOL     OW19207   4.533   1.347   7.000  0.0677 -0.8684  0.5131
 2525SOL    HW119208   4.558   1.256   6.983 -0.6827 -0.7524 -1.2032
 2525SOL    HW219209   4.516   1.347   7.094  2.4177 -3.3990  0.9447
 2526SOL     OW19210   4.014   1.260   9.682  0.4090 -0.4986 -0.0278
 2526SOL    HW119211   4.078   1.257   9.752  1.3164 -0.7093 -0.8767
 2526SOL    HW219212   3.953   1.324   9.720  0.6427 -1.6221  2.2236
 2527SOL     OW19213   3.961   3.852  13.957  0.3966  0.2111 -0.2953
 2527SOL    HW119214   3.943   3.810  13.872  0.1912  0.5729 -0.4307
 2527SOL    HW219215   3.938   3.942  13.936 -3.4266 -1.3990 -3.0706
 2528SOL     OW19216   2.771   1.307  14.787 -0.0638  0.6216  0.3740
 2528SOL    HW119217   2.712   1.290  14.714 -1.6823 -0.0765  1.8632
 2528SOL    HW219218   2.712   1.280  14.857  1.5329 -1.7753  0.8021
 2529SOL     OW19219   0.213   1.320   4.388  0.4211 -0.6407  0.9223
 2529SOL    HW119220   0.200   1.305   4.294 -2.5633  2.5160  0.8324
 2529SOL    HW219221   0.237   1.413   4.383 -1.8105 -0.0861  0.5101
 2530SOL     OW19222   0.450   4.470  15.692 -0.2388 -0.5743  0.4641
 2530SOL    HW119223   0.522   4.445  15.633  0.3788  1.7311  0.2095
 2530SOL    HW219224   0.408   4.547  15.652  0.6785  0.8479  2.2363
 2531SOL     OW19225   2.364   3.668   8.470  0.4447  0.1416 -0.9564
 2531SOL    HW119226   2.330   3.580   8.487 -2.1628  1.2309 -0.5606
 2531SOL    HW219227   2.333   3.709   8.551 -1.3209  0.5537 -1.8421
 2532SOL     OW19228   3.516   3.601   2.327 -0.1054  0.0956 -0.2161
 2532SOL    HW119229   3.562   3.546   2.391  1.8469  1.9577 -0.0204
 2532SOL    HW219230   3.433   3.608   2.373  0.2070 -1.2196  0.5524
 2533SOL     OW19231   1.959   4.338   6.928 -0.6081  0.1838 -0.6058
 2533SOL    HW119232   1.976   4.247   6.904 -0.1873  0.2991 -0.7523
 2533SOL    HW219233   1.901   4.360   6.856 -0.3519  1.5254 -0.3947
 2534SOL     OW19234   1.524   4.221   9.481 -0.0314 -0.0116 -0.1156
 2534SOL    HW119235   1.496   4.311   9.498  0.7776  0.3511 -0.6785
 2534SOL    HW219236   1.607   4.219   9.530 -0.2992 -2.1155  0.2737
 2535SOL     OW19237   1.280   3.061   6.023 -0.3502  0.1324  0.9766
 2535SOL    HW119238   1.243   3.063   6.111 -0.7047 -2.1271  0.8810
 2535SOL    HW219239   1.213   3.106   5.972 -0.5321  0.6861  1.7170
 2536SOL     OW19240   4.553   3.949   4.506 -0.4552  0.2495  0.0524
 2536SOL    HW119241   4.645   3.921   4.501 -1.0558 -1.9466  1.6334
 2536SOL    HW219242   4.542   3.984   4.594 -1.1049  1.7540 -0.6235
 2537SOL     OW19243   3.114   2.253  17.371 -0.2717 -0.5696 -0.3747
 2537SOL    HW119244   3.040   2.282  17.318 -0.5361 -2.7603 -1.1891
 2537SOL    HW219245   3.171   2.202  17.313  0.9796  0.6482 -0.2027
 2538SOL     OW19246   3.516   3.459  12.194  0.1651 -0.0355 -0.1280
 2538SOL    HW119247   3.467   3.541  12.204 -1.5258 -1.2520  1.5981
 2538SOL    HW219248   3.593   3.488  12.244 -0.2311 -2.6174  1.9880
 2539SOL     OW19249   4.280   2.434   8.014  0.2129 -0.1131  0.1301
 2539SOL    HW119250   4.318   2.376   7.948 -0.9786 -2.0062  1.0681
 2539SOL    HW219251   4.347   2.501   8.013 -0.2751  0.3661 -0.7649
 2540SOL     OW19252   1.690   3.682  10.762  0.4973  0.8509 -0.8081
 2540SOL    HW119253   1.707   3.690  10.856  1.2550  2.7405 -1.0967
 2540SOL    HW219254   1.599   3.710  10.761  0.2864  0.0996 -1.5403
 2541SOL     OW19255   1.204   0.429  10.945 -0.5986  0.4407 -0.1485
 2541SOL    HW119256   1.197   0.524  10.953  1.2273  0.7142 -1.7692
 2541SOL    HW219257   1.243   0.426  10.857 -1.6481 -0.0015 -0.5959
 2542SOL     OW19258   0.664   0.310   7.613 -0.1024  0.0461  0.0693
 2542SOL    HW119259   0.592   0.270   7.662  0.3961  0.1593  0.8928
 2542SOL    HW219260   0.658   0.271   7.526  1.0791  1.1876 -0.5277
 2543SOL     OW19261   0.623   3.340   8.205  0.1414  0.1776  0.6102
 2543SOL    HW119262   0.598   3.249   8.187 -2.0660  0.7782  0.6508
 2543SOL    HW219263   0.611   3.387   8.123  0.2037  0.4859  0.7766
 2544SOL     OW19264   1.308   1.473   5.169 -0.4336  0.1183  0.4164
 2544SOL    HW119265   1.362   1.532   5.117 -0.6900 -3.3220 -3.6903
 2544SOL    HW219266   1.249   1.544   5.194  1.7173  1.3157  2.1501
 2545SOL     OW19267   4.296   3.222   2.084  0.1795  0.0133 -0.2296
 2545SOL    HW119268   4.292   3.210   2.179 -2.3058  0.9447 -0.2035
 2545SOL    HW219269   4.203   3.220   2.061  0.5386 -0.0120 -1.6264
 2546SOL     OW19270   1.560   4.531  17.727 -0.4298 -0.0363 -0.3218
 2546SOL    HW119271   1.509   4.608   0.005  0.3155  0.3540 -0.0301
 2546SOL    HW219272   1.573   4.496   0.067  1.2881 -0.1271 -0.6107
 2547SOL     OW19273   1.457   2.434   5.364 -0.3085  0.4918  0.5165
 2547SOL    HW119274   1.530   2.389   5.405 -1.5739 -1.6698  0.4064
 2547SOL    HW219275   1.388   2.368   5.357  0.1097  0.0243  0.8669
 2548SOL     OW19276   3.921   3.798  10.870  0.6774  0.2996  0.1014
 2548SOL    HW119277   4.001   3.794  10.818  0.0017  1.6144 -1.0445
 2548SOL    HW219278   3.901   3.705  10.873  0.3619  0.4150  1.4222
 2549SOL     OW19279   1.210   4.496   7.107  0.0136  0.2261  0.1322
 2549SOL    HW119280   1.245   4.506   7.195 -0.0400  0.2354  0.1519
 2549SOL    HW219281   1.176   4.407   7.114 -1.1125  0.5426 -1.2339
 2550SOL     OW19282   2.794   1.517   6.536  0.2892 -0.1507 -0.5483
 2550SOL    HW119283   2.848   1.586   6.574  1.0818 -1.4109  0.6288
 2550SOL    HW219284   2.757   1.561   6.459 -1.8376  1.2017  1.2833
 2551SOL     OW19285   4.721   4.150   2.088  0.0115 -0.4484 -0.4787
 2551SOL    HW119286   4.722   4.059   2.056 -2.7791 -0.1507 -1.4770
 2551SOL    HW219287   0.005   4.199   2.009  2.9938  0.3370  0.8380
 2552SOL     OW19288   1.428   3.705   5.757  0.0558 -0.1310 -0.1588
 2552SOL    HW119289   1.503   3.689   5.700 -0.8995 -1.4380 -1.0405
 2552SOL    HW219290   1.442   3.799   5.772  1.7833 -0.5861  1.0006
 2553SOL     OW19291   2.454   3.900   5.510 -0.6738  0.1102 -0.0980
 2553SOL    HW119292   2.456   3.900   5.606  1.2127  0.3309 -0.1361
 2553SOL    HW219293   2.507   3.823   5.489  0.1662  0.9219 -0.9222
 2554SOL     OW19294   3.998   0.485   4.430  0.4552  0.0695  0.0966
 2554SOL    HW119295   4.013   0.506   4.338 -1.8712 -1.8296 -0.7111
 2554SOL    HW219296   3.906   0.510   4.428  0.4187 -0.0403  0.3357
 2555SOL     OW19297   1.209   0.434   5.431 -0.0029  0.0340  0.6468
 2555SOL    HW119298   1.185   0.356   5.382 -2.0478  1.1928 -0.2019
 2555SOL    HW219299   1.136   0.448   5.492  0.9296  2.0320  1.3180
 2556SOL     OW19300   4.624   2.156   8.320  0.0482 -0.0746 -0.9038
 2556SOL    HW119301   4.531   2.154   8.296 -0.3596 -0.3605  0.7035
 2556SOL    HW219302   4.612   2.189   8.410  3.1030  0.8092 -0.8245
 2557SOL     OW19303   2.283   4.510   4.059  0.0119  0.3136 -0.0945
 2557SOL    HW119304   2.252   4.549   3.977 -1.6110  1.6424  1.1602
 2557SOL    HW219305   2.231   4.549   4.129  1.5086 -0.4005  1.4271
 2558SOL     OW19306   2.483   1.713   0.602 -0.1689  0.4812  0.6349
 2558SOL    HW119307   2.439   1.743   0.682 -1.7936 -3.3089  1.1552
 2558SOL    HW219308   2.491   1.799   0.560  1.2312 -0.6077 -1.2754
 2559SOL     OW19309   2.433   3.603  16.199 -1.2825 -0.3698  0.2108
 2559SOL    HW119310   2.436   3.641  16.286  0.6833 -0.6884  0.2815
 2559SOL    HW219311   2.517   3.641  16.172 -1.5589  0.8694  1.1083
 2560SOL     OW19312   2.328   4.525   1.421  0.0729  0.2867  0.2722
 2560SOL    HW119313   2.351   4.545   1.511  0.4540  0.1349  0.2065
 2560SOL    HW219314   2.357   4.434   1.420 -2.3196 -0.4890  1.5090
 2561SOL     OW19315   2.790   1.771   5.488 -0.1821 -0.3192 -0.2218
 2561SOL    HW119316   2.744   1.852   5.467 -0.3691 -0.4822 -0.4315
 2561SOL    HW219317   2.842   1.764   5.408 -0.2803  0.7059 -0.3763
 2562SOL     OW19318   4.380   0.242  15.955  0.6250 -0.0090 -0.2356
 2562SOL    HW119319   4.402   0.224  15.864  2.6744 -1.4755  0.5480
 2562SOL    HW219320   4.340   0.329  15.965 -0.5526 -0.6330  0.4406
 2563SOL     OW19321   1.751   0.631   7.372  0.2083  0.1855  0.3246
 2563SOL    HW119322   1.767   0.559   7.311 -3.3541 -1.5195  1.4045
 2563SOL    HW219323   1.666   0.611   7.410  0.2661  0.6583  0.6931
 2564SOL     OW19324   1.037   0.845   3.163  0.6355  0.2853 -0.3415
 2564SOL    HW119325   1.124   0.885   3.157  0.5575  0.3488 -1.0137
 2564SOL    HW219326   1.062   0.754   3.178  0.3449  0.0712 -1.1957
 2565SOL     OW19327   2.517   0.517   1.232 -0.0786  0.0852  0.0001
 2565SOL    HW119328   2.561   0.437   1.261 -1.3000 -0.2000  1.0539
 2565SOL    HW219329   2.472   0.545   1.312 -1.2279  0.9342 -0.9571
 2566SOL     OW19330   0.468   2.340   3.784 -0.2463 -0.7319  0.3232
 2566SOL    HW119331   0.473   2.370   3.694  0.6624 -1.3193  0.1846
 2566SOL    HW219332   0.496   2.249   3.774  2.8654  0.2416  0.4004
 2567SOL     OW19333   2.319   1.779   1.035  0.0456  0.1857  0.6407
 2567SOL    HW119334   2.342   1.764   1.127 -1.8707  0.0292  1.0992
 2567SOL    HW219335   2.235   1.735   1.027 -0.9971  2.2839  0.0160
 2568SOL     OW19336   2.882   3.538   5.485 -0.2217 -0.2415 -0.6313
 2568SOL    HW119337   2.793   3.571   5.498  0.0710  0.2745  0.0969
 2568SOL    HW219338   2.933   3.619   5.483 -1.7246  0.6628 -2.0949
 2569SOL     OW19339   2.748   2.407   7.472 -0.4006 -0.2444  0.0712
 2569SOL    HW119340   2.659   2.371   7.465 -0.3570 -0.4366  0.5541
 2569SOL    HW219341   2.796   2.340   7.423  0.2384  1.2420 -1.3469
 2570SOL     OW19342   0.058   1.620   8.441 -0.2399  0.1934  0.1482
 2570SOL    HW119343   0.124   1.612   8.509  1.4526 -0.7009 -1.5989
 2570SOL    HW219344   0.095   1.575   8.365 -0.2427  0.7096 -0.1641
 2571SOL     OW19345   4.457   4.332   1.666 -0.1262  0.3759 -0.9091
 2571SOL    HW119346   4.443   4.343   1.572  0.7825 -0.8625 -1.1869
 2571SOL    HW219347   4.394   4.397   1.697  1.1888  1.4084 -0.3850
 2572SOL     OW19348   4.080   0.510  10.806  0.2596  0.2631  0.5589
 2572SOL    HW119349   3.996   0.508  10.852  0.1344  1.2118  0.3833
 2572SOL    HW219350   4.102   0.417  10.801 -2.0727 -0.2873  0.4201
 2573SOL     OW19351   0.108   3.155   3.979 -0.1697  0.1896  0.0537
 2573SOL    HW119352   0.019   3.191   3.982 -0.2370 -0.0268  0.5320
 2573SOL    HW219353   0.087   3.064   3.956 -1.2720  0.7058 -0.9973
 2574SOL     OW19354   0.229   0.736   3.638 -0.2235 -0.1372 -0.0860
 2574SOL    HW119355   0.165   0.748   3.568 -1.1077 -1.8363  0.4192
 2574SOL    HW219356   0.277   0.661   3.602 -3.6957 -0.4914 -4.0549
 2575SOL     OW19357   4.220   4.098   5.773 -0.2784  0.1359  0.2089
 2575SOL    HW119358   4.271   4.161   5.722  0.1365  1.4591  2.2578
 2575SOL    HW219359   4.278   4.024   5.790 -3.0711 -2.1873 -0.4208
 2576SOL     OW19360   3.784   2.557   0.576 -0.0847 -0.5500  0.7302
 2576SOL    HW119361   3.717   2.489   0.577 -0.6062  0.0196  5.4886
 2576SOL    HW219362   3.790   2.563   0.481  1.3791 -1.8486  0.7312
 2577SOL     OW19363   0.147   1.879   8.182 -0.1871  0.6813  0.0519
 2577SOL    HW119364   0.169   1.928   8.103 -0.8423  1.0226  0.0836
 2577SOL    HW219365   0.055   1.898   8.200 -0.1627  0.3526  0.5149
 2578SOL     OW19366   1.002   4.491   0.163  0.4140 -0.3947  0.3228
 2578SOL    HW119367   1.086   4.470   0.204 -0.1027 -1.3681  0.9014
 2578SOL    HW219368   1.028   4.514   0.074 -0.2990 -1.9953 -0.2993
 2579SOL     OW19369   3.136   0.767   7.741 -0.5776 -0.0447 -0.2089
 2579SOL    HW119370   3.168   0.701   7.679  1.0106 -0.2348  0.8048
 2579SOL    HW219371   3.082   0.716   7.801 -2.3527  0.4398 -1.3833
 2580SOL     OW19372   2.952   3.753  10.869 -1.0352  0.5140  0.7613
 2580SOL    HW119373   2.858   3.737  10.858 -1.2521  1.0064  1.9518
 2580SOL    HW219374   2.982   3.683  10.811 -2.7963  0.9904 -0.7249
 2581SOL     OW19375   4.042   3.114   0.869 -0.5447  0.1314  0.0581
 2581SOL    HW119376   4.094   3.049   0.822 -1.3566  0.3105 -1.0790
 2581SOL    HW219377   4.059   3.190   0.814  0.2805 -0.8501 -1.0391
 2582SOL     OW19378   2.077   3.680   2.415  0.1356 -0.2663  0.4674
 2582SOL    HW119379   2.057   3.678   2.509 -2.7683 -0.4121 -0.1468
 2582SOL    HW219380   2.131   3.759   2.412 -1.9767  1.1566 -0.4388
 2583SOL     OW19381   2.265   0.467   9.131  0.2839 -0.5899  0.5652
 2583SOL    HW119382   2.285   0.375   9.146 -1.6591 -1.1480 -0.2365
 2583SOL    HW219383   2.353   0.499   9.151  0.8343 -2.1784  0.6576
 2584SOL     OW19384   4.483   1.631   9.531 -0.0999 -0.2179  0.0654
 2584SOL    HW119385   4.576   1.610   9.538  0.2257  1.8710  2.1657
 2584SOL    HW219386   4.481   1.726   9.546  0.8217  0.4432 -3.8199
 2585SOL     OW19387   0.621   2.522   2.822  0.5243 -0.2958 -0.0049
 2585SOL    HW119388   0.647   2.582   2.753 -1.3682  2.1451  1.4234
 2585SOL    HW219389   0.603   2.436   2.783  2.1297 -0.1287 -1.0831
 2586SOL     OW19390   2.657   0.267   7.919  0.6006  0.2902  0.0852
 2586SOL    HW119391   2.695   0.281   8.005 -2.5664 -2.2951  1.9231
 2586SOL    HW219392   2.686   0.343   7.869 -1.2880  2.5984  2.5461
 2587SOL     OW19393   2.340   3.647   5.776 -0.2480  0.1997 -0.0967
 2587SOL    HW119394   2.414   3.645   5.716  0.6913  2.2334  1.0367
 2587SOL    HW219395   2.362   3.732   5.814  2.4898 -0.8398  0.6127
 2588SOL     OW19396   3.162   3.175  13.842 -0.0103 -0.2899 -0.2944
 2588SOL    HW119397   3.230   3.218  13.894 -0.5239 -1.6514  1.5005
 2588SOL    HW219398   3.132   3.239  13.778 -0.1253 -0.7348 -0.6751
 2589SOL     OW19399   0.836   3.760  14.303 -0.1533  0.1511  0.3291
 2589SOL    HW119400   0.875   3.752  14.216 -3.1426 -0.6497 -0.9460
 2589SOL    HW219401   0.909   3.748  14.364  0.3035 -0.7157 -0.3884
 2590SOL     OW19402   2.253   3.346   6.956 -0.3754  0.1984  0.2727
 2590SOL    HW119403   2.204   3.416   6.912 -0.7694  0.1858  0.6876
 2590SOL    HW219404   2.269   3.391   7.039  1.6781  2.4298 -1.3314
 2591SOL     OW19405   1.444   2.815   6.336 -0.0582 -0.0022 -0.3733
 2591SOL    HW119406   1.532   2.812   6.371 -0.4392 -2.0658  0.3867
 2591SOL    HW219407   1.431   2.733   6.287  2.2898  0.3085 -1.5263
 2592SOL     OW19408   3.684   2.743   5.568  0.2094 -0.1143  0.4607
 2592SOL    HW119409   3.603   2.734   5.619 -0.9484 -2.4014 -1.7860
 2592SOL    HW219410   3.753   2.736   5.635  1.7891 -0.7412 -1.2452
 2593SOL     OW19411   4.261   4.322  11.731 -0.3125  0.1349 -0.2922
 2593SOL    HW119412   4.275   4.379  11.655 -1.8115  0.8423 -0.0420
 2593SOL    HW219413   4.166   4.318  11.740 -0.3370 -0.2794 -0.7310
 2594SOL     OW19414   1.346   3.315   3.430 -0.4942 -0.4783  0.3485
 2594SOL    HW119415   1.282   3.252   3.393 -0.2610 -1.2570  1.2783
 2594SOL    HW219416   1.401   3.257   3.482 -0.6720 -0.3568  0.6720
 2595SOL     OW19417   2.112   3.339   7.443  0.3018  0.0142 -0.5772
 2595SOL    HW119418   2.033   3.311   7.398  0.4334  0.6576 -1.2025
 2595SOL    HW219419   2.093   3.429   7.467 -3.0448 -1.6127  2.8539
 2596SOL     OW19420   1.996   2.563   8.466 -0.1110  0.1262  0.1850
 2596SOL    HW119421   1.905   2.568   8.496  0.4884  1.8565  1.7033
 2596SOL    HW219422   1.995   2.622   8.390  1.5937  0.7029  0.6181
 2597SOL     OW19423   2.700   2.695   7.216 -0.1537 -0.4102  0.4390
 2597SOL    HW119424   2.788   2.719   7.246 -0.2783 -0.6894  1.0217
 2597SOL    HW219425   2.715   2.615   7.165 -0.8449 -0.7054  0.7082
 2598SOL     OW19426   4.633   1.918  10.286 -0.1739  0.2143  0.1287
 2598SOL    HW119427   4.605   1.999  10.243 -0.2915  0.3246  0.4124
 2598SOL    HW219428   4.613   1.849  10.223  0.5640  0.9011 -0.8558
 2599SOL     OW19429   0.886   3.227   1.483 -0.6763 -0.2057 -0.4467
 2599SOL    HW119430   0.963   3.241   1.539  0.4931 -0.9870 -1.8364
 2599SOL    HW219431   0.828   3.179   1.542  0.1883 -1.1413 -0.3377
 2600SOL     OW19432   1.912   0.805  10.170  0.1678 -0.0123 -0.1380
 2600SOL    HW119433   1.886   0.750  10.244 -0.2471 -1.4569 -1.3679
 2600SOL    HW219434   2.000   0.772  10.153  0.6241  0.9730  0.3087
 2601SOL     OW19435   1.474   3.803  14.052 -0.3856  0.5653  0.1397
 2601SOL    HW119436   1.422   3.857  14.110  1.4174  1.3550  1.0005
 2601SOL    HW219437   1.452   3.854  13.974 -0.8772  1.5541  0.9305
 2602SOL     OW19438   3.428   1.507   0.465  0.1566  0.1690  0.3653
 2602SOL    HW119439   3.416   1.495   0.559  1.3725  3.7606  0.9649
 2602SOL    HW219440   3.389   1.591   0.444 -0.8716 -0.2901  0.4299
 2603SOL     OW19441   1.321   0.125   4.891  0.2585 -0.6222 -0.3462
 2603SOL    HW119442   1.255   0.093   4.830  0.8981  0.6376 -1.6973
 2603SOL    HW219443   1.381   0.165   4.829  1.5611 -1.6316  0.2783
 2604SOL     OW19444   4.330   0.078   6.180 -0.5795  0.2998  0.6156
 2604SOL    HW119445   4.248   0.086   6.131 -0.5507 -2.1704  0.1339
 2604SOL    HW219446   4.330   0.152   6.240  1.2471  0.0358  0.9433
 2605SOL     OW19447   2.434   1.623   0.044 -0.5632 -0.8994  0.2697
 2605SOL    HW119448   2.499   1.603   0.112 -0.0523  0.1053  0.0718
 2605SOL    HW219449   2.355   1.586   0.084  0.0659 -0.9345  1.4833
 2606SOL     OW19450   3.682   4.192   3.829 -0.3155 -0.3145 -0.2175
 2606SOL    HW119451   3.753   4.212   3.889 -1.0114  0.2178  0.4224
 2606SOL    HW219452   3.722   4.118   3.782 -1.7926 -0.3701 -1.3939
 2607SOL     OW19453   2.790   4.369   2.142 -0.1169 -0.0107 -0.5328
 2607SOL    HW119454   2.829   4.349   2.227  1.6766 -1.4778 -1.7172
 2607SOL    HW219455   2.828   4.454   2.119 -3.5628  1.5538 -0.4916
 2608SOL     OW19456   4.606   3.301   2.133  0.2404  0.0330  0.0666
 2608SOL    HW119457   4.586   3.263   2.047  0.9772  2.3147 -1.1173
 2608SOL    HW219458   4.547   3.260   2.196  1.1905 -0.5401  0.5849
 2609SOL     OW19459   1.342   3.819  12.539  0.1361 -0.1094  0.6605
 2609SOL    HW119460   1.279   3.773  12.483  3.1013 -1.6011 -1.4548
 2609SOL    HW219461   1.331   3.763  12.616  2.0869  0.7136  1.5280
 2610SOL     OW19462   2.588   0.828  14.519  0.1655  0.3176 -0.2662
 2610SOL    HW119463   2.554   0.852  14.432 -3.0579 -0.3072  0.8147
 2610SOL    HW219464   2.568   0.904  14.574 -2.8300 -0.5308 -0.1672
 2611SOL     OW19465   1.053   4.581   5.891 -0.2314 -0.0788 -0.0132
 2611SOL    HW119466   0.969   4.570   5.936 -1.3478  3.3901 -1.2327
 2611SOL    HW219467   1.025   4.578   5.799 -0.7499 -0.8341  0.1657
 2612SOL     OW19468   1.762   2.506   7.823  0.3984  0.1400  0.0530
 2612SOL    HW119469   1.810   2.581   7.858 -0.2373  1.0518 -1.0053
 2612SOL    HW219470   1.841   2.452   7.818  0.2512  0.0255 -1.1772
 2613SOL     OW19471   4.581   2.598   8.092  0.3469 -0.2026  0.0955
 2613SOL    HW119472   4.649   2.532   8.081  2.5152  1.7962  1.6045
 2613SOL    HW219473   4.571   2.602   8.187  1.7100 -0.2263  0.2407
 2614SOL     OW19474   2.403   2.087   2.309 -0.3537  0.0270  0.0561
 2614SOL    HW119475   2.408   2.175   2.345 -0.0232  1.2309 -2.9622
 2614SOL    HW219476   2.435   2.041   2.387  0.2176  2.3584  1.1855
 2615SOL     OW19477   3.378   2.412   1.424 -0.9540  0.4689 -0.9460
 2615SOL    HW119478   3.382   2.492   1.371 -0.8459  1.0939  0.0070
 2615SOL    HW219479   3.390   2.337   1.366 -3.0172  0.6747 -1.6408
 2616SOL     OW19480   4.117   2.486   1.487  0.3000  0.8611 -0.0368
 2616SOL    HW119481   4.032   2.527   1.473 -0.3450 -0.7669 -0.8802
 2616SOL    HW219482   4.142   2.463   1.397 -0.0791 -1.3342  0.4246
 2617SOL     OW19483   3.496   2.435   1.115  0.8291  0.0931 -0.2180
 2617SOL    HW119484   3.566   2.375   1.090  0.7135 -0.4323  0.7359
 2617SOL    HW219485   3.431   2.389   1.167 -0.0442  0.3215 -1.1012
 2618SOL     OW19486   1.415   0.046  13.098  0.1645 -0.3950 -0.4087
 2618SOL    HW119487   1.478   0.106  13.058 -0.4360  1.5785  1.5784
 2618SOL    HW219488   1.473   4.720  13.138 -0.8105 -1.1537 -0.1974
 2619SOL     OW19489   0.916   2.294   4.018 -0.0876  0.0112 -0.6633
 2619SOL    HW119490   0.842   2.354   4.004 -0.2665  0.1232  0.7072
 2619SOL    HW219491   0.871   2.235   4.079 -1.7175  0.5368 -1.3583
 2620SOL     OW19492   2.253   1.639   5.647 -0.0278  0.2815 -0.0451
 2620SOL    HW119493   2.180   1.602   5.697 -0.9645  0.1928 -1.4710
 2620SOL    HW219494   2.235   1.614   5.556 -1.5705 -0.7934  0.5514
 2621SOL     OW19495   2.561   4.202   2.549  0.2437  0.0012  0.9220
 2621SOL    HW119496   2.652   4.232   2.549  0.9844 -2.2281  1.9520
 2621SOL    HW219497   2.526   4.278   2.596 -0.9260  0.2905 -0.4066
 2622SOL     OW19498   4.439   0.539  13.161 -0.3931  0.7318 -1.0523
 2622SOL    HW119499   4.374   0.482  13.120 -0.0155 -1.5869  1.5310
 2622SOL    HW219500   4.516   0.542  13.105 -0.4926 -2.8404 -1.3723
 2623SOL     OW19501   0.153   3.964   2.719  0.2769  0.0575  0.4615
 2623SOL    HW119502   0.206   4.012   2.655 -0.8297  2.2190  1.1706
 2623SOL    HW219503   0.141   3.880   2.675  1.4763 -0.2787  0.7878
 2624SOL     OW19504   3.144   0.332   9.102  0.1418 -0.0434 -0.0019
 2624SOL    HW119505   3.144   0.420   9.065 -1.2543  0.1443  0.4253
 2624SOL    HW219506   3.233   0.307   9.080  0.4888  0.5211  0.7787
 2625SOL     OW19507   3.773   2.697   8.967 -0.1338  0.0623  0.2632
 2625SOL    HW119508   3.784   2.683   9.061  1.9763 -1.9171 -0.2908
 2625SOL    HW219509   3.735   2.614   8.939 -0.6150  0.3868 -0.0500
 2626SOL     OW19510   1.779   3.919   5.128 -0.4836  0.0476  0.1598
 2626SOL    HW119511   1.695   3.965   5.120 -0.4653  0.1857  0.7921
 2626SOL    HW219512   1.803   3.939   5.218 -0.1170 -1.3461  0.3793
 2627SOL     OW19513   1.340   3.314   8.012  0.2910 -0.0517  0.0581
 2627SOL    HW119514   1.379   3.361   8.086 -0.0338 -1.7017  1.2806
 2627SOL    HW219515   1.372   3.371   7.943  1.8708 -0.2136  0.6421
 2628SOL     OW19516   3.041   0.329   3.521 -0.1516  0.1484  0.7290
 2628SOL    HW119517   3.103   0.400   3.539 -0.1338  0.3996 -0.3381
 2628SOL    HW219518   3.019   0.361   3.433  2.7372  1.7861  0.5862
 2629SOL     OW19519   4.634   1.741   9.235 -0.0144 -0.1291 -0.2087
 2629SOL    HW119520   4.650   1.835   9.247 -1.9706  0.2737 -0.5704
 2629SOL    HW219521   4.696   1.716   9.303  0.2675  0.7639 -0.1383
 2630SOL     OW19522   0.594   3.463  11.230 -0.8799 -0.7400 -0.1866
 2630SOL    HW119523   0.561   3.434  11.315 -0.7257 -0.1503  0.0665
 2630SOL    HW219524   0.663   3.402  11.202 -0.1613 -0.7225  1.5680
 2631SOL     OW19525   3.769   3.451  13.007  0.5625  0.0001 -0.3303
 2631SOL    HW119526   3.822   3.387  13.054  2.5089  1.4187 -0.6065
 2631SOL    HW219527   3.739   3.404  12.929 -0.8270 -0.0875  0.2604
 2632SOL     OW19528   4.203   1.704   4.940  0.3776 -0.0508 -0.2060
 2632SOL    HW119529   4.201   1.611   4.963 -1.0510  0.0302  0.0213
 2632SOL    HW219530   4.191   1.736   5.030 -0.6023 -0.6708 -0.1057
 2633SOL     OW19531   0.962   1.063   3.903 -0.0003 -0.1676 -0.3062
 2633SOL    HW119532   1.049   1.027   3.920 -0.1596  0.1673  1.1496
 2633SOL    HW219533   0.981   1.155   3.882  1.6091  0.0900  2.3140
 2634SOL     OW19534   0.532   0.347   5.649 -0.3722 -0.1683 -0.7937
 2634SOL    HW119535   0.468   0.397   5.599 -0.9084 -0.1337 -0.0794
 2634SOL    HW219536   0.495   0.360   5.737 -1.0404  2.5587 -1.4793
 2635SOL     OW19537   0.094   0.100  14.838 -0.3872  0.2732 -0.4948
 2635SOL    HW119538   0.149   0.178  14.843  0.1618  0.0287 -2.4893
 2635SOL    HW219539   0.009   0.133  14.866  0.6450  0.2174  2.6442
 2636SOL     OW19540   1.384   3.075   4.100  0.0418  0.3432 -0.2671
 2636SOL    HW119541   1.312   3.013   4.087  1.3191 -0.7895 -2.1070
 2636SOL    HW219542   1.464   3.024   4.113 -0.1475 -0.1521 -1.0403
 2637SOL     OW19543   1.034   0.613  10.623 -0.2539  0.8500  0.8977
 2637SOL    HW119544   1.082   0.530  10.627 -2.2489 -0.3233  0.5776
 2637SOL    HW219545   1.059   0.655  10.705 -1.6362  1.0116  1.2240
 2638SOL     OW19546   4.318   3.612  16.322 -0.0611  0.4349 -0.2904
 2638SOL    HW119547   4.275   3.594  16.238  3.2767  1.1872 -2.1589
 2638SOL    HW219548   4.306   3.707  16.320 -0.0234  0.4234 -1.0853
 2639SOL     OW19549   0.428   3.534   6.324 -0.0491 -0.0007  0.1205
 2639SOL    HW119550   0.486   3.462   6.348 -0.1358 -0.3415 -0.6840
 2639SOL    HW219551   0.492   3.601   6.349  1.8263 -0.9099 -2.2589
 2640SOL     OW19552   4.435   0.230   2.369 -0.0601  0.0403  0.0670
 2640SOL    HW119553   4.465   0.247   2.280 -0.1956  1.6549  0.3379
 2640SOL    HW219554   4.475   0.144   2.379  0.8405  0.3891 -0.6059
 2641SOL     OW19555   1.333   0.409  15.653  0.9660 -0.1957  0.0897
 2641SOL    HW119556   1.280   0.356  15.713 -1.3994  1.0911 -0.8831
 2641SOL    HW219557   1.385   0.465  15.711 -0.7450 -0.3379  1.7785
 2642SOL     OW19558   3.163   3.255   6.172 -0.0413  0.2797 -0.0448
 2642SOL    HW119559   3.243   3.293   6.134 -0.1335  0.8658  0.3488
 2642SOL    HW219560   3.102   3.236   6.101  0.9537  0.3900 -0.9254
 2643SOL     OW19561   3.998   4.582  15.780  0.3452 -0.1440  0.3517
 2643SOL    HW119562   4.065   4.651  15.782  0.6218 -0.3361 -1.9288
 2643SOL    HW219563   4.028   4.519  15.714  0.4049  0.5871 -0.3243
 2644SOL     OW19564   4.278   0.368   8.719  0.0711  0.7966  0.1748
 2644SOL    HW119565   4.214   0.299   8.740 -0.2466  0.4645 -1.9026
 2644SOL    HW219566   4.230   0.448   8.741  2.4189  1.6378  2.1604
 2645SOL     OW19567   1.380   1.946   5.511 -0.6566  0.0814 -0.1868
 2645SOL    HW119568   1.385   1.882   5.582 -2.2156  0.1268 -0.0474
 2645SOL    HW219569   1.444   2.015   5.530 -0.9492  0.4168 -0.4283
 2646SOL     OW19570   2.611   0.859   2.755 -0.5278  0.1006 -0.2249
 2646SOL    HW119571   2.612   0.905   2.671 -1.8398 -1.1343 -0.9014
 2646SOL    HW219572   2.688   0.885   2.806 -0.6034 -0.5217  0.2049
 2647SOL     OW19573   2.659   3.390  10.328  0.1446 -0.6716  0.1033
 2647SOL    HW119574   2.690   3.324  10.390  2.5542 -0.9338 -1.3738
 2647SOL    HW219575   2.583   3.348  10.289 -0.3096 -0.0624  0.3336
 2648SOL     OW19576   4.444   0.736  11.020  0.2145 -0.4677  0.0145
 2648SOL    HW119577   4.417   0.661  11.073  1.8730  1.7554  4.0587
 2648SOL    HW219578   4.488   0.779  11.094 -0.9086  1.0553 -0.2003
 2649SOL     OW19579   3.915   1.061   8.347 -0.0289  0.3436  0.0247
 2649SOL    HW119580   3.882   1.150   8.330  0.5120  0.0040 -2.8004
 2649SOL    HW219581   4.006   1.085   8.331  0.1401  0.1143  0.6631
 2650SOL     OW19582   0.716   3.025   1.194  0.5888  0.5353 -0.0141
 2650SOL    HW119583   0.654   3.061   1.131 -0.9725 -2.4076 -0.1517
 2650SOL    HW219584   0.664   2.959   1.240  0.7533 -0.4797 -1.2861
 2651SOL     OW19585   3.387   1.130   6.070  0.2352 -0.5483 -0.1207
 2651SOL    HW119586   3.338   1.200   6.112  0.4152 -1.1065  1.0107
 2651SOL    HW219587   3.399   1.168   5.983 -0.6366 -2.2628 -0.9977
 2652SOL     OW19588   4.209   2.783   3.539  0.4423 -1.0195 -0.3411
 2652SOL    HW119589   4.222   2.877   3.528 -0.2812 -0.7411  1.3161
 2652SOL    HW219590   4.236   2.764   3.629  0.9986 -2.0876 -0.7264
 2653SOL     OW19591   1.368   4.365   4.548 -0.2720 -0.5538  0.0246
 2653SOL    HW119592   1.376   4.439   4.489 -0.1004 -0.6534 -0.0793
 2653SOL    HW219593   1.274   4.350   4.557 -0.6998  1.5837 -0.9434
 2654SOL     OW19594   4.426   3.941   9.160 -0.3465  0.7363  0.1293
 2654SOL    HW119595   4.364   4.012   9.145 -0.4463  0.4497 -0.8467
 2654SOL    HW219596   4.367   3.890   9.216  0.1590 -0.1227 -0.1278
 2655SOL     OW19597   3.143   1.520   2.375  0.3666  0.2684 -0.4768
 2655SOL    HW119598   3.105   1.469   2.304  0.5699  1.8005 -1.6763
 2655SOL    HW219599   3.155   1.604   2.331  0.9008  0.5861  0.2726
 2656SOL     OW19600   4.521   1.829  10.755 -0.6437 -0.1245  0.1337
 2656SOL    HW119601   4.563   1.806  10.672 -1.1101 -1.5997  0.3024
 2656SOL    HW219602   4.429   1.810  10.738 -0.1577 -1.6335 -0.8100
 2657SOL     OW19603   1.241   1.932   9.575  0.3940  0.0167 -0.3382
 2657SOL    HW119604   1.251   1.885   9.493 -1.3681  1.5760 -1.4568
 2657SOL    HW219605   1.170   1.876   9.606 -0.8281  1.4558 -0.5232
 2658SOL     OW19606   4.444   2.469  15.990 -0.0031  0.2269 -0.0107
 2658SOL    HW119607   4.516   2.531  15.999 -0.5025  0.7606  0.3203
 2658SOL    HW219608   4.380   2.519  16.041  0.7346  1.6390 -0.4764
 2659SOL     OW19609   2.060   0.912   7.267  0.6063 -0.0017  0.3742
 2659SOL    HW119610   2.046   0.838   7.326  0.8137 -0.8629 -0.6533
 2659SOL    HW219611   2.144   0.946   7.296 -0.1333  1.1650  1.1710
 2660SOL     OW19612   2.994   2.420   5.766 -0.2501  0.4232 -0.4657
 2660SOL    HW119613   2.950   2.394   5.847  1.6751  3.7822  1.6259
 2660SOL    HW219614   3.040   2.336   5.764  1.0898  1.1725 -0.6499
 2661SOL     OW19615   0.629   4.575   4.857  0.1258 -0.1485  0.1931
 2661SOL    HW119616   0.628   4.669   4.873  0.3524  0.2395 -1.9604
 2661SOL    HW219617   0.690   4.551   4.927  0.3195  3.8354  1.3895
 2662SOL     OW19618   1.166   0.037   7.938 -0.4842  0.2072  0.1693
 2662SOL    HW119619   1.164   0.093   8.016  0.4740  2.4852 -1.4638
 2662SOL    HW219620   1.200   4.693   7.976 -1.5552  0.1351  0.9743
 2663SOL     OW19621   3.048   4.729   2.669 -0.4686  0.1986 -0.3401
 2663SOL    HW119622   3.061   0.084   2.688 -0.2414 -0.0879  0.8501
 2663SOL    HW219623   3.137   4.699   2.686 -0.9751 -0.3919  1.2487
 2664SOL     OW19624   0.367   0.943   3.304 -0.3338  0.1671  0.2055
 2664SOL    HW119625   0.354   1.037   3.319 -0.5182  0.2627 -0.5278
 2664SOL    HW219626   0.436   0.955   3.239  1.3350  0.3012  1.9944
 2665SOL     OW19627   0.909   2.111   2.597  0.2535  0.3412 -0.3382
 2665SOL    HW119628   0.846   2.112   2.670  2.8765  0.7603  1.9268
 2665SOL    HW219629   0.982   2.082   2.652 -1.5542  0.3224  2.0634
 2666SOL     OW19630   3.862   3.412   2.096  0.2916  0.0157 -0.0207
 2666SOL    HW119631   3.769   3.410   2.070  0.2941  0.5902 -0.0754
 2666SOL    HW219632   3.860   3.340   2.158 -0.3564  0.3314  0.3341
 2667SOL     OW19633   2.382   0.924   5.981 -0.3228 -0.0751 -0.1211
 2667SOL    HW119634   2.372   0.973   5.899  0.3104 -0.7523 -0.6093
 2667SOL    HW219635   2.478   0.927   5.981 -0.2934 -0.7655 -1.6879
 2668SOL     OW19636   4.034   0.383   8.179 -0.2703  0.0072 -0.0783
 2668SOL    HW119637   4.002   0.424   8.259 -0.7729 -2.0830  0.7876
 2668SOL    HW219638   3.984   0.301   8.182  0.7030 -0.5097  2.0867
 2669SOL     OW19639   1.391   2.101   1.137 -0.3535 -0.0591  0.2435
 2669SOL    HW119640   1.312   2.077   1.089 -0.0296 -3.0770  1.1904
 2669SOL    HW219641   1.438   2.150   1.070 -1.4376  0.8663  0.1583
 2670SOL     OW19642   1.411   0.203   2.098 -0.2787 -0.3264  0.1938
 2670SOL    HW119643   1.355   0.135   2.059 -0.4733 -1.0997  1.8522
 2670SOL    HW219644   1.496   0.172   2.065  0.4159  1.0173  0.7170
 2671SOL     OW19645   4.109   3.308   4.678 -0.4615 -0.5408 -0.3238
 2671SOL    HW119646   4.138   3.346   4.595  0.0391 -2.0124 -0.8148
 2671SOL    HW219647   4.125   3.385   4.733  1.0065 -1.7078  0.8675
 2672SOL     OW19648   2.281   2.600   3.915  0.0876 -0.2881  0.0230
 2672SOL    HW119649   2.331   2.659   3.973  0.4977  0.3649 -1.0054
 2672SOL    HW219650   2.221   2.660   3.871 -0.2364 -1.4259 -1.0625
 2673SOL     OW19651   3.380   0.011   1.685  0.2489 -0.1344 -0.7131
 2673SOL    HW119652   3.414   4.678   1.741 -2.0016  0.5858  1.5463
 2673SOL    HW219653   3.292   0.014   1.722  1.1338  1.6212  1.2665
 2674SOL     OW19654   1.222   1.679   8.675  0.5534  0.6550 -0.7151
 2674SOL    HW119655   1.286   1.675   8.605  1.0651 -1.1898 -0.1546
 2674SOL    HW219656   1.143   1.642   8.637  0.2325 -1.2806  1.8352
 2675SOL     OW19657   2.501   4.669  13.046 -0.3282  0.2656 -0.3612
 2675SOL    HW119658   2.532   4.649  13.135  3.8292 -0.3891 -1.9443
 2675SOL    HW219659   2.481   4.581  13.015  0.7221 -0.3707  0.7790
 2676SOL     OW19660   1.435   1.824  14.969 -0.0303 -0.2536  0.4148
 2676SOL    HW119661   1.382   1.890  15.013  0.2255  0.7509 -0.8015
 2676SOL    HW219662   1.478   1.886  14.911 -2.1226  2.7837  2.1258
 2677SOL     OW19663   2.400   2.876  12.029 -0.2358 -0.4317  1.0461
 2677SOL    HW119664   2.429   2.832  11.949  0.5919 -0.7426  1.5203
 2677SOL    HW219665   2.314   2.910  12.002  0.0986  1.7091  2.7192
 2678SOL     OW19666   1.463   0.392   9.852  0.6966  0.0476  1.1924
 2678SOL    HW119667   1.422   0.428   9.930 -0.3306 -1.0170  1.1466
 2678SOL    HW219668   1.547   0.437   9.842  0.4092  0.1771 -0.6602
 2679SOL     OW19669   3.731   0.847  12.870 -0.7986  0.3294 -0.0302
 2679SOL    HW119670   3.813   0.799  12.859 -0.9851  0.2473 -1.0636
 2679SOL    HW219671   3.703   0.823  12.958  1.1150 -0.3766  0.4016
 2680SOL     OW19672   4.452   4.099   4.300 -0.6597  0.7266  0.3251
 2680SOL    HW119673   4.509   4.046   4.356 -1.6714 -1.8803 -1.1620
 2680SOL    HW219674   4.431   4.031   4.237  3.2662 -0.4026  0.2421
 2681SOL     OW19675   2.387   1.405   2.911  0.1763  0.2638  0.4410
 2681SOL    HW119676   2.314   1.418   2.972  3.0842  0.3406  3.8953
 2681SOL    HW219677   2.333   1.381   2.836  0.0740  0.0958  0.5700
 2682SOL     OW19678   4.190   1.615  10.828 -0.2336  0.0448 -0.0945
 2682SOL    HW119679   4.222   1.547  10.769 -0.5745  0.1267 -0.3787
 2682SOL    HW219680   4.196   1.563  10.908 -0.6518 -2.2207 -1.5020
 2683SOL     OW19681   4.200   2.956  13.357 -0.6371 -0.3465 -0.7475
 2683SOL    HW119682   4.191   3.048  13.379  0.0752 -0.4204 -0.1392
 2683SOL    HW219683   4.254   2.919  13.428  0.3912  0.1292 -1.2836
 2684SOL     OW19684   4.297   1.043   8.849 -0.4749  0.1267  0.2862
 2684SOL    HW119685   4.335   0.990   8.779 -0.6406 -0.2601  0.4891
 2684SOL    HW219686   4.373   1.069   8.901 -0.0751 -0.0712 -0.2039
 2685SOL     OW19687   0.526   1.007   7.745  0.2339  0.1551 -0.5811
 2685SOL    HW119688   0.597   1.042   7.799  0.3048 -2.5086  1.0551
 2685SOL    HW219689   0.452   1.000   7.805  0.0286 -0.4101 -0.8995
 2686SOL     OW19690   0.279   2.967  12.661 -0.3363  0.4851 -0.2978
 2686SOL    HW119691   0.290   2.991  12.753  0.2241  0.4212 -0.3494
 2686SOL    HW219692   0.304   3.047  12.615  0.7666  0.9336  1.1051
 2687SOL     OW19693   1.158   0.626   1.224  0.0070 -0.1922  0.2875
 2687SOL    HW119694   1.070   0.626   1.261 -0.2948 -0.7914 -0.4192
 2687SOL    HW219695   1.147   0.680   1.146 -0.9745  1.7668  1.7997
 2688SOL     OW19696   2.628   2.046   6.356 -0.2276 -0.0180  0.1504
 2688SOL    HW119697   2.585   2.131   6.364  1.0987  0.6105  0.7316
 2688SOL    HW219698   2.704   2.057   6.414  0.5736  3.1695 -1.5420
 2689SOL     OW19699   2.715   2.094   1.902 -0.2519 -0.1991  0.3709
 2689SOL    HW119700   2.662   2.102   1.823  1.4024  0.5446 -0.6594
 2689SOL    HW219701   2.702   2.183   1.935 -1.0676  0.1067 -0.7816
 2690SOL     OW19702   2.608   3.875   8.419 -0.4594 -0.3605 -0.2696
 2690SOL    HW119703   2.525   3.833   8.398 -1.0691  1.0792 -0.7633
 2690SOL    HW219704   2.600   3.893   8.513  0.3159 -0.6982 -0.1340
 2691SOL     OW19705   3.587   2.190   0.791 -0.3468  0.3699 -1.0116
 2691SOL    HW119706   3.492   2.201   0.795 -0.6674 -2.6311 -0.4371
 2691SOL    HW219707   3.614   2.228   0.707  0.3405  0.6317 -0.6707
 2692SOL     OW19708   3.619   1.104   5.812 -0.4236  0.5259  1.4554
 2692SOL    HW119709   3.699   1.129   5.858  1.1416  0.4938 -1.2186
 2692SOL    HW219710   3.627   1.009   5.821 -2.5580  0.2308  0.2977
 2693SOL     OW19711   1.061   0.246  17.041  0.1243 -0.8192  0.1849
 2693SOL    HW119712   1.113   0.221  16.964 -0.6139 -2.1320  0.1243
 2693SOL    HW219713   1.073   0.341  17.040  0.5481 -0.8867 -1.2823
 2694SOL     OW19714   3.076   0.193   6.312 -0.3004 -0.4520  0.1832
 2694SOL    HW119715   3.011   0.226   6.374  0.0902 -0.2279  0.4770
 2694SOL    HW219716   3.157   0.243   6.321 -0.1107 -0.8219  0.5106
 2695SOL     OW19717   0.960   1.831  17.085  0.4505  0.2225  0.6913
 2695SOL    HW119718   1.005   1.770  17.144  2.5038 -0.2574 -1.3703
 2695SOL    HW219719   0.873   1.791  17.093  1.6442 -3.1049 -2.5213
 2696SOL     OW19720   0.875   4.326  10.291  0.1897  0.1986  0.1222
 2696SOL    HW119721   0.882   4.371  10.206 -0.5928 -1.0190 -0.5867
 2696SOL    HW219722   0.953   4.366  10.329  0.7083  0.8245 -1.6083
 2697SOL     OW19723   1.880   1.973   5.588  0.0998 -0.6598  0.2155
 2697SOL    HW119724   1.876   1.917   5.666 -0.1794 -0.9296  0.0102
 2697SOL    HW219725   1.829   2.046   5.625  0.9997  1.0014 -1.9032
 2698SOL     OW19726   3.090   3.884   3.923  0.0198  0.6688 -0.3910
 2698SOL    HW119727   3.090   3.925   4.009  0.9925 -1.5554  0.6515
 2698SOL    HW219728   3.092   3.792   3.947 -2.0213  1.0179  1.1550
 2699SOL     OW19729   4.496   0.632   2.277  0.2395 -0.1677 -0.4272
 2699SOL    HW119730   4.512   0.719   2.240  2.3828  0.3896  1.7165
 2699SOL    HW219731   4.413   0.608   2.236  0.3736 -1.7002  0.1837
 2700SOL     OW19732   4.533   2.851   3.037 -0.1539  0.0604  0.3066
 2700SOL    HW119733   4.542   2.906   3.115 -0.0606 -2.4298  2.0413
 2700SOL    HW219734   4.467   2.785   3.059 -1.0721  0.2536 -1.8044
 2701SOL     OW19735   3.329   3.490   3.949 -0.3350 -0.4595 -0.2683
 2701SOL    HW119736   3.404   3.549   3.954 -0.6895 -0.0445  0.0411
 2701SOL    HW219737   3.349   3.454   3.862  1.5279 -0.9845  0.3677
 2702SOL     OW19738   4.247   2.763   2.264 -0.2108 -0.5870 -0.4056
 2702SOL    HW119739   4.322   2.727   2.310 -0.5628  1.6886  1.9907
 2702SOL    HW219740   4.208   2.826   2.325 -1.8727 -1.2614 -0.7694
 2703SOL     OW19741   4.298   4.635   2.939 -0.5027 -0.0406  0.2025
 2703SOL    HW119742   4.270   4.701   2.875  0.3050 -0.8386 -0.9678
 2703SOL    HW219743   4.361   4.585   2.887 -2.1846 -0.9495 -0.9604
 2704SOL     OW19744   3.146   2.045   6.405  0.2964  0.0611  0.2936
 2704SOL    HW119745   3.237   2.074   6.406  0.4588 -0.4541  0.3117
 2704SOL    HW219746   3.100   2.113   6.455 -0.6124  2.4257 -3.7525
 2705SOL     OW19747   3.898   0.373   7.174  0.2869  0.2937  0.2493
 2705SOL    HW119748   3.976   0.321   7.157 -0.1769  0.0838 -1.2439
 2705SOL    HW219749   3.846   0.360   7.094  0.7782  0.2350 -0.0593
 2706SOL     OW19750   2.632   0.016   0.915 -0.1573  0.5638 -0.0133
 2706SOL    HW119751   2.574   4.681   0.939  1.6068 -0.5137  0.9667
 2706SOL    HW219752   2.571   0.063   0.857  0.5083  2.1231  0.5560
 2707SOL     OW19753   3.276   4.211   3.336  0.4333 -0.4878 -0.4971
 2707SOL    HW119754   3.277   4.237   3.428 -0.4843 -2.2935  0.0237
 2707SOL    HW219755   3.227   4.284   3.297 -0.9954 -0.1434  1.9362
 2708SOL     OW19756   2.049   3.606  12.395 -0.6225  0.5895 -0.1066
 2708SOL    HW119757   2.036   3.512  12.380  0.2751  0.4272  0.1172
 2708SOL    HW219758   2.072   3.638  12.308  0.7383 -2.7446 -0.9888
 2709SOL     OW19759   3.589   0.706   7.119 -0.4516 -0.3954  0.0600
 2709SOL    HW119760   3.519   0.663   7.168 -2.0329  0.7447 -1.1737
 2709SOL    HW219761   3.573   0.658   7.038 -2.8025  1.2445 -0.4628
 2710SOL     OW19762   0.209   1.530   0.538 -0.4637 -0.3645 -0.0636
 2710SOL    HW119763   0.254   1.463   0.588 -0.6303  0.0981  0.7048
 2710SOL    HW219764   0.120   1.515   0.572 -0.6229  0.0426 -0.2970
 2711SOL     OW19765   0.155   1.817   3.893  0.0246  0.1832  0.1723
 2711SOL    HW119766   0.146   1.758   3.968 -1.5678  0.3956  0.1517
 2711SOL    HW219767   0.108   1.774   3.821 -0.2937  2.4432 -0.9760
 2712SOL     OW19768   2.604   2.371   7.963 -0.3707 -0.1444 -0.1492
 2712SOL    HW119769   2.663   2.414   8.025 -0.2898 -0.6206  0.1051
 2712SOL    HW219770   2.521   2.417   7.952  0.4542  0.7187 -2.6409
 2713SOL     OW19771   2.016   3.599  12.792 -0.1008  0.1881 -0.2809
 2713SOL    HW119772   1.984   3.511  12.772 -3.2061  1.3043 -0.2276
 2713SOL    HW219773   1.959   3.611  12.868  0.2233 -1.7805  0.2856
 2714SOL     OW19774   4.535   3.233   3.070 -0.1414  0.3932 -0.4422
 2714SOL    HW119775   4.548   3.297   3.139 -1.3047 -0.5016  0.6030
 2714SOL    HW219776   4.506   3.154   3.114 -2.5393  1.3707 -0.2438
 2715SOL     OW19777   3.656   4.332   9.475 -0.2665 -0.0566 -0.4815
 2715SOL    HW119778   3.748   4.316   9.495 -0.4444  0.2349  0.5409
 2715SOL    HW219779   3.636   4.239   9.463  0.5266 -0.7767  3.7323
 2716SOL     OW19780   0.783   2.695   2.254  0.7246 -0.8568  0.3884
 2716SOL    HW119781   0.801   2.759   2.185  1.0003 -1.1996  0.1402
 2716SOL    HW219782   0.693   2.716   2.278  0.5859 -1.0837  0.0702
 2717SOL     OW19783   0.303   0.432   7.164  0.4676  0.0089 -0.3537
 2717SOL    HW119784   0.225   0.473   7.127 -0.5296 -1.6086 -0.0594
 2717SOL    HW219785   0.305   0.347   7.121 -1.3820 -0.4507  0.4420
 2718SOL     OW19786   0.230   4.249  13.706 -0.4771  0.5211  0.3429
 2718SOL    HW119787   0.237   4.344  13.716  0.6531  0.3639  1.0559
 2718SOL    HW219788   0.165   4.233  13.637 -0.1535  0.6726  0.0027
 2719SOL     OW19789   0.620   0.243  12.207  0.2077  0.2405 -0.3635
 2719SOL    HW119790   0.609   0.337  12.213  0.8810  0.3383 -0.6650
 2719SOL    HW219791   0.712   0.241  12.180  0.5647 -1.5096  0.9168
 2720SOL     OW19792   4.702   3.829   1.742 -0.0937 -0.8169  0.3686
 2720SOL    HW119793   4.703   3.860   1.832  0.0205  0.3437 -0.0243
 2720SOL    HW219794   4.623   3.775   1.738 -0.6058 -0.1804  1.9478
 2721SOL     OW19795   4.534   4.715  16.310  0.1598 -0.3531 -0.1720
 2721SOL    HW119796   4.567   4.728  16.221  0.4647 -1.1242 -0.1664
 2721SOL    HW219797   4.482   4.635  16.302  1.9030 -1.3181 -1.7962
 2722SOL     OW19798   4.721   0.564  15.089  0.1594 -0.4629  0.0082
 2722SOL    HW119799   0.070   0.543  15.124 -0.6462 -1.4559  1.4210
 2722SOL    HW219800   4.672   0.484  15.110 -1.3951  0.7698  1.0312
 2723SOL     OW19801   3.477   3.632  13.655 -0.2824  0.1265  0.7736
 2723SOL    HW119802   3.492   3.562  13.592 -3.6326  1.1357 -1.1324
 2723SOL    HW219803   3.566   3.644  13.688  0.2593 -0.6422 -0.3883
 2724SOL     OW19804   0.334   1.087   2.976  0.6350 -0.1325 -0.4569
 2724SOL    HW119805   0.250   1.100   3.020  1.3112  2.2913  0.0732
 2724SOL    HW219806   0.314   1.029   2.903 -0.2462 -0.0072 -0.3117
 2725SOL     OW19807   2.052   2.411  13.659 -0.6153  0.3108 -0.2398
 2725SOL    HW119808   2.006   2.385  13.738  1.7275 -1.9323  0.3770
 2725SOL    HW219809   2.135   2.445  13.693 -0.6528 -1.3642  1.4884
 2726SOL     OW19810   0.372   0.277   5.878 -0.2571  0.1111 -0.1078
 2726SOL    HW119811   0.405   0.249   5.963  0.0493  1.9172  0.3798
 2726SOL    HW219812   0.326   0.200   5.846 -1.1498  0.6958 -0.2451
 2727SOL     OW19813   3.335   0.754   8.245  0.1553 -0.1521 -0.1300
 2727SOL    HW119814   3.398   0.826   8.241  1.0771 -0.8178  1.9435
 2727SOL    HW219815   3.342   0.718   8.334  0.5814  1.3819  0.4577
 2728SOL     OW19816   1.696   4.074   1.494 -0.4122 -0.1184  0.1859
 2728SOL    HW119817   1.635   4.011   1.531 -0.2082  0.0772  0.8648
 2728SOL    HW219818   1.725   4.114   1.576 -1.9046 -0.0253  0.6617
 2729SOL     OW19819   3.475   4.515   5.116 -0.1766  0.4489 -0.5683
 2729SOL    HW119820   3.514   4.466   5.044  0.6009  0.5110 -0.1921
 2729SOL    HW219821   3.555   4.521   5.168  1.6083 -2.6038 -2.9642
 2730SOL     OW19822   0.945   3.505   0.003 -0.2086  0.3782  0.1491
 2730SOL    HW119823   1.000   3.524  17.675 -2.3238  2.3267 -0.9001
 2730SOL    HW219824   0.989   3.423   0.025  0.2387  0.4592 -0.4138
 2731SOL     OW19825   0.020   2.029   7.431 -0.2390 -0.3287  0.2108
 2731SOL    HW119826   4.688   2.081   7.392 -1.1749 -0.3280  1.8867
 2731SOL    HW219827   0.089   2.094   7.445 -2.9998  3.0213 -1.9406
 2732SOL     OW19828   4.210   0.571   3.156 -0.2171 -0.2442 -0.6656
 2732SOL    HW119829   4.287   0.577   3.213  0.5624 -0.8501 -1.6671
 2732SOL    HW219830   4.261   0.573   3.075  3.2500  2.2194  1.5779
 2733SOL     OW19831   0.586   2.648   1.117  0.3243  0.0782 -0.5572
 2733SOL    HW119832   0.525   2.619   1.049  2.3142 -0.2424 -2.1926
 2733SOL    HW219833   0.538   2.723   1.152 -0.2504  0.3876 -2.0034
 2734SOL     OW19834   3.167   0.963   6.006  0.1281  0.2576  0.1501
 2734SOL    HW119835   3.219   0.899   6.053  1.1348  0.4007 -0.7686
 2734SOL    HW219836   3.226   1.037   6.018  0.8346 -0.0095 -1.5818
 2735SOL     OW19837   3.647   0.332   4.272  0.0319  0.4060 -0.2070
 2735SOL    HW119838   3.632   0.412   4.220 -2.2908 -0.7824 -1.3683
 2735SOL    HW219839   3.639   0.263   4.206 -1.0276 -0.0370  0.3850
 2736SOL     OW19840   2.383   2.535  15.953 -0.0768  0.2453  0.2160
 2736SOL    HW119841   2.327   2.537  15.875  0.4193 -0.3570 -0.1673
 2736SOL    HW219842   2.424   2.621  15.952 -1.3039  0.8370  1.6625
 2737SOL     OW19843   0.627   0.354   8.595  0.7144 -0.1578  0.0878
 2737SOL    HW119844   0.666   0.427   8.643  0.6374  1.8755 -3.0090
 2737SOL    HW219845   0.700   0.292   8.593 -0.4669 -1.6221  1.6535
 2738SOL     OW19846   3.734   3.114   8.500 -0.0675 -0.2700  0.2562
 2738SOL    HW119847   3.688   3.089   8.580  0.2014  2.4911  1.2854
 2738SOL    HW219848   3.747   3.027   8.463 -1.9221 -0.7323  0.6878
 2739SOL     OW19849   3.012   0.159   8.470  0.0811 -0.1614 -0.0140
 2739SOL    HW119850   2.991   0.090   8.407 -0.3264 -0.3488  0.3281
 2739SOL    HW219851   2.984   0.115   8.550 -0.5487 -2.1406 -1.3273
 2740SOL     OW19852   4.732   4.571   8.105  0.0711 -0.1262  0.0008
 2740SOL    HW119853   0.041   4.540   8.182 -3.9172 -1.8668  1.6854
 2740SOL    HW219854   4.650   4.593   8.148  0.3867  2.3589 -0.6737
 2741SOL     OW19855   2.990   2.933   3.956 -0.4528  0.2983  0.2056
 2741SOL    HW119856   2.965   2.982   3.877 -1.4777 -2.1063 -0.9878
 2741SOL    HW219857   2.950   2.848   3.938 -0.9622  0.2353  1.6019
 2742SOL     OW19858   4.465   3.227   6.951 -0.2864 -0.0211 -0.5760
 2742SOL    HW119859   4.383   3.255   6.991  0.0192 -1.7687  1.2976
 2742SOL    HW219860   4.440   3.140   6.920 -1.2767  0.7207 -1.8731
 2743SOL     OW19861   3.992   0.735   1.986 -0.5040  0.2769 -0.2077
 2743SOL    HW119862   3.970   0.781   2.067  0.1628 -2.0456  1.2954
 2743SOL    HW219863   4.024   0.651   2.021  1.7809  1.2510  0.0442
 2744SOL     OW19864   2.893   0.414   1.687 -0.0175 -0.3648 -0.0079
 2744SOL    HW119865   2.988   0.423   1.678 -0.1409  0.3148 -0.5840
 2744SOL    HW219866   2.871   0.505   1.705 -0.4718 -0.5842  0.5480
 2745SOL     OW19867   3.225   1.770   1.952  0.1445 -0.1209  0.0986
 2745SOL    HW119868   3.234   1.685   1.996 -0.3547 -1.1412 -1.7542
 2745SOL    HW219869   3.313   1.769   1.913  1.2695 -1.4272  2.6531
 2746SOL     OW19870   0.216   1.252   8.103  0.8141 -0.5242  0.5155
 2746SOL    HW119871   0.190   1.192   8.033 -0.2912  0.8889 -0.2821
 2746SOL    HW219872   0.285   1.201   8.146  0.6057  1.7332  3.5896
 2747SOL     OW19873   2.700   2.551  16.848  0.0478  0.8474 -0.0787
 2747SOL    HW119874   2.639   2.624  16.864  0.0618  0.8038  0.1676
 2747SOL    HW219875   2.678   2.542  16.755 -0.6174 -0.8386  0.2402
 2748SOL     OW19876   2.455   2.503  17.186 -0.0687 -0.2784  0.2245
 2748SOL    HW119877   2.388   2.440  17.158  2.8609 -1.7405 -3.4554
 2748SOL    HW219878   2.462   2.500  17.281  1.2331 -0.8623  0.1014
 2749SOL     OW19879   0.562   2.358   2.596 -0.0837 -0.0378 -0.2309
 2749SOL    HW119880   0.577   2.436   2.543  0.1673 -0.3240 -0.5834
 2749SOL    HW219881   0.466   2.363   2.588  0.0694  1.6850 -0.9810
 2750SOL     OW19882   0.166   4.515   8.739  0.0137  0.0157 -0.1668
 2750SOL    HW119883   0.258   4.523   8.714  0.3879  0.3967  1.3047
 2750SOL    HW219884   0.154   4.608   8.719  1.0110  0.0030 -0.7962
 2751SOL     OW19885   3.202   2.003   0.908 -0.3949  0.1192  0.3306
 2751SOL    HW119886   3.152   2.014   0.989  0.7320  0.5078  0.9641
 2751SOL    HW219887   3.255   2.082   0.915 -2.6958  1.7796 -0.9046
 2752SOL     OW19888   0.075   1.761   0.414 -0.1907 -0.1252  0.0222
 2752SOL    HW119889   0.097   1.668   0.409 -0.9917 -0.2300 -1.7274
 2752SOL    HW219890   0.120   1.792   0.492  1.1960  1.0066 -1.2222
 2753SOL     OW19891   0.080   4.588  11.497  0.6145 -0.1829 -0.3004
 2753SOL    HW119892   0.155   4.646  11.513  0.5419 -0.4575  1.0637
 2753SOL    HW219893   0.062   4.568  11.589 -0.0848  0.1010 -0.3759
 2754SOL     OW19894   1.440   0.286  16.489 -0.3184  0.4649 -0.4035
 2754SOL    HW119895   1.440   0.380  16.511 -0.2568  0.2596  0.4917
 2754SOL    HW219896   1.350   0.279  16.458 -0.2501 -1.6903 -0.1131
 2755SOL     OW19897   3.115   0.758  13.846  0.1957  0.1306  0.2006
 2755SOL    HW119898   3.042   0.782  13.789  0.6921  0.0580 -0.4662
 2755SOL    HW219899   3.193   0.779  13.795 -1.3185  0.8762 -1.8074
 2756SOL     OW19900   4.134   2.833  10.363 -0.6147 -0.4239  0.1338
 2756SOL    HW119901   4.096   2.875  10.440 -1.9692  1.6315 -1.6558
 2756SOL    HW219902   4.108   2.885  10.287 -0.6850 -0.4797  0.1193
 2757SOL     OW19903   3.429   0.316   6.928 -0.1892 -0.2577 -0.2432
 2757SOL    HW119904   3.355   0.257   6.916 -0.7242  0.2650  0.5239
 2757SOL    HW219905   3.422   0.370   6.849 -0.1029  0.5325  0.2890
 2758SOL     OW19906   1.342   1.914   4.022 -0.6505 -0.1720 -0.3179
 2758SOL    HW119907   1.396   1.953   4.092  0.4456 -2.4775  0.1168
 2758SOL    HW219908   1.366   1.821   4.025  2.4156  0.6513  1.5039
 2759SOL     OW19909   0.896   4.341  11.544  0.1752  0.1017  0.1061
 2759SOL    HW119910   0.944   4.414  11.506  1.5921 -0.3340  1.0657
 2759SOL    HW219911   0.846   4.381  11.616 -2.0206  0.9714 -1.9162
 2760SOL     OW19912   3.742   0.975   2.901  0.2603  0.1190 -0.5622
 2760SOL    HW119913   3.740   1.063   2.863  0.2763 -0.3321 -1.6246
 2760SOL    HW219914   3.736   1.003   2.992  0.5009 -1.3905 -0.0819
 2761SOL     OW19915   3.499   0.231   7.525 -0.0862  0.4726 -0.6899
 2761SOL    HW119916   3.588   0.259   7.502 -0.7526  1.9750 -1.4630
 2761SOL    HW219917   3.496   0.245   7.619  0.2753  1.3081 -0.8003
 2762SOL     OW19918   2.798   0.953   8.919  0.2403  0.0641  0.3777
 2762SOL    HW119919   2.735   0.915   8.981  1.7631 -2.3665  0.4669
 2762SOL    HW219920   2.735   1.012   8.877  0.3158  1.0512  1.6871
 2763SOL     OW19921   2.663   2.623   0.018 -0.1954 -0.6268  0.2137
 2763SOL    HW119922   2.652   2.655  17.677 -1.8399 -0.8522  0.3405
 2763SOL    HW219923   2.626   2.534   0.021 -4.3961  1.0883 -0.9155
 2764SOL     OW19924   0.614   2.284   1.511  0.2103  0.2819  0.1976
 2764SOL    HW119925   0.523   2.288   1.482 -0.0985  0.5427  1.1869
 2764SOL    HW219926   0.607   2.364   1.563  1.2100  0.2529  0.3863
 2765SOL     OW19927   4.232   0.564   9.630  0.2333  0.6036 -0.4216
 2765SOL    HW119928   4.170   0.573   9.702 -0.5199 -0.8764 -0.8781
 2765SOL    HW219929   4.185   0.602   9.556 -1.5910 -1.2719 -0.2198
 2766SOL     OW19930   0.854   0.919   2.971 -0.3819  0.7801 -0.2674
 2766SOL    HW119931   0.908   0.898   2.894  0.8054 -0.2592  0.8443
 2766SOL    HW219932   0.904   0.883   3.044 -1.2586  0.1086  0.0060
 2767SOL     OW19933   3.708   2.632   2.785 -0.3558 -0.3936 -0.2602
 2767SOL    HW119934   3.714   2.728   2.783  1.7315 -0.5497 -2.2503
 2767SOL    HW219935   3.768   2.611   2.856 -0.5164  0.0366  0.0003
 2768SOL     OW19936   4.145   2.010   0.157  0.0781 -0.7462 -0.3665
 2768SOL    HW119937   4.133   1.929   0.108  0.9642  0.1179 -2.0078
 2768SOL    HW219938   4.100   2.074   0.101  0.5585 -0.4283 -0.3935
 2769SOL     OW19939   4.463   0.894   3.379  0.1163 -0.0483 -0.0315
 2769SOL    HW119940   4.554   0.891   3.407  0.0837 -1.7163 -0.0909
 2769SOL    HW219941   4.455   0.966   3.316  0.5903 -0.9929 -1.1594
 2770SOL     OW19942   4.257   4.442   9.106 -0.3699  0.2125 -0.0608
 2770SOL    HW119943   4.331   4.496   9.077  0.0488 -0.2029  0.2346
 2770SOL    HW219944   4.234   4.480   9.192  3.7990  2.1597  0.1767
 2771SOL     OW19945   3.246   1.737   7.426  0.0680 -1.1406 -0.7447
 2771SOL    HW119946   3.318   1.779   7.378  0.6272  0.8842  1.8739
 2771SOL    HW219947   3.254   1.765   7.517 -3.5878 -2.2255 -0.1155
 2772SOL     OW19948   2.274   0.678   8.486 -0.0760  0.0078 -0.2866
 2772SOL    HW119949   2.314   0.705   8.404  3.1295 -0.9516  0.9923
 2772SOL    HW219950   2.313   0.727   8.559  0.5113 -2.9919  1.3875
 2773SOL     OW19951   0.325   2.221   6.557  0.5757  0.0246 -0.4689
 2773SOL    HW119952   0.346   2.128   6.559  0.6699  0.0757  1.0544
 2773SOL    HW219953   0.403   2.251   6.510 -0.0524  2.8673  0.3385
 2774SOL     OW19954   3.788   1.308   6.256 -0.0894 -0.1984 -0.0959
 2774SOL    HW119955   3.785   1.213   6.243  1.0873 -0.1649 -0.6388
 2774SOL    HW219956   3.732   1.345   6.188  2.7809  3.2392 -0.5705
 2775SOL     OW19957   1.192   0.839   3.855 -0.2497 -0.2631 -0.2631
 2775SOL    HW119958   1.249   0.885   3.793  1.0317 -3.5090 -1.4587
 2775SOL    HW219959   1.147   0.772   3.804  1.8356 -2.9875  1.5307
 2776SOL     OW19960   4.353   0.747   4.883  0.0011 -0.2401  0.2166
 2776SOL    HW119961   4.352   0.839   4.906 -0.2321 -0.3471  0.6498
 2776SOL    HW219962   4.339   0.747   4.788  3.8631 -0.8726 -0.3209
 2777SOL     OW19963   1.615   2.123   9.406 -0.4764  0.2947 -0.3296
 2777SOL    HW119964   1.530   2.104   9.367 -0.2318 -0.7306 -0.3575
 2777SOL    HW219965   1.599   2.094   9.496 -0.6935 -0.5084 -0.6256
 2778SOL     OW19966   1.926   0.952   7.955 -0.1938  0.2212  0.5002
 2778SOL    HW119967   1.868   0.971   8.030  0.4487 -1.1567  1.3471
 2778SOL    HW219968   1.937   1.035   7.909  2.6464  0.1648  1.1047
 2779SOL     OW19969   0.430   1.133   4.091  0.1589 -0.0121  0.2395
 2779SOL    HW119970   0.443   1.174   4.005  0.3597  0.3992  0.4667
 2779SOL    HW219971   0.348   1.179   4.111 -0.4874 -1.5250  1.0649
 2780SOL     OW19972   2.247   4.422   9.526 -0.0678 -0.3164 -0.2558
 2780SOL    HW119973   2.292   4.470   9.456 -0.4311  1.2577  0.5996
 2780SOL    HW219974   2.158   4.415   9.491 -0.0827 -3.0461  0.3203
 2781SOL     OW19975   3.421   0.566   0.764  0.8596  0.2723  0.5827
 2781SOL    HW119976   3.374   0.580   0.846  1.0285  1.3616  0.4827
 2781SOL    HW219977   3.501   0.530   0.804  1.4274  0.9924  0.0873
 2782SOL     OW19978   4.728   1.540   3.669 -0.1742 -0.2182  0.0805
 2782SOL    HW119979   4.701   1.628   3.695  1.4559 -0.2153  1.7687
 2782SOL    HW219980   0.019   1.554   3.579  1.3663  0.3285  0.6532
 2783SOL     OW19981   2.881   4.071   5.335 -0.1064  0.1395 -0.2111
 2783SOL    HW119982   2.878   4.165   5.318  0.4624 -0.1826 -2.0441
 2783SOL    HW219983   2.791   4.044   5.322 -1.3710  4.9517 -1.6067
 2784SOL     OW19984   0.856   4.602   7.348 -0.2047  0.0921 -0.1604
 2784SOL    HW119985   0.931   4.650   7.384 -0.3647  1.1309 -1.2005
 2784SOL    HW219986   0.841   4.642   7.262  0.1091  3.0882  1.1617
 2785SOL     OW19987   1.264   1.029  15.700  0.6530 -0.2811 -0.5699
 2785SOL    HW119988   1.291   1.106  15.649  1.6862 -0.0891  0.2439
 2785SOL    HW219989   1.234   0.974  15.628  0.0328  2.0457 -2.0780
 2786SOL     OW19990   3.733   2.759  14.997  0.3715 -0.2480  0.3086
 2786SOL    HW119991   3.663   2.756  15.062 -0.0140 -1.7287 -0.1918
 2786SOL    HW219992   3.808   2.760  15.057 -1.8529 -0.0965  3.0692
 2787SOL     OW19993   3.163   4.231   6.228  0.0922  0.2318  0.0274
 2787SOL    HW119994   3.251   4.257   6.199  0.0022 -0.4016 -0.8389
 2787SOL    HW219995   3.169   4.136   6.217 -1.3170  0.0856  0.5305
 2788SOL     OW19996   0.973   4.187   0.289 -0.2247 -0.5396 -0.1145
 2788SOL    HW119997   1.033   4.258   0.313  0.8440 -1.2711 -0.6683
 2788SOL    HW219998   1.008   4.168   0.202 -0.1150 -0.2474 -0.1361
 2789SOL     OW19999   2.408   0.524   5.199 -0.1132 -0.0635  0.1734
 2789SOL    HW120000   2.327   0.574   5.208  1.2095  2.0468  0.2758
 2789SOL    HW220001   2.448   0.576   5.130  0.6001 -1.4846 -0.4774
 2790SOL     OW20002   4.204   3.150  10.879  0.1216  0.1303  0.1961
 2790SOL    HW120003   4.194   3.138  10.784 -1.4585  0.6266  0.3040
 2790SOL    HW220004   4.159   3.070  10.906 -1.2167  1.4663  1.8275
 2791SOL     OW20005   3.408   2.416   3.891  0.6311 -0.1340  0.4305
 2791SOL    HW120006   3.467   2.358   3.843  0.3249 -0.7598  0.8036
 2791SOL    HW220007   3.380   2.476   3.821  0.0672  1.8881  2.3982
 2792SOL     OW20008   2.091   0.370  16.042  0.3226  0.2761  0.3210
 2792SOL    HW120009   2.004   0.408  16.030 -0.9660 -2.7116  0.2731
 2792SOL    HW220010   2.139   0.405  15.966 -0.6760 -0.3742 -0.6096
 2793SOL     OW20011   1.931   2.473  17.457  0.7309  0.2535  0.6222
 2793SOL    HW120012   1.886   2.444  17.536  1.3324 -2.2060  0.0392
 2793SOL    HW220013   1.871   2.454  17.385  1.4146 -0.5565  0.2641
 2794SOL     OW20014   4.113   1.250   2.101 -0.0275 -0.3693  0.8046
 2794SOL    HW120015   4.094   1.175   2.158  0.1531 -0.3315  0.9132
 2794SOL    HW220016   4.137   1.207   2.019  1.0050  2.6584 -0.4925
 2795SOL     OW20017   2.121   3.950   6.141  0.1252  0.1143 -0.0765
 2795SOL    HW120018   2.202   4.000   6.133  0.7432 -1.1682 -1.7191
 2795SOL    HW220019   2.115   3.900   6.060  0.7102 -1.5188  0.8740
 2796SOL     OW20020   1.526   4.375   7.806  0.5437  0.1441  0.2177
 2796SOL    HW120021   1.597   4.324   7.845  0.2726 -1.6151 -1.5777
 2796SOL    HW220022   1.568   4.457   7.781 -0.5381  1.4369  2.5726
 2797SOL     OW20023   4.435   0.480  15.347 -0.3476 -0.1972 -0.2222
 2797SOL    HW120024   4.380   0.494  15.269  2.6944  4.3506 -1.5981
 2797SOL    HW220025   4.489   0.409  15.315 -3.1381 -2.8330  0.9507
 2798SOL     OW20026   0.535   0.105   4.221  0.0826  0.5645  0.0300
 2798SOL    HW120027   0.561   0.195   4.203 -1.4965  1.1184  0.5074
 2798SOL    HW220028   0.453   0.122   4.268 -0.4758  0.7103 -0.9775
 2799SOL     OW20029   1.741   1.208   5.441 -0.2063 -0.0749  0.6536
 2799SOL    HW120030   1.709   1.171   5.359 -1.5210  0.9141  0.7035
 2799SOL    HW220031   1.712   1.136   5.498  0.2047 -0.4175  0.4286
 2800SOL     OW20032   4.680   4.555   5.883 -1.0937  0.4083 -0.3639
 2800SOL    HW120033   4.736   4.507   5.945 -0.1564  1.4430 -0.4132
 2800SOL    HW220034   4.622   4.602   5.943 -0.7640  0.6380 -0.2238
 2801SOL     OW20035   0.532   2.954   7.564 -0.1341  0.1565  0.6800
 2801SOL    HW120036   0.441   2.937   7.540  0.2305  0.4826 -0.9269
 2801SOL    HW220037   0.569   2.871   7.534 -0.5312  0.1668  0.1683
 2802SOL     OW20038   4.645   0.816   9.217  0.2201  0.1650  0.2510
 2802SOL    HW120039   4.617   0.852   9.302  0.1477  0.5004  0.0842
 2802SOL    HW220040   4.691   0.735   9.241  0.9074  0.4837  0.0086
 2803SOL     OW20041   1.097   2.190   5.726 -0.2254 -0.2695  0.2291
 2803SOL    HW120042   1.182   2.219   5.692  0.1792 -1.7364 -0.0398
 2803SOL    HW220043   1.122   2.101   5.752 -0.8871 -0.4722  0.1499
 2804SOL     OW20044   1.635   2.168   0.973 -0.3781  0.3475 -0.5389
 2804SOL    HW120045   1.634   2.150   0.879 -0.1470  0.7289 -0.6161
 2804SOL    HW220046   1.731   2.169   0.981 -0.3991 -1.6810 -0.1327
 2805SOL     OW20047   3.572   3.810   8.926  0.0882  0.2811  0.2789
 2805SOL    HW120048   3.534   3.821   9.013  0.7709  0.5825  0.5351
 2805SOL    HW220049   3.646   3.869   8.917  1.7808 -1.7837  0.9023
 2806SOL     OW20050   4.604   1.518  14.142  0.3906 -0.1420 -0.2954
 2806SOL    HW120051   4.646   1.599  14.172  2.1419 -1.2388  0.2561
 2806SOL    HW220052   4.512   1.514  14.168  1.0031 -1.2311  1.7765
 2807SOL     OW20053   1.917   1.281   4.332  0.0379 -0.0176  0.4455
 2807SOL    HW120054   1.826   1.288   4.361 -0.4685 -0.8955 -0.9283
 2807SOL    HW220055   1.922   1.186   4.330 -0.3411 -0.0288  0.0872
 2808SOL     OW20056   1.268   0.567  13.718 -0.2468 -0.4741  0.2565
 2808SOL    HW120057   1.176   0.558  13.746 -1.3411  0.9544 -2.8805
 2808SOL    HW220058   1.299   0.651  13.751  0.2262  0.3649 -2.3698
 2809SOL     OW20059   2.874   1.780   7.783 -0.5906 -0.3710 -0.2890
 2809SOL    HW120060   2.956   1.730   7.784 -0.1021  0.4297  0.2660
 2809SOL    HW220061   2.900   1.869   7.805  0.0662 -0.1727 -1.8710
 2810SOL     OW20062   2.709   4.295  17.104 -0.1794  0.4800  0.2768
 2810SOL    HW120063   2.702   4.307  17.009 -0.2178 -0.0797  0.2064
 2810SOL    HW220064   2.739   4.381  17.132  0.7300  0.3899 -0.4111
 2811SOL     OW20065   3.747   0.348   6.955  0.0128 -0.0441  0.8539
 2811SOL    HW120066   3.653   0.342   6.944  0.3789 -0.0200 -2.3243
 2811SOL    HW220067   3.785   0.381   6.874 -1.1793  3.5116  1.7419
 2812SOL     OW20068   4.253   2.029   1.011 -0.4228 -0.3136  0.2539
 2812SOL    HW120069   4.269   1.946   1.054  0.5964 -0.4661 -0.4016
 2812SOL    HW220070   4.168   2.046   1.051 -1.4490  0.3749 -2.2218
 2813SOL     OW20071   3.422   4.154   3.611 -0.5767 -0.0073  0.2413
 2813SOL    HW120072   3.475   4.085   3.572 -2.8380 -0.0078 -2.8640
 2813SOL    HW220073   3.483   4.223   3.585 -1.8395  0.6977 -0.8626
 2814SOL     OW20074   2.658   0.669   0.379  0.4934  0.1233 -0.0723
 2814SOL    HW120075   2.606   0.589   0.378  1.0446 -0.2508  0.3918
 2814SOL    HW220076   2.600   0.727   0.331  1.1253 -0.3685 -1.4214
 2815SOL     OW20077   3.863   1.559   8.310 -0.5224 -0.0702 -0.2669
 2815SOL    HW120078   3.936   1.525   8.362 -0.0173 -1.7096 -2.0725
 2815SOL    HW220079   3.873   1.506   8.231 -2.2519 -2.8276  1.3421
 2816SOL     OW20080   2.932   0.529   8.182 -0.3867 -0.0286  0.3221
 2816SOL    HW120081   2.984   0.450   8.193  0.1210  0.4801  1.5181
 2816SOL    HW220082   2.922   0.552   8.275 -1.4817  0.3440  0.1152
 2817SOL     OW20083   0.100   2.560   9.739  0.5078 -0.2897  0.1517
 2817SOL    HW120084   0.133   2.647   9.715  1.3284 -0.0862  1.9712
 2817SOL    HW220085   0.009   2.572   9.767  0.9558  1.4200  0.8817
 2818SOL     OW20086   3.746   0.296   7.970  0.2336 -0.5628  0.4531
 2818SOL    HW120087   3.757   0.222   7.909 -0.9787  0.5189 -1.0965
 2818SOL    HW220088   3.766   0.267   8.059  0.6002 -1.8110 -0.0324
 2819SOL     OW20089   2.090   2.561   5.067  0.3728  0.3569 -0.6193
 2819SOL    HW120090   2.052   2.475   5.050  1.5601 -0.0339 -1.3338
 2819SOL    HW220091   2.123   2.547   5.155 -1.2485  0.0128 -0.0677
 2820SOL     OW20092   1.850   3.458   5.503 -0.1281  0.5734  0.2013
 2820SOL    HW120093   1.924   3.411   5.541 -0.8433 -1.2190 -0.6018
 2820SOL    HW220094   1.894   3.533   5.463 -1.2612  1.5145  0.7163
 2821SOL     OW20095   3.764   3.946  12.572  0.1300 -0.1586 -0.8944
 2821SOL    HW120096   3.768   4.040  12.554  1.8159 -0.7810 -3.8855
 2821SOL    HW220097   3.844   3.912  12.532  1.9254  1.0611  1.6581
 2822SOL     OW20098   0.190   2.714   5.755 -0.5010 -0.1905  0.1226
 2822SOL    HW120099   0.125   2.752   5.697  0.3624  1.4574  0.2297
 2822SOL    HW220100   0.276   2.732   5.716  0.2222 -0.2703  1.6517
 2823SOL     OW20101   4.215   2.569   7.330  0.2566 -0.0853  0.2132
 2823SOL    HW120102   4.224   2.515   7.251 -0.1616 -0.5100  0.4523
 2823SOL    HW220103   4.136   2.619   7.310  0.2645  0.2576  1.0605
 2824SOL     OW20104   0.031   3.989   6.477  0.2412  0.0356 -0.4870
 2824SOL    HW120105   0.100   3.946   6.529  0.3241 -0.8118 -1.2987
 2824SOL    HW220106   0.031   3.932   6.400  2.9185 -0.1239 -0.3786
 2825SOL     OW20107   2.178   0.240   2.184  0.1282  0.6591 -0.1389
 2825SOL    HW120108   2.265   0.204   2.203  0.0877  0.8673  0.4316
 2825SOL    HW220109   2.191   0.251   2.089  1.5619  1.8087  0.1814
 2826SOL     OW20110   2.221   0.007  10.620 -0.6682 -0.0959  0.5785
 2826SOL    HW120111   2.227   0.084  10.676  0.0371 -0.6588  1.2743
 2826SOL    HW220112   2.304   4.701  10.641 -0.9476 -0.6668  0.5030
 2827SOL     OW20113   0.900   0.493   2.209 -0.3366  0.1307 -0.4716
 2827SOL    HW120114   0.845   0.571   2.202  0.8991  0.9379 -1.1390
 2827SOL    HW220115   0.867   0.442   2.283  0.6681  1.7803  1.1108
 2828SOL     OW20116   4.357   3.730  10.079 -0.2572  0.4851  0.3149
 2828SOL    HW120117   4.386   3.800  10.137  0.3074  0.7882 -0.3234
 2828SOL    HW220118   4.279   3.778  10.051 -0.8563 -0.1815  0.8566
 2829SOL     OW20119   1.129   0.368   2.021 -0.1509  0.1686 -0.0674
 2829SOL    HW120120   1.054   0.392   2.075 -1.0195 -2.3464 -0.1877
 2829SOL    HW220121   1.155   0.454   1.987  0.7826 -1.1410 -2.6684
 2830SOL     OW20122   4.263   2.412   7.118 -0.5189 -0.1626  0.0841
 2830SOL    HW120123   4.246   2.410   7.024  0.4827  1.7730 -0.1471
 2830SOL    HW220124   4.217   2.330   7.136  1.8110 -1.3866  0.4981
 2831SOL     OW20125   4.136   1.318  13.538 -0.0345  0.0995 -0.6319
 2831SOL    HW120126   4.119   1.410  13.556  1.7963  0.5363 -1.1983
 2831SOL    HW220127   4.231   1.328  13.538 -0.2211  1.7695 -1.5748
 2832SOL     OW20128   2.751   4.138   8.685 -0.2829 -0.4391 -0.1951
 2832SOL    HW120129   2.784   4.196   8.616  1.5048 -0.2625  0.8113
 2832SOL    HW220130   2.800   4.168   8.762 -3.3141 -0.9779  1.9789
 2833SOL     OW20131   4.033   0.871   4.016 -0.2446 -0.0501 -0.4065
 2833SOL    HW120132   4.058   0.845   3.927 -1.4704  0.5188 -0.9107
 2833SOL    HW220133   3.939   0.854   4.009 -0.5322  0.3294  2.3999
 2834SOL     OW20134   0.347   2.067   2.116 -0.2829  0.1607  0.0324
 2834SOL    HW120135   0.363   2.005   2.187 -0.0038  0.4367  0.2085
 2834SOL    HW220136   0.325   2.013   2.040  0.2205  2.7630 -1.9793
 2835SOL     OW20137   1.937   3.676   8.811  0.2891 -0.1363 -0.1637
 2835SOL    HW120138   1.900   3.646   8.894  2.7106  0.6036  1.1676
 2835SOL    HW220139   1.864   3.677   8.749 -0.7845 -1.2391  1.0689
 2836SOL     OW20140   0.811   0.179   9.375 -0.3397  0.0598  0.0593
 2836SOL    HW120141   0.834   0.248   9.436  1.7484  0.3990 -1.1100
 2836SOL    HW220142   0.734   0.141   9.418 -1.8609  0.6577 -2.1756
 2837SOL     OW20143   3.474   4.291  10.245  0.5198 -0.3827 -0.2927
 2837SOL    HW120144   3.440   4.213  10.288  2.4685 -0.3094  1.3478
 2837SOL    HW220145   3.566   4.287  10.270  1.3230 -4.3281 -3.7410
 2838SOL     OW20146   1.238   2.304   1.254  0.3098 -0.2602  0.3166
 2838SOL    HW120147   1.286   2.225   1.231 -2.0633 -2.3499  2.5817
 2838SOL    HW220148   1.268   2.362   1.184 -0.8389 -0.3428 -0.2515
 2839SOL     OW20149   0.386   1.153   2.193  0.0045  0.2678  0.3291
 2839SOL    HW120150   0.314   1.216   2.197 -0.0794  0.1048  1.6655
 2839SOL    HW220151   0.375   1.101   2.273  0.3896  0.5521  0.5670
 2840SOL     OW20152   0.153   2.267   0.648 -0.0941  0.0494 -0.0420
 2840SOL    HW120153   0.106   2.195   0.689  0.7088  0.6087  1.8220
 2840SOL    HW220154   0.152   2.249   0.554  3.7837  0.8112 -0.2068
 2841SOL     OW20155   4.476   0.155   6.971  0.2284 -0.1341  0.0410
 2841SOL    HW120156   4.413   0.213   7.013  0.2511 -1.4484  1.8813
 2841SOL    HW220157   4.465   0.192   6.883 -0.6776  1.7449  0.9486
 2842SOL     OW20158   1.045   0.299  13.071 -0.5673  1.0802  0.0469
 2842SOL    HW120159   1.055   0.373  13.131  2.1291  0.8727 -0.1308
 2842SOL    HW220160   1.048   0.216  13.119  1.4392  0.5740 -0.9568
 2843SOL     OW20161   3.524   2.160  12.787 -0.0278  0.0253 -0.1732
 2843SOL    HW120162   3.504   2.226  12.721 -2.3481 -1.1174 -0.6335
 2843SOL    HW220163   3.453   2.174  12.850  1.7025 -1.5965  2.1209
 2844SOL     OW20164   3.655   4.100   7.862 -0.2426  0.0030  0.3187
 2844SOL    HW120165   3.720   4.145   7.917  2.6725 -2.8962 -0.7552
 2844SOL    HW220166   3.705   4.032   7.816 -2.3760  0.1133 -2.2028
 2845SOL     OW20167   3.103   2.562   4.953 -0.3549  0.0626 -0.1222
 2845SOL    HW120168   3.110   2.656   4.937  1.9897 -0.1056 -0.0076
 2845SOL    HW220169   3.009   2.549   4.937 -0.1762 -1.6994  0.2275
 2846SOL     OW20170   3.595   0.417  16.229  0.2900 -0.2980  0.1455
 2846SOL    HW120171   3.673   0.361  16.227 -0.2459 -0.9967 -1.4784
 2846SOL    HW220172   3.530   0.356  16.193 -0.0698  2.3409 -3.7178
 2847SOL     OW20173   3.590   0.657   5.046 -0.6897 -0.2375 -0.3621
 2847SOL    HW120174   3.498   0.678   5.062 -0.4120  0.5344  0.2492
 2847SOL    HW220175   3.627   0.745   5.038 -2.0200  0.6256  2.8871
 2848SOL     OW20176   1.479   4.263   7.146 -0.3029 -0.7412  0.3035
 2848SOL    HW120177   1.405   4.317   7.174  0.1368  0.4142 -0.7571
 2848SOL    HW220178   1.549   4.326   7.129 -1.3995  0.5359  0.5250
 2849SOL     OW20179   1.954   0.920   0.457 -0.3598 -0.0089 -0.2503
 2849SOL    HW120180   1.871   0.959   0.430  0.9226  1.7535 -1.6500
 2849SOL    HW220181   1.959   0.905   0.551  0.3886 -0.3471 -0.3425
 2850SOL     OW20182   1.910   2.944   7.949 -0.2572 -0.1824 -0.1677
 2850SOL    HW120183   1.909   2.860   7.903  1.8051 -1.2877  1.7970
 2850SOL    HW220184   1.820   2.975   7.939 -0.4925 -0.9223 -0.3828
 2851SOL     OW20185   3.709   2.640   8.215  0.3577 -0.2674 -0.7631
 2851SOL    HW120186   3.701   2.567   8.277  4.2600  0.0024  0.0475
 2851SOL    HW220187   3.682   2.595   8.134 -1.6684  0.1625 -0.3281
 2852SOL     OW20188   4.393   2.800   4.544  0.1180 -0.1516 -0.0695
 2852SOL    HW120189   4.349   2.716   4.530  3.1591 -1.4106 -2.0888
 2852SOL    HW220190   4.311   2.843   4.567 -0.0283 -0.2821 -0.3487
 2853SOL     OW20191   0.063   3.791   6.317  0.3499 -0.9230  0.3075
 2853SOL    HW120192   0.130   3.775   6.384  1.0067  0.9090  0.0792
 2853SOL    HW220193   0.105   3.750   6.242  0.1772 -0.0382 -0.2687
 2854SOL     OW20194   4.522   4.079   5.424  0.0514 -0.5119 -0.1101
 2854SOL    HW120195   4.608   4.094   5.386 -0.1168 -1.5321 -0.9095
 2854SOL    HW220196   4.462   4.060   5.352  1.9031 -1.1599 -1.4744
 2855SOL     OW20197   1.393   1.657   8.450 -0.0265  0.0991  0.2249
 2855SOL    HW120198   1.441   1.739   8.448  1.5304 -0.8212  0.1957
 2855SOL    HW220199   1.330   1.664   8.378 -0.3459 -1.0583  0.3859
 2856SOL     OW20200   4.501   0.742   8.813  0.5537  0.3683 -0.0783
 2856SOL    HW120201   4.453   0.787   8.743 -1.9559 -3.1091 -0.5646
 2856SOL    HW220202   4.432   0.750   8.879  1.6662 -1.4339  1.2856
 2857SOL     OW20203   0.629   1.201   3.736  0.0053  0.4148  0.5101
 2857SOL    HW120204   0.549   1.230   3.779 -0.5329 -0.0244 -0.2088
 2857SOL    HW220205   0.674   1.283   3.713 -1.6765  0.9806 -0.7026
 2858SOL     OW20206   1.155   2.158   4.244  0.3108  0.1640 -0.4725
 2858SOL    HW120207   1.082   2.209   4.279  1.6344  1.8933 -0.1822
 2858SOL    HW220208   1.131   2.072   4.278  1.0403  1.1324  2.4998
 2859SOL     OW20209   0.167   1.157   8.383  0.4467 -0.1988  0.8171
 2859SOL    HW120210   0.228   1.095   8.343 -1.3217 -1.1212 -0.4304
 2859SOL    HW220211   0.218   1.207   8.447  0.0134  2.1337 -0.6937
 2860SOL     OW20212   0.750   2.955   7.966  0.4321  0.2446  0.0831
 2860SOL    HW120213   0.775   2.863   7.967 -1.8212 -0.3750 -0.6953
 2860SOL    HW220214   0.837   2.995   7.970  0.7429 -0.5932  2.0538
 2861SOL     OW20215   2.092   0.259  11.189 -0.1015  0.1831 -0.0367
 2861SOL    HW120216   2.139   0.308  11.257  1.8567  1.4721 -2.3162
 2861SOL    HW220217   2.060   0.184  11.239  1.1679  0.1777  0.7711
 2862SOL     OW20218   2.964   3.390   2.271  0.0507  0.3936 -0.5209
 2862SOL    HW120219   3.044   3.369   2.221  1.4382  2.9969  0.6287
 2862SOL    HW220220   2.970   3.307   2.318 -3.3930 -1.3714 -3.2146
 2863SOL     OW20221   1.255   0.809  16.598 -0.2136  0.1494  0.5253
 2863SOL    HW120222   1.216   0.780  16.681 -2.3506  0.6926 -0.2965
 2863SOL    HW220223   1.173   0.793  16.551  0.3616 -0.3260 -0.3197
 2864SOL     OW20224   1.504   3.104   8.773 -0.0779 -0.1711 -0.4507
 2864SOL    HW120225   1.539   3.084   8.686 -0.2926  0.1047 -0.6018
 2864SOL    HW220226   1.547   3.030   8.816  0.6204  0.7443  0.4296
 2865SOL     OW20227   0.124   1.745   3.092  0.0475  0.0612 -0.1894
 2865SOL    HW120228   0.188   1.814   3.072  2.4339 -2.0289  0.1427
 2865SOL    HW220229   0.053   1.776   3.036 -0.9851 -0.9821  0.5446
 2866SOL     OW20230   1.004   1.918  11.136 -0.2438  0.1256  0.4733
 2866SOL    HW120231   1.037   1.832  11.162  1.0490  0.4283 -0.1699
 2866SOL    HW220232   1.083   1.971  11.132 -0.3602  0.2981  0.4521
 2867SOL     OW20233   1.093   4.345  11.773 -0.2683  0.1241 -0.0721
 2867SOL    HW120234   1.091   4.341  11.869 -1.9335 -0.1714 -0.1327
 2867SOL    HW220235   1.014   4.297  11.750 -0.5164  0.2545  0.4875
 2868SOL     OW20236   4.240   2.826   8.303 -0.1591 -0.6243 -0.0646
 2868SOL    HW120237   4.304   2.896   8.294 -0.0494 -0.5824  1.0255
 2868SOL    HW220238   4.159   2.870   8.327  0.3196  1.2901 -1.9702
 2869SOL     OW20239   0.977   4.198   1.302  0.3904  0.2744 -0.2551
 2869SOL    HW120240   0.915   4.220   1.233 -0.1260 -0.1549  0.0770
 2869SOL    HW220241   0.931   4.213   1.384 -1.8249 -1.8203 -1.1360
 2870SOL     OW20242   2.077   0.721   1.655 -0.2566 -0.0592 -0.4955
 2870SOL    HW120243   2.094   0.668   1.733  2.4872  0.6061 -0.6644
 2870SOL    HW220244   2.071   0.659   1.582 -1.8370 -0.0086 -0.4160
 2871SOL     OW20245   3.103   3.108  17.521  0.0243  0.3033  0.5092
 2871SOL    HW120246   3.013   3.085  17.496 -0.1052  0.5326  0.7563
 2871SOL    HW220247   3.147   3.083  17.440 -0.6176  0.4759  0.0995
 2872SOL     OW20248   1.011   4.717   8.291  0.3741  0.6313 -0.1016
 2872SOL    HW120249   1.036   4.671   8.371  1.8780 -1.4550 -1.7712
 2872SOL    HW220250   1.059   0.062   8.300  0.3495  0.6160  0.1552
 2873SOL     OW20251   4.542   2.672   8.387 -0.5422  0.0137  0.6582
 2873SOL    HW120252   4.549   2.763   8.419 -0.1153 -0.1980  1.1662
 2873SOL    HW220253   4.455   2.655   8.421 -1.1348 -1.1781 -1.4753
 2874SOL     OW20254   4.384   0.555   4.525  0.4994  0.0024 -0.2179
 2874SOL    HW120255   4.399   0.461   4.525  0.9493  0.0762  0.9168
 2874SOL    HW220256   4.414   0.586   4.439  1.8760 -0.5835  0.0426
 2875SOL     OW20257   1.186   3.953   3.017  0.0485  0.2287 -0.5197
 2875SOL    HW120258   1.268   3.903   3.013  0.8040  1.4181  0.0464
 2875SOL    HW220259   1.142   3.899   3.083  0.0711  1.6281  0.6445
 2876SOL     OW20260   3.155   1.831   3.050 -0.5382  0.0589 -0.5154
 2876SOL    HW120261   3.146   1.919   3.014  1.6421 -0.4383 -2.2879
 2876SOL    HW220262   3.063   1.811   3.069 -0.4337 -0.2711 -0.3586
 2877SOL     OW20263   4.463   1.284  12.702 -0.1107 -0.0555  0.1512
 2877SOL    HW120264   4.436   1.211  12.646 -2.2999 -1.0049  2.4453
 2877SOL    HW220265   4.505   1.248  12.780  2.7214  0.6511 -1.0414
 2878SOL     OW20266   4.144   1.465   5.079 -0.5887  0.7350 -0.1221
 2878SOL    HW120267   4.171   1.435   5.166 -2.4444 -2.0940 -0.5433
 2878SOL    HW220268   4.053   1.491   5.098 -0.3388  1.3565  0.2362
 2879SOL     OW20269   1.312   0.884  11.037  0.0796  0.3155 -0.9510
 2879SOL    HW120270   1.360   0.953  11.084 -1.1338  0.3431  0.2908
 2879SOL    HW220271   1.311   0.822  11.110 -1.1411 -0.9019 -2.0074
 2880SOL     OW20272   1.951   3.563   8.508  0.6682  0.5260  0.5010
 2880SOL    HW120273   1.904   3.535   8.429  0.1431 -1.7216  1.6277
 2880SOL    HW220274   1.887   3.601   8.568  1.0650  1.3869  0.3840
 2881SOL     OW20275   3.403   1.902  12.405 -0.3896  0.5439  0.6148
 2881SOL    HW120276   3.425   1.878  12.315 -0.6764  1.0480  0.4129
 2881SOL    HW220277   3.385   1.812  12.432  0.3264  0.5126  0.9986
 2882SOL     OW20278   1.001   4.157   3.267 -0.2478 -0.3000  0.1574
 2882SOL    HW120279   0.958   4.072   3.253  2.0415 -1.5056  0.3779
 2882SOL    HW220280   1.050   4.158   3.185 -1.0060  0.7162 -0.2918
 2883SOL     OW20281   2.664   0.296  10.815  1.0777 -0.6994  0.3586
 2883SOL    HW120282   2.709   0.237  10.875  3.0090  1.8106  1.3729
 2883SOL    HW220283   2.634   0.373  10.864  3.0762  0.3031 -0.0129
 2884SOL     OW20284   1.403   1.196   4.731 -0.0103 -0.4933 -0.3736
 2884SOL    HW120285   1.328   1.140   4.749  0.2416 -0.5198  0.6011
 2884SOL    HW220286   1.364   1.283   4.742  0.6085 -0.5117  1.9507
 2885SOL     OW20287   0.630   2.763   1.835  0.4087 -0.3572  0.5724
 2885SOL    HW120288   0.670   2.772   1.749  0.6485  1.0243  0.8256
 2885SOL    HW220289   0.567   2.835   1.835  2.0386  1.0678  0.4678
 2886SOL     OW20290   2.499   2.157   6.905  0.1018 -0.3976 -0.3416
 2886SOL    HW120291   2.433   2.140   6.973 -1.0192  0.2921 -1.2719
 2886SOL    HW220292   2.505   2.253   6.903  0.3761 -0.4286 -0.9109
 2887SOL     OW20293   3.145   2.387   0.361  0.5153  0.3819  0.3819
 2887SOL    HW120294   3.132   2.408   0.269 -1.3715 -1.2957  0.2623
 2887SOL    HW220295   3.056   2.359   0.383  0.5150  0.9708  1.1277
 2888SOL     OW20296   3.752   2.933   9.281 -0.0279 -0.0392 -0.2075
 2888SOL    HW120297   3.774   2.844   9.255 -0.7864 -0.2815 -0.0236
 2888SOL    HW220298   3.675   2.909   9.333 -0.9743  0.0104 -1.5931
 2889SOL     OW20299   3.160   2.464  14.332  0.6137  0.2791 -0.4661
 2889SOL    HW120300   3.067   2.447  14.322  0.6938 -0.1482 -0.4692
 2889SOL    HW220301   3.168   2.441  14.425  1.5165 -1.3702 -0.9616
 2890SOL     OW20302   4.589   2.659  17.323 -0.1413  0.2670 -0.3161
 2890SOL    HW120303   4.655   2.725  17.345 -0.1807 -0.6873  2.6754
 2890SOL    HW220304   4.562   2.675  17.233 -0.6560  1.6699  0.0751
 2891SOL     OW20305   4.206   0.489   6.479  0.3398  0.0364 -0.2829
 2891SOL    HW120306   4.298   0.511   6.468  0.2988 -0.9577 -2.4602
 2891SOL    HW220307   4.168   0.573   6.507  0.0943 -0.6006  1.3064
 2892SOL     OW20308   4.185   0.623  10.195 -0.2975  0.2118 -0.3573
 2892SOL    HW120309   4.241   0.649  10.269 -1.4172  0.7536  0.2926
 2892SOL    HW220310   4.106   0.675  10.210  0.0387  1.3999 -2.6684
 2893SOL     OW20311   3.899   1.215   1.850  0.2647  0.0936 -0.0877
 2893SOL    HW120312   3.857   1.208   1.936 -0.0222 -0.4647 -0.2688
 2893SOL    HW220313   3.921   1.307   1.842 -1.5604  0.6873  1.8065
 2894SOL     OW20314   2.212   4.100   4.935 -0.4248 -0.1134  0.0218
 2894SOL    HW120315   2.124   4.064   4.936 -0.5706  0.2288 -0.6156
 2894SOL    HW220316   2.236   4.143   4.852 -1.7530  0.2780 -0.1501
 2895SOL     OW20317   4.084   2.214   6.754 -0.8164  0.0330  0.1515
 2895SOL    HW120318   4.108   2.121   6.753 -0.4128  0.1355  0.8459
 2895SOL    HW220319   4.026   2.204   6.678 -2.4366 -1.4992  1.5862
 2896SOL     OW20320   4.207   0.017   8.190 -0.0381  0.8604 -0.6473
 2896SOL    HW120321   4.196   4.663   8.213 -0.0627  0.7161 -1.2331
 2896SOL    HW220322   4.165   0.052   8.269 -1.0254  0.4446 -0.9946
 2897SOL     OW20323   0.357   3.619   7.269  0.3235  0.4191 -0.6663
 2897SOL    HW120324   0.387   3.536   7.305  1.5234  1.6690  1.2299
 2897SOL    HW220325   0.437   3.655   7.231 -0.0546  0.5583 -1.3403
 2898SOL     OW20326   1.993   0.341   1.535  0.0034 -0.1779  0.3464
 2898SOL    HW120327   1.953   0.409   1.590 -1.8475 -0.4554 -0.6454
 2898SOL    HW220328   2.045   0.394   1.476  0.5866  0.5249  1.4892
 2899SOL     OW20329   3.978   0.224   1.548 -0.4201 -0.1168 -0.1122
 2899SOL    HW120330   3.986   0.210   1.453 -1.4053  0.9267 -0.3532
 2899SOL    HW220331   4.068   0.233   1.578 -1.9647  1.3342  4.0998
 2900SOL     OW20332   1.776   4.163   7.626 -0.5634  0.1441  0.7644
 2900SOL    HW120333   1.706   4.172   7.562 -0.8233 -2.0293  0.7469
 2900SOL    HW220334   1.831   4.238   7.605  0.3887 -0.8258 -0.1947
 2901SOL     OW20335   0.691   1.428   1.010 -0.6150 -0.1230 -0.7175
 2901SOL    HW120336   0.677   1.519   1.036 -0.2838 -1.0470  2.6464
 2901SOL    HW220337   0.764   1.441   0.949  1.7305 -1.5765  1.7959
 2902SOL     OW20338   3.386   1.750   8.096  0.0481 -0.1226 -0.2380
 2902SOL    HW120339   3.360   1.830   8.141  0.3262  1.0901 -2.2565
 2902SOL    HW220340   3.468   1.770   8.050  0.3097 -0.6587 -0.0081
 2903SOL     OW20341   2.756   1.862   3.878  0.3432  0.9126 -0.1726
 2903SOL    HW120342   2.768   1.956   3.887  1.9306  0.5312  1.6804
 2903SOL    HW220343   2.813   1.846   3.803  1.4843 -1.5046  1.2178
 2904SOL     OW20344   3.777   2.032   7.099 -0.3596  0.3596 -0.2449
 2904SOL    HW120345   3.766   2.041   7.194  1.0511  2.3427 -0.2694
 2904SOL    HW220346   3.705   1.977   7.067 -0.6243  1.3221 -1.2717
 2905SOL     OW20347   0.596   4.646   7.629  0.4379 -0.5805  0.1197
 2905SOL    HW120348   0.642   4.582   7.574 -0.4345  0.4724 -1.8373
 2905SOL    HW220349   0.575   4.710   7.561 -0.5691 -0.1227  0.8653
 2906SOL     OW20350   4.228   3.393   4.409  0.2092 -0.2970 -0.3259
 2906SOL    HW120351   4.299   3.430   4.358 -0.2319 -1.1948 -1.6146
 2906SOL    HW220352   4.186   3.477   4.428  0.0772  0.3125 -3.3618
 2907SOL     OW20353   1.952   0.075   6.947 -0.5103 -0.3303  0.2343
 2907SOL    HW120354   2.032   0.127   6.959 -0.2264 -0.8845  0.7313
 2907SOL    HW220355   1.983   0.048   6.860  1.4753  0.0818  0.7979
 2908SOL     OW20356   1.487   1.620   7.252 -0.3474 -0.2482 -0.2681
 2908SOL    HW120357   1.490   1.639   7.158 -0.7644 -1.3962 -0.5160
 2908SOL    HW220358   1.442   1.535   7.250  0.5013 -0.7367  1.6650
 2909SOL     OW20359   3.595   2.782   7.515 -0.6463  0.8622  0.0114
 2909SOL    HW120360   3.582   2.862   7.463  0.8459 -0.6158 -2.6286
 2909SOL    HW220361   3.590   2.713   7.449  2.0020 -1.0624  1.8453
 2910SOL     OW20362   0.356   0.532   5.781 -0.3029  0.0727 -0.6827
 2910SOL    HW120363   0.365   0.493   5.868  1.8575  2.0063 -0.0477
 2910SOL    HW220364   0.320   0.618   5.803 -0.2100  0.9778 -4.0206
 2911SOL     OW20365   0.269   1.978   4.208  0.7403  0.1922  0.4916
 2911SOL    HW120366   0.334   1.960   4.275  1.4865 -0.2903 -0.3600
 2911SOL    HW220367   0.319   1.981   4.126  1.5591  1.9030  1.0519
 2912SOL     OW20368   3.169   4.222   7.033 -0.3414  0.3035  0.0054
 2912SOL    HW120369   3.077   4.246   7.044 -0.5909  0.1618 -1.7046
 2912SOL    HW220370   3.219   4.263   7.104 -0.8377  1.3954 -0.2712
 2913SOL     OW20371   0.726   1.123   1.175 -0.7037  0.3190  0.6173
 2913SOL    HW120372   0.806   1.132   1.229  0.5995  0.3946 -1.3342
 2913SOL    HW220373   0.756   1.163   1.094  0.4319  1.1550  1.4404
 2914SOL     OW20374   2.299   0.904   0.481  0.2823  0.5204 -0.3173
 2914SOL    HW120375   2.250   0.833   0.439  0.1146  0.0016  0.7595
 2914SOL    HW220376   2.376   0.889   0.425 -1.9876 -1.2256 -2.9536
 2915SOL     OW20377   3.060   2.525   1.035  0.0156  0.4619  0.3371
 2915SOL    HW120378   2.966   2.514   1.025  0.2686 -1.2668 -0.0996
 2915SOL    HW220379   3.076   2.619   1.038 -0.7558  0.5378  2.1366
 2916SOL     OW20380   0.303   2.297   6.001 -0.2286 -0.5228 -0.0011
 2916SOL    HW120381   0.361   2.221   6.003 -0.0378 -0.4082 -1.3905
 2916SOL    HW220382   0.233   2.272   6.062  0.3074  0.8517  1.1725
 2917SOL     OW20383   0.835   3.201  17.611 -0.0672 -0.0809  0.5639
 2917SOL    HW120384   0.854   3.108  17.599  1.3527  0.2762  0.1210
 2917SOL    HW220385   0.891   3.247  17.548 -0.5398  0.8673  0.8260
 2918SOL     OW20386   4.089   1.776   4.137 -0.6260 -0.2071  0.0344
 2918SOL    HW120387   4.033   1.699   4.148 -0.8970 -0.2099 -1.2729
 2918SOL    HW220388   4.149   1.758   4.064 -1.0358 -0.8393 -0.1535
 2919SOL     OW20389   4.382   2.474  17.349  0.0664  0.2747  0.1035
 2919SOL    HW120390   4.460   2.528  17.342  0.0075  0.5510  1.5908
 2919SOL    HW220391   4.391   2.414  17.274 -0.9309  0.6904 -0.3529
 2920SOL     OW20392   3.447   2.991   7.769  0.4988  0.2857  0.1433
 2920SOL    HW120393   3.456   3.063   7.832 -0.4943 -0.1017  0.7181
 2920SOL    HW220394   3.424   3.044   7.693 -0.1162  0.7399  0.6408
 2921SOL     OW20395   4.150   2.437  17.721  0.0867  0.5142 -0.2120
 2921SOL    HW120396   4.183   2.470   0.056  0.5032  0.6945 -0.4520
 2921SOL    HW220397   4.193   2.499  17.662 -1.5090  2.9329  1.1633
 2922SOL     OW20398   0.039   0.182  11.142 -0.1701 -0.0182  0.5010
 2922SOL    HW120399   0.045   0.102  11.195  0.2256 -1.2052 -1.3332
 2922SOL    HW220400   0.103   0.154  11.077  1.4085  0.1601  1.9611
 2923SOL     OW20401   2.691   1.839  17.476 -0.5164  0.2946  0.1114
 2923SOL    HW120402   2.710   1.752  17.512  1.5033  1.0320  0.8451
 2923SOL    HW220403   2.596   1.838  17.490  0.0671 -2.3777  3.7401
 2924SOL     OW20404   3.100   2.766   3.193 -0.4838 -0.2212  0.5586
 2924SOL    HW120405   3.013   2.790   3.226  0.1934  2.1826  0.6013
 2924SOL    HW220406   3.103   2.838   3.130 -1.0548 -1.9541 -1.4562
 2925SOL     OW20407   3.451   3.166   7.969 -0.2062  0.8093  0.3079
 2925SOL    HW120408   3.407   3.113   8.035 -1.0879  0.3742 -0.6277
 2925SOL    HW220409   3.544   3.160   7.991  0.1586  0.8944 -1.1924
 2926SOL     OW20410   0.196   1.505   7.885 -0.6004 -0.5111 -0.1849
 2926SOL    HW120411   0.229   1.455   7.960  1.2741 -0.7569 -1.1788
 2926SOL    HW220412   0.137   1.446   7.839 -0.6867 -0.0481 -0.6625
 2927SOL     OW20413   1.373   2.973   6.660  0.1288  0.1109 -0.1207
 2927SOL    HW120414   1.423   2.997   6.582 -2.3156 -0.3119 -1.8447
 2927SOL    HW220415   1.296   3.029   6.649 -0.6275 -0.8032  0.5677
 2928SOL     OW20416   1.531   2.515   1.205  0.2663 -0.1716  0.0246
 2928SOL    HW120417   1.549   2.455   1.277 -0.1708 -2.5548 -1.8556
 2928SOL    HW220418   1.510   2.594   1.255  0.6727  0.0300 -0.1204
 2929SOL     OW20419   0.991   1.388  16.401 -0.4458 -0.5469  0.3728
 2929SOL    HW120420   1.001   1.294  16.387 -0.1614 -0.4230 -0.2606
 2929SOL    HW220421   0.910   1.409  16.354 -0.6828  2.2242  1.9924
 2930SOL     OW20422   2.380   1.012   3.132 -0.2211  0.0102 -0.3113
 2930SOL    HW120423   2.349   1.023   3.222  0.7412 -0.7985  0.1115
 2930SOL    HW220424   2.306   1.015   3.071 -0.4685  0.4462  0.0088
 2931SOL     OW20425   3.040   3.233   1.593 -0.8203 -0.9327 -0.0868
 2931SOL    HW120426   2.994   3.317   1.601  0.6504 -0.2170  0.8331
 2931SOL    HW220427   3.071   3.234   1.683  0.3930 -0.7633 -0.4991
 2932SOL     OW20428   3.987   1.465   6.782  0.2268  0.0889 -0.6412
 2932SOL    HW120429   3.998   1.388   6.837 -0.1638 -1.7419 -3.1419
 2932SOL    HW220430   3.897   1.450   6.752 -0.4581  0.0134  1.4754
 2933SOL     OW20431   3.236   1.142   8.413  0.1834 -0.4092  0.4925
 2933SOL    HW120432   3.251   1.236   8.419  1.2607 -0.5787  0.5259
 2933SOL    HW220433   3.146   1.142   8.443 -0.2807 -1.2697 -0.8821
 2934SOL     OW20434   3.044   0.941   6.267 -0.1033 -0.6582 -0.1362
 2934SOL    HW120435   3.092   0.949   6.185 -1.6253  0.8980 -0.8741
 2934SOL    HW220436   2.970   0.899   6.224 -0.8105 -0.5882  1.0004
 2935SOL     OW20437   3.222   4.588   7.248 -0.1567 -0.7057 -0.1783
 2935SOL    HW120438   3.183   4.626   7.327  2.3625  0.2598  0.5927
 2935SOL    HW220439   3.251   4.501   7.278 -1.1726 -0.1394  2.3813
 2936SOL     OW20440   2.109   1.019   3.023 -0.2648 -0.0984  0.5803
 2936SOL    HW120441   2.026   0.980   2.995  0.7658 -1.4191 -0.6229
 2936SOL    HW220442   2.083   1.110   3.008  1.8613  0.4824  0.3897
 2937SOL     OW20443   3.136   0.660   1.176 -0.5496  0.1917 -0.1915
 2937SOL    HW120444   3.226   0.675   1.147 -0.7037  0.9007 -0.2985
 2937SOL    HW220445   3.154   0.622   1.263 -2.0279  1.3247  0.6000
 2938SOL     OW20446   0.463   2.089   6.053 -0.2925 -0.3271 -0.5533
 2938SOL    HW120447   0.525   2.115   6.121  0.6636  0.3147 -1.6697
 2938SOL    HW220448   0.515   2.104   5.975 -1.6597  0.5407 -1.2876
 2939SOL     OW20449   1.419   2.772   1.267 -0.4566  0.1934  0.4986
 2939SOL    HW120450   1.365   2.817   1.202  0.0015 -0.2427 -0.1750
 2939SOL    HW220451   1.497   2.825   1.250 -0.7740  0.6679  0.5113
 2940SOL     OW20452   2.721   3.221   7.957 -0.2507  0.0770  0.0498
 2940SOL    HW120453   2.812   3.243   7.935 -1.0775 -0.6143 -3.9606
 2940SOL    HW220454   2.689   3.171   7.882  0.5993 -0.8913  0.3362
 2941SOL     OW20455   3.100   2.207   4.047 -0.2661  0.3153 -0.1265
 2941SOL    HW120456   3.098   2.131   3.988 -3.1695  1.2242 -1.1698
 2941SOL    HW220457   3.112   2.285   3.993  0.6635  0.3569  0.1349
 2942SOL     OW20458   1.226   3.578   6.322 -0.1309 -0.5362  0.2840
 2942SOL    HW120459   1.175   3.619   6.392  1.9806  0.9214  0.9364
 2942SOL    HW220460   1.271   3.645   6.271 -0.2816 -0.6524  0.0004
 2943SOL     OW20461   4.083   4.096  11.399  0.8239 -0.2219 -0.3353
 2943SOL    HW120462   4.055   4.141  11.319 -1.8454  0.9320  1.2343
 2943SOL    HW220463   4.154   4.045  11.360 -1.1963 -0.7173 -3.4428
 2944SOL     OW20464   4.514   1.742  11.744  0.8432  0.1032 -0.4796
 2944SOL    HW120465   4.570   1.666  11.759  0.4751 -0.0627  0.0728
 2944SOL    HW220466   4.529   1.740  11.650 -1.0161 -2.1107 -0.7425
 2945SOL     OW20467   1.197   0.686  10.846  0.8160  0.0184 -0.2288
 2945SOL    HW120468   1.152   0.769  10.830  2.2742  0.7141 -0.6662
 2945SOL    HW220469   1.268   0.706  10.907  1.3780 -0.4095 -0.7500
 2946SOL     OW20470   0.776   0.648   9.827 -0.4656 -0.1280  0.3953
 2946SOL    HW120471   0.849   0.661   9.888 -0.3421 -0.5563  0.3351
 2946SOL    HW220472   0.828   0.612   9.755 -0.6358  2.0612 -0.8458
 2947SOL     OW20473   2.867   1.206   8.413  0.2189 -0.3971  0.2990
 2947SOL    HW120474   2.880   1.125   8.462  0.5909 -0.2643  0.4180
 2947SOL    HW220475   2.919   1.275   8.455  0.7156 -0.6058  0.0215
 2948SOL     OW20476   0.366   4.620  15.434  0.1758 -1.0134  0.4151
 2948SOL    HW120477   0.321   4.538  15.417  0.2268 -1.1352  0.8666
 2948SOL    HW220478   0.313   4.650  15.508 -2.1097  0.1429 -1.7103
 2949SOL     OW20479   3.353   0.280  16.307  0.3819 -0.1676  0.2951
 2949SOL    HW120480   3.277   0.329  16.276  2.3466  2.7452  0.1554
 2949SOL    HW220481   3.349   0.203  16.250 -0.1193  1.0512 -1.3228
 2950SOL     OW20482   3.546   0.818   4.194  0.0230 -0.6148  0.1316
 2950SOL    HW120483   3.592   0.895   4.160 -1.8989 -0.1020 -1.3556
 2950SOL    HW220484   3.538   0.837   4.288  0.5667 -0.5404  0.1619
 2951SOL     OW20485   4.725   3.073   3.413  0.6235  0.1515  0.3147
 2951SOL    HW120486   0.011   3.165   3.427  2.6310 -0.4449  0.8782
 2951SOL    HW220487   0.012   3.040   3.500 -1.4761 -1.2893  0.3547
 2952SOL     OW20488   0.279   1.854   1.928 -0.2565  0.3127  0.2329
 2952SOL    HW120489   0.344   1.793   1.892  0.6508  1.4269 -0.0559
 2952SOL    HW220490   0.239   1.790   1.986  0.5859 -0.7156 -0.3368
 2953SOL     OW20491   0.602   3.518   5.684 -0.0084 -0.0367 -0.0312
 2953SOL    HW120492   0.633   3.606   5.706  0.7212  0.2355 -2.0969
 2953SOL    HW220493   0.542   3.493   5.754  1.5119 -1.0644  0.9124
 2954SOL     OW20494   2.897   1.255   8.011  0.0820 -0.0488 -0.3125
 2954SOL    HW120495   2.826   1.223   7.956 -1.5252  0.0170  1.7236
 2954SOL    HW220496   2.894   1.179   8.070  1.5378  0.4409  0.3897
 2955SOL     OW20497   1.354   3.234   2.699 -0.4091 -0.4079  0.3511
 2955SOL    HW120498   1.381   3.311   2.649 -1.7628 -0.8416 -1.0651
 2955SOL    HW220499   1.421   3.237   2.767 -1.0077  2.0606  0.8373
 2956SOL     OW20500   2.506   1.799  12.003 -0.0514 -0.2893  0.0356
 2956SOL    HW120501   2.486   1.714  12.041  0.9521 -0.4704  0.1468
 2956SOL    HW220502   2.423   1.818  11.960 -1.0891  1.0682  2.6423
 2957SOL     OW20503   2.286   3.681   6.104  0.0952  0.0356  0.2257
 2957SOL    HW120504   2.203   3.647   6.071  0.8672 -0.9885 -0.6476
 2957SOL    HW220505   2.308   3.738   6.030 -0.2630  0.6747  0.6114
 2958SOL     OW20506   2.419   0.763   3.058 -0.8710  0.3316  0.5932
 2958SOL    HW120507   2.388   0.734   3.144 -0.3495 -0.0088  0.6665
 2958SOL    HW220508   2.394   0.855   3.063  0.9495  0.8730 -0.3655
 2959SOL     OW20509   1.042   0.198   3.441 -0.4840 -0.5547  0.0402
 2959SOL    HW120510   1.014   0.126   3.497 -0.2277 -2.9160 -2.8595
 2959SOL    HW220511   0.975   0.189   3.374 -1.4231  1.4258  0.7026
 2960SOL     OW20512   4.289   0.661  14.762  0.3050 -0.1956 -0.2878
 2960SOL    HW120513   4.315   0.657  14.854  0.8575  1.8686 -0.3401
 2960SOL    HW220514   4.222   0.593  14.762 -1.1199  1.1423  3.1173
 2961SOL     OW20515   3.159   4.373   5.861  0.2664 -0.1011  0.3398
 2961SOL    HW120516   3.164   4.378   5.766 -0.4623 -0.6818  0.2707
 2961SOL    HW220517   3.251   4.367   5.887 -0.0954  0.7109  1.8385
 2962SOL     OW20518   2.991   0.887   2.619 -0.1559  0.3110  0.6754
 2962SOL    HW120519   2.941   0.968   2.619 -0.2372  0.2557 -0.8044
 2962SOL    HW220520   2.958   0.840   2.696  0.0549 -0.1418  0.4935
 2963SOL     OW20521   3.573   0.875   4.466 -0.2507  0.4128  0.2961
 2963SOL    HW120522   3.557   0.969   4.468 -2.9478  0.0045 -2.3044
 2963SOL    HW220523   3.657   0.858   4.508  0.0233  0.4072 -0.2522
 2964SOL     OW20524   2.765   0.035   8.223  0.8670  0.1877 -0.8219
 2964SOL    HW120525   2.758   0.127   8.247  0.3554 -0.5020  1.7248
 2964SOL    HW220526   2.687   0.022   8.169  0.8029  2.5496 -1.2898
 2965SOL     OW20527   4.471   0.578   6.469 -0.7302 -0.3019 -0.0473
 2965SOL    HW120528   4.535   0.531   6.416 -0.9893 -0.9619  0.2186
 2965SOL    HW220529   4.534   0.635   6.515  1.1177 -4.0347  2.1109
 2966SOL     OW20530   4.292   1.932   3.071 -0.2301 -0.4625 -0.4584
 2966SOL    HW120531   4.379   1.970   3.059 -0.4012  0.6801  2.0087
 2966SOL    HW220532   4.257   1.993   3.136  0.0765  0.7881 -1.4686
 2967SOL     OW20533   2.246   2.418   4.795  0.5316  0.1192  0.3616
 2967SOL    HW120534   2.197   2.499   4.803 -1.7041 -0.7672 -4.5200
 2967SOL    HW220535   2.269   2.420   4.702 -1.9841 -0.0246 -0.2649
 2968SOL     OW20536   1.974   4.336   5.966 -0.2802 -0.3058  0.2080
 2968SOL    HW120537   1.894   4.366   5.923  0.6349  1.9266  0.0501
 2968SOL    HW220538   2.034   4.315   5.895  0.8983  2.6141  0.3205
 2969SOL     OW20539   2.092   0.234   4.931  0.3327  0.5915  0.6610
 2969SOL    HW120540   2.116   0.304   4.870 -2.3320  0.6813 -0.2754
 2969SOL    HW220541   2.170   0.238   4.987  1.0221  0.2148 -0.2734
 2970SOL     OW20542   0.293   3.204   4.225  0.0786  0.5735  0.2376
 2970SOL    HW120543   0.267   3.203   4.317  1.5540 -0.9647  0.6460
 2970SOL    HW220544   0.211   3.183   4.180 -0.7951  3.0900  0.6712
 2971SOL     OW20545   0.512   2.823   5.346  0.0012 -0.4827 -0.4644
 2971SOL    HW120546   0.524   2.881   5.421 -3.4010 -1.8982  1.1707
 2971SOL    HW220547   0.603   2.797   5.329 -0.3386 -1.1359 -1.2812
 2972SOL     OW20548   3.902   1.308   4.120  0.4611 -0.0199 -0.1834
 2972SOL    HW120549   3.994   1.306   4.094  0.6276  0.6780  0.3645
 2972SOL    HW220550   3.900   1.254   4.199  0.5891  0.1325 -0.0758
 2973SOL     OW20551   4.732   0.922  11.502  0.3462  0.2937 -0.3968
 2973SOL    HW120552   0.067   0.963  11.549 -0.3154  1.3317 -0.2591
 2973SOL    HW220553   4.695   1.001  11.462 -2.7091 -1.7306 -1.5452
 2974SOL     OW20554   0.419   1.755   6.981 -0.1401 -0.0813 -0.9164
 2974SOL    HW120555   0.373   1.780   6.900  1.1232  1.3496 -1.2032
 2974SOL    HW220556   0.368   1.804   7.046  1.9334  1.9679 -0.8200
 2975SOL     OW20557   2.726   0.971   7.044  0.2414 -0.1617  0.0603
 2975SOL    HW120558   2.662   0.926   6.989 -0.8819  0.1315  1.1321
 2975SOL    HW220559   2.681   1.054   7.061  0.7827  0.3363 -0.9570
 2976SOL     OW20560   4.566   4.569   9.985  0.5256 -0.0234 -0.6755
 2976SOL    HW120561   4.647   4.576   9.935 -1.4351  0.1602 -3.8489
 2976SOL    HW220562   4.513   4.638   9.944  0.4565  0.0093 -0.5321
 2977SOL     OW20563   2.540   1.627  11.016  0.3177  0.1049  0.3947
 2977SOL    HW120564   2.572   1.537  11.007  1.9743  0.6412  0.9902
 2977SOL    HW220565   2.477   1.642  10.946 -2.2183 -0.7848  2.4941
 2978SOL     OW20566   1.480   3.543   2.330 -0.3304 -0.6239  0.0204
 2978SOL    HW120567   1.500   3.611   2.393  0.8069  0.2380 -1.2598
 2978SOL    HW220568   1.439   3.591   2.258  0.0340  1.3570  1.1555
 2979SOL     OW20569   2.492   1.684   4.663 -0.3441 -0.1435 -0.2106
 2979SOL    HW120570   2.562   1.646   4.716  0.4504 -4.0633 -4.0315
 2979SOL    HW220571   2.485   1.631   4.583  0.5001 -0.1000 -0.3110
 2980SOL     OW20572   4.275   2.371   2.424 -0.5554  0.2184  0.1977
 2980SOL    HW120573   4.271   2.310   2.350  3.2079 -1.2341  1.2181
 2980SOL    HW220574   4.189   2.367   2.466 -0.6542 -3.1526 -0.3527
 2981SOL     OW20575   0.632   1.931  15.443 -0.1588  0.1045  0.0644
 2981SOL    HW120576   0.618   1.844  15.404 -2.1631  2.2025 -3.8120
 2981SOL    HW220577   0.695   1.905  15.511 -0.1924 -0.4141 -0.1029
 2982SOL     OW20578   4.460   3.707   2.880  0.1419 -0.3335 -0.2982
 2982SOL    HW120579   4.419   3.690   2.795 -0.1788  2.4909 -0.7112
 2982SOL    HW220580   4.396   3.675   2.944 -0.7810 -1.1380 -1.6138
 2983SOL     OW20581   4.178   2.252  11.385  0.0840  0.0063 -0.4894
 2983SOL    HW120582   4.249   2.230  11.447  0.2915 -2.1370 -1.5035
 2983SOL    HW220583   4.236   2.266  11.310 -0.3523  2.1054 -0.4227
 2984SOL     OW20584   2.244   0.654   7.343 -0.3311 -0.3917  0.0452
 2984SOL    HW120585   2.184   0.712   7.389  1.7000  1.2918  0.5872
 2984SOL    HW220586   2.243   0.579   7.401 -2.0100  1.4085  2.2983
 2985SOL     OW20587   3.008   1.666  16.913  0.7361 -0.0997 -0.9979
 2985SOL    HW120588   2.944   1.596  16.898 -0.1287  0.6766 -0.9628
 2985SOL    HW220589   2.999   1.708  16.827  0.8878 -1.2422 -1.5720
 2986SOL     OW20590   2.982   0.433   6.986  0.4133  0.2310 -0.3030
 2986SOL    HW120591   2.957   0.408   7.074 -0.0472 -1.2417 -0.8656
 2986SOL    HW220592   2.939   0.519   6.983  0.2700  0.0977 -2.2660
 2987SOL     OW20593   2.247   1.704   3.400  0.3244  0.6585 -0.1246
 2987SOL    HW120594   2.190   1.720   3.474  1.0905 -1.3907  0.9072
 2987SOL    HW220595   2.214   1.619   3.371 -1.6155  1.1439  0.7300
 2988SOL     OW20596   4.713   0.526  17.305 -0.5006 -0.6812  0.4089
 2988SOL    HW120597   0.062   0.491  17.287  0.2786  1.8212 -0.7473
 2988SOL    HW220598   4.711   0.504  17.398  0.7799 -0.4483  0.4806
 2989SOL     OW20599   0.266   1.956   3.279  0.4009 -0.3239 -0.1578
 2989SOL    HW120600   0.261   2.023   3.347 -0.3002  0.9023 -1.4198
 2989SOL    HW220601   0.327   1.992   3.215  0.2676  0.8156  0.3479
 2990SOL     OW20602   4.649   0.830   2.593 -0.1907 -0.4014 -0.2045
 2990SOL    HW120603   4.576   0.829   2.531 -0.1973 -0.0613 -0.2006
 2990SOL    HW220604   4.646   0.740   2.625 -1.6685 -0.3256 -0.1441
 2991SOL     OW20605   1.350   2.042   9.268  0.1210 -0.1763 -0.0935
 2991SOL    HW120606   1.384   1.953   9.271  0.0642 -0.2155 -0.5204
 2991SOL    HW220607   1.343   2.069   9.176 -1.8758  0.9793  0.3890
 2992SOL     OW20608   0.050   2.287   2.006  0.2153  0.2842  0.7665
 2992SOL    HW120609   0.051   2.257   2.097  1.2598  1.4478  1.1299
 2992SOL    HW220610   0.051   2.203   1.959 -0.6846  0.1567  0.9739
 2993SOL     OW20611   3.247   0.935  10.811  0.7025 -0.0329  0.3917
 2993SOL    HW120612   3.299   0.928  10.891  1.0727 -1.2577  0.0365
 2993SOL    HW220613   3.294   0.992  10.750 -1.6300  0.2676 -1.1394
 2994SOL     OW20614   3.296   3.045   2.884 -0.0294 -0.2459  0.0573
 2994SOL    HW120615   3.325   3.112   2.822 -0.3489  0.6052  0.8191
 2994SOL    HW220616   3.374   3.007   2.922  1.0340 -0.2034 -2.0599
 2995SOL     OW20617   3.755   0.522   3.401 -0.5575 -0.3620 -0.1273
 2995SOL    HW120618   3.744   0.545   3.493  0.3581 -0.6664  0.0608
 2995SOL    HW220619   3.801   0.438   3.406 -2.8688 -1.5760  0.4877
 2996SOL     OW20620   1.251   0.263  13.862  0.4666  0.2530  0.0427
 2996SOL    HW120621   1.233   0.304  13.777  1.0019 -1.9541 -1.1702
 2996SOL    HW220622   1.180   0.295  13.916  1.2955 -0.6081  1.6261
 2997SOL     OW20623   2.963   0.000   0.034 -0.1800 -0.1604 -0.3282
 2997SOL    HW120624   2.887   0.007  17.725 -0.1158  0.8862 -0.2823
 2997SOL    HW220625   2.952   4.673   0.103  3.3290  0.1713  0.5248
 2998SOL     OW20626   1.053   3.058   0.794 -0.0695  0.0700  0.2780
 2998SOL    HW120627   1.061   3.149   0.823  0.2508 -0.5004  1.9441
 2998SOL    HW220628   1.100   3.018   0.867 -1.8534 -0.0409  1.3776
 2999SOL     OW20629   3.527   4.514  14.333  0.5839  0.5555 -0.1808
 2999SOL    HW120630   3.453   4.457  14.353  1.0791  0.7322  2.1937
 2999SOL    HW220631   3.573   4.508  14.417 -0.4421 -0.8282  0.2871
 3000SOL     OW20632   2.220   0.239   8.496 -0.5982 -0.3778  0.3409
 3000SOL    HW120633   2.208   0.258   8.403 -0.7164  1.0366  0.6526
 3000SOL    HW220634   2.173   0.312   8.534 -0.7506 -2.0160  3.2904
 3001SOL     OW20635   1.555   2.170  11.337 -0.0204  0.1841  0.5083
 3001SOL    HW120636   1.528   2.239  11.397  2.7075 -1.5798  3.7564
 3001SOL    HW220637   1.550   2.211  11.250 -2.3421  0.2691  0.6662
 3002SOL     OW20638   1.969   0.530   4.292 -0.2521 -0.5803 -0.0671
 3002SOL    HW120639   2.030   0.505   4.362 -0.0437 -2.4801 -0.9266
 3002SOL    HW220640   1.957   0.624   4.310  1.5222 -0.3696  0.0532
 3003SOL     OW20641   2.007   3.157   6.732  0.1462 -0.4509 -0.5354
 3003SOL    HW120642   2.069   3.139   6.803  1.3480  1.8359 -1.0080
 3003SOL    HW220643   2.044   3.241   6.704  1.0641 -0.6447  0.0785
 3004SOL     OW20644   1.213   3.090   9.698  0.6410  0.0051  0.1077
 3004SOL    HW120645   1.209   3.183   9.675 -1.0498 -0.1145 -0.0888
 3004SOL    HW220646   1.291   3.093   9.753  1.1682 -1.0721 -0.5652
 3005SOL     OW20647   1.661   4.140   9.253 -0.5482 -0.4164  0.3430
 3005SOL    HW120648   1.618   4.072   9.200 -2.0145  0.7502  0.0671
 3005SOL    HW220649   1.584   4.163   9.305 -0.8499 -1.6726  0.4718
 3006SOL     OW20650   1.552   4.097   5.303  0.0538 -0.1952  0.1919
 3006SOL    HW120651   1.570   4.126   5.392  0.0075  0.6796 -0.0812
 3006SOL    HW220652   1.495   4.167   5.271  1.8855  1.3368  0.3152
 3007SOL     OW20653   4.208   0.869   7.398  0.2226 -0.6044 -0.4044
 3007SOL    HW120654   4.199   0.802   7.330  1.3529  0.0230 -1.1683
 3007SOL    HW220655   4.128   0.859   7.450  1.1612 -2.4148  0.6637
 3008SOL     OW20656   3.887   1.987   5.891 -0.3033 -0.9478 -0.5956
 3008SOL    HW120657   3.905   1.905   5.846 -0.9454 -1.9507  0.9561
 3008SOL    HW220658   3.797   1.972   5.919 -1.0874  1.0532 -2.0581
 3009SOL     OW20659   2.208   0.830  16.571  0.2365 -0.3057  0.2406
 3009SOL    HW120660   2.119   0.852  16.541 -0.5657 -3.0141  0.6397
 3009SOL    HW220661   2.186   0.758  16.630 -2.7732 -1.1503 -1.9165
 3010SOL     OW20662   1.199   0.436   4.716  0.3653  0.2928  0.1910
 3010SOL    HW120663   1.268   0.494   4.748  0.4461  0.5620 -0.4812
 3010SOL    HW220664   1.244   0.351   4.706  0.0206  0.1268  0.0592
 3011SOL     OW20665   3.033   1.790   3.394 -0.1771  0.2015  0.2343
 3011SOL    HW120666   3.040   1.722   3.327  1.2397 -0.4399  1.0430
 3011SOL    HW220667   3.110   1.842   3.373 -0.4273  1.0478  1.3880
 3012SOL     OW20668   4.033   3.121   7.879  0.0545  0.5680 -0.5160
 3012SOL    HW120669   4.021   3.072   7.960  0.9129 -0.5235 -1.0430
 3012SOL    HW220670   4.116   3.169   7.886  0.3866  0.1503 -1.5656
 3013SOL     OW20671   4.714   4.289   8.373 -0.1406 -0.3250  0.1723
 3013SOL    HW120672   0.018   4.373   8.353  3.1040 -1.9366  0.1210
 3013SOL    HW220673   4.685   4.300   8.463  0.7782 -0.0877  0.4394
 3014SOL     OW20674   1.884   2.334   4.885 -0.4454 -0.8637  0.2526
 3014SOL    HW120675   1.860   2.408   4.830  3.2864 -1.7110 -2.5267
 3014SOL    HW220676   1.925   2.275   4.821 -0.1221  0.4886 -0.7789
 3015SOL     OW20677   1.953   1.676   7.619  0.4076  0.1973 -0.2568
 3015SOL    HW120678   1.953   1.602   7.558  0.1698  1.3372 -1.6147
 3015SOL    HW220679   2.014   1.732   7.573 -0.3186 -1.3242 -3.0610
 3016SOL     OW20680   1.152   4.445   3.635 -0.1711  0.6478 -0.2188
 3016SOL    HW120681   1.167   4.411   3.723 -1.2802 -1.0585 -0.6897
 3016SOL    HW220682   1.177   4.537   3.639  1.1707  0.3762 -1.9447
 3017SOL     OW20683   2.536   1.944   0.471 -0.2923 -0.0462  0.0868
 3017SOL    HW120684   2.615   1.918   0.518 -0.3946  1.7500  1.2789
 3017SOL    HW220685   2.525   2.027   0.517  1.9547 -0.3799  1.2102
 3018SOL     OW20686   3.425   2.696  15.848  0.1625 -0.1843  0.0808
 3018SOL    HW120687   3.368   2.659  15.781  0.3963 -0.2731 -0.0672
 3018SOL    HW220688   3.496   2.640  15.816  0.3693  0.1843 -0.0990
 3019SOL     OW20689   1.627   1.650  15.218 -0.2290  0.0982 -0.4424
 3019SOL    HW120690   1.550   1.650  15.273 -0.7845  0.2684 -1.2189
 3019SOL    HW220691   1.600   1.639  15.126  1.1989 -1.7951 -0.6443
 3020SOL     OW20692   0.458   1.379   2.044  0.1621  0.2505 -0.5140
 3020SOL    HW120693   0.392   1.350   1.981 -1.9233  1.8107  0.9498
 3020SOL    HW220694   0.459   1.297   2.094 -0.9290 -0.1514 -1.1565
 3021SOL     OW20695   3.157   2.191   4.679  0.2220 -0.0563 -0.2591
 3021SOL    HW120696   3.203   2.269   4.649 -0.4152  1.1103  1.8121
 3021SOL    HW220697   3.149   2.203   4.774 -0.0015 -0.8208 -0.1774
 3022SOL     OW20698   2.931   2.164   6.828 -0.6803  0.0041 -0.2273
 3022SOL    HW120699   3.024   2.151   6.813 -0.8525 -0.5417 -0.8239
 3022SOL    HW220700   2.912   2.238   6.770 -0.7358  0.0072 -0.2056
 3023SOL     OW20701   3.111   2.430   3.458 -0.4789 -0.3224 -0.2720
 3023SOL    HW120702   3.205   2.442   3.470 -0.4689 -0.9803  0.3214
 3023SOL    HW220703   3.068   2.500   3.508 -0.9275 -1.1489  0.5070
 3024SOL     OW20704   4.714   1.509   3.001  0.3320 -0.3886 -0.1344
 3024SOL    HW120705   0.035   1.504   2.926  0.2934  0.3329 -0.2087
 3024SOL    HW220706   0.000   1.588   3.049 -0.3074  0.3390 -1.0161
 3025SOL     OW20707   0.463   1.056  17.460 -0.6534 -0.2422 -0.2856
 3025SOL    HW120708   0.493   1.093  17.377  1.3269 -0.4536  0.3430
 3025SOL    HW220709   0.369   1.064  17.441 -0.9569  1.2516  1.8491
 3026SOL     OW20710   3.766   1.437   1.486 -0.5489  0.5032 -0.0256
 3026SOL    HW120711   3.693   1.483   1.526 -1.6342  1.3605 -3.0148
 3026SOL    HW220712   3.740   1.438   1.394 -0.2217 -1.0906 -0.1309
 3027SOL     OW20713   4.180   3.059   1.603  0.2743 -0.3109 -0.0068
 3027SOL    HW120714   4.198   2.976   1.647 -0.3140 -0.1306  0.5691
 3027SOL    HW220715   4.253   3.056   1.541 -0.0240  0.4108 -0.3854
 3028SOL     OW20716   1.942   4.066   6.378 -0.7155  0.1056  0.4373
 3028SOL    HW120717   2.020   4.072   6.323 -0.7718  0.9936  0.4587
 3028SOL    HW220718   1.879   4.032   6.314 -0.1486  1.9244 -1.0906
 3029SOL     OW20719   0.667   1.788  16.445  0.2746 -0.2601  0.0875
 3029SOL    HW120720   0.720   1.866  16.428  0.7267 -0.5735  0.0450
 3029SOL    HW220721   0.653   1.749  16.359 -2.4391  0.0348  0.4026
 3030SOL     OW20722   0.827   0.848   3.354  0.3164  0.0747  0.1321
 3030SOL    HW120723   0.854   0.933   3.389 -0.1788  0.5374 -0.6089
 3030SOL    HW220724   0.883   0.832   3.278 -1.3424 -2.7611 -0.5155
 3031SOL     OW20725   4.293   2.187   5.631 -0.4139  0.1366 -0.3322
 3031SOL    HW120726   4.270   2.109   5.581  1.8230 -1.1332  0.6196
 3031SOL    HW220727   4.251   2.162   5.713  1.6473 -0.3184  0.5829
 3032SOL     OW20728   4.488   1.782   6.675  0.1804  0.4524  0.3494
 3032SOL    HW120729   4.468   1.748   6.763  0.6706 -1.0701 -0.1243
 3032SOL    HW220730   4.400   1.802   6.645 -0.3080 -0.8770  0.8860
 3033SOL     OW20731   0.321   3.401  10.457  0.7346 -0.7457 -0.0134
 3033SOL    HW120732   0.270   3.340  10.509 -0.8238  1.7649  1.3722
 3033SOL    HW220733   0.286   3.484  10.486 -2.2569 -2.1711  0.4125
 3034SOL     OW20734   2.007   1.336   1.434 -0.2519  0.3882 -0.4445
 3034SOL    HW120735   1.991   1.336   1.528 -0.4943 -1.7932 -0.4849
 3034SOL    HW220736   1.914   1.343   1.410  0.6182 -0.2384 -4.0248
 3035SOL     OW20737   2.530   3.139   4.318 -0.0391 -0.2547  0.3099
 3035SOL    HW120738   2.453   3.108   4.272 -0.9073 -3.7316  4.1016
 3035SOL    HW220739   2.550   3.222   4.275  1.8930 -1.8269 -1.8304
 3036SOL     OW20740   2.973   0.601   3.143 -0.1468 -0.0606 -0.4246
 3036SOL    HW120741   2.935   0.575   3.226  0.7062 -2.3353 -0.7366
 3036SOL    HW220742   2.952   0.693   3.158 -0.4271  0.0061 -1.1787
 3037SOL     OW20743   3.552   1.827   2.154  0.1654 -0.6369 -0.5740
 3037SOL    HW120744   3.643   1.811   2.130  0.4592  0.5328 -0.2480
 3037SOL    HW220745   3.506   1.819   2.070  0.1465 -0.9260 -0.5350
 3038SOL     OW20746   2.439   0.858   7.759 -0.1541 -0.0259  0.2866
 3038SOL    HW120747   2.347   0.833   7.749  0.1836 -1.2749  0.3147
 3038SOL    HW220748   2.421   0.951   7.775  0.0342  0.5961 -2.9611
 3039SOL     OW20749   2.361   3.448   9.762 -0.6866  0.4320 -0.2388
 3039SOL    HW120750   2.350   3.534   9.721 -3.6350 -0.1352 -0.6047
 3039SOL    HW220751   2.348   3.478   9.853 -0.6423 -0.6941  0.1331
 3040SOL     OW20752   0.205   0.381   9.136  0.3414 -0.0177  0.7102
 3040SOL    HW120753   0.299   0.374   9.151  0.5111 -0.2366 -0.4427
 3040SOL    HW220754   0.189   0.289   9.156  1.9993 -0.4470  0.0384
 3041SOL     OW20755   1.628   1.637   6.490 -0.0908 -0.6255 -0.0399
 3041SOL    HW120756   1.645   1.663   6.580 -0.2810  0.6040 -0.3547
 3041SOL    HW220757   1.534   1.652   6.482 -0.2822 -2.3150 -0.9622
 3042SOL     OW20758   4.555   1.716   8.320 -0.0777 -0.2911 -0.3876
 3042SOL    HW120759   4.628   1.682   8.371  0.4102  0.5521 -0.5208
 3042SOL    HW220760   4.595   1.790   8.273 -0.3121  0.7160  1.0218
 3043SOL     OW20761   2.801   0.084   7.545  0.1616  0.1085 -0.5154
 3043SOL    HW120762   2.824   0.070   7.637 -0.9580 -1.1529 -0.4198
 3043SOL    HW220763   2.812   0.177   7.525  2.0352  0.1703  0.7991
 3044SOL     OW20764   3.503   2.162   6.964  0.4480  0.5934 -0.5341
 3044SOL    HW120765   3.518   2.238   7.020 -0.7679  0.0027  0.5891
 3044SOL    HW220766   3.554   2.187   6.887  2.4775  0.9876  0.9501
 3045SOL     OW20767   1.363   0.179  16.166  0.5415 -0.0804  0.4285
 3045SOL    HW120768   1.321   0.099  16.134  0.6267 -0.5519  1.5151
 3045SOL    HW220769   1.309   0.246  16.125 -2.1624 -0.7921  2.9062
 3046SOL     OW20770   2.086   3.450   8.760 -0.2194 -0.7776 -0.0255
 3046SOL    HW120771   2.051   3.386   8.822  1.7421 -1.9901 -0.1943
 3046SOL    HW220772   2.037   3.531   8.776 -0.0265 -0.6559 -0.0519
 3047SOL     OW20773   1.066   0.215   0.936 -0.0390  0.2564  0.3366
 3047SOL    HW120774   1.036   0.306   0.932  1.4911  0.7797  1.1038
 3047SOL    HW220775   1.156   0.233   0.962  0.1767 -1.4844  0.7307
 3048SOL     OW20776   1.816   2.500   6.103 -0.5255  0.1596  0.3180
 3048SOL    HW120777   1.855   2.422   6.064 -1.8601  0.3611 -1.4543
 3048SOL    HW220778   1.735   2.515   6.053  0.7557 -1.8160 -2.2892
 3049SOL     OW20779   1.067   1.835   2.333 -0.2601  0.0100 -0.0399
 3049SOL    HW120780   0.986   1.788   2.316  0.0220 -0.5985  0.2859
 3049SOL    HW220781   1.035   1.924   2.347  1.0742  0.7587 -1.7558
 3050SOL     OW20782   3.724   0.893  14.872 -0.3916 -0.7299 -0.2426
 3050SOL    HW120783   3.796   0.940  14.915 -0.3065  0.6764 -1.9375
 3050SOL    HW220784   3.645   0.934  14.908  0.6813 -1.1741  2.6607
 3051SOL     OW20785   4.283   0.778   8.965  0.0102  0.0119 -0.6878
 3051SOL    HW120786   4.296   0.763   9.059  2.1413  1.5489 -0.7255
 3051SOL    HW220787   4.282   0.873   8.973 -2.5602 -0.1600  0.8221
 3052SOL     OW20788   1.393   2.709   5.294 -0.0579 -0.2414 -0.6760
 3052SOL    HW120789   1.438   2.788   5.326 -0.1018 -1.0583  1.4342
 3052SOL    HW220790   1.433   2.643   5.351  1.5847 -1.1823 -2.9409
 3053SOL     OW20791   2.065   1.668   3.629  0.4358  0.2240 -0.2209
 3053SOL    HW120792   1.983   1.625   3.603 -0.2020  0.4304  1.4604
 3053SOL    HW220793   2.026   1.749   3.661 -1.3003 -0.8934  0.4993
 3054SOL     OW20794   0.068   4.514  11.773 -0.2056  0.0206  0.4777
 3054SOL    HW120795   0.043   4.501  11.864 -1.7631  1.3844  0.2498
 3054SOL    HW220796   0.154   4.473  11.773  0.6006  1.6925 -1.6105
 3055SOL     OW20797   2.434   0.727  10.102 -0.4045 -0.1323 -0.2938
 3055SOL    HW120798   2.489   0.649  10.093  0.1562  0.5302 -2.5379
 3055SOL    HW220799   2.474   0.771  10.177  1.7270  1.5484 -2.4304
 3056SOL     OW20800   1.493   3.767  12.033 -0.2753 -0.0979 -0.4219
 3056SOL    HW120801   1.452   3.835  12.087  2.5107 -1.1228  2.9627
 3056SOL    HW220802   1.463   3.692  12.084  1.2707 -1.2651 -1.2208
 3057SOL     OW20803   3.501   0.541   6.132  0.6264 -0.3356 -0.2550
 3057SOL    HW120804   3.469   0.595   6.059  0.8768 -0.2899 -0.3327
 3057SOL    HW220805   3.545   0.469   6.087  0.6355  0.3549 -1.3628
 3058SOL     OW20806   2.497   0.204  13.010  0.0201 -0.0295  0.0847
 3058SOL    HW120807   2.483   0.111  12.989  0.0381  0.2541 -1.1924
 3058SOL    HW220808   2.503   0.193  13.105 -0.5213  0.8389  0.2162
 3059SOL     OW20809   0.841   0.451  16.978 -0.1639 -0.5153  0.5438
 3059SOL    HW120810   0.861   0.510  16.905 -1.2219 -0.5881  0.2022
 3059SOL    HW220811   0.923   0.468  17.025  0.5133 -0.4019 -0.6583
 3060SOL     OW20812   4.034   4.446  15.363  0.1108  0.1602 -0.4066
 3060SOL    HW120813   4.025   4.539  15.382  0.3198 -0.0466  0.6779
 3060SOL    HW220814   3.944   4.425  15.386  0.9862 -2.4447  0.6620
 3061SOL     OW20815   2.362   0.893   5.520 -0.0286  0.2229 -0.4516
 3061SOL    HW120816   2.314   0.908   5.438  0.1317 -0.2620 -0.6292
 3061SOL    HW220817   2.346   0.804   5.551 -1.3403  0.1881 -1.1864
 3062SOL     OW20818   0.769   2.483  17.515  0.1625 -0.6654  0.3645
 3062SOL    HW120819   0.809   2.473  17.428 -0.4854 -1.8560  0.2080
 3062SOL    HW220820   0.683   2.444  17.504 -0.7397  1.0790  1.2558
 3063SOL     OW20821   1.637   2.465   8.716  0.0657 -0.8027 -0.2919
 3063SOL    HW120822   1.648   2.504   8.629 -1.7656  1.1309  0.3346
 3063SOL    HW220823   1.702   2.521   8.759 -0.3052 -0.2120 -0.4860
 3064SOL     OW20824   0.258   3.096   1.719 -0.0506 -0.3036  0.4036
 3064SOL    HW120825   0.247   3.163   1.652  1.1988  1.4171  1.9100
 3064SOL    HW220826   0.192   3.129   1.779 -0.9095 -0.4778 -0.4510
 3065SOL     OW20827   0.857   3.835   8.594  0.2412 -0.2575 -0.5279
 3065SOL    HW120828   0.806   3.909   8.558 -1.2585 -0.7310  0.6195
 3065SOL    HW220829   0.945   3.873   8.601  0.4991 -0.2900 -3.5895
 3066SOL     OW20830   4.192   0.226  16.181  0.0710 -0.2608 -0.0025
 3066SOL    HW120831   4.241   0.164  16.127 -0.7801 -1.4713  0.6288
 3066SOL    HW220832   4.230   0.310  16.156 -2.3564  0.8301 -0.0282
 3067SOL     OW20833   3.129   4.401  13.974  0.1447  0.0752  0.0194
 3067SOL    HW120834   3.139   4.424  13.881  1.2931 -1.7402 -0.2988
 3067SOL    HW220835   3.191   4.331  13.990 -1.6797 -1.4323  0.4647
 3068SOL     OW20836   4.107   2.050   0.756 -0.5137 -0.1558 -0.0311
 3068SOL    HW120837   4.022   2.064   0.799  0.6894 -0.0467  2.2970
 3068SOL    HW220838   4.171   2.074   0.823 -0.8034 -2.5668  1.1055
 3069SOL     OW20839   1.775   4.121   4.165 -0.0311 -0.1959  0.1450
 3069SOL    HW120840   1.858   4.168   4.155 -0.4304 -0.1271 -3.0511
 3069SOL    HW220841   1.801   4.042   4.213  0.0269  0.0754  0.5511
 3070SOL     OW20842   2.301   3.305   5.800 -0.2379  0.0143 -0.1586
 3070SOL    HW120843   2.212   3.310   5.766 -0.7633  1.2498  1.3929
 3070SOL    HW220844   2.288   3.267   5.887  0.3333  0.6844  0.2215
 3071SOL     OW20845   2.964   2.366   3.241 -0.1285  0.5093  0.2047
 3071SOL    HW120846   3.025   2.385   3.312 -0.1005 -0.3000  0.3985
 3071SOL    HW220847   3.013   2.406   3.170 -1.0108 -0.2603 -0.8391
 3072SOL     OW20848   2.974   2.728   0.481 -0.5088 -0.0796  0.3511
 3072SOL    HW120849   3.050   2.777   0.512 -0.0809  0.6556 -1.8439
 3072SOL    HW220850   2.980   2.747   0.387 -1.8519 -0.5641  0.1733
 3073SOL     OW20851   1.327   4.457   8.501  0.6400  0.2699 -0.1594
 3073SOL    HW120852   1.391   4.387   8.514 -0.0020 -0.4023 -0.6626
 3073SOL    HW220853   1.280   4.413   8.430  0.6614 -1.0686  0.6535
 3074SOL     OW20854   3.677   1.828   8.761 -0.1507 -0.0303  0.0103
 3074SOL    HW120855   3.587   1.798   8.749 -0.4338 -0.0934  2.3843
 3074SOL    HW220856   3.728   1.790   8.689  0.2293  1.4565 -0.5268
 3075SOL     OW20857   0.696   2.988   7.276 -0.1201 -0.1830  0.2386
 3075SOL    HW120858   0.614   2.971   7.230  0.3299  1.3895 -1.1238
 3075SOL    HW220859   0.756   2.937   7.220 -0.2464 -0.1538  0.0782
 3076SOL     OW20860   3.300   3.247   5.878 -0.0234  0.2580  0.0576
 3076SOL    HW120861   3.375   3.302   5.857  0.5564  0.8091  3.6223
 3076SOL    HW220862   3.237   3.302   5.831  1.0944 -0.4082 -2.2345
 3077SOL     OW20863   4.456   3.633  11.754  0.3299 -0.0066 -0.0715
 3077SOL    HW120864   4.460   3.729  11.750  0.4528 -0.0219 -0.3242
 3077SOL    HW220865   4.384   3.615  11.693  1.5578  0.9125 -1.7851
 3078SOL     OW20866   4.068   4.159   3.421  0.5653  0.0327  0.4954
 3078SOL    HW120867   4.145   4.154   3.365 -0.2056 -1.0663 -0.4771
 3078SOL    HW220868   4.034   4.071   3.401  0.3636 -0.0308  1.1125
 3079SOL     OW20869   3.109   0.679   8.457 -0.2920  0.3859  0.7391
 3079SOL    HW120870   3.103   0.584   8.468  2.2263  0.1732  0.3073
 3079SOL    HW220871   3.191   0.712   8.496  1.5472 -1.7656 -1.3408
 3080SOL     OW20872   3.213   4.472   2.686  0.6205 -0.1088  0.3969
 3080SOL    HW120873   3.285   4.459   2.748 -0.1629 -1.7960  0.9513
 3080SOL    HW220874   3.240   4.392   2.640  0.9353 -0.5299  1.3206
 3081SOL     OW20875   0.688   2.912  14.060  0.4746 -0.0587 -0.7288
 3081SOL    HW120876   0.676   2.933  14.153 -3.3796  1.2494 -1.5234
 3081SOL    HW220877   0.670   2.996  14.017 -1.2790 -1.7314 -3.2380
 3082SOL     OW20878   4.442   1.055   1.581 -0.6434 -0.6440  0.3035
 3082SOL    HW120879   4.449   1.117   1.653 -0.4356 -1.5100  1.0311
 3082SOL    HW220880   4.353   1.074   1.551 -1.0736 -1.8706  0.7986
 3083SOL     OW20881   3.994   0.459   2.088  0.7104 -0.2910 -0.0303
 3083SOL    HW120882   3.989   0.411   2.005  3.3079 -1.1498  0.3038
 3083SOL    HW220883   4.062   0.410   2.135 -0.3944 -0.5092  1.3177
 3084SOL     OW20884   3.480   4.112   5.799  0.5928  0.5938 -0.2862
 3084SOL    HW120885   3.524   4.116   5.714  1.3513 -1.1382  0.0201
 3084SOL    HW220886   3.551   4.136   5.859  1.6119 -2.4524 -0.3169
 3085SOL     OW20887   1.150   0.713   5.333  0.0398 -0.0456 -0.1508
 3085SOL    HW120888   1.103   0.717   5.250  1.2226  3.0437 -0.6628
 3085SOL    HW220889   1.200   0.632   5.338 -1.4664 -0.9435  0.3211
 3086SOL     OW20890   4.033   4.236  13.168 -0.3207 -0.6913 -0.1241
 3086SOL    HW120891   3.994   4.214  13.252  1.2823  0.7494  1.0106
 3086SOL    HW220892   4.120   4.271  13.189  0.4906 -2.5985 -0.3182
 3087SOL     OW20893   4.150   3.068   3.409 -0.7179 -0.2871 -0.0811
 3087SOL    HW120894   4.068   3.081   3.362 -0.0808  0.0764 -1.0810
 3087SOL    HW220895   4.159   3.154   3.449 -0.1457  0.5439 -2.0309
 3088SOL     OW20896   4.540   4.704   2.420  0.0999 -0.6467  0.5887
 3088SOL    HW120897   4.533   4.642   2.494  0.0278  0.5877  1.6187
 3088SOL    HW220898   4.631   4.732   2.427  0.1096 -0.3699 -0.7416
 3089SOL     OW20899   3.820   2.991   1.539  0.5319 -0.3926 -0.5142
 3089SOL    HW120900   3.849   3.082   1.535 -1.4039  0.2458  0.0708
 3089SOL    HW220901   3.756   2.994   1.467 -1.1803 -1.3409  0.9614
 3090SOL     OW20902   2.483   2.090   0.007 -0.1738 -0.0300 -0.2605
 3090SOL    HW120903   2.450   2.032  17.686  0.3658  1.8376 -2.0808
 3090SOL    HW220904   2.503   2.014   0.062  0.3036 -0.1129 -0.5442
 3091SOL     OW20905   2.313   1.155   2.289  0.0564  0.7402  0.0096
 3091SOL    HW120906   2.280   1.075   2.248 -0.5127  0.8620  0.2219
 3091SOL    HW220907   2.239   1.194   2.336 -1.4804  0.4633 -2.1487
 3092SOL     OW20908   2.320   4.067   1.898 -0.3622 -0.2408  0.1237
 3092SOL    HW120909   2.365   4.114   1.827 -2.7273  0.9158 -0.6098
 3092SOL    HW220910   2.234   4.109   1.902 -0.6192 -0.7015 -0.6199
 3093SOL     OW20911   4.231   2.435   6.833 -0.2577  0.1999 -0.3717
 3093SOL    HW120912   4.192   2.355   6.799  0.9096 -0.5216 -0.0008
 3093SOL    HW220913   4.322   2.427   6.806 -0.3924  1.0814 -1.0851
 3094SOL     OW20914   0.950   2.963  11.437  0.1132  0.2331 -0.6159
 3094SOL    HW120915   0.947   3.017  11.515  0.4831 -1.7361  0.7792
 3094SOL    HW220916   1.014   3.015  11.388 -0.3778  0.4954 -0.9872
 3095SOL     OW20917   0.539   0.090   4.937 -0.2542 -0.4319  0.3195
 3095SOL    HW120918   0.527   0.173   4.891  0.4412 -1.2939 -1.3990
 3095SOL    HW220919   0.597   0.122   5.006 -0.6232 -0.4732  0.6476
 3096SOL     OW20920   3.314   1.578   6.560 -0.3086 -0.3477  0.0411
 3096SOL    HW120921   3.283   1.664   6.589 -0.7817 -0.6075  0.3080
 3096SOL    HW220922   3.320   1.586   6.465  0.5511  0.7687  0.1935
 3097SOL     OW20923   4.041   0.812   8.611 -0.7705 -0.0201  0.6505
 3097SOL    HW120924   4.080   0.752   8.675  2.3887  0.9302 -0.3813
 3097SOL    HW220925   4.094   0.795   8.533 -1.7452 -0.5196  0.0947
 3098SOL     OW20926   3.635   0.425   8.519  0.4683 -0.4824 -0.2534
 3098SOL    HW120927   3.595   0.391   8.439 -2.1070 -0.6693  1.1262
 3098SOL    HW220928   3.673   0.505   8.482  1.6904 -0.3105  1.4134
 3099SOL     OW20929   4.246   4.618   6.817 -0.2664  0.4317  0.4869
 3099SOL    HW120930   4.337   4.640   6.838  0.8359 -3.1043 -0.5999
 3099SOL    HW220931   4.246   4.523   6.826 -0.1459  0.5418  1.6638
 3100SOL     OW20932   2.733   4.136   4.631  0.5475  0.1450 -0.0247
 3100SOL    HW120933   2.737   4.164   4.722  1.8870 -3.1451  0.9212
 3100SOL    HW220934   2.717   4.219   4.586  0.5408 -0.1537 -0.5752
 3101SOL     OW20935   4.640   2.517  15.740 -0.1173 -0.3762  0.3770
 3101SOL    HW120936   4.585   2.591  15.714  0.7672 -0.1539 -0.8328
 3101SOL    HW220937   4.657   2.539  15.832  0.0614 -1.7787  0.6889
 3102SOL     OW20938   1.370   0.704  13.314  0.3502  0.1773  0.0875
 3102SOL    HW120939   1.313   0.731  13.242 -0.9483  1.8623  1.7660
 3102SOL    HW220940   1.315   0.638  13.356  0.9413 -2.0165 -2.5112
 3103SOL     OW20941   1.568   2.518  16.311 -0.1590  0.5151 -0.2506
 3103SOL    HW120942   1.501   2.540  16.376 -0.3128  1.5983 -0.7647
 3103SOL    HW220943   1.602   2.438  16.351  3.8594  3.3216  1.9738
 3104SOL     OW20944   1.638   1.725   6.957 -0.2628 -0.2404  0.0110
 3104SOL    HW120945   1.647   1.805   7.009 -0.1563  0.1977 -0.6794
 3104SOL    HW220946   1.664   1.762   6.873 -2.1323  0.9455 -0.0443
 3105SOL     OW20947   2.712   0.957   6.052 -0.3604  0.0391 -0.1601
 3105SOL    HW120948   2.784   0.965   5.989 -0.4598  1.1268 -0.1278
 3105SOL    HW220949   2.753   0.884   6.099 -0.1338  1.5608  2.0109
 3106SOL     OW20950   2.664   1.552   4.888 -0.2338  0.3950 -1.0015
 3106SOL    HW120951   2.759   1.557   4.897 -0.1612 -0.1985 -1.4197
 3106SOL    HW220952   2.635   1.560   4.979  4.3275  0.1586  0.4795
 3107SOL     OW20953   1.740   3.499   8.007 -0.1546 -0.0574 -0.4320
 3107SOL    HW120954   1.834   3.507   8.022 -0.5067  2.1838  0.6485
 3107SOL    HW220955   1.741   3.419   7.955  0.7030  0.5682 -1.3925
 3108SOL     OW20956   4.101   0.782   6.925  0.3930  0.2492 -0.7318
 3108SOL    HW120957   4.177   0.830   6.958  1.6833 -3.2842  1.3808
 3108SOL    HW220958   4.037   0.847   6.898  0.2445  0.0138 -0.9492
 3109SOL     OW20959   0.888   3.986  15.739  0.0603  0.1088 -0.1663
 3109SOL    HW120960   0.864   3.919  15.803  2.0857 -1.7159 -1.3439
 3109SOL    HW220961   0.897   3.928  15.664 -0.4072  0.5838 -0.5932
 3110SOL     OW20962   2.755   1.255   6.091 -0.0458  0.2529  1.0376
 3110SOL    HW120963   2.696   1.324   6.061 -1.3052 -1.5637 -0.5890
 3110SOL    HW220964   2.695   1.186   6.116 -0.0688  0.2369  0.9340
 3111SOL     OW20965   2.677   4.289  14.215 -0.0745  0.0920  0.4464
 3111SOL    HW120966   2.768   4.310  14.192 -0.8748  3.2554  0.1434
 3111SOL    HW220967   2.677   4.282  14.310 -4.6424 -0.4323  0.4041
 3112SOL     OW20968   0.662   2.702   6.416  0.0565  0.3308 -0.7059
 3112SOL    HW120969   0.660   2.640   6.343  3.2895 -1.1828  0.4910
 3112SOL    HW220970   0.594   2.671   6.477 -0.1360  0.7406 -0.7125
 3113SOL     OW20971   2.442   4.136   2.115 -0.3381 -0.6570 -0.5204
 3113SOL    HW120972   2.370   4.121   2.175 -0.0521  1.3259  0.3255
 3113SOL    HW220973   2.397   4.110   2.035 -2.2917  3.8163 -0.8550
 3114SOL     OW20974   0.381   4.071   9.874  0.0709  0.2042  0.1393
 3114SOL    HW120975   0.426   3.990   9.900  0.9802  0.8372  0.5310
 3114SOL    HW220976   0.351   4.037   9.790  0.7770 -0.2064  0.0544
 3115SOL     OW20977   1.044   0.418   8.298  0.2068 -0.6909 -0.0478
 3115SOL    HW120978   1.008   0.405   8.386  2.1968  0.0575  0.8614
 3115SOL    HW220979   1.010   0.503   8.270  1.8153  0.3158  1.1228
 3116SOL     OW20980   0.961   3.995  11.694  0.1861  0.3622  0.2104
 3116SOL    HW120981   1.026   3.943  11.742  0.5480  1.1591  0.5859
 3116SOL    HW220982   0.997   4.020  11.609 -0.8613  0.4692 -0.2012
 3117SOL     OW20983   0.323   1.819  15.413 -0.0559 -0.5182  0.5955
 3117SOL    HW120984   0.373   1.865  15.481  0.8187 -0.2989 -0.1893
 3117SOL    HW220985   0.268   1.890  15.380 -1.1016 -1.6114 -0.0062
 3118SOL     OW20986   3.936   0.684  15.210 -1.1970 -0.4577  0.3457
 3118SOL    HW120987   3.996   0.722  15.275  0.1693 -0.1659 -1.0939
 3118SOL    HW220988   3.853   0.724  15.236 -1.2131 -1.0449  1.1835
 3119SOL     OW20989   4.282   1.702  15.184 -0.3473 -0.0588  0.7215
 3119SOL    HW120990   4.201   1.742  15.153  0.5802 -0.4555 -2.2013
 3119SOL    HW220991   4.287   1.734  15.274  0.3744 -2.8540  1.6909
 3120SOL     OW20992   0.285   3.614   8.501  0.5557  0.1128  0.2134
 3120SOL    HW120993   0.237   3.655   8.429 -0.7992  0.5479  1.3552
 3120SOL    HW220994   0.307   3.530   8.459 -0.6037  0.9783 -2.1664
 3121SOL     OW20995   3.825   3.196  13.428  0.3462  0.1343  0.0865
 3121SOL    HW120996   3.793   3.278  13.466  1.8244 -0.2448  2.1877
 3121SOL    HW220997   3.917   3.194  13.454  0.3975  0.3792 -0.0668
 3122SOL     OW20998   2.368   3.986   8.895 -0.0314  0.4674 -0.0795
 3122SOL    HW120999   2.335   3.906   8.936  0.8493  0.2014  0.1003
 3122SOL    HW221000   2.397   4.043   8.966 -0.6061  2.2897 -1.3147
 3123SOL     OW21001   2.816   3.319   6.151 -0.6583  0.3661  0.1139
 3123SOL    HW121002   2.804   3.231   6.187 -0.0108  0.1567 -0.1778
 3123SOL    HW221003   2.879   3.352   6.215  1.1624  0.6500 -1.7938
 3124SOL     OW21004   3.501   2.025   2.741 -0.1547 -0.0635  0.3203
 3124SOL    HW121005   3.466   2.103   2.783  1.5263  0.5108  0.6666
 3124SOL    HW221006   3.592   2.053   2.731  0.1891 -0.3688  2.6447
 3125SOL     OW21007   1.248   4.067  17.454 -0.0359 -0.2216  0.0086
 3125SOL    HW121008   1.246   4.150  17.502 -1.4367 -0.4659  0.3802
 3125SOL    HW221009   1.242   4.100  17.364 -2.0474 -0.3705  0.0950
 3126SOL     OW21010   0.607   2.227  14.108  0.2155  0.1914  0.2982
 3126SOL    HW121011   0.670   2.253  14.176 -0.2559  0.5050  0.6091
 3126SOL    HW221012   0.630   2.297  14.048 -1.5790  0.9838  0.5513
 3127SOL     OW21013   2.831   2.939   6.507  0.2575  0.2637 -0.5137
 3127SOL    HW121014   2.812   2.955   6.415  1.7554  1.2187 -0.6594
 3127SOL    HW221015   2.794   3.013   6.555  0.6961 -0.3999  0.8580
 3128SOL     OW21016   0.771   2.198   0.309  0.4060  0.3338 -0.5262
 3128SOL    HW121017   0.729   2.273   0.267 -0.7947 -0.3870 -0.6135
 3128SOL    HW221018   0.786   2.225   0.400  1.1109 -1.7177 -0.0204
 3129SOL     OW21019   1.045   0.069   3.125  0.0820  0.4436  0.5204
 3129SOL    HW121020   0.988   0.015   3.071 -0.6314 -0.8676  2.6022
 3129SOL    HW221021   0.980   0.106   3.185 -0.1294 -0.3780  0.7993
 3130SOL     OW21022   1.743   3.921   2.984 -0.0386  0.2272 -0.7080
 3130SOL    HW121023   1.718   3.828   2.988  4.1678 -0.9005 -0.2753
 3130SOL    HW221024   1.753   3.934   3.078  0.0107  2.7332 -1.0752
 3131SOL     OW21025   4.092   1.830   8.643 -0.3186  0.0819  0.1801
 3131SOL    HW121026   4.099   1.924   8.664 -1.5965  0.0775  0.6581
 3131SOL    HW221027   4.113   1.833   8.550  0.7125 -2.1286  0.3383
 3132SOL     OW21028   2.043   3.332   5.679 -0.2453 -0.6100 -0.3474
 3132SOL    HW121029   1.991   3.308   5.756 -1.1858  1.1083 -0.4588
 3132SOL    HW221030   2.082   3.247   5.656  0.6830 -1.3948  3.9338
 3133SOL     OW21031   0.386   0.660   9.507  0.3082 -0.1607  0.1857
 3133SOL    HW121032   0.433   0.584   9.472  1.3020 -0.8206  2.9314
 3133SOL    HW221033   0.361   0.624   9.592  0.3864 -0.5239  0.0564
 3134SOL     OW21034   1.033   4.314   7.742 -1.0818  0.2390 -0.4227
 3134SOL    HW121035   0.951   4.352   7.774 -1.0822  0.0077 -0.1538
 3134SOL    HW221036   1.061   4.280   7.827 -0.7145  1.0604 -0.2200
 3135SOL     OW21037   2.802   2.468   9.179 -0.7298  0.1179  0.5908
 3135SOL    HW121038   2.850   2.485   9.099  0.1738  1.2382  1.3740
 3135SOL    HW221039   2.788   2.560   9.203  0.4191  0.7283 -1.1009
 3136SOL     OW21040   3.799   3.992  16.538 -0.2107 -0.3800  0.0173
 3136SOL    HW121041   3.834   3.914  16.582 -0.9662  0.6858  2.5165
 3136SOL    HW221042   3.847   3.976  16.457  1.4828 -1.3789  1.2132
 3137SOL     OW21043   0.664   4.715   3.949  0.5499  0.0699  0.5727
 3137SOL    HW121044   0.641   0.070   3.940 -1.1844 -0.5600 -1.3316
 3137SOL    HW221045   0.676   4.703   4.043 -0.1605 -0.1572  0.6291
 3138SOL     OW21046   2.680   4.427   8.889 -0.0947  0.0966  0.1594
 3138SOL    HW121047   2.663   4.425   8.983 -0.5914 -4.3944 -0.0326
 3138SOL    HW221048   2.717   4.341   8.874 -1.3649 -0.3737 -0.3287
 3139SOL     OW21049   4.533   4.398   3.945 -0.3033 -0.1235  0.0643
 3139SOL    HW121050   4.526   4.348   3.863  3.1591  0.6740 -0.7032
 3139SOL    HW221051   4.473   4.470   3.927  2.0530  1.9497  0.5588
 3140SOL     OW21052   4.362   1.311   2.858  0.2400  0.1642  0.6363
 3140SOL    HW121053   4.368   1.391   2.806  0.0967  1.2616  2.3149
 3140SOL    HW221054   4.301   1.329   2.930 -0.2320  0.4761  0.1593
 3141SOL     OW21055   1.847   0.896   3.456  0.1276  0.1320 -0.0814
 3141SOL    HW121056   1.915   0.961   3.471  0.3543  0.1624 -1.2403
 3141SOL    HW221057   1.858   0.832   3.526  2.0500  2.5238  1.8013
 3142SOL     OW21058   1.619   4.599   7.682 -0.4527 -0.4533 -0.0870
 3142SOL    HW121059   1.700   4.628   7.640 -1.1021  0.2904 -0.8555
 3142SOL    HW221060   1.579   4.673   7.728  3.1037 -0.5179  3.0676
 3143SOL     OW21061   3.929   1.668  10.685  0.2541 -0.1189  0.5438
 3143SOL    HW121062   4.008   1.666  10.740  0.7479  0.2996 -0.1450
 3143SOL    HW221063   3.936   1.755  10.644  0.0153  0.4827  1.7621
 3144SOL     OW21064   4.150   4.147   7.371  0.4647  0.0252  0.1905
 3144SOL    HW121065   4.243   4.144   7.395  0.7275 -0.4891 -0.8818
 3144SOL    HW221066   4.145   4.079   7.304  0.0988  1.5177 -1.2906
 3145SOL     OW21067   4.255   2.752   1.533  0.1762 -0.2984 -0.7078
 3145SOL    HW121068   4.252   2.770   1.439  2.8916  0.4382 -0.6453
 3145SOL    HW221069   4.163   2.727   1.545  0.2901  0.4143  1.6583
 3146SOL     OW21070   4.148   3.611   4.570  0.0122  0.3203 -0.0230
 3146SOL    HW121071   4.216   3.618   4.636 -1.3614  1.0050  1.3128
 3146SOL    HW221072   4.150   3.697   4.527 -1.0043 -0.1696 -1.0576
 3147SOL     OW21073   3.288   1.528   2.082 -0.1412 -0.2026  0.1040
 3147SOL    HW121074   3.242   1.444   2.083 -0.4384 -0.0135  2.2655
 3147SOL    HW221075   3.374   1.500   2.114 -0.9875 -2.6464  0.2770
 3148SOL     OW21076   4.445   2.257  12.817  0.1390 -0.1579  0.2047
 3148SOL    HW121077   4.538   2.252  12.796 -0.2243  3.5082 -2.2201
 3148SOL    HW221078   4.413   2.213  12.738 -0.0401 -1.0907  0.8013
 3149SOL     OW21079   4.272   0.318   7.773 -0.2435 -0.1379  0.3372
 3149SOL    HW121080   4.259   0.360   7.858 -0.3879 -0.3717  0.4330
 3149SOL    HW221081   4.204   0.361   7.722 -1.0793 -0.2790  1.3324
 3150SOL     OW21082   3.794   4.703   6.757  0.1898 -0.2824  0.5251
 3150SOL    HW121083   3.790   0.042   6.699  0.8452 -1.0381 -0.5173
 3150SOL    HW221084   3.788   0.003   6.845 -1.3554 -0.4638  0.4894
 3151SOL     OW21085   0.878   4.674   2.983 -0.1036 -0.2991  0.1607
 3151SOL    HW121086   0.803   4.686   2.925  0.9222 -1.0067 -1.3398
 3151SOL    HW221087   0.912   4.592   2.946  0.1355  0.7400 -1.9128
 3152SOL     OW21088   2.183   3.900  12.621  0.0165 -0.5321  0.1109
 3152SOL    HW121089   2.131   3.839  12.673 -2.0411  0.0103 -1.2909
 3152SOL    HW221090   2.117   3.966  12.600 -0.6672 -1.4404 -0.5742
 3153SOL     OW21091   2.986   0.000   4.261 -0.5350 -0.1923 -0.1172
 3153SOL    HW121092   2.941   4.676   4.203 -1.5595  1.0947 -0.6858
 3153SOL    HW221093   3.074   4.731   4.222 -0.9215  0.3592 -1.0862
 3154SOL     OW21094   1.579   2.985  11.549 -0.2628  0.0616  0.8698
 3154SOL    HW121095   1.586   3.033  11.467  1.4242  2.7896  2.6146
 3154SOL    HW221096   1.493   3.014  11.579 -0.7103  0.9654 -1.3674
 3155SOL     OW21097   0.279   3.200   8.841 -0.1015 -0.4744  0.6972
 3155SOL    HW121098   0.211   3.203   8.774 -0.7324  0.2100  1.3830
 3155SOL    HW221099   0.253   3.123   8.893  1.0373  0.3568  2.5054
 3156SOL     OW21100   1.897   2.973  10.512  0.2240 -0.4496  0.2602
 3156SOL    HW121101   1.893   3.038  10.442 -3.4462  0.0050  0.8975
 3156SOL    HW221102   1.808   2.983  10.546 -0.4443  0.8947 -1.9086
 3157SOL     OW21103   1.518   0.010  16.830 -0.0349  0.1491  0.5747
 3157SOL    HW121104   1.486   0.027  16.741  0.9133 -1.3846 -0.0625
 3157SOL    HW221105   1.577   0.084  16.844  0.6498  0.2604 -2.9866
 3158SOL     OW21106   3.187   0.226   2.802 -0.0745  0.1200  0.1057
 3158SOL    HW121107   3.227   0.144   2.830  2.7652  1.3914 -0.1606
 3158SOL    HW221108   3.143   0.264   2.878  2.6607  0.8962  1.2983
 3159SOL     OW21109   2.464   3.652   7.186 -0.8565  0.3654  0.0047
 3159SOL    HW121110   2.505   3.640   7.101  0.1262  0.7897  0.4146
 3159SOL    HW221111   2.392   3.589   7.194 -2.1608  1.8928  0.2719
 3160SOL     OW21112   3.422   2.745  10.691 -0.4976  0.0339 -0.0285
 3160SOL    HW121113   3.403   2.786  10.606  0.8851 -2.0977 -1.3420
 3160SOL    HW221114   3.342   2.775  10.735  0.0589  0.9503  0.3711
 3161SOL     OW21115   0.965   1.777  16.055 -0.1198 -0.1022 -0.2716
 3161SOL    HW121116   0.958   1.684  16.034 -0.0028 -0.2786  0.4468
 3161SOL    HW221117   1.032   1.777  16.124  0.1960  2.6560 -0.5827
 3162SOL     OW21118   3.334   4.519   8.960 -0.4220  0.2140  0.3213
 3162SOL    HW121119   3.309   4.495   9.049  1.0201  0.5246  0.8125
 3162SOL    HW221120   3.275   4.472   8.902  2.1457 -1.4458 -0.9481
 3163SOL     OW21121   4.694   3.517  11.346 -0.0118  0.1617  0.2331
 3163SOL    HW121122   4.694   3.580  11.274 -0.1661  0.7238  0.7233
 3163SOL    HW221123   4.714   3.575  11.420 -0.9934  0.4091  0.3044
 3164SOL     OW21124   0.101   3.871   5.321  0.1508  0.2548  0.3789
 3164SOL    HW121125   0.069   3.962   5.320  1.3935  0.7000  0.7227
 3164SOL    HW221126   0.183   3.869   5.271  0.2204 -0.9430  0.5415
 3165SOL     OW21127   1.119   4.032  16.727 -0.0070  0.1171  0.1523
 3165SOL    HW121128   1.177   4.088  16.778 -3.3639  3.6680  0.1170
 3165SOL    HW221129   1.056   4.089  16.682 -1.5734  0.8731  3.3433
 3166SOL     OW21130   0.343   1.730   0.197 -0.1530 -0.1204 -0.3370
 3166SOL    HW121131   0.293   1.812   0.189 -0.5567 -0.5345 -2.0453
 3166SOL    HW221132   0.319   1.693   0.112 -0.0017  3.1796 -1.8427
 3167SOL     OW21133   2.469   0.856  12.087  0.1515  0.3216  0.2155
 3167SOL    HW121134   2.463   0.794  12.013  0.5106  0.1906  0.2965
 3167SOL    HW221135   2.531   0.923  12.058  1.3432  0.2360  2.5433
 3168SOL     OW21136   2.139   0.824   7.785  0.1066  0.2048 -0.7530
 3168SOL    HW121137   2.079   0.813   7.859 -0.9306  0.9159 -1.4960
 3168SOL    HW221138   2.081   0.879   7.733  1.2948  2.2294  0.0272
 3169SOL     OW21139   3.992   0.555   1.475 -0.0611  0.7705  0.1968
 3169SOL    HW121140   3.904   0.519   1.480 -0.2624  1.4126  1.3648
 3169SOL    HW221141   4.010   0.564   1.382 -1.2421 -1.9194 -0.2670
 3170SOL     OW21142   2.333   0.940  10.659 -0.6481  0.4327 -0.2383
 3170SOL    HW121143   2.243   0.911  10.651 -1.3366  2.0153  1.8115
 3170SOL    HW221144   2.347   0.975  10.571  0.7870  2.0110  0.6067
 3171SOL     OW21145   4.249   0.477  16.033  0.0451  0.7120 -0.1495
 3171SOL    HW121146   4.230   0.557  16.081  0.9692  0.3414  0.8251
 3171SOL    HW221147   4.156   0.455  16.035  0.3874 -0.4596  2.9940
 3172SOL     OW21148   4.338   0.023   6.482  0.4900 -0.0467 -0.1642
 3172SOL    HW121149   4.251   4.723   6.474  0.6431 -0.9698  2.6994
 3172SOL    HW221150   4.367   0.014   6.391  1.0975 -0.6111  0.0824
 3173SOL     OW21151   0.215   3.263   2.472  0.3327  0.1375  0.0327
 3173SOL    HW121152   0.138   3.247   2.528 -0.5376 -0.7181 -1.4122
 3173SOL    HW221153   0.284   3.259   2.538 -1.3084  0.9267  1.7951
 3174SOL     OW21154   1.943   0.935   7.642  0.7502 -0.1675  0.1289
 3174SOL    HW121155   1.847   0.941   7.639  0.5784 -2.9332  0.5878
 3174SOL    HW221156   1.962   1.025   7.616  1.1174 -0.0342  0.8672
 3175SOL     OW21157   4.128   3.064   5.399 -0.5298  0.1345 -0.0567
 3175SOL    HW121158   4.129   3.036   5.491 -0.4223 -0.1552 -0.1448
 3175SOL    HW221159   4.048   3.115   5.393 -0.0327  0.7349 -1.4914
 3176SOL     OW21160   4.680   1.544   0.614  0.3541  0.8063 -0.1462
 3176SOL    HW121161   4.637   1.458   0.614  1.3685  0.2957 -1.2559
 3176SOL    HW221162   4.613   1.612   0.609 -0.9295 -0.6089 -2.3963
 3177SOL     OW21163   4.411   3.020   8.223  0.4309  0.3277  0.1249
 3177SOL    HW121164   4.480   3.006   8.287 -0.2327 -0.2848  0.6977
 3177SOL    HW221165   4.447   2.963   8.155 -0.1882  0.3131 -0.1894
 3178SOL     OW21166   4.428   4.501   6.591  0.0712  0.1715  0.1589
 3178SOL    HW121167   4.421   4.597   6.585 -1.0164  0.2616  2.6608
 3178SOL    HW221168   4.512   4.491   6.636  1.2418 -1.6315 -2.4445
 3179SOL     OW21169   4.088   2.455  16.258  0.3060 -0.5044  0.1882
 3179SOL    HW121170   4.058   2.401  16.184 -1.4312 -0.9471  1.2187
 3179SOL    HW221171   4.005   2.487  16.293  0.8470  2.2761 -1.0406
 3180SOL     OW21172   4.710   3.903   7.918  0.7261  0.0452  0.1635
 3180SOL    HW121173   0.032   3.861   7.856 -0.5264 -1.1789 -0.2256
 3180SOL    HW221174   4.638   3.940   7.867 -2.3205 -5.3022  0.5273
 3181SOL     OW21175   2.286   1.071   6.787  0.1056 -0.2103  0.2872
 3181SOL    HW121176   2.193   1.086   6.769  0.1311 -0.9457 -0.4896
 3181SOL    HW221177   2.306   0.998   6.729  0.8911  0.7529 -0.6734
 3182SOL     OW21178   2.563   0.034   3.194  0.5546 -0.2720  0.2339
 3182SOL    HW121179   2.559   0.073   3.106  1.5709  0.2463  0.4180
 3182SOL    HW221180   2.531   4.685   3.171 -0.0099 -0.2822  1.0641
 3183SOL     OW21181   3.069   2.958   8.681  0.4572  1.2867 -0.0061
 3183SOL    HW121182   3.114   2.991   8.603  0.3533  2.8524  0.5765
 3183SOL    HW221183   3.145   2.929   8.732 -0.6942  0.3240  1.1830
 3184SOL     OW21184   1.675   1.720  17.454  0.0801 -0.2375  1.0545
 3184SOL    HW121185   1.765   1.694  17.435 -0.2173  0.8791 -1.9888
 3184SOL    HW221186   1.642   1.688  17.370  2.5023  2.2295 -0.8885
 3185SOL     OW21187   4.487   1.371  10.797  0.2030  0.1947 -0.2070
 3185SOL    HW121188   4.528   1.290  10.828  0.4577 -0.7180 -2.9392
 3185SOL    HW221189   4.396   1.342  10.789 -0.1968  1.4381 -0.0473
 3186SOL     OW21190   3.485   3.216   5.396  0.3802 -0.3078 -0.3100
 3186SOL    HW121191   3.516   3.132   5.428 -1.2707 -0.3968  1.1042
 3186SOL    HW221192   3.526   3.230   5.311 -1.8639  0.6189 -1.2568
 3187SOL     OW21193   2.302   1.719   3.060 -0.2544 -0.6158  0.1670
 3187SOL    HW121194   2.232   1.695   3.000 -2.1895  1.9371  1.3951
 3187SOL    HW221195   2.262   1.695   3.143 -3.3763  0.8769 -0.9206
 3188SOL     OW21196   1.807   1.408   9.425 -0.4715  0.4615 -0.0267
 3188SOL    HW121197   1.733   1.347   9.424  0.1844 -0.3448  0.9254
 3188SOL    HW221198   1.878   1.354   9.458  1.2184  0.9624 -2.9121
 3189SOL     OW21199   4.680   0.461   4.769  0.0624 -0.1370  0.3488
 3189SOL    HW121200   4.611   0.408   4.728  0.2479  0.8246 -1.1925
 3189SOL    HW221201   4.621   0.506   4.830  0.0871  0.7707 -0.3074
 3190SOL     OW21202   1.335   3.912   5.243 -0.0586 -0.2334  0.1819
 3190SOL    HW121203   1.351   3.950   5.156  0.7310 -2.2692 -0.5467
 3190SOL    HW221204   1.405   3.949   5.296  0.7954 -0.9689 -0.4494
 3191SOL     OW21205   3.307   3.273   8.339 -0.0825 -0.5798 -0.1655
 3191SOL    HW121206   3.390   3.271   8.291 -0.6745 -0.7494 -1.1560
 3191SOL    HW221207   3.265   3.347   8.296 -1.4250 -1.2561 -0.0164
 3192SOL     OW21208   2.311   3.122   3.482 -0.2082 -0.1818  0.0792
 3192SOL    HW121209   2.344   3.062   3.416 -0.3850 -0.7811  0.5319
 3192SOL    HW221210   2.362   3.199   3.458 -1.4499  1.2080  1.8176
 3193SOL     OW21211   1.904   3.008   8.517  0.0541 -0.0068 -0.3746
 3193SOL    HW121212   1.816   3.046   8.520 -0.0530 -0.4493  2.0319
 3193SOL    HW221213   1.955   3.088   8.508 -0.3068 -0.1014 -3.3203
 3194SOL     OW21214   1.337   2.479   3.463 -0.2366 -0.6742  0.1758
 3194SOL    HW121215   1.327   2.456   3.555 -1.2668 -2.8571 -0.4929
 3194SOL    HW221216   1.296   2.565   3.472 -0.3767 -0.9019  1.7621
 3195SOL     OW21217   4.721   2.289   7.233 -0.3693  0.5822 -0.1256
 3195SOL    HW121218   4.663   2.212   7.236 -0.0544  0.3749  0.5499
 3195SOL    HW221219   4.651   2.354   7.242 -1.2757 -0.3881 -0.0248
 3196SOL     OW21220   3.785   4.166   5.702  0.3182  0.2207  0.2810
 3196SOL    HW121221   3.818   4.234   5.643 -1.3779  0.9088  0.1026
 3196SOL    HW221222   3.726   4.126   5.637  0.1188  0.2976  0.4167
 3197SOL     OW21223   1.165   1.011   2.296 -0.0784  0.0025  0.2721
 3197SOL    HW121224   1.151   1.105   2.292 -2.2954 -0.3997 -1.4954
 3197SOL    HW221225   1.134   0.976   2.212  0.4668 -0.5937  0.3171
 3198SOL     OW21226   2.077   1.337   2.117 -0.0633 -0.0419 -0.2537
 3198SOL    HW121227   2.061   1.251   2.078 -0.7302  0.1565 -0.4232
 3198SOL    HW221228   2.012   1.396   2.079 -1.4234 -0.5605  1.2475
 3199SOL     OW21229   3.434   1.451   1.462  0.3294  1.0618 -0.2608
 3199SOL    HW121230   3.431   1.372   1.516 -0.9386  1.1631 -0.1832
 3199SOL    HW221231   3.431   1.526   1.521  2.1024  1.3772 -0.5829
 3200SOL     OW21232   1.959   4.042   8.175 -0.2914  0.3313  0.3969
 3200SOL    HW121233   2.010   4.008   8.248 -1.1487  0.9128  1.2577
 3200SOL    HW221234   1.892   4.098   8.213 -1.0067 -0.0597 -0.2816
 3201SOL     OW21235   2.994   2.717  11.900  0.2528 -0.0801 -0.4559
 3201SOL    HW121236   3.061   2.652  11.879  1.6507  1.6278 -1.2029
 3201SOL    HW221237   2.999   2.709  11.995 -0.9264 -0.3774 -0.4085
 3202SOL     OW21238   2.659   3.755   3.627  0.4931 -0.1993  0.2713
 3202SOL    HW121239   2.611   3.776   3.707  0.4943 -0.3050  0.2998
 3202SOL    HW221240   2.752   3.756   3.651  0.1301  3.5468  1.4234
 3203SOL     OW21241   1.385   4.344   9.230  0.5981  0.0568 -0.6935
 3203SOL    HW121242   1.414   4.423   9.184 -1.5236  1.2706  0.0745
 3203SOL    HW221243   1.293   4.370   9.234 -0.0979 -2.4367 -0.2730
 3204SOL     OW21244   1.178   1.574   1.380 -0.3121 -0.6350  0.1004
 3204SOL    HW121245   1.129   1.497   1.409  0.3690 -1.4269 -0.8541
 3204SOL    HW221246   1.236   1.598   1.452 -0.0080  0.8500 -0.6317
 3205SOL     OW21247   1.880   4.050  16.437  0.0759 -0.2848  0.6502
 3205SOL    HW121248   1.850   4.121  16.381 -3.1542 -0.6514  1.8816
 3205SOL    HW221249   1.811   4.042  16.503  0.3993  0.2899  1.0593
 3206SOL     OW21250   3.769   0.320   2.397  0.6208  0.4317  0.6006
 3206SOL    HW121251   3.771   0.343   2.304 -1.8052 -0.0937  0.4240
 3206SOL    HW221252   3.797   0.229   2.397 -2.3564 -0.4935  2.7254
 3207SOL     OW21253   1.862   3.964   2.670  0.0460  0.0929 -0.2363
 3207SOL    HW121254   1.803   3.997   2.603  1.0419 -0.6071 -1.4625
 3207SOL    HW221255   1.869   4.035   2.735 -1.1838  1.9621 -2.1574
 3208SOL     OW21256   2.545   2.216   4.791  0.1946 -0.1600  0.0464
 3208SOL    HW121257   2.525   2.123   4.785 -0.1400 -0.1011  0.2635
 3208SOL    HW221258   2.579   2.239   4.705 -0.9938 -0.7363 -0.5651
 3209SOL     OW21259   4.664   4.510   6.728  0.4085 -0.0319  0.5665
 3209SOL    HW121260   4.647   4.548   6.814  0.5241 -0.5066  0.8015
 3209SOL    HW221261   4.655   4.417   6.749 -0.3235 -0.1317 -0.1989
 3210SOL     OW21262   1.804   2.563   4.738  0.4534 -0.0012 -0.6058
 3210SOL    HW121263   1.722   2.606   4.760 -0.1097 -1.2679 -0.2518
 3210SOL    HW221264   1.775   2.509   4.664  2.5899 -1.3613 -0.4463
 3211SOL     OW21265   0.369   3.179   2.086 -0.2218 -0.0777 -0.6954
 3211SOL    HW121266   0.368   3.254   2.026 -1.6218 -0.1537 -0.7738
 3211SOL    HW221267   0.305   3.194   2.156 -0.4159  0.7208 -1.0386
 3212SOL     OW21268   3.460   4.188   9.054 -0.1874  0.1241 -0.4954
 3212SOL    HW121269   3.365   4.176   9.062  0.2604 -1.0954  2.9093
 3212SOL    HW221270   3.470   4.256   9.121 -0.1509  0.5122 -0.8964
 3213SOL     OW21271   1.615   1.828   0.859  0.5056 -0.0808  0.6068
 3213SOL    HW121272   1.624   1.832   0.954 -0.2838  0.8308  0.6308
 3213SOL    HW221273   1.582   1.915   0.838  3.7994  1.2845  1.0245
 3214SOL     OW21274   2.683   1.837   5.991  0.3248  0.2782 -0.9392
 3214SOL    HW121275   2.707   1.855   5.900  0.1447 -0.9805 -1.2391
 3214SOL    HW221276   2.766   1.804   6.027 -1.3024 -2.7491  0.0615
 3215SOL     OW21277   2.843   2.457   4.934  0.2436 -0.2781 -0.0863
 3215SOL    HW121278   2.778   2.442   5.003 -0.0636 -0.2331 -0.3651
 3215SOL    HW221279   2.820   2.423   4.847 -3.3698  2.1924 -0.1038
 3216SOL     OW21280   0.980   2.728  15.352 -0.1060  0.2177  0.1656
 3216SOL    HW121281   0.986   2.725  15.447  1.3388 -1.6679  0.0317
 3216SOL    HW221282   0.959   2.635  15.349 -2.8688  0.8703 -0.9406
 3217SOL     OW21283   0.083   1.746   7.898  0.1607 -0.0909  0.1683
 3217SOL    HW121284   0.126   1.818   7.852  2.3282  0.9114  3.7354
 3217SOL    HW221285   0.142   1.671   7.893 -0.3698 -0.5597  0.9154
 3218SOL     OW21286   4.236   3.308   8.407  0.0091  0.2855 -0.1540
 3218SOL    HW121287   4.244   3.396   8.442 -0.7822 -0.4324  1.7990
 3218SOL    HW221288   4.141   3.305   8.407 -0.0232  1.5469  0.1149
 3219SOL     OW21289   4.472   2.028   1.989  0.4606  0.8615 -0.7853
 3219SOL    HW121290   4.426   2.092   1.934  1.2168  2.3385  0.2885
 3219SOL    HW221291   4.548   2.013   1.933  0.1026  0.4740 -1.1683
 3220SOL     OW21292   1.516   2.501   5.082 -0.2388  0.3080  0.1627
 3220SOL    HW121293   1.609   2.497   5.105 -0.6577 -2.2353  1.4023
 3220SOL    HW221294   1.473   2.522   5.165  0.3434  2.7192 -0.1249
 3221SOL     OW21295   1.012   0.446   3.576 -0.1712 -0.1094  0.6161
 3221SOL    HW121296   1.057   0.364   3.555 -1.5322 -0.2405 -1.7804
 3221SOL    HW221297   0.922   0.414   3.568  0.8771 -3.0019  0.3646
 3222SOL     OW21298   3.523   4.708   8.907 -0.1047  0.7386  0.2881
 3222SOL    HW121299   3.544   4.719   8.814 -1.6456 -0.6489 -0.2235
 3222SOL    HW221300   3.461   4.636   8.898 -1.1323  1.7432 -0.6322
 3223SOL     OW21301   0.406   4.024  17.430 -0.0845 -0.3088 -0.0156
 3223SOL    HW121302   0.365   3.973  17.499  2.0685 -0.0743  1.4535
 3223SOL    HW221303   0.364   3.986  17.353 -1.1940 -1.3605  1.1059
 3224SOL     OW21304   4.528   2.627  17.622 -0.6080  0.0174 -0.3577
 3224SOL    HW121305   4.553   2.639  17.530 -0.4752 -1.6208 -0.5352
 3224SOL    HW221306   4.569   2.708  17.652  0.6488 -0.0599 -1.8543
 3225SOL     OW21307   3.469   1.319   4.718 -0.0234  0.1658  0.5556
 3225SOL    HW121308   3.413   1.362   4.653 -1.9190  0.7878  2.5841
 3225SOL    HW221309   3.406   1.300   4.788 -0.2312  2.7123  1.0716
 3226SOL     OW21310   4.240   4.172   9.155  0.0173 -0.3427 -0.1764
 3226SOL    HW121311   4.190   4.171   9.237 -0.1157  2.5778 -0.2371
 3226SOL    HW221312   4.264   4.262   9.135 -1.3665  0.3351  1.2179
 3227SOL     OW21313   1.186   3.081  11.309  0.7975 -0.2968 -0.6307
 3227SOL    HW121314   1.214   3.144  11.375 -0.7621 -0.9565  0.6803
 3227SOL    HW221315   1.257   3.017  11.303  0.2629 -1.0701  1.2465
 3228SOL     OW21316   0.972   3.224   9.414  0.0582 -0.2116  0.5288
 3228SOL    HW121317   1.049   3.179   9.379 -0.5887 -0.5557 -0.4622
 3228SOL    HW221318   0.966   3.173   9.495 -0.4129  0.2312  0.7697
 3229SOL     OW21319   4.697   1.321   4.938 -0.2315  0.5577  0.2335
 3229SOL    HW121320   4.667   1.261   5.007 -0.8513  1.8957  1.1100
 3229SOL    HW221321   0.032   1.283   4.889 -0.2250 -1.1830  1.5799
 3230SOL     OW21322   2.724   3.412   3.654  0.4136  0.1565 -0.5059
 3230SOL    HW121323   2.685   3.325   3.654  2.7314 -0.8911 -2.4439
 3230SOL    HW221324   2.752   3.410   3.562 -0.6640  0.9282 -0.8488
 3231SOL     OW21325   1.620   1.318   7.254 -0.0611 -0.6187 -0.7528
 3231SOL    HW121326   1.541   1.271   7.226 -0.1953 -1.8851  1.7670
 3231SOL    HW221327   1.646   1.363   7.173 -2.4819  0.9777 -0.6567
 3232SOL     OW21328   2.873   2.660   4.328 -0.1923 -0.1898  0.1079
 3232SOL    HW121329   2.854   2.750   4.301 -1.2230 -0.0327  1.3300
 3232SOL    HW221330   2.885   2.673   4.422 -1.2624  1.5037  0.0150
 3233SOL     OW21331   0.563   4.574  13.026  0.2414  0.1815  0.2888
 3233SOL    HW121332   0.641   4.518  13.023 -1.0633 -1.6941  1.4672
 3233SOL    HW221333   0.614   4.653  13.046 -0.2904  0.3244  1.0817
 3234SOL     OW21334   2.746   2.095  11.487 -0.2678 -0.3915 -0.3832
 3234SOL    HW121335   2.804   2.162  11.449  0.8780 -1.4491 -0.4980
 3234SOL    HW221336   2.786   2.018  11.447 -2.1535 -1.1646 -0.7520
 3235SOL     OW21337   0.557   2.791  10.666 -0.0629 -0.0264  0.0715
 3235SOL    HW121338   0.506   2.849  10.723  1.9392 -0.2906  2.1110
 3235SOL    HW221339   0.647   2.800  10.698 -0.5224 -1.1860  1.6918
 3236SOL     OW21340   3.112   2.624   4.168  0.5117 -0.3304  0.7354
 3236SOL    HW121341   3.029   2.598   4.208  1.1432 -2.2333  0.8212
 3236SOL    HW221342   3.067   2.658   4.091 -0.7749  0.2038  1.7213
 3237SOL     OW21343   3.366   3.435   5.172 -0.3145  0.0728 -0.7119
 3237SOL    HW121344   3.442   3.493   5.174 -0.6901  0.5937 -1.7308
 3237SOL    HW221345   3.324   3.462   5.254  1.7873  2.0469 -0.2736
 3238SOL     OW21346   2.903   3.907  11.093 -0.0401 -0.2072  0.8008
 3238SOL    HW121347   2.928   3.844  11.025 -0.8227  0.9149 -0.5165
 3238SOL    HW221348   2.962   3.977  11.064  0.4609  0.4389  3.3509
 3239SOL     OW21349   3.494   2.595  17.524  0.1952  0.2235  0.6802
 3239SOL    HW121350   3.403   2.565  17.519  0.3207 -0.1546  0.6747
 3239SOL    HW221351   3.507   2.597  17.619 -1.0071  1.4455  0.8111
 3240SOL     OW21352   3.541   3.239   4.134  0.8193  0.0696 -0.0204
 3240SOL    HW121353   3.531   3.208   4.044 -0.7884 -1.6068  0.7401
 3240SOL    HW221354   3.450   3.262   4.150  1.1229  0.3292  1.3206
 3241SOL     OW21355   2.795   2.896  11.965 -0.1632  0.2922  0.1317
 3241SOL    HW121356   2.861   2.836  11.931  1.0820  1.7709 -0.0505
 3241SOL    HW221357   2.734   2.883  11.891 -1.3503  0.4351  1.0847
 3242SOL     OW21358   2.115   3.195  11.377 -0.6541 -0.4482 -0.2242
 3242SOL    HW121359   2.158   3.151  11.304  0.5237  0.5495 -0.1311
 3242SOL    HW221360   2.116   3.125  11.443 -1.4101  0.0577  0.3117
 3243SOL     OW21361   4.722   0.925   8.153 -0.0623 -0.5194  0.2790
 3243SOL    HW121362   4.697   1.015   8.176  1.5805  0.3823 -1.4803
 3243SOL    HW221363   4.686   0.865   8.219 -1.5631 -0.4584 -0.4692
 3244SOL     OW21364   4.547   0.040   6.026  0.6878 -0.0746  0.2412
 3244SOL    HW121365   4.487   0.063   6.097  1.2191  0.5024  0.5076
 3244SOL    HW221366   4.513   0.081   5.947 -1.1102  0.0237  1.0721
 3245SOL     OW21367   0.972   0.234   4.153  0.3473 -0.0958 -0.0111
 3245SOL    HW121368   0.926   0.286   4.219  1.1384  1.6022 -0.7847
 3245SOL    HW221369   0.976   0.291   4.077 -0.2310  1.3836  1.0573
 3246SOL     OW21370   3.164   2.135  12.210 -0.5492  1.0099 -0.2778
 3246SOL    HW121371   3.120   2.050  12.216  3.4251 -0.8916  1.7661
 3246SOL    HW221372   3.191   2.137  12.302  0.8776 -2.4530 -0.6392
 3247SOL     OW21373   0.031   0.470   5.738 -0.0451 -0.2596  0.3083
 3247SOL    HW121374   4.715   0.547   5.720  0.9534  0.4291  0.2750
 3247SOL    HW221375   0.114   0.518   5.742  0.4478 -1.1764  1.2373
 3248SOL     OW21376   0.981   1.956   1.309 -0.1800  0.3552 -1.0466
 3248SOL    HW121377   0.905   1.996   1.353  1.5148  1.4897  0.8707
 3248SOL    HW221378   0.988   2.009   1.229  1.4869 -1.5078 -2.1053
 3249SOL     OW21379   2.340   4.698   4.815 -0.3266 -0.2121  0.7443
 3249SOL    HW121380   2.355   4.605   4.800  0.8263 -0.1004  1.2016
 3249SOL    HW221381   2.271   4.713   4.751  0.3855 -2.0903 -0.4357
 3250SOL     OW21382   1.773   3.976   6.182 -0.3450 -0.3919 -0.3747
 3250SOL    HW121383   1.834   3.983   6.108  1.1151  0.1870  0.8852
 3250SOL    HW221384   1.701   3.925   6.145 -1.6031  0.2801  1.1665
 3251SOL     OW21385   0.801   1.629  14.795  0.0903  0.1928 -0.2033
 3251SOL    HW121386   0.723   1.666  14.837  1.2743 -0.7835  2.8794
 3251SOL    HW221387   0.867   1.635  14.864 -0.2710 -1.5090  0.3074
 3252SOL     OW21388   2.922   3.543   7.590 -0.2879  0.3684 -0.1377
 3252SOL    HW121389   2.856   3.478   7.616  0.3802  0.1908  1.1200
 3252SOL    HW221390   2.886   3.590   7.515 -1.2443 -0.8794 -0.4476
 3253SOL     OW21391   2.549   3.631   5.613  0.3039  0.3626  0.5499
 3253SOL    HW121392   2.578   3.543   5.637  0.5871  0.8490  2.0158
 3253SOL    HW221393   2.589   3.636   5.526 -0.0409  1.7263  0.4711
 3254SOL     OW21394   2.413   4.646   2.444 -0.1542 -0.2491  0.4029
 3254SOL    HW121395   2.393   4.664   2.352 -2.2111 -0.7666  0.7527
 3254SOL    HW221396   2.332   4.683   2.478  1.0067  1.0627  1.6967
 3255SOL     OW21397   1.313   3.056   1.196  0.7955  0.9173 -0.5671
 3255SOL    HW121398   1.357   3.133   1.162 -0.9310  1.5588 -1.3805
 3255SOL    HW221399   1.293   3.072   1.288 -0.2022 -0.8948 -0.4559
 3256SOL     OW21400   3.342   1.490   7.397  0.3596 -0.1589  0.8197
 3256SOL    HW121401   3.294   1.572   7.397  0.9535  0.1886  1.3333
 3256SOL    HW221402   3.324   1.447   7.480 -0.4853  0.4493  0.9440
 3257SOL     OW21403   4.194   2.659   2.645 -0.0150  0.9248 -0.0290
 3257SOL    HW121404   4.178   2.688   2.556 -2.4068  0.5074  0.2601
 3257SOL    HW221405   4.132   2.705   2.702 -1.2272 -0.3999 -0.2938
 3258SOL     OW21406   1.909   1.557   8.323 -0.4547  0.4956 -0.2079
 3258SOL    HW121407   1.903   1.464   8.304  1.8587 -0.1377  2.1835
 3258SOL    HW221408   1.910   1.579   8.229  1.6718 -1.2532 -0.6147
 3259SOL     OW21409   4.687   1.873   9.900  0.3398  0.0335  0.3136
 3259SOL    HW121410   4.642   1.829   9.972  0.5620 -0.0428  0.4053
 3259SOL    HW221411   0.035   1.831   9.905  0.5552  0.7296  2.3573
 3260SOL     OW21412   0.232   0.177   7.067  0.2207  0.1558  0.1108
 3260SOL    HW121413   0.309   0.119   7.068  0.4810  0.5051  0.2169
 3260SOL    HW221414   0.174   0.128   7.126 -0.7047  1.1746  0.0364
 3261SOL     OW21415   1.993   3.957   2.272 -0.6039  0.6644 -0.1655
 3261SOL    HW121416   2.032   3.924   2.353  1.3614  2.4678 -0.3783
 3261SOL    HW221417   2.013   4.051   2.275 -0.8352  0.6911  0.6986
 3262SOL     OW21418   3.411   4.155  13.216  0.5075 -0.0067 -0.3069
 3262SOL    HW121419   3.350   4.229  13.213  0.0135 -0.3016  2.0909
 3262SOL    HW221420   3.413   4.129  13.124  1.7949  1.3786 -0.6704
 3263SOL     OW21421   0.601   4.129   2.371 -0.5985 -0.1527 -0.0143
 3263SOL    HW121422   0.617   4.215   2.332  0.4958  0.3718  1.5970
 3263SOL    HW221423   0.621   4.139   2.464 -1.9437 -1.1495  0.3805
 3264SOL     OW21424   3.788   1.593   5.439 -0.6117  0.9049 -0.0695
 3264SOL    HW121425   3.719   1.653   5.410  1.0247  1.7501 -2.2129
 3264SOL    HW221426   3.852   1.659   5.466 -1.1533  1.3688  0.0683
 3265SOL     OW21427   1.614   0.971   7.663  0.0639  0.0301  0.1775
 3265SOL    HW121428   1.549   0.969   7.734  0.8150  0.5583  0.8765
 3265SOL    HW221429   1.614   0.878   7.640  1.5849  1.0350 -3.7716
 3266SOL     OW21430   3.441   3.778   9.186 -0.6250 -0.1249 -0.4449
 3266SOL    HW121431   3.401   3.692   9.202 -2.0354  0.8273  1.0481
 3266SOL    HW221432   3.382   3.846   9.216  1.3367  1.5829 -0.4520
 3267SOL     OW21433   1.966   3.453  11.607 -0.5027  0.7446 -0.0245
 3267SOL    HW121434   1.942   3.535  11.651 -1.7744 -0.8200  2.2272
 3267SOL    HW221435   1.883   3.406  11.612  2.4847 -4.2833  1.6693
 3268SOL     OW21436   4.231   3.439   4.014  0.5325  0.0264  0.2771
 3268SOL    HW121437   4.138   3.452   4.029  0.2861  0.2179 -1.3858
 3268SOL    HW221438   4.230   3.343   4.012 -0.8653  0.0835 -1.0945
 3269SOL     OW21439   1.495   2.186   1.889  0.2472  0.6598 -0.1242
 3269SOL    HW121440   1.466   2.137   1.967  0.5704 -0.2374 -0.5689
 3269SOL    HW221441   1.589   2.176   1.906 -0.2741 -2.3287  0.9697
 3270SOL     OW21442   2.903   4.466   9.132 -0.0892 -0.3525 -0.1450
 3270SOL    HW121443   2.816   4.428   9.143  0.4041 -1.3349  0.3009
 3270SOL    HW221444   2.898   4.528   9.205 -1.1698  1.7593 -2.0202
 3271SOL     OW21445   3.775   2.219   3.845  0.2764 -0.2077 -0.2442
 3271SOL    HW121446   3.779   2.245   3.937 -1.0909 -0.0492 -0.2282
 3271SOL    HW221447   3.855   2.168   3.831  0.9035  0.9124 -0.7059
 3272SOL     OW21448   3.749   2.857   3.219  0.5653  0.0559  0.5768
 3272SOL    HW121449   3.689   2.930   3.209  0.1807 -0.1735  1.2349
 3272SOL    HW221450   3.710   2.796   3.281  1.3450 -1.2111 -0.1608
 3273SOL     OW21451   3.760   4.315  15.431  0.2367  0.4215 -0.7181
 3273SOL    HW121452   3.738   4.241  15.374  1.3274  0.8763 -1.7333
 3273SOL    HW221453   3.701   4.317  15.506 -0.3115  1.3692 -1.1662
 3274SOL     OW21454   4.178   1.258   4.101  0.4720 -0.1619 -0.4023
 3274SOL    HW121455   4.173   1.163   4.113  0.2402 -0.0428  0.4296
 3274SOL    HW221456   4.243   1.251   4.032  2.3744  0.1663  1.3585
 3275SOL     OW21457   2.196   2.282   8.092  0.0153  0.6913 -0.6534
 3275SOL    HW121458   2.195   2.321   8.005  0.3537 -0.5118 -1.1953
 3275SOL    HW221459   2.248   2.349   8.137 -0.0441 -0.7158  1.5085
 3276SOL     OW21460   1.590   0.391  12.574  0.0923 -0.0875 -0.4672
 3276SOL    HW121461   1.507   0.347  12.595  0.3012 -0.8335 -1.1862
 3276SOL    HW221462   1.646   0.362  12.646  1.7214  2.3087 -0.8058
 3277SOL     OW21463   3.793   4.076  15.657 -0.2996  0.0470  0.4237
 3277SOL    HW121464   3.862   4.081  15.723 -0.2808 -0.3327  0.4310
 3277SOL    HW221465   3.854   4.091  15.584 -2.0187 -0.7650 -1.1716
 3278SOL     OW21466   3.809   3.257   7.757 -0.2050 -0.5521  0.1781
 3278SOL    HW121467   3.876   3.224   7.817  1.2540  1.3856 -0.3908
 3278SOL    HW221468   3.789   3.171   7.719 -3.2346  0.4655 -0.5220
 3279SOL     OW21469   3.748   2.768  15.707 -0.2933 -0.5220 -0.1279
 3279SOL    HW121470   3.718   2.719  15.630 -2.8237  1.3689 -0.3518
 3279SOL    HW221471   3.840   2.743  15.709  0.1911  0.7886 -4.9542
 3280SOL     OW21472   0.827   2.911   2.879 -0.0395  0.1218  0.5677
 3280SOL    HW121473   0.761   2.977   2.857  1.8193  1.6620 -0.3455
 3280SOL    HW221474   0.765   2.844   2.908  1.5595 -1.9887 -0.9109
 3281SOL     OW21475   3.368   0.363   5.024  0.8383 -0.2999  0.3038
 3281SOL    HW121476   3.408   0.321   5.100  0.0243  0.4951  1.1724
 3281SOL    HW221477   3.445   0.401   4.981  0.7945 -0.6358 -0.0732
 3282SOL     OW21478   3.578   4.669  17.159  0.0992 -0.1880  0.6507
 3282SOL    HW121479   3.587   0.027  17.166 -2.1035  0.0809 -0.2137
 3282SOL    HW221480   3.617   4.635  17.240  1.0885  0.1398  0.3100
 3283SOL     OW21481   3.507   3.610   7.484 -0.2029 -0.1506 -0.4225
 3283SOL    HW121482   3.458   3.554   7.545  0.2475  0.0614  0.1364
 3283SOL    HW221483   3.491   3.699   7.516 -1.6338 -1.3289  2.1829
 3284SOL     OW21484   3.044   0.023   1.768  0.4043  0.4360  0.3279
 3284SOL    HW121485   3.062   0.115   1.745  0.9508  0.2657  0.0886
 3284SOL    HW221486   3.085   0.023   1.854  1.6205 -0.8058 -0.2683
 3285SOL     OW21487   0.581   1.544   8.634 -0.4233 -0.4118  0.5713
 3285SOL    HW121488   0.529   1.566   8.712 -1.8903  0.6267 -0.6911
 3285SOL    HW221489   0.611   1.631   8.608 -0.5675 -0.4416  0.2998
 3286SOL     OW21490   3.560   1.218   5.056  0.3594 -0.0198 -0.1203
 3286SOL    HW121491   3.538   1.188   5.145  0.0103  2.0561  0.4953
 3286SOL    HW221492   3.470   1.238   5.029 -0.1051 -0.6219  0.9764
 3287SOL     OW21493   1.959   2.345   4.123 -0.4811 -0.5686 -0.1525
 3287SOL    HW121494   1.888   2.290   4.088 -2.3516  0.7340  1.6132
 3287SOL    HW221495   1.927   2.432   4.101  3.7578  0.8223 -0.7740
 3288SOL     OW21496   4.033   1.474   7.796  0.4519 -0.1127 -0.2959
 3288SOL    HW121497   4.120   1.513   7.793  0.1955  0.8121  3.4431
 3288SOL    HW221498   4.039   1.397   7.739  1.9604  0.0302 -0.3159
 3289SOL     OW21499   2.371   1.214  15.852  0.2988 -0.6290  0.1930
 3289SOL    HW121500   2.315   1.288  15.872 -1.1020 -1.4323 -0.7546
 3289SOL    HW221501   2.316   1.169  15.788  1.2839 -0.1486 -1.0005
 3290SOL     OW21502   0.108   0.688   4.664  0.0459  0.0439  0.2500
 3290SOL    HW121503   0.059   0.627   4.719 -0.6345 -0.6940 -1.1845
 3290SOL    HW221504   0.037   0.731   4.617 -0.5654 -0.8945  0.3238
 3291SOL     OW21505   1.046   0.520  13.250 -0.1093  0.0017  0.2319
 3291SOL    HW121506   1.111   0.492  13.313  0.8587 -1.2641 -1.3165
 3291SOL    HW221507   0.969   0.535  13.305  1.0942 -1.1381  2.2163
 3292SOL     OW21508   2.845   3.288   5.400 -0.4546  0.0457  0.4501
 3292SOL    HW121509   2.913   3.239   5.447  0.0676  1.4287  1.1309
 3292SOL    HW221510   2.884   3.375   5.399 -0.3967  0.0063 -0.6265
 3293SOL     OW21511   2.475   2.682   3.093  0.0466 -0.6897  0.7028
 3293SOL    HW121512   2.532   2.673   3.169  0.7991 -1.4074  0.0611
 3293SOL    HW221513   2.517   2.610   3.046 -0.7928  0.1209 -1.2925
 3294SOL     OW21514   4.364   3.124   4.514  0.2223  0.3764  0.3890
 3294SOL    HW121515   4.310   3.203   4.512 -0.2546  0.0698  1.3588
 3294SOL    HW221516   4.301   3.055   4.531  2.7704 -2.1747 -0.4995
 3295SOL     OW21517   3.745   3.334   1.230  0.6184 -0.0874  0.4277
 3295SOL    HW121518   3.654   3.331   1.258  0.4778 -1.9829 -0.2114
 3295SOL    HW221519   3.783   3.253   1.266  2.3618  1.2661  1.6220
 3296SOL     OW21520   1.802   1.990   2.249 -0.0021 -0.6102  0.1564
 3296SOL    HW121521   1.753   2.055   2.199  1.7073 -0.3269 -1.1525
 3296SOL    HW221522   1.796   1.911   2.195  1.8099 -0.5547 -0.1053
 3297SOL     OW21523   2.799   0.989   3.741 -0.4070 -0.8679  0.6224
 3297SOL    HW121524   2.854   1.067   3.751  0.1236 -1.1812  0.1367
 3297SOL    HW221525   2.867   0.922   3.745  0.0047 -0.5028 -0.1768
 3298SOL     OW21526   2.704   4.015   7.727  0.3533 -0.0157  0.0075
 3298SOL    HW121527   2.643   3.947   7.700  0.3581  1.3374 -3.4108
 3298SOL    HW221528   2.651   4.093   7.741  1.8485  0.9622  0.2512
 3299SOL     OW21529   2.819   2.811   8.062  0.9286  0.7058 -0.1095
 3299SOL    HW121530   2.794   2.853   8.144 -3.2641  0.3621 -1.1984
 3299SOL    HW221531   2.909   2.839   8.043  1.0395 -0.1561 -0.8564
 3300SOL     OW21532   2.636   1.310   2.768  0.2633  0.1027 -0.4652
 3300SOL    HW121533   2.561   1.337   2.715  0.2788 -0.4601 -0.7685
 3300SOL    HW221534   2.591   1.289   2.850  1.5171  1.1497  0.4850
 3301SOL     OW21535   3.798   0.283   3.755 -0.0945 -0.5486 -0.0626
 3301SOL    HW121536   3.720   0.318   3.711  0.0638 -1.1485 -0.8246
 3301SOL    HW221537   3.858   0.356   3.739  0.4041 -0.2528  3.2049
 3302SOL     OW21538   2.094   2.045   8.629 -0.0974 -0.0925  0.5256
 3302SOL    HW121539   2.101   2.124   8.683 -0.8553 -0.0093  0.5011
 3302SOL    HW221540   2.002   2.034   8.605 -0.6426  2.0190  1.6800
 3303SOL     OW21541   1.896   2.796   0.914  0.2048  0.1960  0.1724
 3303SOL    HW121542   1.954   2.736   0.868 -2.0984 -0.2840 -2.1423
 3303SOL    HW221543   1.822   2.736   0.923 -0.5490  1.1885  0.6578
 3304SOL     OW21544   0.212   4.648  14.305 -0.8471 -0.1343 -0.3665
 3304SOL    HW121545   0.280   4.658  14.239 -0.2523 -0.3113  0.2206
 3304SOL    HW221546   0.189   0.000  14.328  1.0597  0.3261 -0.2671
 3305SOL     OW21547   3.814   2.899   2.231 -0.0894  0.0874  0.2713
 3305SOL    HW121548   3.898   2.900   2.184  0.7652 -3.0004  1.7368
 3305SOL    HW221549   3.780   2.811   2.212 -0.5187  0.0634  1.1884
 3306SOL     OW21550   3.246   2.330   6.859 -0.1498  0.0612 -0.0779
 3306SOL    HW121551   3.312   2.342   6.927  1.7303 -2.5982 -1.4339
 3306SOL    HW221552   3.203   2.416   6.857  0.7682  0.4956 -1.5033
 3307SOL     OW21553   1.850   4.632  11.517 -0.1670 -0.7756  0.0984
 3307SOL    HW121554   1.811   4.649  11.431 -0.9382  2.4985  1.0864
 3307SOL    HW221555   1.805   4.553  11.545 -0.5185  0.1637  2.1565
 3308SOL     OW21556   2.926   1.367  11.491 -0.2297 -0.3292  0.3921
 3308SOL    HW121557   2.833   1.382  11.480 -0.1481 -0.5480 -0.5744
 3308SOL    HW221558   2.962   1.418  11.419 -0.6932  1.0592  1.1428
 3309SOL     OW21559   0.841   1.062   4.580  0.2560  0.1358 -0.0659
 3309SOL    HW121560   0.929   1.064   4.541  0.2371 -0.8299 -0.1619
 3309SOL    HW221561   0.814   1.153   4.566 -1.1498 -0.2542  0.0929
 3310SOL     OW21562   0.437   3.823   3.441 -0.2888 -0.2559  0.6989
 3310SOL    HW121563   0.435   3.758   3.511  1.5040 -0.9256  0.1396
 3310SOL    HW221564   0.447   3.908   3.485 -1.4364 -0.3384  1.1164
 3311SOL     OW21565   2.548   0.571   9.373 -0.6574  0.0561 -0.0848
 3311SOL    HW121566   2.643   0.578   9.382 -0.4941  0.3044 -1.8955
 3311SOL    HW221567   2.528   0.477   9.371  2.0653 -0.5156 -0.3795
 3312SOL     OW21568   4.033   2.784   9.195 -0.3716 -0.3467  0.3015
 3312SOL    HW121569   4.010   2.846   9.125  2.7128 -2.3176 -2.4812
 3312SOL    HW221570   4.002   2.706   9.150  1.2963 -0.1437 -1.1976
 3313SOL     OW21571   4.092   3.889  12.924 -0.0244 -0.1497  0.5311
 3313SOL    HW121572   4.030   3.960  12.938 -0.0731  0.2887 -1.9426
 3313SOL    HW221573   4.159   3.899  12.991  0.3202 -1.3643  0.3748
 3314SOL     OW21574   3.579   3.989   3.462 -0.2813 -0.0445 -0.1617
 3314SOL    HW121575   3.655   3.947   3.502 -1.2611 -2.4216 -0.7763
 3314SOL    HW221576   3.620   4.010   3.378 -0.0729  0.1688 -0.0058
 3315SOL     OW21577   3.727   2.681  11.982  0.0142  0.3206  0.5552
 3315SOL    HW121578   3.763   2.602  11.941 -1.1808  0.7976 -1.4277
 3315SOL    HW221579   3.685   2.640  12.058  1.0408  0.4671  1.2040
 3316SOL     OW21580   3.155   2.674   1.436  0.3616  0.7729 -0.0165
 3316SOL    HW121581   3.139   2.759   1.396 -0.8172  0.7882  0.4825
 3316SOL    HW221582   3.247   2.679   1.460  0.5502 -1.4823 -0.2333
 3317SOL     OW21583   2.154   2.426  16.886 -0.0594  0.1943 -0.0061
 3317SOL    HW121584   2.211   2.354  16.859  0.3694 -0.1632  1.8322
 3317SOL    HW221585   2.172   2.417  16.980  3.3013 -1.1343 -0.7669
 3318SOL     OW21586   3.578   0.108   5.570  0.3451  0.6204 -0.1974
 3318SOL    HW121587   3.599   0.193   5.532 -0.8772  0.4659 -1.2196
 3318SOL    HW221588   3.508   0.126   5.632 -1.6892 -0.4741 -2.1401
 3319SOL     OW21589   2.633   4.469   8.614  0.3079  0.5991 -0.2822
 3319SOL    HW121590   2.711   4.419   8.588  1.6614  1.6333  1.7153
 3319SOL    HW221591   2.653   4.472   8.708  0.2536  2.7744 -0.3438
 3320SOL     OW21592   1.755   2.948   7.666  0.5146 -0.3216 -0.3880
 3320SOL    HW121593   1.673   2.990   7.692  0.8158 -0.1921  0.3832
 3320SOL    HW221594   1.720   2.869   7.625  0.1150 -0.3800  0.0549
 3321SOL     OW21595   3.114   1.744   1.696  0.4631 -0.1318  0.1895
 3321SOL    HW121596   3.086   1.769   1.784 -0.1535  2.5355 -0.7613
 3321SOL    HW221597   3.087   1.653   1.691 -0.0377 -0.0606  1.7407
 3322SOL     OW21598   1.571   0.849   4.332  0.2456 -0.0390  0.0223
 3322SOL    HW121599   1.650   0.903   4.329  0.4455 -0.3045  0.4514
 3322SOL    HW221600   1.567   0.827   4.239  3.2618 -2.7970  0.5501
 3323SOL     OW21601   3.295   1.509  12.156 -0.2192 -0.5771  0.2129
 3323SOL    HW121602   3.325   1.600  12.161 -0.2292 -0.6006  0.7378
 3323SOL    HW221603   3.360   1.456  12.202  0.2828 -0.4399 -0.3285
 3324SOL     OW21604   0.260   4.251  10.042  0.1968  0.1158  0.0011
 3324SOL    HW121605   0.315   4.199   9.983  2.1635  2.0525  0.1002
 3324SOL    HW221606   0.305   4.265  10.125  1.5274  0.0658 -0.7117
 3325SOL     OW21607   2.346   2.147  10.974 -0.4619  0.4314 -0.0330
 3325SOL    HW121608   2.394   2.230  10.974  0.3801 -0.0642 -1.7856
 3325SOL    HW221609   2.316   2.152  10.883 -0.0411 -0.6790 -0.2271
 3326SOL     OW21610   0.936   4.193   3.904 -0.3988  0.0064 -0.0123
 3326SOL    HW121611   0.882   4.173   3.828 -2.4558  0.1763  1.3903
 3326SOL    HW221612   0.984   4.112   3.918  0.3113 -0.0699 -2.8662
 3327SOL     OW21613   2.582   3.566   6.485 -0.1850 -0.5328  0.0417
 3327SOL    HW121614   2.599   3.504   6.415  0.6328 -0.4509  0.1606
 3327SOL    HW221615   2.498   3.603   6.459 -0.5419  0.0581  2.0081
 3328SOL     OW21616   2.064   2.438  11.594  0.2703 -0.3968  0.2306
 3328SOL    HW121617   2.035   2.525  11.622 -2.8364 -1.1133 -0.7666
 3328SOL    HW221618   2.150   2.429  11.634  0.1172  0.4455  0.7392
 3329SOL     OW21619   3.507   3.227   6.550  0.2593  0.8036 -0.3028
 3329SOL    HW121620   3.424   3.219   6.503 -0.2544  4.0846  0.0497
 3329SOL    HW221621   3.482   3.183   6.632  0.2921 -0.9512 -1.2326
 3330SOL     OW21622   0.642   3.874   1.986 -0.5580 -0.4003  0.3036
 3330SOL    HW121623   0.562   3.914   2.018 -0.0977  0.4421  0.3866
 3330SOL    HW221624   0.622   3.848   1.896 -1.7480  0.3484  0.3515
 3331SOL     OW21625   1.015   1.801   7.303  0.1346 -0.0360  0.2009
 3331SOL    HW121626   0.969   1.717   7.303  1.4736 -0.7778  0.2128
 3331SOL    HW221627   1.018   1.830   7.394  0.6576  0.2363  0.0990
 3332SOL     OW21628   2.950   1.886  17.405 -0.1851  0.1785  0.2034
 3332SOL    HW121629   2.861   1.855  17.416  0.4852 -1.8863 -0.0824
 3332SOL    HW221630   2.953   1.936  17.324 -0.6134  1.1480  0.7861
 3333SOL     OW21631   2.678   4.256  16.372  0.1429  0.0977  0.4211
 3333SOL    HW121632   2.633   4.256  16.456  1.8035 -1.0930  1.3305
 3333SOL    HW221633   2.652   4.343  16.342  1.6772  0.4055 -0.0603
 3334SOL     OW21634   2.001   2.345   1.649 -0.1115  0.6541 -0.1683
 3334SOL    HW121635   1.970   2.263   1.610 -1.3917  1.2227 -0.3414
 3334SOL    HW221636   1.938   2.405   1.609  0.8929  1.7590 -0.0864
 3335SOL     OW21637   0.873   0.194  12.849  0.3656 -0.3607 -0.4571
 3335SOL    HW121638   0.901   0.209  12.759 -0.1138 -1.7743 -0.8306
 3335SOL    HW221639   0.946   0.224  12.903 -1.2269  1.0517  0.9293
 3336SOL     OW21640   1.430   4.395   6.143  0.2541 -0.2932 -0.5477
 3336SOL    HW121641   1.507   4.337   6.146 -0.7593 -1.5208  2.6892
 3336SOL    HW221642   1.466   4.470   6.096 -1.0130 -0.3130 -1.5355
 3337SOL     OW21643   0.621   0.492   2.991 -0.3928 -0.5527  0.1291
 3337SOL    HW121644   0.617   0.398   3.004  1.5117 -0.5167  0.9836
 3337SOL    HW221645   0.608   0.524   3.081 -0.9457 -0.4037 -0.0030
 3338SOL     OW21646   1.917   4.575  16.582 -0.0224 -0.2495 -0.2971
 3338SOL    HW121647   1.876   4.570  16.496 -0.4602  0.5752 -0.1367
 3338SOL    HW221648   1.881   4.660  16.608 -0.0542  0.0481 -1.3330
 3339SOL     OW21649   0.375   3.779   3.848 -0.2352 -0.1231  0.3907
 3339SOL    HW121650   0.437   3.752   3.780 -0.9392 -0.4981 -0.1051
 3339SOL    HW221651   0.295   3.778   3.795  0.0017 -0.1542  0.0378
 3340SOL     OW21652   0.118   2.061  13.306  0.4502 -0.1544  0.0112
 3340SOL    HW121653   0.122   1.993  13.238  1.3235 -1.4512  1.3654
 3340SOL    HW221654   0.211   2.063  13.327  0.5196 -1.0036 -0.2084
 3341SOL     OW21655   1.496   0.372  13.607 -0.6342  0.2403 -0.2840
 3341SOL    HW121656   1.523   0.349  13.696  0.0467  1.9512 -0.0519
 3341SOL    HW221657   1.405   0.399  13.617 -0.4108  0.6100  0.7084
 3342SOL     OW21658   1.792   2.691   8.093 -0.1926  0.2377 -0.0037
 3342SOL    HW121659   1.723   2.743   8.133 -1.1693 -1.0942  0.0404
 3342SOL    HW221660   1.771   2.600   8.113  1.6571 -0.5709 -1.6703
 3343SOL     OW21661   0.685   0.612   2.507 -0.0164  0.5973  0.1500
 3343SOL    HW121662   0.749   0.683   2.505 -0.8799  1.3812 -0.0761
 3343SOL    HW221663   0.629   0.626   2.584  0.5757 -2.1764  1.0894
 3344SOL     OW21664   2.998   1.414   5.404 -0.2077  0.6009  0.0974
 3344SOL    HW121665   2.955   1.428   5.488  1.2710 -1.5636  1.2072
 3344SOL    HW221666   3.056   1.490   5.402  1.0129 -0.3839 -2.3665
 3345SOL     OW21667   0.277   3.765   4.591 -0.2480  0.4004  0.3036
 3345SOL    HW121668   0.302   3.804   4.507 -1.4685 -0.3366 -0.3957
 3345SOL    HW221669   0.344   3.798   4.651  0.0008  1.1228 -0.3752
 3346SOL     OW21670   4.713   0.159   1.023 -0.2215  0.4510 -0.2107
 3346SOL    HW121671   4.683   0.204   1.102  2.3289 -0.0586  1.0595
 3346SOL    HW221672   4.729   0.231   0.962  0.8314 -0.4322 -0.9969
 3347SOL     OW21673   3.377   3.020   4.094  0.5168  0.0218  0.6539
 3347SOL    HW121674   3.342   2.938   4.128 -0.0146 -0.2587 -0.5524
 3347SOL    HW221675   3.399   3.054   4.181 -3.5053  1.0143  1.2927
 3348SOL     OW21676   0.729   4.338  12.483  0.0521  0.2680 -0.0390
 3348SOL    HW121677   0.659   4.401  12.465 -0.6635 -1.0436 -1.9619
 3348SOL    HW221678   0.692   4.253  12.459 -2.3145  1.3999 -0.4684
 3349SOL     OW21679   3.243   3.423   8.591 -0.4456  0.7730  0.0408
 3349SOL    HW121680   3.181   3.480   8.545 -2.0923 -2.0187 -1.1678
 3349SOL    HW221681   3.278   3.386   8.510  1.0330 -1.5521  1.7457
 3350SOL     OW21682   0.403   0.565   4.721 -0.2051 -0.0100 -0.3030
 3350SOL    HW121683   0.418   0.580   4.628  0.2100 -1.0070 -0.3876
 3350SOL    HW221684   0.308   0.574   4.731 -0.2569 -1.4681  0.5091
 3351SOL     OW21685   1.237   3.959  14.155  0.6323  0.0165  0.1011
 3351SOL    HW121686   1.192   4.010  14.087  0.6512  0.4668  0.4295
 3351SOL    HW221687   1.251   4.032  14.216  2.7236 -0.1722 -0.1650
 3352SOL     OW21688   1.843   3.658  12.134 -0.2092  0.0604  0.3296
 3352SOL    HW121689   1.768   3.659  12.192 -0.7118  0.6777 -0.3435
 3352SOL    HW221690   1.803   3.610  12.061 -1.6133 -0.6326  1.5648
 3353SOL     OW21691   3.253   2.473   4.390 -0.6439 -0.1068 -0.3799
 3353SOL    HW121692   3.216   2.386   4.378  2.8644 -1.6706  0.2818
 3353SOL    HW221693   3.260   2.503   4.299 -1.4813 -1.3045 -0.8434
 3354SOL     OW21694   0.132   3.327  12.484  0.3677 -0.0381 -0.0671
 3354SOL    HW121695   0.196   3.263  12.454 -2.0642 -1.9555 -1.1213
 3354SOL    HW221696   0.057   3.272  12.508  0.6513 -0.7704 -0.8588
 3355SOL     OW21697   1.673   0.809   2.630 -0.0006 -0.1423  0.5655
 3355SOL    HW121698   1.657   0.741   2.696 -1.5723  0.1159  0.4410
 3355SOL    HW221699   1.616   0.796   2.555 -1.6559  1.2213  1.5861
 3356SOL     OW21700   3.306   4.470  10.109  0.1783 -0.7826  0.1969
 3356SOL    HW121701   3.365   4.420  10.166  0.7129 -1.3239 -0.8254
 3356SOL    HW221702   3.226   4.435  10.148 -0.9173 -0.0925 -1.4720
 3357SOL     OW21703   2.334   3.137  12.786 -0.3306  0.2098  0.0902
 3357SOL    HW121704   2.255   3.169  12.831  0.7581  0.5833  1.7734
 3357SOL    HW221705   2.371   3.215  12.745  0.4433  0.1693  0.7091
 3358SOL     OW21706   2.857   2.385  12.032  0.2992 -0.5272  0.9708
 3358SOL    HW121707   2.829   2.389  11.941  2.6354 -1.7560  0.1826
 3358SOL    HW221708   2.950   2.368  12.016  0.0596 -1.4445  0.5742
 3359SOL     OW21709   2.378   3.066   2.784 -0.5386 -0.1230  0.4181
 3359SOL    HW121710   2.283   3.061   2.780 -0.6218  1.9595 -0.1544
 3359SOL    HW221711   2.387   3.149   2.831 -1.2677  1.3631 -2.0747
 3360SOL     OW21712   0.359   1.373   4.848 -0.2327 -0.0790  0.4429
 3360SOL    HW121713   0.283   1.316   4.864  0.1035 -0.8592 -0.7770
 3360SOL    HW221714   0.418   1.303   4.823  0.0448  0.5006 -0.5065
 3361SOL     OW21715   1.224   3.483   3.620 -0.1938 -0.0345  0.2037
 3361SOL    HW121716   1.282   3.410   3.599  0.4935  0.0976  1.6613
 3361SOL    HW221717   1.154   3.482   3.554 -0.8616  0.8999  0.8933
 3362SOL     OW21718   3.970   2.862  10.780  0.6384  0.3136  0.5279
 3362SOL    HW121719   3.883   2.878  10.816  0.3578  0.1595 -0.0815
 3362SOL    HW221720   3.967   2.886  10.688  0.5297  0.2860  0.5243
 3363SOL     OW21721   2.507   1.132   6.987 -0.0132  0.3830 -0.2168
 3363SOL    HW121722   2.459   1.058   7.024  0.2240  0.9554  1.2273
 3363SOL    HW221723   2.513   1.121   6.892  2.2954 -1.9190  0.2108
 3364SOL     OW21724   0.074   3.147  13.170 -0.0327 -0.2429  0.3132
 3364SOL    HW121725   0.117   3.073  13.127 -1.7417 -2.3467  2.2067
 3364SOL    HW221726   4.722   3.128  13.142  1.7528 -3.6377 -3.1343
 3365SOL     OW21727   4.347   1.048   4.227 -0.5853  0.2718  0.2333
 3365SOL    HW121728   4.265   1.001   4.245 -2.0543  2.4046 -0.9750
 3365SOL    HW221729   4.343   1.119   4.291 -0.7464  2.0686 -1.7725
 3366SOL     OW21730   3.017   4.427   6.090  0.2946  0.3123 -0.1517
 3366SOL    HW121731   3.052   4.371   6.159 -0.2293  0.4575  0.2214
 3366SOL    HW221732   3.084   4.431   6.021 -1.4643  1.0010 -1.8036
 3367SOL     OW21733   3.440   3.654   3.366 -0.3684  0.1781 -0.0786
 3367SOL    HW121734   3.383   3.702   3.307  1.7656  1.3761 -1.1796
 3367SOL    HW221735   3.380   3.650   3.441 -1.1394  1.5914 -0.6320
 3368SOL     OW21736   0.208   1.093  11.584  0.2676 -0.1947  0.0835
 3368SOL    HW121737   0.251   1.173  11.556 -1.7788  0.6261 -0.6672
 3368SOL    HW221738   0.190   1.110  11.676  0.2896 -0.0465  0.0591
 3369SOL     OW21739   4.046   3.890   7.899 -0.2226 -0.0254  0.3141
 3369SOL    HW121740   4.023   3.797   7.897 -0.1526 -0.0288 -0.6269
 3369SOL    HW221741   3.987   3.929   7.963 -0.6064  1.5842 -1.0005
 3370SOL     OW21742   1.542   4.254   8.620 -0.6937 -0.3499 -0.1242
 3370SOL    HW121743   1.543   4.216   8.532 -0.2914 -0.9912  0.1512
 3370SOL    HW221744   1.613   4.317   8.625 -0.9107  0.0303 -1.8976
 3371SOL     OW21745   3.047   4.098   4.507 -0.4496  0.7179  0.0086
 3371SOL    HW121746   2.966   4.085   4.456 -0.6615  0.0144  0.5271
 3371SOL    HW221747   3.059   4.192   4.495  1.9724  0.5288  0.9301
 3372SOL     OW21748   3.033   1.436   6.053  0.2639  0.3627 -0.2239
 3372SOL    HW121749   2.946   1.399   6.068 -0.2280  1.4139 -0.4601
 3372SOL    HW221750   3.016   1.522   6.015 -2.0910  0.7279  1.6887
 3373SOL     OW21751   2.582   0.246   1.290 -0.2940 -0.6149 -0.4515
 3373SOL    HW121752   2.613   0.183   1.355 -0.8136  0.3354  0.7275
 3373SOL    HW221753   2.564   0.188   1.217  1.0237 -0.5766 -0.8006
 3374SOL     OW21754   2.089   3.849  15.986  0.1986  0.3215  0.4256
 3374SOL    HW121755   2.141   3.769  15.975 -1.9673 -0.8510 -1.1118
 3374SOL    HW221756   2.114   3.903  15.911  1.5461  0.9239  1.2986
 3375SOL     OW21757   1.733   2.854   2.447 -0.1075  0.1715 -0.1913
 3375SOL    HW121758   1.676   2.844   2.523  2.8829 -0.2358  1.9909
 3375SOL    HW221759   1.803   2.910   2.481  0.3405  0.3481 -1.3972
 3376SOL     OW21760   1.812   0.883   7.178  0.3184  0.2398  0.0451
 3376SOL    HW121761   1.835   0.793   7.159  0.2800  0.0245  1.0220
 3376SOL    HW221762   1.897   0.913   7.210  1.0780 -0.6073 -1.1837
 3377SOL     OW21763   2.892   2.205  15.279 -0.1124 -0.2396  0.2930
 3377SOL    HW121764   2.828   2.269  15.249 -0.2829  0.0870  1.3706
 3377SOL    HW221765   2.897   2.148  15.202 -2.3332  1.4891 -1.1364
 3378SOL     OW21766   4.092   0.127  16.420 -0.0294 -0.6392 -0.0798
 3378SOL    HW121767   4.029   0.065  16.382 -1.1906  1.6313 -1.8818
 3378SOL    HW221768   4.160   0.122  16.353 -0.4948 -0.4372 -0.5708
 3379SOL     OW21769   2.865   0.461  12.405  0.5078  0.1764 -0.0693
 3379SOL    HW121770   2.863   0.503  12.319  0.5289 -2.2469 -1.2774
 3379SOL    HW221771   2.775   0.461  12.437  0.1494 -4.0069 -1.0267
 3380SOL     OW21772   3.245   0.117   8.745  0.5500  0.5572  0.0649
 3380SOL    HW121773   3.169   0.064   8.723 -0.7813  2.7910 -0.7769
 3380SOL    HW221774   3.205   0.203   8.734  1.4480  0.9797  0.0644
 3381SOL     OW21775   2.528   4.565   9.713 -0.0471  0.1688  0.4279
 3381SOL    HW121776   2.437   4.574   9.741  0.0457  1.5779  0.3017
 3381SOL    HW221777   2.572   4.600   9.791 -0.5588 -0.2998  0.9276
 3382SOL     OW21778   0.037   0.455  11.784  0.8079  0.0766  0.5143
 3382SOL    HW121779   0.024   0.535  11.834 -2.8931 -0.1342 -0.1432
 3382SOL    HW221780   0.132   0.462  11.774  0.5504 -0.1594 -2.1192
 3383SOL     OW21781   3.475   1.787   6.127 -0.1803  0.1316  0.0120
 3383SOL    HW121782   3.503   1.769   6.038  1.0411  0.9118  0.2498
 3383SOL    HW221783   3.507   1.876   6.141  0.7434 -0.1493 -0.3542
 3384SOL     OW21784   2.766   2.541   2.724  0.9359 -0.4460  0.3621
 3384SOL    HW121785   2.832   2.608   2.709 -0.4980  0.3694 -2.4240
 3384SOL    HW221786   2.785   2.472   2.660  3.1527  1.5101 -1.0887
 3385SOL     OW21787   3.400   2.381  12.193 -0.2073 -0.1064 -0.2161
 3385SOL    HW121788   3.441   2.298  12.214  0.8284  0.7584  1.2254
 3385SOL    HW221789   3.404   2.414  12.283 -2.6981 -0.5922  0.0837
 3386SOL     OW21790   1.162   1.460   2.135 -0.0371 -0.6997 -0.1978
 3386SOL    HW121791   1.101   1.528   2.162 -0.7490 -0.9608 -1.1614
 3386SOL    HW221792   1.241   1.513   2.139  0.8845 -1.8760 -2.8127
 3387SOL     OW21793   0.110   2.468   1.124 -0.2158  0.3426 -0.4225
 3387SOL    HW121794   0.078   2.391   1.170  0.9092 -0.2571 -0.6391
 3387SOL    HW221795   0.146   2.427   1.045 -0.0340 -0.8599  0.2842
 3388SOL     OW21796   1.980   4.194   3.527 -0.2417 -0.4299  0.2327
 3388SOL    HW121797   1.893   4.174   3.493 -0.2261  1.2623 -0.8246
 3388SOL    HW221798   1.981   4.178   3.621 -1.2751  0.7509  0.4506
 3389SOL     OW21799   1.749   3.757  12.868  0.4268 -0.2396 -0.2202
 3389SOL    HW121800   1.788   3.709  12.941 -0.0708 -0.5994 -0.1875
 3389SOL    HW221801   1.663   3.761  12.910  0.1707  1.3012 -0.9047
 3390SOL     OW21802   4.273   2.627  16.133  0.0971  0.7601 -0.0160
 3390SOL    HW121803   4.195   2.589  16.173 -0.0864  0.4592 -0.6626
 3390SOL    HW221804   4.326   2.652  16.208 -1.4839 -0.1919  1.4132
 3391SOL     OW21805   4.503   3.895  10.237  0.4356 -0.6805 -0.2169
 3391SOL    HW121806   4.594   3.922  10.224  0.3379 -0.3331 -0.1803
 3391SOL    HW221807   4.510   3.859  10.325 -1.3885  1.7863  0.9422
 3392SOL     OW21808   0.985   1.142   8.100  0.1382 -0.3655 -0.3243
 3392SOL    HW121809   1.046   1.127   8.028  0.6592  0.1668  0.0016
 3392SOL    HW221810   0.964   1.049   8.101  0.1434 -0.3811 -1.6979
 3393SOL     OW21811   2.095   3.795   7.629  0.0846 -0.6952  0.2341
 3393SOL    HW121812   2.004   3.769   7.640  0.6230 -2.0549  1.5761
 3393SOL    HW221813   2.118   3.725   7.568 -2.1908 -0.8648 -0.4314
 3394SOL     OW21814   3.172   4.076   9.139 -0.0452 -0.0481  0.1952
 3394SOL    HW121815   3.186   3.990   9.098  1.1752 -0.3056  1.1302
 3394SOL    HW221816   3.163   4.133   9.062 -1.0341 -1.8962 -1.0597
 3395SOL     OW21817   0.157   3.649  15.548  0.2718 -0.7441  0.7425
 3395SOL    HW121818   0.188   3.560  15.534 -0.4937 -0.8951  0.0113
 3395SOL    HW221819   0.179   3.661  15.640  1.9753 -0.7277  0.3293
 3396SOL     OW21820   0.953   0.388   4.589  0.2529 -0.0771  0.0014
 3396SOL    HW121821   1.025   0.402   4.650 -1.1020 -0.3357  1.6541
 3396SOL    HW221822   0.874   0.404   4.640 -0.9360 -3.2725 -0.8516
 3397SOL     OW21823   0.890   3.100   9.900  0.9750  0.3567 -0.0442
 3397SOL    HW121824   0.849   3.184   9.920 -0.1065  0.1023 -1.1897
 3397SOL    HW221825   0.972   3.085   9.947  1.4926 -0.5571 -1.2426
 3398SOL     OW21826   2.863   0.330   6.456 -0.2865  0.2189 -0.1552
 3398SOL    HW121827   2.849   0.354   6.547 -0.6627 -0.5520 -0.0077
 3398SOL    HW221828   2.889   0.414   6.418 -0.5750  0.1517 -0.5053
 3399SOL     OW21829   0.911   1.935   5.618  0.1831 -0.6804 -0.1998
 3399SOL    HW121830   0.889   1.901   5.704 -0.1163  2.4536  0.9616
 3399SOL    HW221831   0.972   1.877   5.574  0.1954 -1.1975  0.5054
 3400SOL     OW21832   0.743   0.895   2.344 -0.1582  0.0408  0.4333
 3400SOL    HW121833   0.747   0.828   2.276 -0.6906  0.3246  0.1248
 3400SOL    HW221834   0.648   0.899   2.356 -0.4567  0.2636 -1.9302
 3401SOL     OW21835   0.829   1.095   9.308  0.1009  0.1751  0.1970
 3401SOL    HW121836   0.816   1.001   9.301 -1.4397  0.5949 -2.2179
 3401SOL    HW221837   0.915   1.100   9.351  0.5179 -1.2499 -0.4841
 3402SOL     OW21838   2.938   0.938   6.770  0.3009 -0.0593 -0.0511
 3402SOL    HW121839   2.990   1.007   6.809  3.9145 -2.8003  0.0004
 3402SOL    HW221840   2.849   0.973   6.776  0.5096  0.3151  0.8521
 3403SOL     OW21841   2.888   3.800   5.297 -0.2164  0.1902 -0.1106
 3403SOL    HW121842   2.895   3.888   5.261 -1.3252 -0.1669 -1.1810
 3403SOL    HW221843   2.978   3.795   5.330 -0.0530 -0.8194 -0.7064
 3404SOL     OW21844   0.661   1.458   3.677  0.5079 -0.3572  0.5665
 3404SOL    HW121845   0.637   1.481   3.587 -0.7654  0.4706  1.1265
 3404SOL    HW221846   0.672   1.545   3.715  2.3709  0.1012 -1.0201
 3405SOL     OW21847   3.665   2.560  12.210  0.1223  0.3320 -0.7082
 3405SOL    HW121848   3.599   2.552  12.278  0.0591  0.7246 -0.7211
 3405SOL    HW221849   3.695   2.472  12.230 -1.1826  0.1088  0.2478
 3406SOL     OW21850   1.948   0.956  15.512 -0.4433  0.2290 -0.5863
 3406SOL    HW121851   1.855   0.973  15.497 -0.2746  0.2223 -1.6596
 3406SOL    HW221852   1.971   1.048  15.497 -2.3283  0.8734  0.5659
 3407SOL     OW21853   0.429   4.018   6.967 -0.5021 -0.1921  0.2766
 3407SOL    HW121854   0.497   4.018   7.034 -0.2118 -1.8592 -0.0172
 3407SOL    HW221855   0.359   4.065   7.013 -0.3811  0.8725 -0.6238
 3408SOL     OW21856   3.478   0.026   3.720 -0.3389 -0.2286 -0.5047
 3408SOL    HW121857   3.427   0.099   3.685 -0.9931 -0.2365  0.4390
 3408SOL    HW221858   3.474   4.713   3.639 -4.2129  1.9513 -1.6765
 3409SOL     OW21859   0.404   3.997   6.145 -0.3640  0.3694 -0.1907
 3409SOL    HW121860   0.395   3.999   6.049  0.7038  0.4272 -0.2913
 3409SOL    HW221861   0.311   4.014   6.162 -0.7489 -1.4611 -0.3976
 3410SOL     OW21862   4.486   3.952  12.855  0.1132 -0.7769  0.0434
 3410SOL    HW121863   4.516   3.921  12.940  1.3079  0.3678  0.0489
 3410SOL    HW221864   4.460   3.866  12.821 -1.5558  0.0000 -0.6341
 3411SOL     OW21865   0.766   2.462   4.744  0.1636 -0.2600 -0.1766
 3411SOL    HW121866   0.842   2.494   4.792 -0.5239  0.8605  0.1621
 3411SOL    HW221867   0.792   2.371   4.729 -1.5438 -0.7109 -0.3722
 3412SOL     OW21868   1.802   0.629  15.293  0.0167 -0.1744  0.5213
 3412SOL    HW121869   1.838   0.639  15.205 -0.2917  2.4649  0.6942
 3412SOL    HW221870   1.829   0.539  15.312 -0.0595  0.1459  2.1608
 3413SOL     OW21871   0.427   1.151  15.770 -0.8326  0.5368 -0.1135
 3413SOL    HW121872   0.503   1.197  15.736 -1.8438  0.3670 -2.5764
 3413SOL    HW221873   0.393   1.105  15.694 -0.2739 -1.0577  0.6135
 3414SOL     OW21874   4.320   0.372  12.527  0.0169 -0.4732  0.2631
 3414SOL    HW121875   4.340   0.466  12.526 -1.7161 -0.1096  0.5745
 3414SOL    HW221876   4.246   0.383  12.469  1.0434 -0.3384 -1.0130
 3415SOL     OW21877   1.613   2.808   9.399 -0.0132 -0.2726 -0.2912
 3415SOL    HW121878   1.544   2.859   9.441 -1.2108 -2.2793  0.1865
 3415SOL    HW221879   1.587   2.726   9.442 -0.0185 -0.3493 -0.4399
 3416SOL     OW21880   2.986   0.667   7.950 -0.6133  0.0475  0.4985
 3416SOL    HW121881   3.017   0.751   7.984  1.3609 -1.5795  2.6773
 3416SOL    HW221882   2.968   0.624   8.034 -0.7377 -2.0030 -0.5752
 3417SOL     OW21883   1.799   0.929  10.512  0.2878  0.0588  0.1151
 3417SOL    HW121884   1.711   0.944  10.546 -0.4826 -2.0353 -0.9777
 3417SOL    HW221885   1.807   0.834  10.506 -0.8268 -0.0066 -0.5079
 3418SOL     OW21886   2.757   2.455   7.095 -0.1860  0.2950  0.0028
 3418SOL    HW121887   2.843   2.482   7.128  0.0077  0.7234 -0.8673
 3418SOL    HW221888   2.761   2.360   7.099  0.4235  0.3338  0.3292
 3419SOL     OW21889   4.430   1.565   2.713  0.0992 -0.1227 -0.1251
 3419SOL    HW121890   4.431   1.624   2.788  0.5653  1.4969 -1.4137
 3419SOL    HW221891   4.379   1.627   2.662 -1.6721 -3.2308 -2.1734
 3420SOL     OW21892   1.247   4.139   8.917  0.1357 -0.3939  0.2174
 3420SOL    HW121893   1.282   4.089   8.990  1.6350 -1.2813 -1.1063
 3420SOL    HW221894   1.217   4.214   8.968  0.5950  0.6452 -1.0408
 3421SOL     OW21895   0.123   2.703   2.561 -0.1114  0.0670 -0.5865
 3421SOL    HW121896   0.102   2.769   2.626  3.5397  1.2295 -0.5560
 3421SOL    HW221897   0.209   2.674   2.594  0.3469  0.1520 -1.7024
 3422SOL     OW21898   2.684   1.533   1.593  0.2791 -0.7462 -0.5309
 3422SOL    HW121899   2.674   1.477   1.516  0.2340 -0.6504 -0.5953
 3422SOL    HW221900   2.636   1.483   1.659 -2.6149  0.3536 -1.7685
 3423SOL     OW21901   0.957   0.714   5.138 -0.2200  0.4481 -0.0423
 3423SOL    HW121902   0.889   0.770   5.099 -2.2142  0.5914  3.6807
 3423SOL    HW221903   0.906   0.672   5.207 -2.4555  2.1865 -0.6049
 3424SOL     OW21904   1.074   3.031   4.858  0.2066 -0.2137 -0.4872
 3424SOL    HW121905   1.124   3.100   4.814  1.8394 -1.3696 -0.4218
 3424SOL    HW221906   1.121   3.031   4.941 -1.4352  1.3130  0.4583
 3425SOL     OW21907   1.052   4.127   0.023 -0.1586 -0.0392 -0.4874
 3425SOL    HW121908   1.037   4.034   0.006 -0.5543 -0.0780  0.0499
 3425SOL    HW221909   1.035   4.159  17.683 -1.0206 -2.3087 -1.1518
 3426SOL     OW21910   0.610   3.223   5.728 -0.3755  0.1049  0.1578
 3426SOL    HW121911   0.543   3.263   5.784 -2.6188  0.2667 -2.6453
 3426SOL    HW221912   0.569   3.249   5.646 -0.2390 -0.3123 -0.0406
 3427SOL     OW21913   2.768   1.247   3.376  0.2333  0.2232 -0.5708
 3427SOL    HW121914   2.704   1.288   3.318  0.2332  1.7373  0.5036
 3427SOL    HW221915   2.789   1.171   3.322 -0.3566  0.1273 -0.6720
 3428SOL     OW21916   2.401   1.686   0.356  0.4634 -0.1830  0.0306
 3428SOL    HW121917   2.442   1.675   0.442 -0.7838 -0.9228  0.5187
 3428SOL    HW221918   2.344   1.609   0.352 -0.0716  0.4135 -3.2128
 3429SOL     OW21919   2.675   0.706   7.679 -0.3700 -0.1924 -0.8537
 3429SOL    HW121920   2.599   0.751   7.717 -0.3233 -0.2297 -0.7170
 3429SOL    HW221921   2.628   0.653   7.615 -3.1721  1.2881 -0.0590
 3430SOL     OW21922   2.874   1.464   7.701  0.0778  0.4343  0.1092
 3430SOL    HW121923   2.913   1.523   7.637 -0.8222  0.1403 -0.7008
 3430SOL    HW221924   2.852   1.528   7.769  0.2659  1.2632 -0.6076
 3431SOL     OW21925   4.236   1.094   3.072 -0.5132 -0.1948  0.1222
 3431SOL    HW121926   4.164   1.045   3.113 -0.0003  0.0413  1.3051
 3431SOL    HW221927   4.257   1.035   3.000 -1.2064 -2.0959  1.4715
 3432SOL     OW21928   4.712   3.910  15.966 -0.0411 -0.0352 -0.0601
 3432SOL    HW121929   4.659   3.859  16.027 -0.7857 -1.8612 -2.1931
 3432SOL    HW221930   0.008   3.972  16.029 -0.4542 -0.9655  1.0789
 3433SOL     OW21931   0.838   4.662   8.601 -1.0134 -0.1283  0.1122
 3433SOL    HW121932   0.808   4.597   8.537 -0.1561 -0.7838  0.3574
 3433SOL    HW221933   0.932   4.664   8.583 -0.4535  0.1930  2.9797
 3434SOL     OW21934   0.637   3.349   6.434 -0.4291  0.0362  0.2626
 3434SOL    HW121935   0.653   3.295   6.512  1.5936 -1.8694 -1.4494
 3434SOL    HW221936   0.719   3.397   6.432 -0.1587 -0.4528 -0.6650
 3435SOL     OW21937   3.994   3.884   6.640 -0.4171 -0.8442  0.2631
 3435SOL    HW121938   4.036   3.882   6.554 -0.6292  3.2047  0.0737
 3435SOL    HW221939   3.904   3.888   6.608 -0.4154  0.0958  0.3689
 3436SOL     OW21940   3.278   0.555  15.910  0.6332  0.6799 -0.3472
 3436SOL    HW121941   3.350   0.492  15.909  0.3769  0.3583  0.9490
 3436SOL    HW221942   3.311   0.628  15.858  2.0187  0.8960  0.8151
 3437SOL     OW21943   4.376   2.496   1.640 -0.1854  0.2476  0.2859
 3437SOL    HW121944   4.327   2.517   1.560 -1.1224 -0.1325  0.7548
 3437SOL    HW221945   4.384   2.588   1.664 -0.5067  0.2359  0.4454
 3438SOL     OW21946   3.590   0.134  12.219  0.0746 -0.0729  0.6952
 3438SOL    HW121947   3.613   0.214  12.266  0.4220 -0.4819  1.2147
 3438SOL    HW221948   3.499   0.129  12.249 -0.0296  0.0130  0.3920
 3439SOL     OW21949   4.621   2.708   2.181  0.0913 -0.2821 -0.0281
 3439SOL    HW121950   4.611   2.644   2.251 -0.7960  0.1424  0.2414
 3439SOL    HW221951   4.610   2.642   2.113  1.2868  1.6973 -2.1224
 3440SOL     OW21952   1.355   0.910   4.471  0.6074  0.0117  0.1085
 3440SOL    HW121953   1.418   0.888   4.403  0.1293 -1.1518  0.0389
 3440SOL    HW221954   1.318   0.822   4.479  3.7196 -1.0977  2.4342
 3441SOL     OW21955   0.047   1.510   3.357 -0.0043 -0.1360 -0.0337
 3441SOL    HW121956   0.099   1.589   3.370 -2.0116  1.0028  1.0523
 3441SOL    HW221957   0.090   1.467   3.283  1.2871  0.1327  0.5677
 3442SOL     OW21958   1.488   4.584   2.464 -0.0612 -0.4940 -0.5543
 3442SOL    HW121959   1.493   4.599   2.369 -0.0527 -0.8553 -0.6112
 3442SOL    HW221960   1.436   4.659   2.495  0.6109 -0.5306  0.6555
 3443SOL     OW21961   2.518   4.309   1.468 -0.1456  0.1779  0.2857
 3443SOL    HW121962   2.563   4.229   1.439  0.4688  0.3034  0.8955
 3443SOL    HW221963   2.593   4.367   1.453 -0.5923  0.9167  0.9494
 3444SOL     OW21964   3.049   2.662   8.465  0.0199 -0.3934 -0.4843
 3444SOL    HW121965   3.018   2.739   8.418  1.7973  0.0958 -0.8793
 3444SOL    HW221966   2.970   2.647   8.516 -0.4064  1.3623 -0.6209
 3445SOL     OW21967   3.211   2.856   7.838  0.8273 -0.0062  0.0589
 3445SOL    HW121968   3.306   2.866   7.827  0.3898  3.0233 -0.8314
 3445SOL    HW221969   3.193   2.904   7.758 -0.2179  1.3735  1.1258
 3446SOL     OW21970   4.132   0.693  10.528  0.6574  0.2048 -0.0970
 3446SOL    HW121971   4.216   0.717  10.489 -0.1316  0.0045 -1.9061
 3446SOL    HW221972   4.155   0.682  10.621 -2.9633 -1.6130  0.6047
 3447SOL     OW21973   3.149   3.601   8.396 -0.5669 -0.0302  0.1789
 3447SOL    HW121974   3.076   3.662   8.387  0.1500  0.7547 -0.3209
 3447SOL    HW221975   3.155   3.579   8.303  2.1275 -0.0874  0.3471
 3448SOL     OW21976   2.396   2.362   2.386 -0.4716  0.1088  1.0600
 3448SOL    HW121977   2.457   2.331   2.452  0.5535  1.4931  0.7599
 3448SOL    HW221978   2.358   2.444   2.417 -1.6458  0.2362 -0.6797
 3449SOL     OW21979   2.684   2.849  11.465 -0.4481  0.7262  0.1009
 3449SOL    HW121980   2.629   2.869  11.389  1.7271  3.3811 -0.7434
 3449SOL    HW221981   2.721   2.763  11.444  0.7055  0.5701  2.8437
 3450SOL     OW21982   4.386   0.892  17.633 -0.2858  0.1676  0.1857
 3450SOL    HW121983   4.340   0.905  17.550  0.2784  1.6092  0.0914
 3450SOL    HW221984   4.369   0.978  17.672  1.4264  0.5404  0.1030
 3451SOL     OW21985   3.507   1.979   5.706 -0.0917  0.2619  0.2528
 3451SOL    HW121986   3.524   1.885   5.700 -1.8172  0.0965 -2.1610
 3451SOL    HW221987   3.528   2.009   5.617  0.8269  0.2948  0.4752
 3452SOL     OW21988   2.192   0.654   6.887 -0.2430  0.5587  0.0095
 3452SOL    HW121989   2.203   0.614   6.800 -0.0696  2.3650 -0.8124
 3452SOL    HW221990   2.119   0.710   6.860 -0.3478  0.5309  0.2375
 3453SOL     OW21991   1.942   1.355  14.577  0.6230 -0.1190  0.0239
 3453SOL    HW121992   1.957   1.283  14.638  1.7600 -1.4453 -1.8037
 3453SOL    HW221993   2.022   1.373  14.528  0.7238 -0.7703 -0.0545
 3454SOL     OW21994   0.430   4.410   2.258  0.1517 -0.1741 -0.4121
 3454SOL    HW121995   0.414   4.368   2.173  1.9965  0.6194 -1.1563
 3454SOL    HW221996   0.493   4.478   2.234  0.3265  0.1345  0.9201
 3455SOL     OW21997   1.813   0.143   2.698  0.1903  0.0264 -0.4966
 3455SOL    HW121998   1.850   0.199   2.630  2.0575 -0.6040 -0.0019
 3455SOL    HW221999   1.833   0.056   2.662 -2.1434 -1.4114  1.6714
 3456SOL     OW22000   0.677   0.627   4.749  0.3955  0.0074 -0.0298
 3456SOL    HW122001   0.582   0.635   4.753  0.3763 -0.9267  1.3117
 3456SOL    HW222002   0.692   0.649   4.657  0.9369 -2.3851 -0.5392
 3457SOL     OW22003   1.233   2.647   4.840 -0.2989  1.4608 -0.0172
 3457SOL    HW122004   1.231   2.699   4.920  0.4448  1.5889 -0.0830
 3457SOL    HW222005   1.209   2.705   4.768  0.5137  2.8730  0.8316
 3458SOL     OW22006   0.194   2.760   1.890 -0.4824 -0.1475  0.2861
 3458SOL    HW122007   0.203   2.665   1.902  0.6292 -0.1968 -1.0124
 3458SOL    HW222008   0.229   2.804   1.967  1.0610  0.8103 -0.9687
 3459SOL     OW22009   3.333   1.114   7.340 -0.0762  0.0266 -0.0512
 3459SOL    HW122010   3.362   1.151   7.423  1.0574  0.1754 -0.5157
 3459SOL    HW222011   3.413   1.077   7.303 -0.3111  0.6932 -1.2340
 3460SOL     OW22012   3.886   4.332   9.114  0.6093  0.0424  0.0346
 3460SOL    HW122013   3.790   4.336   9.110  0.6651  1.4615  0.1605
 3460SOL    HW222014   3.883   4.258   9.175 -1.7304 -0.7627 -1.0309
 3461SOL     OW22015   2.595   2.477  13.709  0.0062  1.0899 -0.3274
 3461SOL    HW122016   2.622   2.392  13.674  1.4323  1.3427  0.1712
 3461SOL    HW222017   2.558   2.511  13.628  0.0468 -0.4329 -0.9796
 3462SOL     OW22018   3.710   1.989  10.183 -0.2624 -0.1168  0.0570
 3462SOL    HW122019   3.745   1.940  10.109 -1.0542 -1.0196  0.2851
 3462SOL    HW222020   3.617   1.980  10.163  0.1109 -1.4544 -1.1052
 3463SOL     OW22021   1.616   3.751   7.985 -0.0860  0.1258  0.1596
 3463SOL    HW122022   1.521   3.750   7.984 -0.0542 -1.0040 -1.6338
 3463SOL    HW222023   1.634   3.671   7.935  0.9684  1.1948 -1.2055
 3464SOL     OW22024   1.170   0.389   1.136  0.3089  0.1227  0.4717
 3464SOL    HW122025   1.172   0.472   1.182  0.1465  0.7469 -0.6463
 3464SOL    HW222026   1.127   0.319   1.185  0.7877 -0.2113  0.4253
 3465SOL     OW22027   2.865   3.044   7.316 -0.3980 -0.1321  0.2359
 3465SOL    HW122028   2.882   3.035   7.222 -1.2337 -0.6209  0.1299
 3465SOL    HW222029   2.871   3.138   7.334 -1.0767  0.3076 -1.8534
 3466SOL     OW22030   1.979   2.488   2.669  0.2843 -0.1411  0.0909
 3466SOL    HW122031   1.987   2.582   2.685 -0.0272  0.3165 -2.4028
 3466SOL    HW222032   1.920   2.465   2.741  1.5121 -2.4675  0.3817
 3467SOL     OW22033   0.352   4.634   9.569  0.0481 -0.7258  0.5575
 3467SOL    HW122034   0.349   4.543   9.598 -1.4815 -0.6505  0.6354
 3467SOL    HW222035   0.345   4.639   9.474 -0.7710  0.3384  0.6637
 3468SOL     OW22036   1.412   0.928   7.341  0.3135 -0.2011 -0.2759
 3468SOL    HW122037   1.323   0.922   7.374  1.0452 -1.8604  1.3968
 3468SOL    HW222038   1.443   0.837   7.340 -0.3008 -0.4182  0.7351
 3469SOL     OW22039   3.163   3.446   8.165  0.7469 -0.0751 -0.1172
 3469SOL    HW122040   3.206   3.391   8.100 -0.2736  0.6460 -1.4043
 3469SOL    HW222041   3.095   3.490   8.114  0.8995 -0.7574 -0.9057
 3470SOL     OW22042   0.943   1.095   7.217 -0.0249  0.3734  0.5266
 3470SOL    HW122043   0.857   1.058   7.198  0.2200  0.4969 -0.7861
 3470SOL    HW222044   0.989   1.018   7.247 -0.1393  0.2150  0.2973
 3471SOL     OW22045   2.476   0.869   3.896 -0.4914  0.4632  0.6662
 3471SOL    HW122046   2.478   0.961   3.870 -0.3184 -0.0160 -1.0321
 3471SOL    HW222047   2.564   0.856   3.931 -0.5468  0.4130  0.7901
 3472SOL     OW22048   3.434   4.483   2.859 -0.5865 -0.1690  0.2150
 3472SOL    HW122049   3.513   4.461   2.808 -0.9441 -0.4984 -0.2008
 3472SOL    HW222050   3.467   4.507   2.946 -0.1750  3.0130 -0.8308
 3473SOL     OW22051   2.874   2.248   4.349  0.0351 -0.0878 -0.1273
 3473SOL    HW122052   2.961   2.280   4.375 -0.1435 -0.4375  0.8989
 3473SOL    HW222053   2.839   2.206   4.428  2.0134 -1.8509 -0.1683
 3474SOL     OW22054   4.270   2.312  13.496 -0.4077 -0.0822  0.0346
 3474SOL    HW122055   4.198   2.343  13.551 -1.0363 -1.9616  0.2733
 3474SOL    HW222056   4.334   2.291  13.564 -0.7588 -1.9995 -0.2271
 3475SOL     OW22057   3.034   2.090   5.360  0.2841 -0.1549 -0.2381
 3475SOL    HW122058   3.108   2.135   5.319 -0.1470 -0.3239 -1.2126
 3475SOL    HW222059   3.055   2.097   5.453  0.0811 -1.7457 -0.0766
 3476SOL     OW22060   0.095   0.172   8.303  0.7728  0.1069 -0.1626
 3476SOL    HW122061   0.004   0.168   8.273  0.5094  0.1286  0.6183
 3476SOL    HW222062   0.106   0.251   8.356 -0.3677 -2.2404  3.6253
 3477SOL     OW22063   2.885   1.182   4.718 -0.0435 -0.2105 -0.1213
 3477SOL    HW122064   2.819   1.225   4.772  0.5660 -1.0053  1.2273
 3477SOL    HW222065   2.864   1.228   4.636  0.9639  1.6633  0.6582
 3478SOL     OW22066   2.627   2.494   2.958 -0.6402 -0.0130 -0.2332
 3478SOL    HW122067   2.684   2.420   2.980  0.4397  0.5187 -1.2847
 3478SOL    HW222068   2.668   2.526   2.878 -0.0420 -0.8182 -0.2479
 3479SOL     OW22069   3.068   4.351   4.391  0.2030 -0.0867  0.2375
 3479SOL    HW122070   3.020   4.431   4.416 -2.2898 -1.8489  1.0575
 3479SOL    HW222071   3.067   4.350   4.296  1.0347  0.3266  0.2214
 3480SOL     OW22072   0.981   0.750  12.987  0.1297  0.6267  0.7145
 3480SOL    HW122073   0.999   0.774  12.897 -0.1753 -0.0890  0.4607
 3480SOL    HW222074   1.049   0.789  13.042  0.0782  0.5323  0.8480
 3481SOL     OW22075   3.285   3.232   4.995  0.1342  0.7709 -0.1544
 3481SOL    HW122076   3.324   3.280   5.068 -0.5609  0.1773  0.6112
 3481SOL    HW222077   3.300   3.298   4.928 -2.1237  0.5765 -0.8711
 3482SOL     OW22078   3.024   0.290  12.775  0.3843  0.1361 -0.0566
 3482SOL    HW122079   2.997   0.207  12.736 -1.7506  1.3066 -1.0847
 3482SOL    HW222080   3.112   0.262  12.800  0.7304  1.2167 -0.0988
 3483SOL     OW22081   1.521   1.925   7.797  0.0870  0.4174  0.1662
 3483SOL    HW122082   1.579   1.990   7.837  1.1270 -1.1352  1.1853
 3483SOL    HW222083   1.564   1.842   7.819 -1.4331  0.0575  1.7500
 3484SOL     OW22084   0.392   4.313   8.341 -0.3793 -0.1947 -0.0250
 3484SOL    HW122085   0.368   4.388   8.396 -0.5267  0.4665 -0.9949
 3484SOL    HW222086   0.338   4.321   8.263 -1.6038 -0.0202  0.8329
 3485SOL     OW22087   2.077   2.690   7.507  0.8736  0.3180  0.6793
 3485SOL    HW122088   2.111   2.603   7.484 -0.6810  0.2078 -1.0986
 3485SOL    HW222089   2.157   2.733   7.536  1.7704  0.2045 -1.6346
 3486SOL     OW22090   0.139   0.280  13.416  0.1851 -0.4552  0.0085
 3486SOL    HW122091   0.105   0.340  13.483  2.5192  0.5998  0.2345
 3486SOL    HW222092   0.087   0.203  13.438 -0.7387  0.2780  0.4065
 3487SOL     OW22093   4.410   0.490   3.692 -0.3627  0.0709  0.0909
 3487SOL    HW122094   4.386   0.421   3.753  1.1398  1.0679  1.8168
 3487SOL    HW222095   4.501   0.513   3.714 -0.3136  1.8507 -1.9450
 3488SOL     OW22096   0.382   4.620   3.847 -0.1163  0.1142  0.1668
 3488SOL    HW122097   0.466   4.575   3.851  1.8658  3.7368 -0.8616
 3488SOL    HW222098   0.370   4.616   3.752 -1.7551 -0.6208  0.4062
 3489SOL     OW22099   1.734   1.393   5.153 -0.1220 -0.3146  0.1582
 3489SOL    HW122100   1.662   1.404   5.090 -0.9420  0.1159  1.1725
 3489SOL    HW222101   1.721   1.301   5.178  0.9662 -1.0194 -1.8030
 3490SOL     OW22102   1.090   0.574   7.912  0.0550 -0.2052 -0.2168
 3490SOL    HW122103   1.040   0.510   7.862  0.8534 -1.2108  0.2757
 3490SOL    HW222104   1.175   0.530   7.905 -0.4640 -1.7769  3.2506
 3491SOL     OW22105   3.868   2.431  17.596 -0.0824  0.6502 -0.3821
 3491SOL    HW122106   3.841   2.383  17.674 -2.3436 -0.3330 -1.7692
 3491SOL    HW222107   3.958   2.448  17.622 -0.2796 -2.6817  2.3813
 3492SOL     OW22108   1.207   3.240  13.873 -0.2298 -0.4636 -0.1247
 3492SOL    HW122109   1.251   3.296  13.937  0.2306 -1.3668  0.3348
 3492SOL    HW222110   1.185   3.175  13.939  0.1909  0.8552  1.3226
 3493SOL     OW22111   3.561   0.780   5.958  0.3980  0.3107  0.1906
 3493SOL    HW122112   3.495   0.816   5.897  1.1078  2.0430  0.4486
 3493SOL    HW222113   3.563   0.693   5.918  0.4124 -0.2588  1.4490
 3494SOL     OW22114   0.023   2.635   1.336 -0.1146 -0.3315 -0.1814
 3494SOL    HW122115   4.713   2.556   1.364  0.0486 -0.7870 -1.1790
 3494SOL    HW222116   0.071   2.600   1.261  1.9867  1.7214  0.2488
 3495SOL     OW22117   4.134   0.224   7.114 -0.0730  0.3501 -0.6031
 3495SOL    HW122118   4.119   0.185   7.028 -0.7841 -1.7774  0.4879
 3495SOL    HW222119   4.192   0.294   7.083  0.1085  0.9806  1.1650
 3496SOL     OW22120   3.266   2.184   8.571  0.1171 -0.2444 -0.1169
 3496SOL    HW122121   3.242   2.229   8.652 -2.8105 -0.6568 -0.7617
 3496SOL    HW222122   3.206   2.223   8.507  0.3544  2.3168  1.2341
 3497SOL     OW22123   0.120   1.075  13.159 -1.0712 -0.1231 -0.3406
 3497SOL    HW122124   0.144   1.158  13.117 -3.4331  0.5352 -0.4099
 3497SOL    HW222125   0.174   1.029  13.094  0.4659  1.7948 -0.4301
 3498SOL     OW22126   4.481   2.010   5.916 -0.8642 -0.2127 -0.2788
 3498SOL    HW122127   4.438   1.925   5.909  0.9968 -1.1056 -0.9660
 3498SOL    HW222128   4.566   1.976   5.945  0.1540  2.5824  0.0727
 3499SOL     OW22129   3.330   0.144   3.151 -0.5454  0.2429 -0.2018
 3499SOL    HW122130   3.293   0.088   3.083 -0.6473 -1.6978  1.4610
 3499SOL    HW222131   3.250   0.164   3.200  1.0186  0.1337  2.4355
 3500SOL     OW22132   2.537   0.083   7.487  0.8225 -0.4876  0.0058
 3500SOL    HW122133   2.497   0.063   7.571 -0.7204 -0.5451 -0.7452
 3500SOL    HW222134   2.630   0.064   7.498  0.5879  0.1264  2.9331
 3501SOL     OW22135   0.317   3.349  13.302 -0.4160  0.1616 -0.5474
 3501SOL    HW122136   0.281   3.316  13.385  0.8458 -0.7202 -0.3470
 3501SOL    HW222137   0.341   3.438  13.331  1.4535 -1.3371  2.4815
 3502SOL     OW22138   1.473   3.646   5.326  0.6889  0.1598 -0.2856
 3502SOL    HW122139   1.434   3.705   5.261  0.5593 -1.2946 -1.5360
 3502SOL    HW222140   1.537   3.605   5.267  2.6242  2.3066  0.3231
 3503SOL     OW22141   2.317   1.576   4.915  0.5942  0.0656 -0.2104
 3503SOL    HW122142   2.381   1.599   4.983  1.1429  1.1953 -1.1049
 3503SOL    HW222143   2.365   1.605   4.837 -0.8456  1.0518 -0.7179
 3504SOL     OW22144   3.347   3.757   9.510 -0.2436 -0.0297 -0.5143
 3504SOL    HW122145   3.272   3.700   9.495  1.7911 -2.7816 -0.2796
 3504SOL    HW222146   3.313   3.843   9.484 -3.6625 -1.1689  0.2071
 3505SOL     OW22147   0.537   2.229   4.700 -0.3596  0.0362  0.4872
 3505SOL    HW122148   0.552   2.315   4.661  1.8643 -0.8422 -0.6064
 3505SOL    HW222149   0.473   2.245   4.769  2.9264  1.0407  3.3508
 3506SOL     OW22150   0.603   0.859   4.114 -0.2347  0.4395 -0.3356
 3506SOL    HW122151   0.617   0.832   4.023  2.1016 -0.8593  0.4238
 3506SOL    HW222152   0.515   0.898   4.107 -0.8322 -0.2807  2.8632
 3507SOL     OW22153   0.135   3.254   2.191  0.1655  0.7031  0.5406
 3507SOL    HW122154   0.146   3.270   2.285  0.7762 -0.0899  0.6147
 3507SOL    HW222155   0.051   3.293   2.167 -1.8782 -2.5893  2.2624
 3508SOL     OW22156   2.602   3.987  16.978 -0.2153  0.4466 -0.0373
 3508SOL    HW122157   2.670   3.929  17.011 -1.4089 -0.9872 -0.0993
 3508SOL    HW222158   2.656   4.040  16.920 -0.8927 -1.2458 -2.2158
 3509SOL     OW22159   4.575   4.141   8.197 -0.3969  0.4320 -0.2951
 3509SOL    HW122160   4.608   4.191   8.122 -2.1218  1.2802 -0.4859
 3509SOL    HW222161   4.613   4.192   8.269  2.2277  0.7790 -1.9235
 3510SOL     OW22162   4.172   2.945   4.599 -0.6941 -0.4803  0.4609
 3510SOL    HW122163   4.090   2.911   4.564  0.0028 -0.5446 -1.1204
 3510SOL    HW222164   4.144   2.997   4.675  0.8089  0.8718  0.1106
 3511SOL     OW22165   3.845   2.236   5.261  0.2145  0.1464  0.1067
 3511SOL    HW122166   3.869   2.316   5.308 -1.5451  0.0200  1.2365
 3511SOL    HW222167   3.815   2.270   5.177 -0.0042 -1.4964 -0.4781
 3512SOL     OW22168   0.355   2.010   7.389  0.1379  0.0286  0.0237
 3512SOL    HW122169   0.337   2.056   7.471 -0.8192 -1.8626  0.8777
 3512SOL    HW222170   0.405   1.940   7.433 -0.6919 -0.5034  0.1186
 3513SOL     OW22171   4.289   0.146  13.413 -0.5865  0.3895 -0.3539
 3513SOL    HW122172   4.275   0.239  13.430 -2.0949  0.1242 -0.1438
 3513SOL    HW222173   4.344   0.139  13.491 -0.5327  1.5482 -0.2873
 3514SOL     OW22174   2.507   2.536   7.334  0.0878 -0.2785 -0.0199
 3514SOL    HW122175   2.559   2.616   7.334  1.6118 -1.2722  3.7735
 3514SOL    HW222176   2.571   2.469   7.310  1.8118  0.5019  2.4368
 3515SOL     OW22177   0.935   2.365   3.578 -0.0420  0.2614 -0.3617
 3515SOL    HW122178   0.964   2.301   3.643 -2.1883 -1.2780 -0.9261
 3515SOL    HW222179   0.911   2.301   3.511 -2.5845  1.0068 -0.1646
 3516SOL     OW22180   0.851   1.780   6.715 -0.3783 -0.3717 -0.2721
 3516SOL    HW122181   0.900   1.830   6.650  1.1799 -0.6100  0.7207
 3516SOL    HW222182   0.857   1.693   6.676  2.0618  0.4491 -1.7845
 3517SOL     OW22183   0.999   3.911  16.934  0.3894 -0.4398 -0.0815
 3517SOL    HW122184   1.028   3.980  16.993  0.0697 -1.0898  0.8482
 3517SOL    HW222185   1.036   3.941  16.851  1.0071  1.9757  1.0817
 3518SOL     OW22186   0.134   2.105   6.835 -0.2595 -0.0738 -0.2764
 3518SOL    HW122187   0.095   2.190   6.853  0.2603  0.0712  0.1688
 3518SOL    HW222188   0.170   2.083   6.921 -0.8887  0.8005  0.2061
 3519SOL     OW22189   2.758   2.123   4.575 -0.3216 -0.7233 -0.0361
 3519SOL    HW122190   2.699   2.048   4.563  1.2412 -1.8304 -0.6944
 3519SOL    HW222191   2.824   2.081   4.630 -0.9327  0.6472  1.7420
 3520SOL     OW22192   2.785   2.781   0.659 -0.3191 -0.1411 -0.1107
 3520SOL    HW122193   2.719   2.757   0.595 -0.6949 -0.2772  0.3342
 3520SOL    HW222194   2.865   2.757   0.612  1.6120 -0.2605  3.1892
 3521SOL     OW22195   3.009   0.648   2.177 -0.2650  0.3586  0.0055
 3521SOL    HW122196   3.026   0.742   2.182  1.0039  0.0963  0.5038
 3521SOL    HW222197   2.991   0.617   2.266  0.9115  1.1540  0.5238
 3522SOL     OW22198   0.507   0.053  14.580  0.1506 -0.2782  0.6626
 3522SOL    HW122199   0.471   0.091  14.499 -0.9650 -1.5400  0.5594
 3522SOL    HW222200   0.528   0.138  14.618  1.1194 -0.6163  0.8767
 3523SOL     OW22201   3.265   0.570   4.776  0.5036 -0.6143 -0.0637
 3523SOL    HW122202   3.249   0.615   4.860 -1.2267  1.2151 -1.3546
 3523SOL    HW222203   3.194   0.611   4.726  0.2623  1.7219  2.1501
 3524SOL     OW22204   0.476   4.129   8.544  0.2547  0.3009 -0.4066
 3524SOL    HW122205   0.414   4.172   8.603  0.3850  2.1672 -1.6100
 3524SOL    HW222206   0.452   4.168   8.460 -0.3700  0.9860  0.0924
 3525SOL     OW22207   2.126   2.282   8.771  0.5093 -0.2790 -0.4839
 3525SOL    HW122208   2.129   2.376   8.752 -0.7519  0.2505  1.9944
 3525SOL    HW222209   2.189   2.277   8.842  2.2406 -1.1973 -2.0685
 3526SOL     OW22210   4.639   2.607   1.022  0.2136  0.4975 -0.2255
 3526SOL    HW122211   4.723   2.571   1.050 -1.2979 -2.3854  0.5804
 3526SOL    HW222212   4.665   2.660   0.946  0.4176 -1.3818 -1.4592
 3527SOL     OW22213   1.279   0.210   6.809 -0.6571 -0.1849  0.1630
 3527SOL    HW122214   1.267   0.266   6.886  1.8020  1.5329 -0.6917
 3527SOL    HW222215   1.276   0.279   6.742 -1.2544 -0.4877 -0.1179
 3528SOL     OW22216   0.146   4.106  13.415  0.0873  0.3845 -0.1503
 3528SOL    HW122217   0.110   4.190  13.444  2.2862  1.7707 -1.4202
 3528SOL    HW222218   0.238   4.130  13.400  0.4208 -1.0779 -0.3639
 3529SOL     OW22219   2.451   2.294  15.400 -0.7107  0.4377 -0.6312
 3529SOL    HW122220   2.533   2.284  15.352  0.6298  1.9663  1.3783
 3529SOL    HW222221   2.473   2.265  15.489  0.4404 -0.5139 -1.2280
 3530SOL     OW22222   4.153   4.154  13.625 -0.5997  0.3690 -0.0362
 3530SOL    HW122223   4.165   4.121  13.714 -3.0942  1.5529  0.7303
 3530SOL    HW222224   4.237   4.136  13.582 -0.8749  0.5252 -0.6396
 3531SOL     OW22225   2.867   2.129   5.807  0.1227  0.1077  0.0112
 3531SOL    HW122226   2.787   2.101   5.762  1.6887  0.3226 -2.8905
 3531SOL    HW222227   2.823   2.155   5.889  2.1177 -1.6345  1.6323
 3532SOL     OW22228   4.055   0.828   8.307  0.4404  0.2182  0.0665
 3532SOL    HW122229   4.007   0.908   8.329  0.3484  1.1241 -3.4178
 3532SOL    HW222230   4.028   0.820   8.215 -0.8210 -0.0049  0.4584
 3533SOL     OW22231   0.732   3.483   8.974  0.0379  0.1389  0.1607
 3533SOL    HW122232   0.651   3.436   8.952 -0.8914  1.8276 -0.0198
 3533SOL    HW222233   0.699   3.522   9.054 -0.3633  0.3380 -0.1017
 3534SOL     OW22234   2.472   1.501   4.376 -0.2965 -0.4278 -0.3010
 3534SOL    HW122235   2.468   1.523   4.283  0.5001 -0.2962 -0.3041
 3534SOL    HW222236   2.559   1.538   4.387 -0.3998 -0.3837  0.3649
 3535SOL     OW22237   1.115   2.540   4.046 -0.2351  0.2892 -0.0186
 3535SOL    HW122238   1.063   2.477   3.996 -0.3345 -0.1552  0.6475
 3535SOL    HW222239   1.172   2.587   3.985  1.8694 -1.5808  0.4808
 3536SOL     OW22240   2.829   0.387   8.505 -0.1137 -0.2254  0.8078
 3536SOL    HW122241   2.746   0.347   8.480  1.0156 -1.6860 -0.6673
 3536SOL    HW222242   2.880   0.305   8.506 -0.4209 -0.3707  2.6610
 3537SOL     OW22243   2.484   3.795   3.817 -0.4377  0.2689  0.6957
 3537SOL    HW122244   2.390   3.813   3.809 -0.7406 -1.8685 -0.5149
 3537SOL    HW222245   2.495   3.761   3.906  0.9570 -1.3483 -0.0853
 3538SOL     OW22246   1.988   0.714   7.495 -0.5856  0.1151  0.0291
 3538SOL    HW122247   1.902   0.687   7.462  1.0135 -2.1147 -2.3382
 3538SOL    HW222248   1.957   0.785   7.551  0.7213  1.2359 -0.6552
 3539SOL     OW22249   0.406   4.656   6.927  0.1197  0.2594 -0.1002
 3539SOL    HW122250   0.311   4.655   6.925  0.0822  1.0181  1.4800
 3539SOL    HW222251   0.434   4.640   7.017 -0.7520 -0.4563  0.0388
 3540SOL     OW22252   0.625   2.188  13.757  0.4693  0.0206 -0.2505
 3540SOL    HW122253   0.639   2.263  13.814 -2.0531 -1.2844  2.0446
 3540SOL    HW222254   0.535   2.197  13.727  0.4872  0.3809 -0.1945
 3541SOL     OW22255   1.707   2.647   3.762  0.4196  0.1758  0.3459
 3541SOL    HW122256   1.703   2.552   3.770 -0.4742  0.1651 -0.1483
 3541SOL    HW222257   1.795   2.666   3.794 -0.0889 -0.1102  1.9432
 3542SOL     OW22258   1.319   4.562   8.074 -0.2524  0.1845  0.1130
 3542SOL    HW122259   1.328   4.471   8.047  1.7515  0.7166 -0.9650
 3542SOL    HW222260   1.389   4.570   8.139 -0.4244 -1.2489  0.4660
 3543SOL     OW22261   0.547   0.984   3.128  0.1703  0.0028  0.1434
 3543SOL    HW122262   0.476   1.002   3.066 -0.7632  1.0331  1.5187
 3543SOL    HW222263   0.617   0.943   3.076 -0.6833 -1.2396 -0.0187
 3544SOL     OW22264   3.532   1.175   0.861  0.2741 -0.0837  0.1046
 3544SOL    HW122265   3.460   1.169   0.799 -0.4451  1.2075  0.8299
 3544SOL    HW222266   3.608   1.208   0.813 -0.5764  1.5558 -0.0867
 3545SOL     OW22267   0.425   1.013   7.061  0.1028  0.1243  0.1404
 3545SOL    HW122268   0.401   1.081   7.124 -1.3285  1.0436 -1.3732
 3545SOL    HW222269   0.346   0.958   7.068 -0.3828  0.7106 -0.7261
 3546SOL     OW22270   0.730   4.619  16.935  0.2354 -0.1962 -0.2279
 3546SOL    HW122271   0.741   4.574  16.852 -0.6407 -0.4168 -0.2235
 3546SOL    HW222272   0.766   4.707  16.922 -1.9528  0.7774  0.4056
 3547SOL     OW22273   0.257   1.016  12.148 -0.2344 -0.2823  0.6735
 3547SOL    HW122274   0.276   1.084  12.213 -0.5695 -1.6373  2.2047
 3547SOL    HW222275   0.172   0.982  12.177 -0.1679 -0.2737  0.8811
 3548SOL     OW22276   2.158   1.674   5.364 -0.2592 -0.0156 -0.1417
 3548SOL    HW122277   2.248   1.640   5.367  0.2099  1.1566 -0.5530
 3548SOL    HW222278   2.135   1.661   5.272  1.2711 -2.5498 -0.1677
 3549SOL     OW22279   1.382   0.559   8.518  0.1655  0.7492  0.4998
 3549SOL    HW122280   1.442   0.633   8.526  1.5745 -0.1832 -1.3307
 3549SOL    HW222281   1.351   0.551   8.608  1.0534  2.6026  0.9544
 3550SOL     OW22282   1.274   1.290   0.190 -0.4262 -0.1549  0.9121
 3550SOL    HW122283   1.269   1.371   0.241 -2.6054 -0.8488  1.7889
 3550SOL    HW222284   1.365   1.286   0.160 -0.4186  0.9340  0.8049
 3551SOL     OW22285   3.730   4.249   6.949  1.0800  0.5813  0.0212
 3551SOL    HW122286   3.802   4.192   6.977 -0.1369 -1.6213 -1.3716
 3551SOL    HW222287   3.674   4.183   6.907 -1.1702  1.5307  1.5350
 3552SOL     OW22288   1.542   1.894   2.363  0.0913  0.0064  0.2218
 3552SOL    HW122289   1.507   1.958   2.426 -0.1427  1.6747 -1.6221
 3552SOL    HW222290   1.631   1.924   2.347  0.5054 -1.8487 -0.9351
 3553SOL     OW22291   4.531   2.098   7.266  0.1238  0.0864  0.4838
 3553SOL    HW122292   4.496   2.041   7.198 -1.7178  0.6625  0.9212
 3553SOL    HW222293   4.456   2.094   7.326  0.8152  0.8287  1.4123
 3554SOL     OW22294   2.966   0.923   4.160 -0.5883  0.1377  0.0479
 3554SOL    HW122295   3.049   0.905   4.203 -0.1614 -1.1541 -1.3255
 3554SOL    HW222296   2.993   0.995   4.102 -1.9548  0.0556 -0.6894
 3555SOL     OW22297   1.348   4.250   7.594  0.4729 -0.1652  0.9940
 3555SOL    HW122298   1.419   4.198   7.558 -1.8137 -1.8945 -1.0195
 3555SOL    HW222299   1.400   4.301   7.657  2.6004 -0.2793 -0.7050
 3556SOL     OW22300   4.487   2.391   6.716 -0.1677 -0.0602  0.3578
 3556SOL    HW122301   4.523   2.479   6.708  2.0005 -1.1429 -1.9149
 3556SOL    HW222302   4.440   2.371   6.635  1.3051 -0.3526 -0.4313
 3557SOL     OW22303   2.719   0.857   2.068  0.2860  0.2522  0.4152
 3557SOL    HW122304   2.694   0.946   2.093  0.3393  0.7554 -1.3688
 3557SOL    HW222305   2.665   0.840   1.992 -1.6393  1.2987  1.5515
 3558SOL     OW22306   2.872   4.054   3.932 -0.2352 -0.6134 -0.0501
 3558SOL    HW122307   2.946   3.999   3.906  1.3322  1.8204 -0.7011
 3558SOL    HW222308   2.807   3.995   3.971 -0.2453  0.5388  1.6557
 3559SOL     OW22309   3.420   4.469   8.580 -0.0112  0.0929 -0.3579
 3559SOL    HW122310   3.497   4.485   8.634  0.3686 -0.7834 -0.6439
 3559SOL    HW222311   3.414   4.555   8.538  0.7339  0.0322 -0.5769
 3560SOL     OW22312   3.010   2.836   5.714 -0.1767 -0.6689  0.3151
 3560SOL    HW122313   2.978   2.773   5.779 -0.4446 -0.9359 -0.0792
 3560SOL    HW222314   3.049   2.780   5.647 -1.2859 -0.9409 -0.0940
 3561SOL     OW22315   4.585   0.641   9.608  0.1565  1.0605 -0.0818
 3561SOL    HW122316   4.537   0.658   9.689  0.1888  3.2369 -0.5050
 3561SOL    HW222317   4.599   0.734   9.593  0.0025  0.8262 -1.6580
 3562SOL     OW22318   0.812   1.503  16.025 -0.6540 -0.3875 -0.1323
 3562SOL    HW122319   0.905   1.480  16.029 -1.1287 -2.0250  1.3194
 3562SOL    HW222320   0.791   1.508  16.118  0.1553 -0.4228  0.0563
 3563SOL     OW22321   1.048   1.669   4.864  0.3588  0.5772  0.1070
 3563SOL    HW122322   0.974   1.653   4.805  0.1269 -1.9127  1.0675
 3563SOL    HW222323   1.075   1.581   4.889 -1.1222 -0.0875 -0.6282
 3564SOL     OW22324   3.869   2.822   6.807 -0.4350 -0.7362 -0.0340
 3564SOL    HW122325   3.939   2.763   6.834 -0.3754 -1.1370 -1.0754
 3564SOL    HW222326   3.844   2.868   6.888  1.2749 -1.8723  1.1442
 3565SOL     OW22327   3.347   0.132   5.294 -0.5613 -0.1415 -0.2639
 3565SOL    HW122328   3.439   0.144   5.271  0.1547 -0.5051  2.3874
 3565SOL    HW222329   3.337   0.202   5.359 -4.4401  1.4314 -2.4707
 3566SOL     OW22330   3.477   0.958  15.084 -0.0913  0.4005  0.3360
 3566SOL    HW122331   3.464   0.864  15.068  0.9126  0.2856  0.2192
 3566SOL    HW222332   3.393   0.992  15.054 -1.0052 -1.7109  0.4714
 3567SOL     OW22333   4.634   4.284   4.188 -0.1513  0.2139  0.0009
 3567SOL    HW122334   4.610   4.321   4.103  1.9868 -0.2180 -0.7919
 3567SOL    HW222335   4.568   4.218   4.205 -0.5444  0.6218  0.0544
 3568SOL     OW22336   3.016   3.624   8.826 -0.0791  0.0300 -0.6704
 3568SOL    HW122337   2.925   3.653   8.833 -0.2909 -0.7745 -0.1031
 3568SOL    HW222338   3.058   3.696   8.779 -0.2858  0.8052  0.3358
 3569SOL     OW22339   1.077   0.007   3.718 -0.4514  0.3017 -0.6064
 3569SOL    HW122340   0.993   0.011   3.672 -0.9999  1.6283  0.5058
 3569SOL    HW222341   1.060   0.003   3.813 -1.7236 -1.5130 -0.9080
 3570SOL     OW22342   1.042   0.293   7.276 -0.1341 -0.0963  0.2070
 3570SOL    HW122343   1.018   0.217   7.330 -0.4277  0.8030  1.3337
 3570SOL    HW222344   1.037   0.253   7.189 -2.4130  2.0324 -0.6390
 3571SOL     OW22345   2.952   3.085   4.200 -0.0175 -0.5283  0.2028
 3571SOL    HW122346   2.874   3.032   4.218 -0.0536 -1.2893 -2.2211
 3571SOL    HW222347   2.979   3.056   4.113  1.0205 -0.7137  0.5823
 3572SOL     OW22348   4.229   4.724   3.312 -0.5113  0.0031  0.0756
 3572SOL    HW122349   4.313   0.012   3.349 -0.6350  0.3897  0.0930
 3572SOL    HW222350   4.204   0.064   3.262 -1.1928  0.3497  0.9448
 3573SOL     OW22351   3.622   2.525   0.065 -0.0523  0.4936  0.0801
 3573SOL    HW122352   3.658   2.436   0.070 -1.1791 -0.0494 -1.4849
 3573SOL    HW222353   3.535   2.497   0.091  0.1691 -0.0341  0.2522
 3574SOL     OW22354   2.707   4.584   6.626  0.1231 -0.2293  0.1182
 3574SOL    HW122355   2.692   4.497   6.663  0.3806 -0.1305  0.4550
 3574SOL    HW222356   2.720   4.639   6.704  1.2624 -1.2390  0.6355
 3575SOL     OW22357   3.103   2.854  13.882 -0.2659 -0.0735  0.9672
 3575SOL    HW122358   3.024   2.814  13.917 -0.2412  0.3782  1.5462
 3575SOL    HW222359   3.082   2.945  13.905 -0.0194  0.3931 -0.6510
 3576SOL     OW22360   3.812   3.960   3.782  0.3836 -0.2890  0.2408
 3576SOL    HW122361   3.906   3.958   3.795  0.0928 -0.7255  2.4030
 3576SOL    HW222362   3.811   3.900   3.707  0.1394  0.9537 -0.7412
 3577SOL     OW22363   3.642   0.006   5.896 -0.0611 -0.1028  0.2534
 3577SOL    HW122364   3.565   0.059   5.916 -0.7618 -0.9977 -0.0488
 3577SOL    HW222365   3.690   0.067   5.839  1.2674  0.1811  1.6917
 3578SOL     OW22366   0.097   2.815   2.295  0.2463 -0.0169  0.2670
 3578SOL    HW122367   0.018   2.781   2.254 -0.1850  0.5691  0.6092
 3578SOL    HW222368   0.072   2.784   2.382 -0.6218 -4.0174 -1.4484
 3579SOL     OW22369   3.649   2.497   8.008 -0.6622  0.2103 -0.0508
 3579SOL    HW122370   3.683   2.412   7.980 -0.0075  0.5016 -0.1241
 3579SOL    HW222371   3.646   2.544   7.925  0.0413 -2.5279 -1.6096
 3580SOL     OW22372   0.531   2.925   5.614 -0.1059 -0.2139 -0.5030
 3580SOL    HW122373   0.493   2.847   5.654  0.5428  1.5245  3.4118
 3580SOL    HW222374   0.599   2.950   5.676 -0.6991 -0.0614  0.0788
 3581SOL     OW22375   3.676   1.237   2.838 -0.2397  0.0979  0.0929
 3581SOL    HW122376   3.581   1.227   2.833 -0.0496 -1.4102 -0.3863
 3581SOL    HW222377   3.684   1.332   2.849 -1.8275 -0.0511  2.4852
 3582SOL     OW22378   1.079   2.582   0.043 -0.6744  0.4251  0.4384
 3582SOL    HW122379   1.149   2.541  17.740  0.4805 -0.2666  2.5775
 3582SOL    HW222380   1.120   2.647   0.100 -3.2207  2.0519  0.4337
 3583SOL     OW22381   3.222   3.740   6.534  0.0500  0.2215 -0.8904
 3583SOL    HW122382   3.275   3.732   6.455  1.0117 -2.3591  0.0453
 3583SOL    HW222383   3.148   3.795   6.506 -1.2927 -1.6442 -0.9493
 3584SOL     OW22384   0.705   1.747  17.127 -0.0511 -0.0167  0.2615
 3584SOL    HW122385   0.703   1.767  17.221  1.5529 -1.2661  0.5608
 3584SOL    HW222386   0.614   1.757  17.100 -0.2391 -4.0626 -0.6864
 3585SOL     OW22387   1.364   3.405  15.447  0.4265 -0.0775  0.2641
 3585SOL    HW122388   1.399   3.340  15.386  0.7031  2.7283 -2.5575
 3585SOL    HW222389   1.269   3.398  15.437  0.2051  0.0032  2.1911
 3586SOL     OW22390   1.798   0.960  16.757 -0.4019 -0.1971 -0.4088
 3586SOL    HW122391   1.715   0.992  16.791  0.2453  0.1231  0.8923
 3586SOL    HW222392   1.800   0.889  16.822  0.7186 -0.3829 -0.6469
 3587SOL     OW22393   3.387   2.157   8.095 -0.1323 -0.0248  0.6056
 3587SOL    HW122394   3.481   2.142   8.099  0.0935  1.2281 -0.4587
 3587SOL    HW222395   3.384   2.247   8.125  1.4397  0.3268 -0.2868
 3588SOL     OW22396   0.276   3.086  12.386  0.4570  0.3576  0.2572
 3588SOL    HW122397   0.369   3.079  12.366  0.0277 -1.3201 -1.1303
 3588SOL    HW222398   0.237   3.061  12.302 -0.3535 -1.2767  1.1223
 3589SOL     OW22399   4.522   2.716   7.690 -0.3862 -0.1102  0.2289
 3589SOL    HW122400   4.562   2.721   7.777 -0.6900  1.7523  0.2713
 3589SOL    HW222401   4.576   2.644   7.659  1.5720  0.9416  1.2386
 3590SOL     OW22402   1.556   2.513   6.612 -0.1136 -0.1903 -0.3321
 3590SOL    HW122403   1.640   2.546   6.644  0.1531 -0.8304 -0.3787
 3590SOL    HW222404   1.499   2.590   6.617 -0.2882 -0.2204 -1.8521
 3591SOL     OW22405   2.156   1.502   6.452  0.1837  0.6738 -0.3156
 3591SOL    HW122406   2.192   1.573   6.400  0.7414  0.8645  0.3389
 3591SOL    HW222407   2.109   1.554   6.517 -0.3093 -0.9584  0.6422
 3592SOL     OW22408   1.037   2.199   3.768  0.0528  0.3538  0.3385
 3592SOL    HW122409   1.080   2.199   3.853 -0.8771  1.9665  0.8185
 3592SOL    HW222410   0.959   2.154   3.801 -0.4217 -0.4427 -1.8708
 3593SOL     OW22411   1.363   1.005  10.803 -0.2548  0.2252 -0.1588
 3593SOL    HW122412   1.287   1.062  10.797  0.1250  0.6278 -1.1274
 3593SOL    HW222413   1.333   0.954  10.879 -0.0837 -0.8308 -0.7979
 3594SOL     OW22414   0.736   0.330  13.638  0.0820 -0.1203 -0.0497
 3594SOL    HW122415   0.756   0.262  13.701 -1.0983 -0.1698  0.2670
 3594SOL    HW222416   0.649   0.363  13.662 -0.2067 -1.2697  0.4596
 3595SOL     OW22417   2.848   0.746   6.104  0.0888 -0.3095  0.0342
 3595SOL    HW122418   2.894   0.663   6.118 -1.1671 -0.7858  1.4011
 3595SOL    HW222419   2.801   0.725   6.023  2.5250 -1.9816 -0.9391
 3596SOL     OW22420   2.514   3.984   6.429 -0.1589  0.0203  0.0181
 3596SOL    HW122421   2.552   3.916   6.373  1.6350 -0.3309  1.6633
 3596SOL    HW222422   2.590   4.025   6.472 -0.7165  0.5553  0.4879
 3597SOL     OW22423   1.287   2.646   3.885  0.3016  0.1909 -0.2643
 3597SOL    HW122424   1.242   2.659   3.801 -0.6355  1.8065  0.4906
 3597SOL    HW222425   1.363   2.702   3.871 -2.1472  3.3245 -0.9089
 3598SOL     OW22426   1.863   2.987  16.933 -0.1704 -0.2504  0.1142
 3598SOL    HW122427   1.859   3.079  16.958 -2.8709 -0.2477 -0.2620
 3598SOL    HW222428   1.937   2.952  16.982 -1.5606 -1.7309  1.1700
 3599SOL     OW22429   0.478   1.888  17.043 -0.3399  0.4070  0.7199
 3599SOL    HW122430   0.435   1.958  16.994  1.6330  0.7241 -0.5744
 3599SOL    HW222431   0.409   1.844  17.092 -0.2837  2.2504  2.4322
 3600SOL     OW22432   3.491   3.136  15.142  0.3081 -1.1046 -0.0688
 3600SOL    HW122433   3.524   3.050  15.116  6.3095  1.0171  0.6095
 3600SOL    HW222434   3.579   3.173  15.138  0.2489 -1.1965 -2.4462
 3601SOL     OW22435   1.388   3.354   8.764  0.4981  0.3398 -0.0301
 3601SOL    HW122436   1.431   3.269   8.774 -1.2309 -0.5622 -0.3018
 3601SOL    HW222437   1.465   3.410   8.772  0.6233  0.3481 -1.2945
 3602SOL     OW22438   0.416   3.047   9.317  0.0386  0.0997  0.3282
 3602SOL    HW122439   0.434   2.983   9.386  0.3655  1.6534  1.7008
 3602SOL    HW222440   0.330   3.016   9.289  0.6490  0.0988 -1.5240
 3603SOL     OW22441   0.973   0.769  16.511 -0.5431  0.1753 -0.0891
 3603SOL    HW122442   0.933   0.831  16.572 -0.2797  1.6554 -1.4467
 3603SOL    HW222443   0.923   0.781  16.431  1.3059  1.4775 -1.0460
 3604SOL     OW22444   4.220   4.453   9.387  0.5066  0.0806  0.1464
 3604SOL    HW122445   4.283   4.385   9.410  3.2730  2.3259 -0.7136
 3604SOL    HW222446   4.159   4.460   9.460 -0.1136 -0.6496 -0.2980
 3605SOL     OW22447   0.254   2.927   2.108 -0.1384  0.0119  0.5401
 3605SOL    HW122448   0.259   3.022   2.108  0.3988 -0.0178  0.6612
 3605SOL    HW222449   0.190   2.894   2.171  0.3533 -1.1541  0.4264
 3606SOL     OW22450   0.985   1.287   3.753  0.7755 -0.3055  0.3598
 3606SOL    HW122451   0.931   1.276   3.675 -0.1715  0.2372  0.9566
 3606SOL    HW222452   0.993   1.382   3.757  0.5352 -0.3243  1.1728
 3607SOL     OW22453   4.389   1.909   9.118 -0.2776 -0.5558  0.2995
 3607SOL    HW122454   4.479   1.914   9.086 -0.5031  0.3208 -0.1978
 3607SOL    HW222455   4.344   1.867   9.044 -0.3851  0.1798 -0.0519
 3608SOL     OW22456   1.596   4.533   8.967 -0.2710 -0.1851  0.1691
 3608SOL    HW122457   1.648   4.467   9.012  0.2820  0.3426  0.2995
 3608SOL    HW222458   1.604   4.614   9.016 -0.1870  2.6836 -4.5358
 3609SOL     OW22459   4.673   2.180   2.901  0.4107  0.1898 -0.2435
 3609SOL    HW122460   4.640   2.270   2.903 -1.2340 -0.4235  0.3342
 3609SOL    HW222461   4.654   2.152   2.811 -0.2699  0.1577 -0.0957
 3610SOL     OW22462   3.353   0.393   5.428 -0.2332  0.1536 -0.0574
 3610SOL    HW122463   3.309   0.376   5.511  0.6270 -1.9755 -0.0200
 3610SOL    HW222464   3.291   0.457   5.393 -0.6207 -0.6048 -0.7580
 3611SOL     OW22465   4.413   3.157  12.080  0.8098  0.4030 -0.5934
 3611SOL    HW122466   4.328   3.156  12.124  0.4342  0.7613 -1.2997
 3611SOL    HW222467   4.406   3.212  12.001  0.5672  2.6082  0.9655
 3612SOL     OW22468   1.607   0.551   7.073  0.2303 -0.0200  0.3118
 3612SOL    HW122469   1.564   0.557   6.987 -0.1039 -0.0730  0.4773
 3612SOL    HW222470   1.698   0.529   7.052 -0.0750 -0.8451 -0.1258
 3613SOL     OW22471   0.977   3.666   8.992  0.1277 -0.1193  0.0290
 3613SOL    HW122472   1.059   3.631   8.957 -0.1033 -0.2979 -0.3320
 3613SOL    HW222473   0.908   3.644   8.929  0.2983 -3.6844  1.0544
 3614SOL     OW22474   2.746   0.629   1.711 -0.1673 -0.1458 -0.8461
 3614SOL    HW122475   2.661   0.593   1.683 -0.5462 -0.2441  0.4580
 3614SOL    HW222476   2.731   0.723   1.701 -0.7742 -0.4312 -2.7128
 3615SOL     OW22477   4.335   1.237   3.846  0.2993 -0.1047 -0.4533
 3615SOL    HW122478   4.399   1.166   3.853  0.3459 -0.2840 -2.4593
 3615SOL    HW222479   4.388   1.311   3.817  2.5100 -0.5284  2.5334
 3616SOL     OW22480   3.327   4.201   7.517  0.0824  0.3621 -0.5225
 3616SOL    HW122481   3.322   4.130   7.580  1.3468  1.9456  1.3572
 3616SOL    HW222482   3.402   4.251   7.551  0.1250  0.4930 -0.8046
 3617SOL     OW22483   0.539   2.219   4.159 -0.2606 -0.1751 -0.8331
 3617SOL    HW122484   0.522   2.125   4.152  0.7367 -0.5080  1.1596
 3617SOL    HW222485   0.464   2.257   4.204  0.1977 -2.3320  1.7304
 3618SOL     OW22486   1.389   1.905   6.045  0.1473 -0.1449 -0.1634
 3618SOL    HW122487   1.381   1.959   6.123  1.3740 -1.1288  0.6309
 3618SOL    HW222488   1.318   1.841   6.049 -0.4385  0.5589  0.7281
 3619SOL     OW22489   3.820   0.881   2.169  0.0310 -0.6221  0.6874
 3619SOL    HW122490   3.776   0.800   2.194  0.8552 -1.5048 -0.7260
 3619SOL    HW222491   3.751   0.948   2.164  1.2482  0.4494 -1.8872
 3620SOL     OW22492   0.049   1.066   3.026 -0.1650  0.2231 -0.1062
 3620SOL    HW122493   0.018   1.019   2.948  1.2270 -1.7032  0.5043
 3620SOL    HW222494   4.706   1.066   3.077 -0.5460 -0.3247 -0.7025
 3621SOL     OW22495   1.593   2.660   2.779 -0.4780  0.3352 -0.9394
 3621SOL    HW122496   1.675   2.689   2.817 -0.9635 -1.7118  1.6879
 3621SOL    HW222497   1.623   2.599   2.711  0.4015  0.9160 -1.0596
 3622SOL     OW22498   0.968   1.202   8.555 -0.3014 -0.1190 -0.3022
 3622SOL    HW122499   0.891   1.198   8.612 -1.5040  0.2414 -1.8780
 3622SOL    HW222500   0.914   1.177   8.479  4.1770 -1.2150 -3.1145
 3623SOL     OW22501   1.552   1.672   6.056  0.0999 -0.7380 -0.5765
 3623SOL    HW122502   1.601   1.663   5.974 -0.8013 -1.8679 -0.9960
 3623SOL    HW222503   1.570   1.762   6.082  1.6601 -1.3240  0.4514
 3624SOL     OW22504   4.649   3.556   2.279  0.0301 -0.1345 -0.2404
 3624SOL    HW122505   4.682   3.644   2.266  1.0061 -0.5384 -0.4811
 3624SOL    HW222506   4.627   3.517   2.195 -0.4447 -0.5108  0.0530
 3625SOL     OW22507   0.201   3.494   5.827 -0.4580  0.2165  0.3662
 3625SOL    HW122508   0.260   3.495   5.902  0.2878  0.1517 -0.2242
 3625SOL    HW222509   0.262   3.474   5.756 -1.5222  2.0063 -1.0468
 3626SOL     OW22510   3.999   3.389  12.741  0.5487 -0.7601 -0.0507
 3626SOL    HW122511   3.905   3.395  12.760  0.3557  0.2848 -1.3168
 3626SOL    HW222512   4.025   3.481  12.744 -1.6437 -0.0156 -3.7579
 3627SOL     OW22513   4.296   1.516  17.513  0.2215 -0.5569  0.3702
 3627SOL    HW122514   4.253   1.543  17.432 -0.3316  0.0219  0.8559
 3627SOL    HW222515   4.307   1.606  17.542 -0.1306 -0.9003  1.5882
 3628SOL     OW22516   4.540   2.304  13.404 -0.1549  0.3652 -1.3856
 3628SOL    HW122517   4.572   2.293  13.314 -2.6983 -0.2614 -2.2229
 3628SOL    HW222518   4.597   2.374  13.438  1.1412 -1.2162 -0.3349
 3629SOL     OW22519   0.199   3.535   2.393 -0.5982  0.4738  0.0093
 3629SOL    HW122520   0.186   3.447   2.429 -1.4117  0.0727 -1.2713
 3629SOL    HW222521   0.125   3.549   2.335 -1.1633 -0.6988  0.4636
 3630SOL     OW22522   4.147   2.394  15.172  0.0912 -0.2758 -0.5862
 3630SOL    HW122523   4.177   2.457  15.107  1.5878 -0.5624 -0.1563
 3630SOL    HW222524   4.057   2.427  15.179 -0.2118 -1.6522  1.9853
 3631SOL     OW22525   2.734   0.611   3.620 -0.4609 -0.1966  0.0415
 3631SOL    HW122526   2.746   0.618   3.714 -0.3494 -1.7003  0.1456
 3631SOL    HW222527   2.663   0.546   3.618 -0.5654 -0.1002  1.0439
 3632SOL     OW22528   0.461   3.381   5.910  0.1180 -0.0550 -0.0205
 3632SOL    HW122529   0.522   3.360   5.980  1.0555 -0.2164 -0.8977
 3632SOL    HW222530   0.377   3.336   5.924  1.5850 -1.5223  3.9152
 3633SOL     OW22531   4.455   2.172   9.303 -0.0568  0.0205 -0.4690
 3633SOL    HW122532   4.380   2.149   9.357  0.5593  0.4135  0.5515
 3633SOL    HW222533   4.462   2.268   9.310  0.1547  0.0139 -0.5744
 3634SOL     OW22534   4.118   0.980  17.493  0.3651 -0.2408 -0.3319
 3634SOL    HW122535   4.150   0.901  17.448  0.7106 -0.5193  0.3958
 3634SOL    HW222536   4.110   0.931  17.575 -0.8701 -0.6259 -0.6765
 3635SOL     OW22537   2.461   1.073  10.434 -0.2227  0.1063  0.0886
 3635SOL    HW122538   2.521   1.126  10.486 -1.5963 -0.8992  2.7168
 3635SOL    HW222539   2.519   1.005  10.400  0.4934  0.9379 -0.3753
 3636SOL     OW22540   2.436   0.130   8.253  0.0139 -0.0722  0.6297
 3636SOL    HW122541   2.391   0.056   8.212  0.4655 -0.0037  0.0154
 3636SOL    HW222542   2.367   0.197   8.255  0.2594  0.2305 -1.1087
 3637SOL     OW22543   0.541   4.672   7.155  0.1572  0.6757 -0.2231
 3637SOL    HW122544   0.549   4.597   7.213 -0.1225  1.2464  0.5524
 3637SOL    HW222545   0.633   4.685   7.131  0.5798 -0.1416  0.9673
 3638SOL     OW22546   2.266   3.371   2.670 -0.5012 -0.1873  0.2879
 3638SOL    HW122547   2.350   3.346   2.632 -1.4535 -2.1764 -0.5256
 3638SOL    HW222548   2.227   3.409   2.591 -1.0477  0.8228  1.0422
 3639SOL     OW22549   1.564   3.367  12.131 -0.4998  0.2361  0.0432
 3639SOL    HW122550   1.591   3.276  12.137 -2.0571 -0.2374 -0.0404
 3639SOL    HW222551   1.554   3.395  12.222 -1.6600 -1.0795  0.3157
 3640SOL     OW22552   3.569   2.630   2.340 -0.4650  0.3249 -0.2678
 3640SOL    HW122553   3.592   2.579   2.262 -1.7953 -0.4468 -0.1493
 3640SOL    HW222554   3.474   2.622   2.330 -0.8604  2.4638  1.8823
 3641SOL     OW22555   0.498   0.778   8.040 -0.9825  0.3403 -0.3982
 3641SOL    HW122556   0.507   0.865   8.001 -1.2283  0.4037 -0.3161
 3641SOL    HW222557   0.406   0.780   8.064 -1.2990 -2.3226 -1.3595
 3642SOL     OW22558   0.468   4.573   4.257  0.1111  0.4831 -0.1481
 3642SOL    HW122559   0.493   4.661   4.227 -0.7766  0.2590 -1.4875
 3642SOL    HW222560   0.448   4.524   4.178  2.5466 -0.7746 -0.0051
 3643SOL     OW22561   3.418   1.973   8.723  0.4902  0.1943  0.6996
 3643SOL    HW122562   3.364   2.020   8.659  0.4966 -0.7124  0.0348
 3643SOL    HW222563   3.356   1.904   8.747  0.2981  0.1764  0.1468
 3644SOL     OW22564   2.972   0.295   5.641 -0.7036 -0.0117 -0.3929
 3644SOL    HW122565   2.916   0.218   5.635  0.0895 -0.6353  0.1830
 3644SOL    HW222566   3.061   0.262   5.647 -0.5110  0.6771  0.5849
 3645SOL     OW22567   3.953   0.654   2.344  0.0144  0.1173  0.1533
 3645SOL    HW122568   3.909   0.613   2.418 -1.9837  0.2556 -0.9578
 3645SOL    HW222569   3.980   0.575   2.296 -0.4825 -0.7213  1.2798
 3646SOL     OW22570   4.679   2.613   3.257 -0.2763  0.0609 -0.2210
 3646SOL    HW122571   4.626   2.656   3.324  1.0431  0.2119  0.7219
 3646SOL    HW222572   4.611   2.552   3.229 -0.5545  1.3315 -2.2690
 3647SOL     OW22573   4.334   1.732  17.682  0.0167 -0.2215  0.8136
 3647SOL    HW122574   4.255   1.732  17.735 -1.2162 -0.8045 -1.0496
 3647SOL    HW222575   4.345   1.827  17.677  2.5207 -0.4747  1.1195
 3648SOL     OW22576   1.931   1.370   6.775 -0.0655 -0.0315 -0.4869
 3648SOL    HW122577   1.903   1.329   6.857 -1.1427 -1.1325 -1.4072
 3648SOL    HW222578   1.942   1.461   6.803 -0.8028  0.5779 -2.2429
 3649SOL     OW22579   1.452   0.015   5.590  0.4913 -0.2996 -0.7048
 3649SOL    HW122580   1.528   4.737   5.534  1.8521  1.9543  0.4942
 3649SOL    HW222581   1.478   4.711   5.672 -0.1675  0.7678  0.0484
 3650SOL     OW22582   0.832   4.462   1.277 -0.1852 -0.2075  0.0703
 3650SOL    HW122583   0.746   4.467   1.318  0.0579  0.8038  0.4547
 3650SOL    HW222584   0.816   4.393   1.212 -0.1043 -0.6048  0.4706
 3651SOL     OW22585   2.074   4.094   3.264  0.0995  0.3395  0.7796
 3651SOL    HW122586   2.077   4.108   3.358 -1.3005  0.9398  0.7302
 3651SOL    HW222587   1.989   4.136   3.250 -1.3522 -2.1282  2.1316
 3652SOL     OW22588   3.064   4.345  10.196 -0.1874 -0.1646 -0.3458
 3652SOL    HW122589   3.038   4.270  10.143  2.0615 -0.8584 -0.4675
 3652SOL    HW222590   3.045   4.316  10.285  0.4087 -0.3280 -0.2696
 3653SOL     OW22591   3.684   0.644   8.375  0.0069  0.1540  0.5686
 3653SOL    HW122592   3.661   0.733   8.348 -0.2252  0.1001  0.5905
 3653SOL    HW222593   3.668   0.600   8.291  2.0126 -2.1487  1.4077
 3654SOL     OW22594   3.353   1.702   4.658  0.3119 -0.1879 -0.3403
 3654SOL    HW122595   3.418   1.754   4.612  0.0678 -1.7674 -2.4539
 3654SOL    HW222596   3.402   1.664   4.732 -2.3432 -1.0397  0.9883
 3655SOL     OW22597   3.002   4.063   5.088 -0.3401 -0.1620  0.1886
 3655SOL    HW122598   3.003   3.976   5.049  1.9420  0.0171 -0.1694
 3655SOL    HW222599   2.941   4.055   5.162 -0.4623  0.6425  0.1809
 3656SOL     OW22600   1.073   2.957  15.756  0.3427  0.4145 -0.5552
 3656SOL    HW122601   1.028   3.035  15.788 -1.8588 -0.7847 -0.7093
 3656SOL    HW222602   1.147   3.003  15.717  0.6031 -0.5835 -1.2407
 3657SOL     OW22603   3.227   4.322   1.760  0.0455 -0.2547 -0.7257
 3657SOL    HW122604   3.168   4.385   1.719  0.9179  0.9222 -0.1673
 3657SOL    HW222605   3.170   4.277   1.823 -0.9176  1.4427 -0.3782
 3658SOL     OW22606   0.533   3.196   1.093  0.0722  0.2451  0.1994
 3658SOL    HW122607   0.488   3.264   1.043  0.4531  1.0622  0.9785
 3658SOL    HW222608   0.471   3.126   1.074  3.3358 -2.3773 -0.9189
 3659SOL     OW22609   4.047   0.134   6.092  0.3859  0.5076 -0.2517
 3659SOL    HW122610   4.081   0.171   6.011 -2.6232 -0.5967 -2.0418
 3659SOL    HW222611   3.966   0.185   6.098 -0.6896 -1.1141 -0.9388
 3660SOL     OW22612   1.568   1.205   4.077  0.3567 -0.5181 -0.2984
 3660SOL    HW122613   1.660   1.225   4.059  0.4759 -0.4764  0.3804
 3660SOL    HW222614   1.553   1.110   4.079 -3.2287  0.0263 -1.3691
 3661SOL     OW22615   1.894   0.299  10.678 -0.2079  0.2407  0.0626
 3661SOL    HW122616   1.976   0.346  10.666 -0.5491  0.7904 -0.1308
 3661SOL    HW222617   1.838   0.332  10.607 -0.2611 -2.6889 -1.2369
 3662SOL     OW22618   3.702   4.365  13.618 -0.1994 -0.3066  0.0523
 3662SOL    HW122619   3.757   4.419  13.674  0.4101 -0.4674 -0.3953
 3662SOL    HW222620   3.650   4.320  13.684 -0.2750 -0.6147 -0.2156
 3663SOL     OW22621   2.721   0.893   1.736  0.1301  0.0603  0.2351
 3663SOL    HW122622   2.646   0.947   1.710  0.1749 -1.3342 -2.8974
 3663SOL    HW222623   2.774   0.956   1.784 -0.0863  0.8503 -0.5663
 3664SOL     OW22624   0.667   0.923   5.357  0.1461 -0.1764 -0.2438
 3664SOL    HW122625   0.759   0.935   5.381 -0.2656  2.9514 -0.2463
 3664SOL    HW222626   0.684   0.912   5.264 -1.9722  0.9203 -0.7515
 3665SOL     OW22627   2.414   3.857   4.753 -0.8212  0.4132 -0.1296
 3665SOL    HW122628   2.417   3.924   4.821  1.8893 -1.4193  1.5652
 3665SOL    HW222629   2.497   3.812   4.770 -0.3119  1.2050 -0.5072
 3666SOL     OW22630   1.212   4.238   3.051  0.4116  0.3950  0.1886
 3666SOL    HW122631   1.229   4.143   3.050  1.5349  0.6012  0.2670
 3666SOL    HW222632   1.219   4.261   2.959 -3.8539  0.3502 -0.1280
 3667SOL     OW22633   4.370   2.386   6.177  0.4043  0.3314 -0.0719
 3667SOL    HW122634   4.340   2.307   6.133 -1.0741  0.3749  0.8421
 3667SOL    HW222635   4.286   2.429   6.197 -0.2089 -1.8548  1.9348
 3668SOL     OW22636   0.254   0.088   7.959 -0.5004  0.3987  0.2677
 3668SOL    HW122637   0.300   0.170   7.942  1.7570 -1.1448 -0.9104
 3668SOL    HW222638   0.166   0.102   7.922 -0.8453 -0.3031  0.8115
 3669SOL     OW22639   1.753   3.549  14.846 -0.4977 -0.3960  0.5725
 3669SOL    HW122640   1.683   3.574  14.906 -2.9090 -2.8233 -1.2291
 3669SOL    HW222641   1.751   3.454  14.833  1.0866 -0.2528 -0.7359
 3670SOL     OW22642   4.621   1.758   3.825 -0.0303  0.0726 -0.4033
 3670SOL    HW122643   4.543   1.762   3.769  0.7382  0.4575 -1.4459
 3670SOL    HW222644   4.585   1.709   3.899  1.6437  0.3923  0.6104
 3671SOL     OW22645   0.254   2.936  11.735 -0.8287  0.2571  0.3655
 3671SOL    HW122646   0.241   2.948  11.641 -2.4400 -0.0652  0.5294
 3671SOL    HW222647   0.179   2.989  11.763 -0.0772  1.1054  0.7350
 3672SOL     OW22648   0.235   2.624   7.796 -0.3772  0.2450  0.5894
 3672SOL    HW122649   0.149   2.605   7.833 -0.3927  0.9848  0.9321
 3672SOL    HW222650   0.221   2.714   7.767  1.9180  0.5177  0.3003
 3673SOL     OW22651   4.555   1.670  16.489 -0.3515 -0.4720 -0.1540
 3673SOL    HW122652   4.542   1.602  16.423  0.2514 -1.1429  0.4167
 3673SOL    HW222653   4.557   1.745  16.430 -0.9471 -0.4981 -0.2076
 3674SOL     OW22654   1.217   3.157   5.528  0.3649  0.4503  0.2551
 3674SOL    HW122655   1.257   3.141   5.442  1.6836 -1.1550  1.1536
 3674SOL    HW222656   1.185   3.069   5.549  2.2373 -0.3620 -0.2855
 3675SOL     OW22657   1.297   3.431   9.399  0.3454 -0.5441 -0.1362
 3675SOL    HW122658   1.293   3.337   9.415 -0.0321 -0.6170 -0.6633
 3675SOL    HW222659   1.251   3.442   9.315 -2.8318  0.3159  1.7204
 3676SOL     OW22660   0.095   0.570  13.194  0.0265  0.2152 -0.3046
 3676SOL    HW122661   0.091   0.569  13.290 -0.5092 -0.3452 -0.3276
 3676SOL    HW222662   0.132   0.482  13.183  1.6815  0.6884  1.5393
 3677SOL     OW22663   0.449   0.629   3.245 -0.1089 -0.0068 -0.1677
 3677SOL    HW122664   0.428   0.689   3.174 -1.5285 -1.5172 -1.0403
 3677SOL    HW222665   0.502   0.679   3.306 -0.6420  0.4553 -0.0890
 3678SOL     OW22666   0.131   4.009  17.152  0.2711  0.2487  0.0896
 3678SOL    HW122667   0.176   3.931  17.185 -1.1729 -0.7398 -0.2666
 3678SOL    HW222668   0.110   4.044  17.239 -0.1266  1.0882 -0.3483
 3679SOL     OW22669   4.482   3.010   7.320 -0.2951  0.3768 -0.2169
 3679SOL    HW122670   4.417   3.067   7.361  0.0423  0.8980 -0.4165
 3679SOL    HW222671   4.433   2.927   7.326  1.9379 -0.8495  0.9380
 3680SOL     OW22672   2.682   4.054   6.153  0.4469 -0.0347 -0.0966
 3680SOL    HW122673   2.660   3.967   6.185  1.0174  0.4118  1.4886
 3680SOL    HW222674   2.742   4.081   6.222 -0.8141  1.8511  0.2575
 3681SOL     OW22675   1.190   2.470  11.414  0.2387 -0.4691 -0.2714
 3681SOL    HW122676   1.232   2.555  11.432  0.0238 -0.0584 -1.7391
 3681SOL    HW222677   1.126   2.480  11.344 -0.9172 -0.4646  0.7846
 3682SOL     OW22678   4.445   1.314   5.371 -0.7297 -0.1619 -0.0030
 3682SOL    HW122679   4.525   1.282   5.328  0.0567 -1.0797  2.1281
 3682SOL    HW222680   4.437   1.252   5.444 -1.0873  0.8138  0.7850
 3683SOL     OW22681   0.654   2.653   7.990  0.0821 -0.4217 -0.2102
 3683SOL    HW122682   0.717   2.592   7.953  3.0167  1.5409  1.4860
 3683SOL    HW222683   0.570   2.625   7.954 -0.2128  0.0609  0.0920
 3684SOL     OW22684   4.537   1.144   8.937  0.2517  0.3840 -0.7104
 3684SOL    HW122685   4.616   1.127   8.887 -0.0908 -0.7500 -0.8705
 3684SOL    HW222686   4.572   1.189   9.014 -1.2799  0.4291 -0.0332
 3685SOL     OW22687   4.391   1.627   5.306 -0.1649 -0.0411  0.4015
 3685SOL    HW122688   4.453   1.668   5.245  0.4438 -0.9871  0.3824
 3685SOL    HW222689   4.396   1.534   5.285  3.0891  0.4534 -1.0775
 3686SOL     OW22690   0.553   4.203   4.536  0.5608  0.3160  0.4975
 3686SOL    HW122691   0.611   4.201   4.613 -1.2439  2.3282  1.9178
 3686SOL    HW222692   0.573   4.291   4.505  1.1087 -0.1725 -0.5244
 3687SOL     OW22693   3.430   2.543   2.849 -0.3542 -0.2058  0.0288
 3687SOL    HW122694   3.523   2.563   2.844 -0.9628  2.9095  0.9859
 3687SOL    HW222695   3.402   2.624   2.892  1.8957  0.1225  0.8494
 3688SOL     OW22696   0.846   2.309   5.042 -0.1129  0.0757 -0.0326
 3688SOL    HW122697   0.884   2.255   5.111 -0.9443 -0.5705 -0.0946
 3688SOL    HW222698   0.819   2.243   4.980  0.9118 -0.2982 -0.0872
 3689SOL     OW22699   3.054   2.868   6.801  0.4047  0.2362  0.1363
 3689SOL    HW122700   3.102   2.917   6.735 -1.5326  0.7790 -0.8594
 3689SOL    HW222701   3.005   2.936   6.846 -0.1692 -1.9264  2.8120
 3690SOL     OW22702   4.675   3.394   7.174 -0.0217  0.5572 -0.2287
 3690SOL    HW122703   4.721   3.432   7.249  0.3952  0.4369 -0.4223
 3690SOL    HW222704   4.592   3.377   7.218 -0.2273  1.4723 -0.2605
 3691SOL     OW22705   0.072   0.583   9.254  0.3630  0.1482  0.3757
 3691SOL    HW122706   0.151   0.628   9.285 -0.5713  1.1076  1.3455
 3691SOL    HW222707   0.105   0.510   9.201  3.0831  1.0707  0.7793
 3692SOL     OW22708   2.667   3.535  13.440 -0.3029 -0.3057  0.1744
 3692SOL    HW122709   2.665   3.610  13.498  0.0387  0.9311 -1.4226
 3692SOL    HW222710   2.576   3.511  13.460 -0.7689  2.5407  1.3519
 3693SOL     OW22711   2.205   3.287  11.995 -0.1039 -0.6000  0.0088
 3693SOL    HW122712   2.151   3.366  11.982 -0.9251 -1.2693 -0.7266
 3693SOL    HW222713   2.296   3.316  11.999 -0.3267 -0.2702  2.5527
 3694SOL     OW22714   0.072   2.872   3.958 -0.5687  0.0791  0.0018
 3694SOL    HW122715   0.043   2.782   3.946 -0.3813  0.3454 -2.3142
 3694SOL    HW222716   0.159   2.856   3.996 -0.1341 -3.5288 -2.5941
 3695SOL     OW22717   3.652   3.714   3.961 -0.9566  0.1881 -0.2853
 3695SOL    HW122718   3.732   3.691   3.915 -1.0810  1.3271 -1.0615
 3695SOL    HW222719   3.595   3.761   3.900  1.0433  2.1969 -0.5832
 3696SOL     OW22720   1.532   4.595   2.179 -0.2620 -0.7036 -0.5337
 3696SOL    HW122721   1.499   4.506   2.162  0.1842 -0.8855 -0.4513
 3696SOL    HW222722   1.598   4.609   2.111 -0.0574  0.4581 -0.0925
 3697SOL     OW22723   1.067   1.521   3.059  0.2579  0.2476 -0.0276
 3697SOL    HW122724   1.001   1.452   3.067 -0.4982  1.1391  1.3488
 3697SOL    HW222725   1.117   1.509   3.139  1.2334  2.1287 -0.3558
 3698SOL     OW22726   3.902   4.266   1.640  0.4632 -0.0639  0.2368
 3698SOL    HW122727   3.911   4.210   1.563 -1.0187  1.2461 -0.8903
 3698SOL    HW222728   3.815   4.244   1.674 -0.3784  0.4886 -1.5938
 3699SOL     OW22729   1.170   4.694   4.034 -0.0845 -0.0367  0.1959
 3699SOL    HW122730   1.114   4.700   4.111  1.7031  0.1861  1.4698
 3699SOL    HW222731   1.205   4.606   4.043  1.3841  0.6337  1.0479
 3700SOL     OW22732   1.709   4.480   2.541 -0.1823 -0.0579  0.1076
 3700SOL    HW122733   1.645   4.535   2.496 -0.7292  0.0018  0.9479
 3700SOL    HW222734   1.767   4.453   2.470 -1.1685 -1.0779 -0.3117
 3701SOL     OW22735   2.100   4.614   4.686  0.4576  0.1290 -0.6887
 3701SOL    HW122736   2.029   4.567   4.731  0.7588  1.5210  1.2252
 3701SOL    HW222737   2.054   4.651   4.610  1.5139  0.2658 -1.2643
 3702SOL     OW22738   0.869   1.803  15.579  0.3351  0.6798 -0.2364
 3702SOL    HW122739   0.836   1.850  15.656  0.4695 -1.2715  1.0084
 3702SOL    HW222740   0.954   1.770  15.608 -0.5305 -0.9259  0.4617
 3703SOL     OW22741   4.213   4.680   4.865  0.2266  0.0789  0.3000
 3703SOL    HW122742   4.197   4.708   4.775 -0.4462  1.8669  0.9706
 3703SOL    HW222743   4.251   4.594   4.846  0.8371  0.5331 -0.5646
 3704SOL     OW22744   0.794   1.690   8.430 -0.1018 -0.0741  0.0215
 3704SOL    HW122745   0.805   1.688   8.335 -0.1597  2.6828 -0.0248
 3704SOL    HW222746   0.729   1.760   8.433  0.9183  0.7866  1.9015
 3705SOL     OW22747   4.157   4.313   6.303 -0.2395 -0.0679  0.2757
 3705SOL    HW122748   4.161   4.397   6.257 -1.0221 -0.5444 -0.6617
 3705SOL    HW222749   4.076   4.326   6.353 -1.4934 -0.7456 -1.5739
 3706SOL     OW22750   0.227   0.865   7.091  0.0120 -0.0049  0.0062
 3706SOL    HW122751   0.150   0.908   7.127  0.9292  0.9501  0.8336
 3706SOL    HW222752   0.183   0.787   7.057 -0.8243  0.3768  0.2157
 3707SOL     OW22753   4.385   1.576   0.148  0.3358  0.3329 -0.0451
 3707SOL    HW122754   4.428   1.647   0.196  1.8729  0.1398 -1.1465
 3707SOL    HW222755   4.387   1.609   0.058 -2.1593 -2.3205 -1.0596
 3708SOL     OW22756   0.417   3.398   6.654 -0.3463 -0.5864 -0.3391
 3708SOL    HW122757   0.502   3.410   6.611 -0.5273  0.3110 -0.4273
 3708SOL    HW222758   0.351   3.423   6.589 -0.5438  0.9841  0.4655
 3709SOL     OW22759   2.836   4.271   3.245  0.1192  0.5150 -0.2097
 3709SOL    HW122760   2.787   4.349   3.221 -0.4238 -0.5726 -2.6697
 3709SOL    HW222761   2.866   4.289   3.334  0.5434 -2.4605  0.2762
 3710SOL     OW22762   1.466   3.809  16.227  0.1720  0.2616 -0.1988
 3710SOL    HW122763   1.554   3.807  16.265 -0.1312 -1.0789  0.3942
 3710SOL    HW222764   1.436   3.900  16.230  2.9370  1.1916 -1.1010
 3711SOL     OW22765   0.335   1.765   5.642 -0.1156 -0.1524 -0.0330
 3711SOL    HW122766   0.368   1.777   5.732  1.2578 -0.3124 -0.5157
 3711SOL    HW222767   0.410   1.747   5.586  0.5816 -1.7040  1.3804
 3712SOL     OW22768   1.735   4.438   5.838 -0.0005  0.4903  0.0389
 3712SOL    HW122769   1.755   4.480   5.755 -0.5821 -1.3722 -1.0461
 3712SOL    HW222770   1.654   4.394   5.811  0.3415 -0.5182  0.6643
 3713SOL     OW22771   2.643   2.978  12.188 -0.6586  0.4771 -0.3116
 3713SOL    HW122772   2.562   2.977  12.137 -0.2878 -1.7162 -0.8848
 3713SOL    HW222773   2.705   2.947  12.121  1.9816  0.9739  1.9083
 3714SOL     OW22774   4.737   3.801   2.255 -0.0241 -0.2644 -0.8725
 3714SOL    HW122775   0.067   3.819   2.321 -1.3930  0.3755  0.3629
 3714SOL    HW222776   4.664   3.853   2.287  0.6961  0.2478 -0.0528
 3715SOL     OW22777   4.229   3.391  13.353 -0.3569  0.1112 -0.3107
 3715SOL    HW122778   4.149   3.445  13.354 -0.7576 -0.4689 -2.1561
 3715SOL    HW222779   4.255   3.403  13.262  0.0072 -1.0997 -0.3581
 3716SOL     OW22780   1.745   0.296   0.687  0.6217  0.0594  0.0192
 3716SOL    HW122781   1.684   0.351   0.738  1.3781  0.8483  0.0792
 3716SOL    HW222782   1.698   0.213   0.682  1.2441 -0.4283  2.0709
 3717SOL     OW22783   0.867   4.346   3.051  0.4909 -0.1948  0.4121
 3717SOL    HW122784   0.921   4.358   2.973 -1.4510  4.0376 -0.2526
 3717SOL    HW222785   0.816   4.268   3.029  2.0059 -1.2542  0.6361
 3718SOL     OW22786   2.690   0.439   4.117  0.3867 -0.1594  0.0880
 3718SOL    HW122787   2.688   0.359   4.064 -1.0087 -1.0095  1.4452
 3718SOL    HW222788   2.648   0.412   4.199  0.6384 -1.2479 -0.1399
 3719SOL     OW22789   2.155   2.423   9.154  0.1472  0.1156 -0.1811
 3719SOL    HW122790   2.171   2.352   9.216  1.3396  0.6578  0.1332
 3719SOL    HW222791   2.214   2.398   9.083  0.9520 -0.9607  0.8567
 3720SOL     OW22792   3.949   4.694   1.880 -0.2418 -0.2316 -0.8430
 3720SOL    HW122793   3.967   4.675   1.788  2.0372 -0.5472 -0.3192
 3720SOL    HW222794   3.878   4.632   1.898 -1.0287  0.6386 -0.9443
 3721SOL     OW22795   4.727   2.229   5.479 -0.0106 -0.4421 -0.1696
 3721SOL    HW122796   4.662   2.255   5.545 -0.3188 -0.7812 -0.3376
 3721SOL    HW222797   0.065   2.231   5.537  1.3244  2.4147 -1.9794
 3722SOL     OW22798   4.553   1.501   6.434  0.6836 -0.1208 -0.4059
 3722SOL    HW122799   4.469   1.462   6.459  0.2136  0.5486 -0.9373
 3722SOL    HW222800   4.617   1.432   6.452  0.9609  0.5793  1.3412
 3723SOL     OW22801   3.673   3.920  17.519 -0.0249  0.2480 -0.1876
 3723SOL    HW122802   3.667   4.015  17.517 -0.8838  0.1743 -1.8189
 3723SOL    HW222803   3.662   3.898  17.426 -4.0395 -0.2033  0.3996
 3724SOL     OW22804   2.806   4.605   1.837 -0.0671  0.1851 -0.4718
 3724SOL    HW122805   2.898   4.622   1.814  0.3610 -0.1967  0.9655
 3724SOL    HW222806   2.798   4.667   1.910  2.3425  0.4431 -0.4115
 3725SOL     OW22807   3.912   3.014   9.084  0.2662  0.3674 -0.2402
 3725SOL    HW122808   3.887   2.984   9.171  1.4292 -1.3574 -0.5056
 3725SOL    HW222809   3.950   3.100   9.103  1.4133 -0.5786  1.7154
 3726SOL     OW22810   4.212   1.536   9.510  0.0627 -0.2855 -0.0569
 3726SOL    HW122811   4.297   1.547   9.554 -0.4689  3.0517  0.1465
 3726SOL    HW222812   4.222   1.585   9.429  0.3706 -1.5918 -0.8093
 3727SOL     OW22813   3.954   2.314   4.100 -0.2973  0.3192 -0.0017
 3727SOL    HW122814   4.049   2.320   4.107 -0.2206  0.2153 -0.9774
 3727SOL    HW222815   3.941   2.241   4.161  0.6705  0.1696  0.0211
 3728SOL     OW22816   4.605   4.656   6.956 -0.0766  0.1726  0.2102
 3728SOL    HW122817   4.559   4.635   7.037  1.5439  0.3390  1.1797
 3728SOL    HW222818   4.556   4.736   6.938 -0.1273  0.7308  2.8151
 3729SOL     OW22819   2.457   1.871  13.279 -0.3565 -0.2295 -0.3605
 3729SOL    HW122820   2.447   1.966  13.291 -0.8288 -0.7655  3.4440
 3729SOL    HW222821   2.369   1.840  13.261  0.6951 -1.9779 -2.4457
 3730SOL     OW22822   4.559   0.707  15.459 -0.1145  0.2408 -0.3605
 3730SOL    HW122823   4.496   0.711  15.531  0.2085  1.5653 -0.1613
 3730SOL    HW222824   4.540   0.617  15.431  0.2854  0.5574 -1.6481
 3731SOL     OW22825   1.276   0.225   4.032 -0.4510 -0.2220 -0.1208
 3731SOL    HW122826   1.253   0.142   4.074 -0.4121 -0.3125 -0.2796
 3731SOL    HW222827   1.371   0.216   4.026 -0.5315  0.3119 -2.0716
 3732SOL     OW22828   1.490   1.475   1.521  0.9001 -0.2320 -0.7375
 3732SOL    HW122829   1.453   1.507   1.439  0.0183  0.7149  0.0307
 3732SOL    HW222830   1.498   1.560   1.564  2.7093 -1.4247  1.3236
 3733SOL     OW22831   3.859   3.605  10.637  0.6151  0.0481 -0.3951
 3733SOL    HW122832   3.944   3.579  10.602  1.5302  2.1028  0.3498
 3733SOL    HW222833   3.853   3.547  10.713  0.6881  2.2020  1.2398
 3734SOL     OW22834   0.701   3.331   9.819 -0.2363  0.5718 -0.0205
 3734SOL    HW122835   0.793   3.358   9.819 -0.5523  1.6676  0.1809
 3734SOL    HW222836   0.689   3.320   9.725  1.8187  1.3316 -0.3688
 3735SOL     OW22837   1.380   4.025   3.512 -0.1437  0.8772 -0.2534
 3735SOL    HW122838   1.453   4.060   3.459  0.0487  1.1916  0.2235
 3735SOL    HW222839   1.414   4.009   3.600 -1.2912  1.0434  0.2145
 3736SOL     OW22840   1.861   4.017  12.217 -0.2454  0.4258  0.0059
 3736SOL    HW122841   1.878   4.002  12.310  2.7998 -1.8415 -0.9085
 3736SOL    HW222842   1.941   4.064  12.193 -0.4103  0.8611  0.2888
 3737SOL     OW22843   4.474   2.987   9.522 -0.2903 -0.4086  0.0224
 3737SOL    HW122844   4.391   2.982   9.475  0.5594 -4.4268 -1.0211
 3737SOL    HW222845   4.450   3.043   9.596 -3.3052 -0.7898 -0.6481
 3738SOL     OW22846   2.771   3.538   4.991 -0.2282  0.2500 -0.0762
 3738SOL    HW122847   2.701   3.511   5.050 -1.4093 -1.3694 -2.2400
 3738SOL    HW222848   2.797   3.449   4.967  0.3936  0.5629 -0.5777
 3739SOL     OW22849   4.585   2.643   6.707  0.1698 -0.1671  0.3790
 3739SOL    HW122850   4.502   2.690   6.704  0.6417  0.6211 -0.4084
 3739SOL    HW222851   4.639   2.701   6.761  0.5153  2.3624 -2.6698
 3740SOL     OW22852   2.969   0.543  12.711  0.1376  0.2259  0.1391
 3740SOL    HW122853   2.926   0.552  12.626  0.2316  1.9360  0.2739
 3740SOL    HW222854   2.977   0.449  12.723 -0.1753  0.1809 -0.0002
 3741SOL     OW22855   0.460   4.447   6.164  0.1649 -0.5292  0.4572
 3741SOL    HW122856   0.374   4.412   6.141 -0.4189  0.0389  1.7734
 3741SOL    HW222857   0.442   4.465   6.256  0.1473  3.0379 -0.2286
 3742SOL     OW22858   0.222   4.214   2.476 -0.7806  0.6364  0.6825
 3742SOL    HW122859   0.264   4.128   2.474 -0.4767  0.7834  0.6353
 3742SOL    HW222860   0.138   4.204   2.432 -1.3280  0.9854  1.6503
 3743SOL     OW22861   0.710   0.228   6.193  0.8893  0.1607  0.2170
 3743SOL    HW122862   0.772   0.210   6.264  1.6316  0.7144 -0.2980
 3743SOL    HW222863   0.668   0.143   6.180  0.0110  0.4799  0.9710
 3744SOL     OW22864   2.947   3.740  13.597  0.2309 -0.3496  0.3183
 3744SOL    HW122865   3.037   3.750  13.628 -0.3845 -1.7507  2.5998
 3744SOL    HW222866   2.961   3.672  13.531  0.9819  0.2715 -0.1622
 3745SOL     OW22867   3.452   3.095  17.620  0.4064 -0.3683  0.4698
 3745SOL    HW122868   3.393   3.139  17.682  3.2424  1.0862  2.1274
 3745SOL    HW222869   3.465   3.014  17.670  2.5317  0.1434  0.7312
 3746SOL     OW22870   3.220   2.883  14.516  0.1315  0.1650  0.0645
 3746SOL    HW122871   3.166   2.809  14.543  2.0874 -2.4130 -3.0949
 3746SOL    HW222872   3.185   2.957  14.564 -0.6909  0.3243 -0.7886
 3747SOL     OW22873   1.377   4.675   5.091  0.3560  0.3987  0.0377
 3747SOL    HW122874   1.379   4.732   5.014  1.5666 -0.3472 -0.5029
 3747SOL    HW222875   1.407   4.734   5.160  3.1863 -0.0898 -0.7431
 3748SOL     OW22876   2.621   2.139   8.102 -0.4139  0.1518  0.3122
 3748SOL    HW122877   2.599   2.212   8.044  0.8403 -0.1335 -0.5451
 3748SOL    HW222878   2.595   2.071   8.039 -2.5231 -0.1176  1.4725
 3749SOL     OW22879   2.213   2.073  11.543 -0.5276 -0.1236 -0.5881
 3749SOL    HW122880   2.177   1.989  11.515  1.1900 -0.9253 -0.3814
 3749SOL    HW222881   2.308   2.059  11.537 -0.4706  0.4267 -1.1129
 3750SOL     OW22882   4.195   3.336  13.743  0.5075  0.3276 -0.0282
 3750SOL    HW122883   4.288   3.339  13.766  0.8810 -0.7378 -1.4294
 3750SOL    HW222884   4.149   3.358  13.824  0.2997 -2.4551  0.5924
 3751SOL     OW22885   0.441   1.611   2.174  0.1425  0.2050 -0.4100
 3751SOL    HW122886   0.345   1.611   2.167  0.3210  1.2214 -2.7429
 3751SOL    HW222887   0.458   1.548   2.104  0.4026 -2.0485  1.6641
 3752SOL     OW22888   2.182   0.736   0.908 -0.2275 -0.5450 -0.3007
 3752SOL    HW122889   2.248   0.803   0.889 -2.1049  1.5637  0.6053
 3752SOL    HW222890   2.227   0.682   0.972 -0.7495  0.8124  1.2105
 3753SOL     OW22891   3.982   0.340  16.043  0.0464 -0.3641  0.5392
 3753SOL    HW122892   4.024   0.278  16.102  0.3491 -0.9750 -0.3268
 3753SOL    HW222893   3.895   0.300  16.038  0.3764 -1.2449  1.8478
 3754SOL     OW22894   2.169   2.913   4.410 -0.4557  0.2839 -0.0739
 3754SOL    HW122895   2.196   2.829   4.372 -1.3485  0.7275 -1.7021
 3754SOL    HW222896   2.242   2.908   4.471  0.2003  1.4733 -0.7521
 3755SOL     OW22897   4.010   3.201   5.688  0.4569 -0.2084 -0.4524
 3755SOL    HW122898   4.098   3.206   5.726  0.4427  1.6217 -0.6586
 3755SOL    HW222899   3.996   3.108   5.704  0.2314 -0.1120 -0.0696
 3756SOL     OW22900   2.292   2.940  10.579 -0.2221  0.6726 -0.7252
 3756SOL    HW122901   2.352   2.932  10.506  0.2394  0.0321 -0.2806
 3756SOL    HW222902   2.339   2.903  10.654 -1.4834 -0.3175 -0.4250
 3757SOL     OW22903   4.055   3.180   4.330  0.4154  0.0829 -0.2083
 3757SOL    HW122904   4.084   3.268   4.353 -0.7637  0.4704 -0.2188
 3757SOL    HW222905   4.013   3.139   4.405 -1.3199  1.5375 -0.3834
 3758SOL     OW22906   2.653   1.517   6.024 -1.1305 -0.3912  0.0026
 3758SOL    HW122907   2.704   1.591   6.056 -1.1294 -0.3494 -0.0954
 3758SOL    HW222908   2.574   1.540   6.073 -0.6815 -1.0685  1.0270
 3759SOL     OW22909   2.006   3.717   3.100 -0.3217 -1.0357  0.6653
 3759SOL    HW122910   2.091   3.760   3.103 -0.4268 -0.6232 -1.7449
 3759SOL    HW222911   1.953   3.781   3.147  1.0804 -1.1005  2.3022
 3760SOL     OW22912   3.195   0.317   2.528  0.3634  0.1110  0.7117
 3760SOL    HW122913   3.218   0.406   2.501 -0.0670  0.2271  0.7364
 3760SOL    HW222914   3.211   0.313   2.623  3.4069  0.2108  0.2114
 3761SOL     OW22915   0.849   2.742   8.961  0.0782 -0.2849 -0.0309
 3761SOL    HW122916   0.766   2.789   8.956  0.2192  0.0111  0.3867
 3761SOL    HW222917   0.856   2.738   9.057 -3.1993  1.1396  0.2628
 3762SOL     OW22918   1.670   3.952  11.366  0.2753  0.2940 -0.4503
 3762SOL    HW122919   1.704   3.863  11.364 -0.7029 -0.0782 -0.2346
 3762SOL    HW222920   1.628   3.960  11.281  1.2705  2.5343 -0.7539
 3763SOL     OW22921   0.453   4.424   1.630 -0.0314 -1.0246 -0.0528
 3763SOL    HW122922   0.424   4.484   1.699 -1.7126 -1.6493 -0.2320
 3763SOL    HW222923   0.400   4.347   1.650 -1.9796  0.4441  0.5026
 3764SOL     OW22924   4.178   1.361  15.028  0.5651  0.2777  0.1575
 3764SOL    HW122925   4.268   1.334  15.047  0.3359 -1.3527 -0.9617
 3764SOL    HW222926   4.185   1.444  14.981  2.3336  0.3574  0.5389
 3765SOL     OW22927   3.040   3.446   2.970  0.0520  0.5391 -0.2671
 3765SOL    HW122928   2.957   3.412   3.004 -0.5558  3.2945  0.9859
 3765SOL    HW222929   3.065   3.381   2.904  1.8557 -0.9411  1.8670
 3766SOL     OW22930   3.275   4.137   6.790 -0.5698  0.0393 -0.0945
 3766SOL    HW122931   3.226   4.172   6.865  2.4602  0.3431  1.7550
 3766SOL    HW222932   3.211   4.149   6.720 -1.8878 -0.5082  1.0178
 3767SOL     OW22933   1.649   0.471  12.104  0.3687 -0.3025 -0.2558
 3767SOL    HW122934   1.728   0.475  12.050  0.4625 -1.4207 -0.2070
 3767SOL    HW222935   1.669   0.410  12.175 -0.2018  1.2122  1.1930
 3768SOL     OW22936   1.280   4.205   3.923  0.1034 -0.3840 -0.4222
 3768SOL    HW122937   1.374   4.189   3.920 -0.1636 -2.1739  0.4178
 3768SOL    HW222938   1.240   4.118   3.927  1.4051 -0.9154  1.1712
 3769SOL     OW22939   4.206   2.263   7.620 -0.2772  0.5096  0.4225
 3769SOL    HW122940   4.227   2.356   7.612 -2.0774  0.7963 -1.0312
 3769SOL    HW222941   4.113   2.266   7.599 -0.3448  0.8423  0.7794
 3770SOL     OW22942   2.942   3.910   7.794  0.2554 -0.4782 -0.0246
 3770SOL    HW122943   2.915   3.918   7.886  1.0318  0.4562  0.1269
 3770SOL    HW222944   2.854   3.934   7.763  0.1616  0.6421  1.0940
 3771SOL     OW22945   0.548   0.226   2.633 -0.2542 -0.2591 -0.0759
 3771SOL    HW122946   0.612   0.182   2.690  2.3524  1.7494 -1.4598
 3771SOL    HW222947   0.535   0.309   2.679 -0.5505  0.6472 -1.8049
 3772SOL     OW22948   3.323   0.311   6.405 -0.2796  0.2755  0.1223
 3772SOL    HW122949   3.384   0.385   6.410  0.6554 -0.4803 -0.0686
 3772SOL    HW222950   3.302   0.294   6.497 -1.0070  0.0725 -0.0802
 3773SOL     OW22951   0.407   1.393   5.906 -0.2976  0.0432 -0.6287
 3773SOL    HW122952   0.331   1.451   5.915 -0.1964  0.2420 -1.0829
 3773SOL    HW222953   0.380   1.309   5.942 -1.8441 -0.3112 -2.6655
 3774SOL     OW22954   1.718   2.575   0.976  0.0978  0.1515 -0.0961
 3774SOL    HW122955   1.647   2.604   1.034 -0.2958  3.0878 -2.0406
 3774SOL    HW222956   1.681   2.505   0.922  0.2271  0.1917 -0.2373
 3775SOL     OW22957   1.295   1.309  12.382 -0.3062 -0.0716 -0.2357
 3775SOL    HW122958   1.240   1.380  12.350  1.8968  0.5959 -2.5156
 3775SOL    HW222959   1.304   1.333  12.475 -0.0882 -0.5777 -0.1249
 3776SOL     OW22960   1.939   3.270  11.012 -0.1038 -0.3931 -0.5320
 3776SOL    HW122961   1.886   3.278  10.933  0.0189  0.4362 -0.5351
 3776SOL    HW222962   1.920   3.359  11.043  0.2650 -0.1528 -0.9875
 3777SOL     OW22963   3.113   0.020  10.112 -0.5852  0.5320  0.4191
 3777SOL    HW122964   3.185   0.011  10.049 -1.1856  1.1016 -0.3586
 3777SOL    HW222965   3.152   4.726  10.194  1.2419 -0.4942 -0.8230
 3778SOL     OW22966   3.513   0.566  10.812 -0.4929  0.1168  0.5191
 3778SOL    HW122967   3.555   0.539  10.893  0.6795  0.5402  0.0601
 3778SOL    HW222968   3.573   0.637  10.788  0.9757 -1.5311 -0.7370
 3779SOL     OW22969   2.411   3.137   6.842  0.0605 -0.1193 -0.0938
 3779SOL    HW122970   2.383   3.215   6.889  1.4889 -1.3495  2.7604
 3779SOL    HW222971   2.483   3.101   6.892 -0.1349 -0.3672  0.0110
 3780SOL     OW22972   0.643   3.664   6.122  0.1977  0.1933  0.5833
 3780SOL    HW122973   0.682   3.586   6.082  0.3702  0.3020  0.5432
 3780SOL    HW222974   0.558   3.675   6.078 -0.2658 -0.8746  1.2018
 3781SOL     OW22975   2.952   2.038   7.874 -0.1573  0.5265 -0.2520
 3781SOL    HW122976   2.934   2.130   7.896  0.2996  0.8709 -1.2624
 3781SOL    HW222977   3.031   2.026   7.927 -1.3656  1.2384  1.7145
 3782SOL     OW22978   1.982   4.217   8.858 -1.0894  0.4158  0.5957
 3782SOL    HW122979   1.970   4.131   8.897  2.6301  0.2821  1.4011
 3782SOL    HW222980   1.984   4.270   8.937  1.7338  0.4811  0.4696
 3783SOL     OW22981   0.143   0.798   6.725 -0.2231  0.4692 -0.5826
 3783SOL    HW122982   0.166   0.884   6.759 -5.0411  0.6947  2.0561
 3783SOL    HW222983   0.202   0.755   6.787 -0.5669 -1.0484 -1.3071
 3784SOL     OW22984   4.570   3.218   4.675  0.4678  0.0683 -0.4717
 3784SOL    HW122985   4.498   3.174   4.631 -0.0449  0.8183 -0.3759
 3784SOL    HW222986   4.574   3.176   4.761  4.6703 -1.6944 -1.5381
 3785SOL     OW22987   4.381   2.959  12.627  0.5268  0.2815  0.3791
 3785SOL    HW122988   4.297   2.927  12.660  1.0959  1.1240  2.6454
 3785SOL    HW222989   4.367   3.054  12.624 -1.7210 -0.0493  0.8643
 3786SOL     OW22990   3.404   3.721   7.145  0.3203 -0.2423 -0.0623
 3786SOL    HW122991   3.418   3.728   7.239 -1.2905 -3.1240  0.3986
 3786SOL    HW222992   3.487   3.751   7.109 -0.5703  2.9864  0.6416
 3787SOL     OW22993   1.441   4.125  14.838 -0.2382  0.2023  0.4985
 3787SOL    HW122994   1.510   4.059  14.839  0.3955  0.8566  0.0639
 3787SOL    HW222995   1.369   4.065  14.824 -0.8448 -0.1653  5.3063
 3788SOL     OW22996   4.316   1.230   4.430 -0.1193  0.8643 -1.0445
 3788SOL    HW122997   4.282   1.317   4.449  1.2561  1.3709 -0.9169
 3788SOL    HW222998   4.370   1.219   4.509 -2.6847  0.5285  0.6727
 3789SOL     OW22999   3.943   2.820  13.865 -0.4867  0.1535 -0.1375
 3789SOL    HW123000   3.971   2.879  13.796 -0.3893 -1.1054 -1.1796
 3789SOL    HW223001   3.949   2.739  13.814  1.5257  1.0259 -1.2494
 3790SOL     OW23002   3.426   2.874  16.050  0.0813  0.5190  0.1355
 3790SOL    HW123003   3.418   2.806  15.983  3.1020  1.9092 -1.6181
 3790SOL    HW223004   3.340   2.868  16.091  0.6747 -1.4996  1.0617
 3791SOL     OW23005   1.258   0.389   5.030 -0.0655 -0.2399 -0.5007
 3791SOL    HW123006   1.269   0.298   5.003  1.9564 -0.6301  1.6788
 3791SOL    HW223007   1.167   0.402   5.059  0.7007  1.0745  1.2649
 3792SOL     OW23008   1.097   1.949   7.090  0.5256 -0.1163  0.4472
 3792SOL    HW123009   1.162   1.888   7.055  2.5632  2.9303 -1.1027
 3792SOL    HW223010   1.071   1.898   7.167  2.2738  1.8591  2.3491
 3793SOL     OW23011   0.880   1.400   8.078  0.2809  0.3379 -0.1777
 3793SOL    HW123012   0.806   1.375   8.133  1.4779  2.2055  2.2527
 3793SOL    HW223013   0.918   1.313   8.063 -1.6919 -0.5988  0.2254
 3794SOL     OW23014   2.459   0.533   1.694  0.3961  1.2367 -0.5227
 3794SOL    HW123015   2.387   0.514   1.634 -1.0853  0.4019  1.4796
 3794SOL    HW223016   2.426   0.525   1.784  3.3378 -1.1896  0.3410
 3795SOL     OW23017   2.023   1.849   8.068  0.2345  0.2989  0.1297
 3795SOL    HW123018   2.003   1.880   8.156 -1.3225  1.9105 -0.7845
 3795SOL    HW223019   1.977   1.916   8.017  0.4028 -0.3111 -0.8277
 3796SOL     OW23020   3.776   0.164   0.851  0.1323 -0.2097 -0.1451
 3796SOL    HW123021   3.834   0.118   0.912  1.2228  0.3764 -0.7334
 3796SOL    HW223022   3.833   0.209   0.788 -0.3332 -1.7347 -1.6200
 3797SOL     OW23023   0.622   4.467   7.307 -0.2203  0.1051 -0.5436
 3797SOL    HW123024   0.628   4.416   7.388  1.3968 -1.1750 -1.4672
 3797SOL    HW223025   0.704   4.517   7.314  0.0067 -0.2831 -0.4397
 3798SOL     OW23026   2.957   1.742   7.062  0.0940 -0.1748  0.1469
 3798SOL    HW123027   2.914   1.783   6.987  0.4153 -0.3254 -0.1219
 3798SOL    HW223028   3.016   1.680   7.020 -2.7273 -2.9949  0.3794
 3799SOL     OW23029   0.166   0.357   4.861  0.5231  0.3657 -0.2237
 3799SOL    HW123030   0.150   0.336   4.952 -2.0393 -1.8876 -1.2195
 3799SOL    HW223031   0.082   0.399   4.841 -0.7545 -1.4748  1.3628
 3800SOL     OW23032   3.380   2.799   2.742  0.8288 -0.8270  0.1256
 3800SOL    HW123033   3.327   2.766   2.669  2.2912 -3.2004  0.1406
 3800SOL    HW223034   3.427   2.877   2.713  0.0506 -1.3379 -2.4978
 3801SOL     OW23035   1.850   1.518   3.530 -0.8083  0.5668  0.4952
 3801SOL    HW123036   1.768   1.567   3.530 -0.5379  1.0340 -2.0687
 3801SOL    HW223037   1.824   1.442   3.581  2.0710 -0.2182  0.7906
 3802SOL     OW23038   0.468   2.577   3.310  0.1378 -0.3969  0.3062
 3802SOL    HW123039   0.403   2.560   3.242  1.4911  0.3669 -1.1500
 3802SOL    HW223040   0.519   2.497   3.324  1.8377  0.6532  0.0355
 3803SOL     OW23041   4.096   1.867   7.344 -0.2474  0.3437 -0.1108
 3803SOL    HW123042   4.087   1.837   7.254 -1.2054  0.0160  0.0977
 3803SOL    HW223043   4.190   1.848   7.349 -0.5447 -0.8570  1.0248
 3804SOL     OW23044   3.391   1.687   2.330  0.8051 -0.0460  0.0564
 3804SOL    HW123045   3.422   1.737   2.255 -0.1715 -1.3557 -1.2065
 3804SOL    HW223046   3.296   1.699   2.336  0.4868 -1.0466 -3.2068
 3805SOL     OW23047   2.832   3.149   9.815  0.6498 -0.2144  0.4590
 3805SOL    HW123048   2.867   3.061   9.803  0.6453 -0.2396  0.6345
 3805SOL    HW223049   2.894   3.195   9.758 -1.1468 -2.7548 -3.4915
 3806SOL     OW23050   2.952   0.576  14.286  1.4538 -0.5623 -0.4404
 3806SOL    HW123051   2.936   0.488  14.320 -0.6513 -0.6224 -1.6506
 3806SOL    HW223052   2.937   0.640  14.356 -1.1093 -1.0263 -0.5973
 3807SOL     OW23053   4.499   3.403   1.766 -0.4027 -0.3018  0.6614
 3807SOL    HW123054   4.491   3.314   1.801  1.2689 -0.4214  0.7515
 3807SOL    HW223055   4.454   3.452   1.835 -1.2714 -0.4536  0.1975
 3808SOL     OW23056   3.571   2.136   5.130  0.2882 -0.8104  0.1288
 3808SOL    HW123057   3.662   2.163   5.118  0.7264 -2.6985 -0.7248
 3808SOL    HW223058   3.556   2.085   5.051 -3.0099  0.8313 -0.3084
 3809SOL     OW23059   0.232   2.988  13.999 -0.6362 -0.8059 -0.1829
 3809SOL    HW123060   0.264   2.919  13.941  2.2042 -0.3299  0.8273
 3809SOL    HW223061   0.142   2.967  14.024 -1.2660  1.3979 -0.5753
 3810SOL     OW23062   1.177   2.672   1.680 -0.5356  0.1905 -0.6156
 3810SOL    HW123063   1.234   2.740   1.645 -0.3426  0.7477  0.8052
 3810SOL    HW223064   1.123   2.648   1.605  0.6986 -0.8856 -1.1644
 3811SOL     OW23065   3.884   3.209  13.165  0.3350  0.3135  0.7363
 3811SOL    HW123066   3.849   3.211  13.254 -2.2637  1.1766 -0.2876
 3811SOL    HW223067   3.811   3.175  13.113  1.6464 -2.3613  0.6487
 3812SOL     OW23068   3.231   0.269   5.634  0.3802 -0.1549 -0.2414
 3812SOL    HW123069   3.311   0.263   5.686 -0.4181 -0.7299  0.9224
 3812SOL    HW223070   3.248   0.184   5.595 -3.3841 -2.2041  2.5821
 3813SOL     OW23071   3.499   2.654  13.929 -0.3369 -0.1831 -0.7487
 3813SOL    HW123072   3.442   2.668  13.854  1.3335 -1.4304 -2.2599
 3813SOL    HW223073   3.433   2.640  13.997  1.8212  1.0991  1.6081
 3814SOL     OW23074   2.037   1.097  10.097 -0.2310  0.3840  0.0378
 3814SOL    HW123075   2.108   1.099  10.162 -0.0711  0.8172 -0.1565
 3814SOL    HW223076   1.998   1.012  10.118 -2.0488  0.4939 -3.0637
 3815SOL     OW23077   4.439   4.478   2.733 -0.2688  0.0338 -0.1339
 3815SOL    HW123078   4.435   4.411   2.665 -0.6056 -2.2115  2.0931
 3815SOL    HW223079   4.532   4.500   2.738 -0.2655 -0.2079  0.8510
 3816SOL     OW23080   3.276   1.393   7.646  0.0627 -0.3466  0.6296
 3816SOL    HW123081   3.183   1.410   7.661 -0.0303  0.7647 -1.1874
 3816SOL    HW223082   3.320   1.438   7.718  1.5437  1.0145 -1.1407
 3817SOL     OW23083   1.517   1.901   8.872  0.4664 -0.3065 -1.0226
 3817SOL    HW123084   1.582   1.836   8.845  0.1795 -0.6024 -0.9896
 3817SOL    HW223085   1.562   1.973   8.828  0.7024 -0.2400 -0.6750
 3818SOL     OW23086   0.930   1.602   4.446  0.2367 -0.8694 -0.3880
 3818SOL    HW123087   1.011   1.557   4.422  0.7224 -0.3336  0.2145
 3818SOL    HW223088   0.914   1.558   4.529  1.8816 -1.5145 -0.4218
 3819SOL     OW23089   1.137   1.322   8.240 -0.3610  0.2731  0.5583
 3819SOL    HW123090   1.111   1.408   8.206 -0.7615  0.3396  1.0380
 3819SOL    HW223091   1.087   1.262   8.184  1.8094 -1.2026  0.1951
 3820SOL     OW23092   0.153   2.172   6.279 -0.7866 -0.1088 -0.2472
 3820SOL    HW123093   0.190   2.145   6.363 -0.3009 -1.4440 -0.8990
 3820SOL    HW223094   0.105   2.250   6.309 -0.9274  0.6762 -2.5748
 3821SOL     OW23095   1.695   0.318  14.092 -0.1377  0.4856  0.9654
 3821SOL    HW123096   1.629   0.327  14.023  2.3232  1.2424 -1.2636
 3821SOL    HW223097   1.776   0.337  14.046  0.2133  1.2667  1.8994
 3822SOL     OW23098   1.969   1.675   2.749 -0.3958 -0.0919 -0.3019
 3822SOL    HW123099   1.882   1.639   2.731 -0.1936 -0.4812 -0.4868
 3822SOL    HW223100   1.976   1.748   2.686  1.5854  0.8661  1.0499
 3823SOL     OW23101   2.804   4.353   6.757  0.1169  0.0022  0.3003
 3823SOL    HW123102   2.882   4.398   6.789 -0.7127  0.4264  1.7018
 3823SOL    HW223103   2.737   4.358   6.825 -0.1183 -0.3602  0.0951
 3824SOL     OW23104   1.010   4.159   2.678 -0.6577 -0.3369 -0.1393
 3824SOL    HW123105   0.952   4.113   2.739  0.0036 -1.0784 -0.0788
 3824SOL    HW223106   0.948   4.224   2.645 -0.8854 -0.9570 -0.9289
 3825SOL     OW23107   1.650   4.189   7.384 -0.0054  0.0234 -0.1417
 3825SOL    HW123108   1.682   4.278   7.374  0.0073 -0.1974 -2.0778
 3825SOL    HW223109   1.600   4.183   7.303 -2.1169  0.5644  1.1122
 3826SOL     OW23110   1.105   1.818   2.990 -0.1097  0.1076  0.4235
 3826SOL    HW123111   1.066   1.863   3.065  0.0798  1.9700 -0.5965
 3826SOL    HW223112   1.100   1.725   3.012  1.2468  0.3833  1.9391
 3827SOL     OW23113   0.446   4.568   4.521 -0.2408  0.5464  0.1960
 3827SOL    HW123114   0.473   4.537   4.434  0.3895  3.2130 -0.5416
 3827SOL    HW223115   0.351   4.570   4.509 -0.0858 -2.4663 -1.5175
 3828SOL     OW23116   0.142   0.102   5.474 -0.2887  0.6662  0.2190
 3828SOL    HW123117   0.062   0.151   5.495 -0.2766  0.4585  0.7347
 3828SOL    HW223118   0.101   0.036   5.419  2.3024  0.5367 -1.5345
 3829SOL     OW23119   2.643   1.547  14.576 -0.4441  0.4635  0.2200
 3829SOL    HW123120   2.554   1.561  14.544  0.1105  0.6095 -1.2766
 3829SOL    HW223121   2.660   1.453  14.574  0.7850  0.6631  1.5626
 3830SOL     OW23122   2.664   1.783   1.634 -0.2480 -0.0494 -0.3384
 3830SOL    HW123123   2.617   1.801   1.553  0.3912 -1.8351 -1.1171
 3830SOL    HW223124   2.681   1.689   1.628  0.5200  0.1594 -1.5162
 3831SOL     OW23125   4.416   0.602   9.826  0.7905 -0.1302  0.0878
 3831SOL    HW123126   4.328   0.612   9.863  1.2810  1.5259  0.7834
 3831SOL    HW223127   4.378   0.583   9.740 -0.7779  1.4254  0.4341
 3832SOL     OW23128   1.550   3.196   7.065  0.2873 -0.6005  0.3679
 3832SOL    HW123129   1.560   3.235   6.978  0.4109  0.0244  0.6624
 3832SOL    HW223130   1.500   3.119   7.038 -1.5169  0.9304 -0.6686
 3833SOL     OW23131   2.792   3.821   4.074  0.4212  0.0057 -0.5466
 3833SOL    HW123132   2.722   3.757   4.066  0.9868 -0.3819 -2.2662
 3833SOL    HW223133   2.850   3.767   4.129 -0.5632 -0.2560  0.2351
 3834SOL     OW23134   1.916   3.101   4.936  0.2956  0.5832 -0.5126
 3834SOL    HW123135   1.859   3.142   5.001  1.7288  0.7663  0.6439
 3834SOL    HW223136   2.001   3.136   4.963  0.6909 -0.1571 -0.7882
 3835SOL     OW23137   1.554   0.547   8.058 -0.4018 -0.2063  0.2734
 3835SOL    HW123138   1.593   0.473   8.102  1.1812  0.3532 -0.1956
 3835SOL    HW223139   1.606   0.619   8.093 -0.6000 -0.5936  1.3616
 3836SOL     OW23140   1.780   4.467   4.582  0.1655 -0.0803 -0.4703
 3836SOL    HW123141   1.810   4.468   4.492  1.4405 -1.4822 -0.0590
 3836SOL    HW223142   1.791   4.558   4.608  0.0371  0.0639 -0.9285
 3837SOL     OW23143   0.067   2.231   4.746  0.0100 -0.4059 -0.0074
 3837SOL    HW123144   0.087   2.167   4.815 -2.1450 -1.1828 -0.0814
 3837SOL    HW223145   0.012   2.188   4.680  0.4416 -0.9447 -0.0228
 3838SOL     OW23146   2.924   3.682   4.288 -0.6183  0.4266 -0.2845
 3838SOL    HW123147   2.886   3.648   4.369 -0.5166 -1.6733 -1.0991
 3838SOL    HW223148   2.997   3.737   4.315 -0.3987 -0.6499  1.3102
 3839SOL     OW23149   4.039   3.009  13.685  0.0049 -0.1677 -0.2286
 3839SOL    HW123150   3.947   3.030  13.700  0.0508  0.0043 -0.1827
 3839SOL    HW223151   4.051   3.095  13.644  2.4285 -0.8425 -0.9250
 3840SOL     OW23152   3.706   3.783   7.738 -0.6291 -0.2241 -0.3899
 3840SOL    HW123153   3.613   3.801   7.727 -1.2946 -1.6223  2.8265
 3840SOL    HW223154   3.694   3.693   7.770 -0.3015 -0.4834 -1.0075
 3841SOL     OW23155   4.468   1.498  15.257  0.3914 -0.4966 -0.1680
 3841SOL    HW123156   4.457   1.499  15.352 -2.6748  1.2000 -0.5568
 3841SOL    HW223157   4.403   1.562  15.229 -0.9685 -1.8832 -0.1700
 3842SOL     OW23158   0.142   3.753   3.700 -0.2284  0.6770 -0.4018
 3842SOL    HW123159   0.072   3.752   3.765  0.7545 -2.6098  0.5981
 3842SOL    HW223160   0.117   3.704   3.622 -2.3141 -0.3350  0.9131
 3843SOL     OW23161   4.712   2.237  12.777  0.2537  0.0608 -0.3959
 3843SOL    HW123162   0.004   2.245  12.868  0.7226  0.1435 -0.5540
 3843SOL    HW223163   0.024   2.314  12.748  1.4683 -0.6653 -0.2251
 3844SOL     OW23164   2.760   2.734   8.534  0.0077  0.2809  0.8376
 3844SOL    HW123165   2.736   2.790   8.460  3.5769  0.9810  0.2230
 3844SOL    HW223166   2.714   2.651   8.519 -1.3071  1.4196 -1.4896
 3845SOL     OW23167   1.221   2.582   2.367  0.5811  0.0468 -0.0103
 3845SOL    HW123168   1.237   2.673   2.393  3.0727 -0.3493 -0.0729
 3845SOL    HW223169   1.134   2.574   2.405  1.0205  0.7994  1.1659
 3846SOL     OW23170   4.237   3.619   8.870  0.1545  0.1999 -0.0510
 3846SOL    HW123171   4.288   3.600   8.948 -2.3482 -4.0232  0.5883
 3846SOL    HW223172   4.178   3.685   8.905  0.1512  0.1039  0.1231
 3847SOL     OW23173   1.414   0.847   4.785  0.2586 -0.4923  0.2015
 3847SOL    HW123174   1.498   0.892   4.801  0.7473 -1.5138  0.5084
 3847SOL    HW223175   1.354   0.913   4.750 -1.6446 -1.6374  1.3085
 3848SOL     OW23176   1.375   4.486   3.414  0.4432 -0.3348  0.3043
 3848SOL    HW123177   1.287   4.454   3.432  0.9067 -0.6879  1.9378
 3848SOL    HW223178   1.360   4.519   3.325  0.5570  1.4799  0.9507
 3849SOL     OW23179   4.625   0.693  10.420  0.5119 -0.3660  0.1930
 3849SOL    HW123180   4.634   0.754  10.493  1.5751 -2.7676  2.0684
 3849SOL    HW223181   4.712   0.659  10.397  0.1207 -2.5913  1.9960
 3850SOL     OW23182   3.999   2.860   3.094 -0.4961 -0.4593  0.1232
 3850SOL    HW123183   4.021   2.949   3.124  1.9250 -1.3264  0.9193
 3850SOL    HW223184   3.916   2.845   3.139 -0.0119 -2.9926  0.1930
 3851SOL     OW23185   3.188   0.542   5.898  0.0651 -0.4238  0.4644
 3851SOL    HW123186   3.132   0.542   5.820 -1.0622  0.8408  1.2837
 3851SOL    HW223187   3.123   0.509   5.960 -0.8910 -0.0577 -0.3495
 3852SOL     OW23188   3.220   1.960   7.933 -1.0440 -0.0286 -0.3044
 3852SOL    HW123189   3.292   1.900   7.912 -0.8975 -0.2526  0.8207
 3852SOL    HW223190   3.264   2.022   7.991 -1.2863 -1.0786  1.0021
 3853SOL     OW23191   3.798   1.295   6.997  0.3336 -0.2067 -0.4208
 3853SOL    HW123192   3.746   1.268   6.921 -1.1555  1.7942 -0.1102
 3853SOL    HW223193   3.736   1.358   7.035  0.1857 -0.2887 -0.5243
 3854SOL     OW23194   1.298   0.649   4.480  0.0593 -0.4743 -0.2112
 3854SOL    HW123195   1.337   0.578   4.531  1.9560 -0.3257 -1.4561
 3854SOL    HW223196   1.334   0.624   4.395  0.0749  0.2588 -0.4169
 3855SOL     OW23197   2.253   3.997   4.555  0.1300 -0.0149 -0.3211
 3855SOL    HW123198   2.301   3.963   4.631 -0.8506 -0.8663 -0.0822
 3855SOL    HW223199   2.174   3.943   4.551 -0.9621  1.8131 -2.9678
 3856SOL     OW23200   2.497   0.955  14.252 -0.0125 -0.7394  0.4740
 3856SOL    HW123201   2.451   0.954  14.168 -2.3399 -0.3393  1.7308
 3856SOL    HW223202   2.583   0.966  14.211 -1.4102 -1.3336 -2.5644
 3857SOL     OW23203   3.930   1.557   4.227  0.1645 -0.2465 -0.0618
 3857SOL    HW123204   3.903   1.539   4.317 -0.9679 -1.4722 -0.6513
 3857SOL    HW223205   3.928   1.470   4.187  0.7312 -0.3389  0.1200
 3858SOL     OW23206   3.262   4.118   5.175  0.3516 -0.0764  0.1011
 3858SOL    HW123207   3.171   4.116   5.143  0.4850 -0.8943 -0.2162
 3858SOL    HW223208   3.298   4.030   5.177 -0.1139 -0.2603  0.3685
 3859SOL     OW23209   4.369   1.053   2.804 -0.5223 -0.1074 -0.4623
 3859SOL    HW123210   4.375   1.148   2.806 -1.3517 -0.0827  0.5145
 3859SOL    HW223211   4.442   1.022   2.857 -1.3328  0.9994  1.2728
 3860SOL     OW23212   3.151   2.767  13.631  0.1523  0.3399  0.2391
 3860SOL    HW123213   3.241   2.740  13.648  0.4007  0.5870 -0.6694
 3860SOL    HW223214   3.125   2.803  13.716 -0.7156  3.3470 -1.3062
 3861SOL     OW23215   2.768   0.110   5.609  0.7248  0.0832 -0.9321
 3861SOL    HW123216   2.680   0.074   5.618 -0.5922  3.1090 -1.6522
 3861SOL    HW223217   2.817   0.031   5.631 -0.2487 -0.4026 -0.5357
 3862SOL     OW23218   1.913   2.257   6.037 -0.3424  0.4796 -0.1949
 3862SOL    HW123219   1.935   2.165   6.049 -1.6335  0.1214 -0.6146
 3862SOL    HW223220   2.003   2.286   6.019  0.0792 -0.9116 -0.3301
 3863SOL     OW23221   3.697   1.769   7.308  0.0991 -0.4431 -0.1647
 3863SOL    HW123222   3.607   1.800   7.308  1.3382  3.0976  2.8473
 3863SOL    HW223223   3.704   1.718   7.227  0.0179 -1.5796  0.5391
 3864SOL     OW23224   1.084   1.781   3.290  0.3736 -0.1223  0.3035
 3864SOL    HW123225   1.003   1.733   3.309  0.8163 -1.5747 -1.4485
 3864SOL    HW223226   1.139   1.703   3.283  1.3164  0.3352  2.5525
 3865SOL     OW23227   0.457   1.363  13.946  0.2643  0.2526 -0.5444
 3865SOL    HW123228   0.420   1.433  13.999 -0.0407  0.3738 -0.9199
 3865SOL    HW223229   0.503   1.415  13.881 -0.9987 -0.2178 -1.8128
 3866SOL     OW23230   0.308   2.717   6.908 -0.3817 -0.7805  0.4153
 3866SOL    HW123231   0.268   2.773   6.841 -0.3994  1.2301  2.0788
 3866SOL    HW223232   0.306   2.769   6.989  0.9384 -0.6230  0.3374
 3867SOL     OW23233   0.577   2.502   6.209  0.4977 -0.0982  0.0573
 3867SOL    HW123234   0.580   2.505   6.114 -0.3338 -0.3263  0.0278
 3867SOL    HW223235   0.597   2.409   6.226  1.3438 -0.1733 -1.4034
 3868SOL     OW23236   0.471   4.374  14.378 -0.0927 -0.2146 -0.3411
 3868SOL    HW123237   0.494   4.281  14.372 -0.5499 -0.4145  1.0717
 3868SOL    HW223238   0.527   4.411  14.309  0.4911  1.2155  0.9042
 3869SOL     OW23239   4.558   2.752   3.460  0.0504  0.1802 -0.2955
 3869SOL    HW123240   4.584   2.826   3.515 -1.8398  0.8353 -0.2595
 3869SOL    HW223241   4.571   2.678   3.519 -0.8996  0.3007  0.0733
 3870SOL     OW23242   4.623   4.258   7.595  0.3556 -0.0763 -0.2397
 3870SOL    HW123243   4.609   4.258   7.690  0.3780  0.0533 -0.2372
 3870SOL    HW223244   4.700   4.312   7.582  0.1561  0.0100 -1.0138
 3871SOL     OW23245   3.202   2.063  11.336  0.2499 -0.2492  0.1644
 3871SOL    HW123246   3.213   2.074  11.242 -1.5643 -0.0727 -0.0323
 3871SOL    HW223247   3.267   2.117  11.382  0.3576  0.1518 -0.4602
 3872SOL     OW23248   4.509   4.458  10.212  0.2133  0.5379 -0.3105
 3872SOL    HW123249   4.423   4.421  10.193  1.4590 -1.1401 -2.6361
 3872SOL    HW223250   4.527   4.493  10.124 -0.6844 -0.1685 -0.7690
 3873SOL     OW23251   4.563   3.940   3.265  0.1990 -0.5160 -0.1452
 3873SOL    HW123252   4.611   4.021   3.285  0.4235 -0.7188  0.1326
 3873SOL    HW223253   4.474   3.971   3.250  1.0980  1.8798 -0.5715
 3874SOL     OW23254   3.480   3.289  15.545  0.1373  0.2959  0.4330
 3874SOL    HW123255   3.392   3.326  15.539  0.4091  0.5242 -1.9307
 3874SOL    HW223256   3.522   3.310  15.462 -0.4862 -0.7473 -0.1541
 3875SOL     OW23257   0.679   3.875  10.818 -0.0078 -0.3094  0.5592
 3875SOL    HW123258   0.596   3.923  10.813  0.3273  0.2352  0.2033
 3875SOL    HW223259   0.704   3.865  10.726  1.6247 -0.9722  1.0769
 3876SOL     OW23260   3.424   3.152   2.105 -0.0860  0.4422 -0.1463
 3876SOL    HW123261   3.484   3.114   2.040 -0.6222 -1.3402  0.3988
 3876SOL    HW223262   3.424   3.092   2.179  1.5436 -0.1886 -0.6489
 3877SOL     OW23263   3.493   1.967   4.889 -0.3851  0.0222 -0.0534
 3877SOL    HW123264   3.580   1.944   4.855  0.2961  1.2027  0.8652
 3877SOL    HW223265   3.444   2.004   4.816 -0.7708 -1.1568 -0.4000
 3878SOL     OW23266   4.514   1.594   9.040 -0.0111 -0.0259  0.6859
 3878SOL    HW123267   4.497   1.518   9.096  0.8026  0.7883  2.0547
 3878SOL    HW223268   4.541   1.661   9.102 -1.4719 -0.6234  1.9678
 3879SOL     OW23269   2.881   4.360   8.556 -0.3706  0.6209 -0.0621
 3879SOL    HW123270   2.939   4.434   8.577 -0.8233  1.0359 -0.2742
 3879SOL    HW223271   2.914   4.324   8.474  0.0155 -1.4133  0.9967
 3880SOL     OW23272   1.757   3.241   7.846  0.1671  0.6015 -0.6447
 3880SOL    HW123273   1.706   3.282   7.776  0.1608 -1.3863 -1.7841
 3880SOL    HW223274   1.840   3.233   7.800  0.6449  0.3033  0.2742
 3881SOL     OW23275   4.608   4.027   5.666 -0.2150 -0.3381  0.4648
 3881SOL    HW123276   4.668   4.095   5.695 -2.1631  1.4049  0.4428
 3881SOL    HW223277   4.588   4.048   5.574  2.4864 -1.2426 -0.3125
 3882SOL     OW23278   1.035   0.221   6.412  0.3862  0.6251 -0.0363
 3882SOL    HW123279   0.946   0.254   6.420  0.3891  0.6027  0.0786
 3882SOL    HW223280   1.081   0.304   6.422  1.8714 -0.0208 -1.4524
 3883SOL     OW23281   3.773   3.250   9.311 -0.5445  0.8643 -0.4623
 3883SOL    HW123282   3.792   3.168   9.265 -2.5758 -0.9473  1.9581
 3883SOL    HW223283   3.809   3.317   9.253 -1.5133  0.4250 -1.5738
 3884SOL     OW23284   3.254   1.285   0.406  0.4633 -0.1988 -0.5564
 3884SOL    HW123285   3.293   1.371   0.426  0.2429 -0.2442  0.0551
 3884SOL    HW223286   3.185   1.307   0.343  0.7345  2.0345 -0.1025
 3885SOL     OW23287   2.707   0.642   7.259 -0.3519  0.0093  0.0087
 3885SOL    HW123288   2.761   0.718   7.281 -1.0219  0.3683  0.4265
 3885SOL    HW223289   2.628   0.686   7.228 -1.1260 -1.2828  0.1198
 3886SOL     OW23290   2.862   1.360   4.087  0.2134 -0.0348  0.0814
 3886SOL    HW123291   2.854   1.449   4.052  2.0474 -0.6305 -1.9286
 3886SOL    HW223292   2.791   1.308   4.049  0.8297 -1.9567  1.5277
 3887SOL     OW23293   2.746   0.352   5.832 -0.2489  0.0528  0.5246
 3887SOL    HW123294   2.827   0.321   5.791 -0.9042 -2.4625  1.1299
 3887SOL    HW223295   2.748   0.303   5.914  0.9668 -0.8829 -0.0576
 3888SOL     OW23296   0.505   0.647   5.045  0.2167 -0.1627  0.5703
 3888SOL    HW123297   0.599   0.640   5.029  0.0801 -3.1332  1.0550
 3888SOL    HW223298   0.494   0.724   4.989 -1.8578 -0.2510  0.8593
 3889SOL     OW23299   1.142   0.158   2.243  0.6277  0.2788 -0.5158
 3889SOL    HW123300   1.232   0.182   2.266  1.0380  0.7999 -2.6334
 3889SOL    HW223301   1.148   0.159   2.148 -1.4038 -0.7790 -0.6549
 3890SOL     OW23302   3.939   4.571  16.986  0.4391  0.0731  0.6831
 3890SOL    HW123303   3.976   4.507  16.925  0.8816 -1.1789  2.2807
 3890SOL    HW223304   3.890   4.510  17.041  0.5474 -0.5912  0.0417
 3891SOL     OW23305   2.755   1.926   0.622 -0.3237 -0.0382 -0.1272
 3891SOL    HW123306   2.844   1.922   0.656 -0.9028 -1.7226  1.1914
 3891SOL    HW223307   2.709   1.954   0.701 -0.1944  0.0214 -0.0732
 3892SOL     OW23308   3.734   1.151   8.870 -0.1496  0.1481  0.3795
 3892SOL    HW123309   3.761   1.103   8.791  1.5985 -0.8514  1.5929
 3892SOL    HW223310   3.771   1.105   8.945  0.0054  2.1066  1.4874
 3893SOL     OW23311   0.452   3.579  17.491 -0.3396  0.5780 -0.1886
 3893SOL    HW123312   0.527   3.535  17.531 -0.6570 -1.5983 -1.9702
 3893SOL    HW223313   0.470   3.669  17.518 -0.3514  1.0620 -1.7896
 3894SOL     OW23314   4.637   1.943   8.164 -0.2707 -0.1447  0.3903
 3894SOL    HW123315   4.641   2.030   8.205  5.0979 -0.1974 -0.0397
 3894SOL    HW223316   4.580   1.968   8.091  0.8384 -2.8760 -1.3808
 3895SOL     OW23317   4.428   3.515   4.256 -0.2620 -0.1194 -0.4652
 3895SOL    HW123318   4.482   3.593   4.255  0.9054 -0.9111  0.3799
 3895SOL    HW223319   4.410   3.489   4.165 -1.3159  1.8787 -0.8223
 3896SOL     OW23320   0.065   0.985   9.061 -0.0970 -0.2707  0.3385
 3896SOL    HW123321   4.728   0.933   9.091  0.0068 -0.4169  0.3451
 3896SOL    HW223322   0.066   1.059   9.122  0.5057 -1.5909  1.9372
 3897SOL     OW23323   3.337   4.663   3.353 -0.0038 -0.4941  0.8174
 3897SOL    HW123324   3.262   4.653   3.411  0.5095  0.8301  1.7066
 3897SOL    HW223325   3.316   4.735   3.294  1.3562 -0.4390  0.3960
 3898SOL     OW23326   0.762   4.501   9.244  0.2432  0.4475 -0.3550
 3898SOL    HW123327   0.810   4.419   9.251  0.0453  0.4483  0.9720
 3898SOL    HW223328   0.737   4.517   9.335 -0.9219 -0.3437 -0.5495
 3899SOL     OW23329   1.147   2.744   1.379 -0.1750 -0.1782  0.2517
 3899SOL    HW123330   1.238   2.722   1.356 -0.5039  0.1302 -1.3452
 3899SOL    HW223331   1.151   2.838   1.398  2.4525 -0.2891  0.2866
 3900SOL     OW23332   4.339   1.515  12.610 -0.2654 -0.3291 -0.0121
 3900SOL    HW123333   4.385   1.431  12.619  0.3612 -0.1342 -1.3675
 3900SOL    HW223334   4.335   1.544  12.702 -0.7199 -0.7234  0.0889
 3901SOL     OW23335   0.675   3.002  15.525 -0.4259  0.5467 -0.3605
 3901SOL    HW123336   0.580   2.992  15.535 -0.3740  1.2938  0.7962
 3901SOL    HW223337   0.708   2.918  15.555 -0.8690  1.0470  1.4990
 3902SOL     OW23338   4.033   3.669   2.671  0.4741 -0.2749 -0.0105
 3902SOL    HW123339   3.950   3.667   2.720 -0.5498  0.7325 -1.7364
 3902SOL    HW223340   4.012   3.735   2.605  0.4812 -0.7415 -0.4830
 3903SOL     OW23341   0.538   2.699   8.733  0.0238  0.1225 -0.1751
 3903SOL    HW123342   0.572   2.775   8.779  2.2375 -0.1686 -1.3496
 3903SOL    HW223343   0.598   2.630   8.761 -0.9656 -0.3276  0.8604
 3904SOL     OW23344   2.569   4.449   5.108  0.5213  0.1902 -0.3583
 3904SOL    HW123345   2.608   4.478   5.191 -1.0682  3.0147 -0.5752
 3904SOL    HW223346   2.496   4.392   5.130  0.9928  0.8616  2.9279
 3905SOL     OW23347   3.833   4.519  10.856 -0.2207 -0.4195 -0.1528
 3905SOL    HW123348   3.899   4.533  10.788 -1.3479 -1.6903 -1.5172
 3905SOL    HW223349   3.784   4.601  10.853 -2.0307 -1.3651  4.5466
 3906SOL     OW23350   1.029   2.603   3.432  0.0134 -0.0413  0.0557
 3906SOL    HW123351   1.022   2.524   3.485  1.3688 -0.4056 -0.3182
 3906SOL    HW223352   1.015   2.663   3.505 -0.0795 -2.0685  1.6807
 3907SOL     OW23353   1.535   3.089   7.935  0.4624  0.2613 -0.4303
 3907SOL    HW123354   1.617   3.138   7.926  0.4178  0.4460  0.1835
 3907SOL    HW223355   1.518   3.069   7.843 -0.9646 -1.0582  0.1278
 3908SOL     OW23356   3.243   1.496   9.340  0.3287 -0.6076 -0.5901
 3908SOL    HW123357   3.240   1.422   9.279  0.4996  0.7076 -2.1983
 3908SOL    HW223358   3.302   1.553   9.291 -0.1057 -1.3746 -1.9831
 3909SOL     OW23359   1.003   2.903   2.212  0.2860 -0.2382  0.4904
 3909SOL    HW123360   0.952   2.908   2.131  1.5780  0.6462 -0.2603
 3909SOL    HW223361   1.058   2.825   2.211  0.7681  0.0823  1.8256
 3910SOL     OW23362   4.726   3.900  10.654  0.8750 -0.0013  0.0666
 3910SOL    HW123363   0.083   3.904  10.665  1.1229 -1.8025 -1.2373
 3910SOL    HW223364   4.708   3.838  10.583  2.6011 -1.1767  0.6617
 3911SOL     OW23365   4.491   3.797  10.857 -0.3488 -0.1283 -0.3381
 3911SOL    HW123366   4.550   3.859  10.898  0.5619 -1.4256  0.3054
 3911SOL    HW223367   4.487   3.735  10.930  1.5659  0.3602  0.1684
 3912SOL     OW23368   2.499   4.517   0.928  0.0833 -0.2609 -0.0865
 3912SOL    HW123369   2.522   4.462   1.003 -0.8024 -0.1459  0.2775
 3912SOL    HW223370   2.407   4.503   0.908 -0.0389 -2.3251  1.9131
 3913SOL     OW23371   4.264   3.947   3.630 -0.2698 -0.2302 -0.1892
 3913SOL    HW123372   4.331   3.901   3.579  1.0689 -0.3277  1.6393
 3913SOL    HW223373   4.305   4.031   3.652 -0.1142 -0.8896  2.0223
 3914SOL     OW23374   4.309   2.570  13.373 -0.1002 -0.4500 -0.0895
 3914SOL    HW123375   4.235   2.551  13.315 -0.1719  0.4829 -0.2948
 3914SOL    HW223376   4.313   2.487  13.420 -1.1449 -1.4806 -1.8213
 3915SOL     OW23377   2.252   4.404   2.824  0.3506  0.2131  0.4427
 3915SOL    HW123378   2.216   4.469   2.884  1.4460 -0.5891  1.9887
 3915SOL    HW223379   2.174   4.375   2.778 -0.3192 -0.3821  1.9297
 3916SOL     OW23380   2.676   3.922  15.057 -0.1116 -0.1770  0.0321
 3916SOL    HW123381   2.708   3.924  15.148 -1.6237  0.2802  0.5501
 3916SOL    HW223382   2.749   3.887  15.006  0.8105 -0.4091  1.4888
 3917SOL     OW23383   3.047   2.340   7.693  0.2872  0.4509  0.6806
 3917SOL    HW123384   3.039   2.292   7.775 -0.8788 -1.6792 -0.6669
 3917SOL    HW223385   3.082   2.420   7.732  1.5162 -0.5622  1.6473
 3918SOL     OW23386   3.167   0.464  14.445 -0.8235  0.0807 -0.3698
 3918SOL    HW123387   3.103   0.504  14.387 -0.5997  0.1903 -0.5380
 3918SOL    HW223388   3.105   0.407  14.493  1.2861 -1.6481  0.3113
 3919SOL     OW23389   2.660   0.080   4.652 -1.0057 -0.2740 -0.0461
 3919SOL    HW123390   2.751   0.103   4.668 -0.9018 -2.2041  2.3141
 3919SOL    HW223391   2.634   0.043   4.737  0.1429  1.1893  0.9343
 3920SOL     OW23392   4.632   3.607   8.879 -0.6978 -0.2083  0.0266
 3920SOL    HW123393   4.688   3.611   8.802  0.2649  1.3179  0.8173
 3920SOL    HW223394   4.583   3.689   8.873 -1.2872 -0.6792 -1.6412
 3921SOL     OW23395   4.726   1.176   9.585 -0.5399 -0.2092  0.2996
 3921SOL    HW123396   0.016   1.145   9.671 -1.4915 -1.1780  0.2540
 3921SOL    HW223397   4.657   1.234   9.615  1.3122  2.0516  0.1659
 3922SOL     OW23398   1.201   4.424  17.000 -0.1054  0.5305 -0.6325
 3922SOL    HW123399   1.244   4.509  16.990  1.5894 -0.0506  1.6749
 3922SOL    HW223400   1.193   4.422  17.095 -1.6312 -1.6702 -0.8050
 3923SOL     OW23401   2.162   3.672  14.858 -0.5247 -0.6615  0.3252
 3923SOL    HW123402   2.222   3.598  14.875  1.1607  1.4938  3.6538
 3923SOL    HW223403   2.110   3.666  14.938 -1.0323  1.2413  0.1275
 3924SOL     OW23404   4.642   1.221   9.172 -0.1232 -0.0937  0.3103
 3924SOL    HW123405   4.712   1.232   9.236 -0.3374 -1.8141  0.8484
 3924SOL    HW223406   4.567   1.263   9.214 -0.4846  0.5682 -0.9826
 3925SOL     OW23407   1.010   4.316  13.829 -0.4596 -0.6942  0.2623
 3925SOL    HW123408   0.917   4.318  13.804 -0.2486  0.2487 -0.4470
 3925SOL    HW223409   1.055   4.278  13.753  0.3683  0.8994 -0.0414
 3926SOL     OW23410   4.048   1.330  15.698  0.4092  0.0836 -0.6949
 3926SOL    HW123411   3.956   1.333  15.672  0.6918  0.1604 -1.6850
 3926SOL    HW223412   4.075   1.422  15.693  1.8777 -0.3710 -1.2081
 3927SOL     OW23413   0.394   1.811   5.343 -0.2713  0.3945 -0.6294
 3927SOL    HW123414   0.311   1.785   5.384 -0.5399  2.5972  0.2423
 3927SOL    HW223415   0.448   1.733   5.345  0.9050  1.2602  0.7112
 3928SOL     OW23416   3.641   1.445   9.101  0.0784  0.0598  0.1527
 3928SOL    HW123417   3.729   1.414   9.121 -1.1398 -1.4165  3.1090
 3928SOL    HW223418   3.635   1.442   9.005  0.3010  1.1899  0.1000
 3929SOL     OW23419   2.829   2.724   5.147  0.0315  0.0098 -0.3358
 3929SOL    HW123420   2.757   2.662   5.158 -2.1945  2.5520 -0.6875
 3929SOL    HW223421   2.903   2.665   5.161  0.9018  1.1740 -0.0941
 3930SOL     OW23422   1.040   1.137   4.971  0.1700 -0.5064  0.1923
 3930SOL    HW123423   1.064   1.120   5.062  0.9205 -0.3856  0.0143
 3930SOL    HW223424   0.945   1.133   4.961  0.1269  0.7018  0.1162
 3931SOL     OW23425   4.504   0.990  12.399  0.6111  0.4781  0.6732
 3931SOL    HW123426   4.516   0.992  12.494  0.0241 -0.9536  0.7774
 3931SOL    HW223427   4.408   0.995  12.398  0.7919  4.1827 -0.7406
 3932SOL     OW23428   4.689   2.005   9.252 -0.6163 -0.6475 -0.1230
 3932SOL    HW123429   4.640   2.078   9.290  2.2113  1.3388 -0.3060
 3932SOL    HW223430   0.002   2.052   9.186 -0.7367  1.5401  1.3348
 3933SOL     OW23431   0.474   0.969   0.321  0.0316  0.6416 -0.0116
 3933SOL    HW123432   0.425   1.032   0.269 -0.5763  0.5566  0.4528
 3933SOL    HW223433   0.444   0.882   0.295  0.8430  0.2212  0.4397
 3934SOL     OW23434   2.804   0.483   7.785 -0.3068  0.5851  0.0902
 3934SOL    HW123435   2.747   0.558   7.767  0.3156  1.0942  0.2444
 3934SOL    HW223436   2.873   0.528   7.833 -0.5540  0.1356  0.8671
 3935SOL     OW23437   2.195   0.683   5.140  0.9254  0.1606 -0.5261
 3935SOL    HW123438   2.112   0.641   5.164  1.5491 -0.4682  0.5232
 3935SOL    HW223439   2.190   0.764   5.192 -1.6023 -0.5365  0.3248
 3936SOL     OW23440   0.983   2.216   1.926  0.6079  0.0585  0.1143
 3936SOL    HW123441   1.068   2.249   1.898  0.4719  0.7894  0.5869
 3936SOL    HW223442   0.996   2.204   2.020  1.0401  0.2697  0.0819
 3937SOL     OW23443   0.924   4.254   9.314  0.4331  0.3141  0.0844
 3937SOL    HW123444   0.867   4.177   9.315 -1.7012  1.8737  0.9729
 3937SOL    HW223445   0.983   4.236   9.387 -0.2111 -1.4517  0.1600
 3938SOL     OW23446   2.826   2.344   0.074  0.6593  0.0695 -0.4164
 3938SOL    HW123447   2.824   2.248   0.081  0.2789 -0.0963 -3.0894
 3938SOL    HW223448   2.738   2.370   0.047  0.3529 -1.1562 -0.6170
 3939SOL     OW23449   1.501   4.004   8.357  0.3430 -0.7516  0.2955
 3939SOL    HW123450   1.546   3.958   8.428  0.8579 -1.7904 -0.7091
 3939SOL    HW223451   1.410   3.976   8.362  0.8133 -2.1876  0.5886
 3940SOL     OW23452   4.478   2.336   4.434 -0.0537 -0.3186  0.6645
 3940SOL    HW123453   4.500   2.256   4.385 -0.7866  0.0305 -0.2487
 3940SOL    HW223454   4.561   2.382   4.439 -1.2093  1.9285 -0.9624
 3941SOL     OW23455   1.650   2.714   7.637 -0.0391  0.0044 -0.3261
 3941SOL    HW123456   1.699   2.681   7.712  0.7005 -0.0708 -0.8319
 3941SOL    HW223457   1.560   2.709   7.669  0.7011 -3.3181  1.2374
 3942SOL     OW23458   2.428   0.924   4.519  0.0726 -1.0098  0.2031
 3942SOL    HW123459   2.492   0.909   4.450  1.8263  2.0388  1.1472
 3942SOL    HW223460   2.471   0.999   4.561  2.2811 -2.7691  1.1294
 3943SOL     OW23461   0.832   1.473  15.716 -0.6384 -0.3010 -0.2365
 3943SOL    HW123462   0.918   1.515  15.723 -0.0473 -1.2958 -1.4411
 3943SOL    HW223463   0.795   1.490  15.803  1.0260  1.2894  0.1563
 3944SOL     OW23464   2.044   4.179   4.219  0.2762 -0.1355  0.0986
 3944SOL    HW123465   2.126   4.164   4.265 -0.0412 -3.5823 -0.4791
 3944SOL    HW223466   2.079   4.217   4.138 -1.2201  1.9631  0.4303
 3945SOL     OW23467   1.984   1.722   6.189  0.3235  0.4912  0.7622
 3945SOL    HW123468   1.975   1.630   6.162 -1.5508  0.3369  1.8697
 3945SOL    HW223469   1.898   1.726   6.230 -1.1228  0.6360 -2.2461
 3946SOL     OW23470   0.433   4.136   6.371  0.7179 -0.6093  0.6277
 3946SOL    HW123471   0.432   4.095   6.285 -2.1556 -0.7615  0.7232
 3946SOL    HW223472   0.474   4.062   6.416 -0.3809  0.3784  3.3217
 3947SOL     OW23473   3.933   0.697  12.753 -0.4734  0.1831 -0.1671
 3947SOL    HW123474   3.958   0.711  12.662  1.5744  2.4423  0.7512
 3947SOL    HW223475   4.009   0.733  12.798  0.8036 -1.6349 -0.9162
 3948SOL     OW23476   1.619   3.985   3.673  0.0838  0.7408 -0.2443
 3948SOL    HW123477   1.569   3.987   3.754  0.3801  0.7966 -0.0631
 3948SOL    HW223478   1.687   3.919   3.688 -0.8558 -0.6605 -2.0775
 3949SOL     OW23479   4.333   2.966   6.275 -0.3230 -0.0142 -0.1028
 3949SOL    HW123480   4.282   3.031   6.323  2.3189  2.6402 -0.8982
 3949SOL    HW223481   4.349   3.018   6.196 -0.5633  1.4164  0.7808
 3950SOL     OW23482   2.968   1.674   2.572 -0.3080 -0.1031  0.1309
 3950SOL    HW123483   3.019   1.619   2.513  0.7057  0.3600  0.5837
 3950SOL    HW223484   2.912   1.611   2.617  0.3503  0.2147  1.3806
 3951SOL     OW23485   1.219   1.547  13.139  0.1716  0.2427  0.7186
 3951SOL    HW123486   1.302   1.569  13.182 -0.1179 -0.6276  1.7007
 3951SOL    HW223487   1.181   1.624  13.181 -3.3671 -0.6076 -0.9681
 3952SOL     OW23488   2.573   2.317   3.289 -0.7596 -0.2254 -0.5479
 3952SOL    HW123489   2.586   2.386   3.354  2.5024 -0.9988 -0.3653
 3952SOL    HW223490   2.481   2.319   3.262  0.1426 -0.2907 -3.6429
 3953SOL     OW23491   2.349   4.495   5.578 -0.7327  0.3173  0.5195
 3953SOL    HW123492   2.399   4.545   5.514 -2.3719  1.1699 -0.0780
 3953SOL    HW223493   2.317   4.568   5.630 -0.4039  0.9624 -0.1734
 3954SOL     OW23494   0.960   4.262   5.363 -0.5109 -0.0827  0.2139
 3954SOL    HW123495   0.949   4.167   5.370  1.1788 -0.2306  0.8841
 3954SOL    HW223496   0.874   4.284   5.329 -0.2823 -0.2443 -0.4661
 3955SOL     OW23497   4.524   2.736  13.368 -0.5717 -0.6570  0.1609
 3955SOL    HW123498   4.450   2.676  13.357  1.2867 -2.5349 -2.3566
 3955SOL    HW223499   4.585   2.688  13.424  1.0813  0.0334 -1.0619
 3956SOL     OW23500   4.097   3.579   8.240 -0.5540 -0.3421 -0.2693
 3956SOL    HW123501   4.171   3.561   8.298  0.3926  0.6023 -1.1968
 3956SOL    HW223502   4.072   3.669   8.264  0.9302 -0.1402  0.5069
 3957SOL     OW23503   4.216   4.665   4.594  0.1858 -0.1977  0.6197
 3957SOL    HW123504   4.283   4.620   4.542  0.9065  1.4314  0.1658
 3957SOL    HW223505   4.137   4.618   4.568  0.5146 -0.7062  0.5403
 3958SOL     OW23506   2.607   2.348   5.457 -0.1887  0.2575  0.3476
 3958SOL    HW123507   2.659   2.276   5.421 -0.0976  0.2017  0.5956
 3958SOL    HW223508   2.538   2.346   5.390 -0.6295  1.7147  0.7532
 3959SOL     OW23509   3.556   1.840   7.676 -0.1814  0.1140 -0.1879
 3959SOL    HW123510   3.646   1.806   7.683 -0.8625 -1.8322 -0.9750
 3959SOL    HW223511   3.565   1.930   7.708  1.1502 -0.7876  1.9881
 3960SOL     OW23512   2.269   0.186   6.455 -0.1791 -0.3457 -0.7404
 3960SOL    HW123513   2.222   0.216   6.378  0.0510  0.6060 -0.5104
 3960SOL    HW223514   2.241   0.095   6.465 -2.2940  0.6242  2.1777
 3961SOL     OW23515   3.389   0.515   6.679 -0.5470  0.2196  0.2374
 3961SOL    HW123516   3.297   0.490   6.686 -0.4945 -0.7841 -2.7015
 3961SOL    HW223517   3.370   0.581   6.612  1.1304 -0.4793 -0.9162
 3962SOL     OW23518   1.809   3.962   5.379 -0.5541  0.0507 -0.2218
 3962SOL    HW123519   1.816   3.883   5.433  1.6614 -1.3916 -2.5976
 3962SOL    HW223520   1.759   4.016   5.439 -1.0237 -0.4723 -0.1362
 3963SOL     OW23521   4.669   4.660   9.229  0.1269 -0.4107  0.2055
 3963SOL    HW123522   4.641   0.014   9.230  1.1393 -0.0421 -4.3558
 3963SOL    HW223523   4.677   4.651   9.134  0.3331 -2.9804  0.4548
 3964SOL     OW23524   4.551   4.345  12.108 -0.2857  0.8708  0.3501
 3964SOL    HW123525   4.623   4.282  12.118 -0.4154  1.1673  3.0138
 3964SOL    HW223526   4.554   4.384  12.195  0.2739  1.0708  0.2437
 3965SOL     OW23527   2.576   1.186  13.926  0.0182 -0.3772 -0.1960
 3965SOL    HW123528   2.500   1.129  13.933  0.3493 -0.8702 -0.5718
 3965SOL    HW223529   2.646   1.124  13.948 -0.4970 -0.8024  0.2312
 3966SOL     OW23530   4.023   1.058   2.768  0.1202  0.0046 -0.1863
 3966SOL    HW123531   3.971   1.037   2.690  0.9932 -0.1648 -0.7206
 3966SOL    HW223532   4.055   0.970   2.788 -1.6838 -0.4114  0.8607
 3967SOL     OW23533   2.317   3.043   4.767  0.1885  0.4550  0.1968
 3967SOL    HW123534   2.330   2.955   4.802  0.2763  0.4058  0.0423
 3967SOL    HW223535   2.395   3.044   4.712  0.0819  1.5914  0.0744
 3968SOL     OW23536   3.427   2.378   5.128 -0.2048 -0.3340 -0.3023
 3968SOL    HW123537   3.477   2.300   5.106  0.2529  0.7973 -3.3932
 3968SOL    HW223538   3.465   2.444   5.070  0.0833 -0.4394 -0.2339
 3969SOL     OW23539   4.187   2.415  10.517 -0.0801  0.3692  0.1511
 3969SOL    HW123540   4.153   2.326  10.509 -0.4768  0.5187  0.2018
 3969SOL    HW223541   4.282   2.400  10.512  0.1561  1.8579  0.0956
 3970SOL     OW23542   0.952   0.035   2.400  0.8782 -0.1199  0.1058
 3970SOL    HW123543   1.007   0.089   2.343  1.1938  0.7183  1.1771
 3970SOL    HW223544   0.901   4.729   2.333  0.5398 -0.9028  0.8733
 3971SOL     OW23545   2.368   3.369  11.105 -0.1489  0.0153  0.3248
 3971SOL    HW123546   2.428   3.296  11.091 -0.8863 -0.2232 -1.5806
 3971SOL    HW223547   2.358   3.358  11.200 -0.7593  1.8706  0.4746
 3972SOL     OW23548   0.391   4.628   3.580 -0.1280 -0.0854 -0.5249
 3972SOL    HW123549   0.347   4.614   3.496 -0.0167 -0.4512 -0.5253
 3972SOL    HW223550   0.443   4.706   3.561  0.6923 -0.9141 -1.6823
 3973SOL     OW23551   4.341   2.326  16.293  0.9611 -0.0140 -0.2188
 3973SOL    HW123552   4.248   2.349  16.289  1.2374  1.1780  0.1025
 3973SOL    HW223553   4.377   2.404  16.335 -2.8620  1.2097  0.7280
 3974SOL     OW23554   3.708   3.004   1.280 -0.0803  0.3557  0.5267
 3974SOL    HW123555   3.617   3.018   1.253  0.3465  0.9214 -0.6011
 3974SOL    HW223556   3.741   3.030   1.194  1.0713 -1.1726  0.5061
 3975SOL     OW23557   4.102   1.684   2.093 -0.1679  0.6598  0.0185
 3975SOL    HW123558   4.147   1.741   2.030  0.9074 -0.8098 -0.5313
 3975SOL    HW223559   4.152   1.727   2.162  1.6932  0.0051 -0.9351
 3976SOL     OW23560   4.305   2.921   5.914 -0.4579  0.1519 -0.1990
 3976SOL    HW123561   4.283   2.872   5.993 -0.7100  0.4773 -0.0635
 3976SOL    HW223562   4.400   2.920   5.922 -0.4100 -1.6528 -1.1947
 3977SOL     OW23563   1.902   4.182  10.349 -0.1233  0.3117 -0.7211
 3977SOL    HW123564   1.914   4.275  10.333 -0.2314  0.4860  0.1967
 3977SOL    HW223565   1.931   4.178  10.441 -1.5619 -1.2191 -0.3337
 3978SOL     OW23566   3.274   3.986  13.501  0.0769  0.0950  0.4848
 3978SOL    HW123567   3.185   4.012  13.474  1.4038  2.0643 -1.9659
 3978SOL    HW223568   3.326   4.065  13.488  0.3603 -0.5145 -1.9851
 3979SOL     OW23569   0.347   2.002  13.439  0.2561  0.2868 -0.4113
 3979SOL    HW123570   0.412   1.965  13.378 -1.2109 -0.8618 -1.2869
 3979SOL    HW223571   0.324   1.928  13.494  0.4711  1.2535  0.9719
 3980SOL     OW23572   4.185   1.496  14.585 -0.2092  0.3217 -0.1186
 3980SOL    HW123573   4.155   1.481  14.496 -2.0924  0.5116  0.4916
 3980SOL    HW223574   4.189   1.405  14.613  0.3019 -0.0429 -1.3790
 3981SOL     OW23575   2.614   2.773   0.243  0.1149 -0.0993  0.1870
 3981SOL    HW123576   2.632   2.735   0.157 -1.4162  0.7688 -0.5124
 3981SOL    HW223577   2.652   2.710   0.304  1.8140  1.4040  0.6376
 3982SOL     OW23578   3.025   2.512   7.150 -0.2505 -0.1399  0.1271
 3982SOL    HW123579   3.110   2.501   7.193 -0.8479 -1.2515  1.0314
 3982SOL    HW223580   3.050   2.516   7.058  1.7551 -1.8374  0.5786
 3983SOL     OW23581   3.886   1.886   6.526 -0.2420 -0.1296 -0.6622
 3983SOL    HW123582   3.918   1.797   6.512  2.6824  0.4484  2.3080
 3983SOL    HW223583   3.934   1.906   6.606  0.1256 -1.0101 -0.6734
 3984SOL     OW23584   0.190   0.411   1.419 -0.3702 -0.0589  0.1535
 3984SOL    HW123585   0.176   0.444   1.508  0.8510 -1.7325  0.9716
 3984SOL    HW223586   0.286   0.406   1.415 -0.3890  0.1329 -0.4993
 3985SOL     OW23587   3.440   2.741   5.698 -0.8227 -0.2800  0.1175
 3985SOL    HW123588   3.349   2.714   5.688 -0.8214  0.0404 -0.7508
 3985SOL    HW223589   3.437   2.837   5.705 -0.4809 -0.2319 -0.4048
 3986SOL     OW23590   3.547   1.390  14.337 -0.0964  0.1862 -0.0467
 3986SOL    HW123591   3.465   1.422  14.373 -0.0260 -1.3757  1.4821
 3986SOL    HW223592   3.513   1.313  14.291  0.4846 -0.4206  0.5477
 3987SOL     OW23593   4.282   4.259   2.318  0.2652 -0.6093 -0.6798
 3987SOL    HW123594   4.283   4.311   2.238  0.6106 -0.1029 -0.3427
 3987SOL    HW223595   4.196   4.216   2.309 -0.4526  0.7605 -0.2876
 3988SOL     OW23596   3.444   1.285   4.208 -0.5931 -0.0261 -0.0052
 3988SOL    HW123597   3.382   1.311   4.140 -0.4176 -0.3438 -0.2889
 3988SOL    HW223598   3.380   1.272   4.278  0.8300 -1.1011  1.1158
 3989SOL     OW23599   0.345   0.202  17.308 -0.0233  0.2605 -0.2911
 3989SOL    HW123600   0.323   0.293  17.291 -0.0598  0.0669 -1.2469
 3989SOL    HW223601   0.398   0.197  17.388 -0.7129 -1.8442  0.0422
 3990SOL     OW23602   2.708   3.847  17.313 -0.2273  0.0481 -0.5136
 3990SOL    HW123603   2.758   3.925  17.287  0.4112 -0.5139 -0.9496
 3990SOL    HW223604   2.767   3.781  17.278  1.3007  0.3197  1.4974
 3991SOL     OW23605   2.679   1.384   8.318 -0.0574 -0.5992 -0.3528
 3991SOL    HW123606   2.747   1.440   8.282 -1.4162  0.4810 -1.2493
 3991SOL    HW223607   2.735   1.325   8.369  0.3088  0.6818  0.7342
 3992SOL     OW23608   1.061   1.136  13.762  0.1258 -0.0558 -0.1544
 3992SOL    HW123609   0.965   1.141  13.760 -0.0465 -2.3600  2.6536
 3992SOL    HW223610   1.085   1.224  13.735  0.1293  0.7756  2.5691
 3993SOL     OW23611   0.760   2.425   8.587 -0.0322  0.2107  0.3303
 3993SOL    HW123612   0.765   2.431   8.682  0.6395 -3.2368  0.4960
 3993SOL    HW223613   0.748   2.518   8.567 -1.1315  0.3134  1.4406
 3994SOL     OW23614   2.107   2.229  17.628  0.1401  0.2766  0.2741
 3994SOL    HW123615   2.139   2.162  17.569 -0.5686 -0.7544  1.0725
 3994SOL    HW223616   2.071   2.296  17.570 -0.3381  0.1172  0.3888
 3995SOL     OW23617   3.676   1.510   2.905  0.4542 -0.3361 -0.1029
 3995SOL    HW123618   3.724   1.586   2.874 -2.2060  1.3216 -0.1370
 3995SOL    HW223619   3.591   1.530   2.864  1.2521 -0.3913 -1.7975
 3996SOL     OW23620   0.936   0.635  17.212 -0.0693  0.3083  0.6125
 3996SOL    HW123621   0.988   0.607  17.287  0.7269  1.8048  0.6033
 3996SOL    HW223622   1.002   0.669  17.152  1.6333 -1.4538  1.5101
 3997SOL     OW23623   0.759   0.201   3.677 -0.3294 -0.2735 -0.3547
 3997SOL    HW123624   0.768   0.117   3.633  0.6162 -0.3963  0.0568
 3997SOL    HW223625   0.761   0.270   3.611 -0.5294  0.7803  0.7301
 3998SOL     OW23626   0.629   3.309   4.048 -0.4535  0.1753  0.3192
 3998SOL    HW123627   0.547   3.284   4.006 -0.4708 -0.1412  0.5442
 3998SOL    HW223628   0.651   3.400   4.027 -2.0959  0.4844 -0.0275
 3999SOL     OW23629   2.917   2.581   1.320 -0.4445  0.9345  0.5815
 3999SOL    HW123630   2.920   2.648   1.251  2.2065  1.6299  1.3793
 3999SOL    HW223631   3.004   2.580   1.361 -1.6850 -0.2484  3.1914
 4000SOL     OW23632   3.241   3.262  16.500 -0.7235  0.8072 -0.3573
 4000SOL    HW123633   3.261   3.169  16.504 -1.0126  0.8338  1.9160
 4000SOL    HW223634   3.152   3.260  16.465 -1.1654  0.0322  0.7866
 4001SOL     OW23635   4.480   1.727   0.564 -0.3853 -0.2227 -0.2008
 4001SOL    HW123636   4.499   1.741   0.472 -0.6742  0.7284 -0.1132
 4001SOL    HW223637   4.388   1.753   0.574 -0.2503  0.5374 -1.0555
 4002SOL     OW23638   0.844   2.010  16.131  0.3958 -0.2430 -0.0011
 4002SOL    HW123639   0.899   1.937  16.102  0.1719  0.1155 -1.3036
 4002SOL    HW223640   0.823   2.073  16.063 -0.1424  0.5134  0.8609
 4003SOL     OW23641   1.422   0.104   5.324 -0.9160 -0.4351 -0.4191
 4003SOL    HW123642   1.401   0.072   5.412  0.1172 -0.2447 -0.0932
 4003SOL    HW223643   1.517   0.110   5.335 -1.3285  2.1040  1.5468
 4004SOL     OW23644   1.916   2.398  16.751 -0.3815  0.4061 -0.3617
 4004SOL    HW123645   1.939   2.429  16.663  4.6510 -0.4993  0.6725
 4004SOL    HW223646   1.996   2.421  16.797 -1.5346 -0.5701  2.1272
 4005SOL     OW23647   3.395   2.842   0.983  0.0910 -0.6412 -0.5418
 4005SOL    HW123648   3.449   2.765   0.964  0.4841 -0.6170  0.5214
 4005SOL    HW223649   3.459   2.900   0.940  1.5066 -1.3190  0.6575
 4006SOL     OW23650   0.626   0.745  12.658 -0.3399  0.5083  0.7539
 4006SOL    HW123651   0.616   0.657  12.623 -1.4616  0.5597  0.9635
 4006SOL    HW223652   0.718   0.760  12.633 -0.1691  1.5707  2.0316
 4007SOL     OW23653   1.266   1.474   4.704  0.1965  0.6734  0.5945
 4007SOL    HW123654   1.212   1.461   4.627  1.6789 -0.7548 -0.2046
 4007SOL    HW223655   1.200   1.489   4.772 -0.5447 -0.7864  0.1842
 4008SOL     OW23656   2.171   2.284   4.481 -0.1790  0.2578  0.2041
 4008SOL    HW123657   2.251   2.252   4.523  0.8042  1.0037 -1.0761
 4008SOL    HW223658   2.190   2.377   4.469  1.4278  0.2777  2.9133
 4009SOL     OW23659   1.516   2.462   1.777 -0.7611 -0.2292  0.1630
 4009SOL    HW123660   1.579   2.440   1.846 -0.5827  2.0898  0.7336
 4009SOL    HW223661   1.445   2.505   1.824 -0.7284 -1.3692  1.2471
 4010SOL     OW23662   2.591   3.612   2.679  0.4300  0.1770 -0.4750
 4010SOL    HW123663   2.654   3.658   2.624 -0.2017  1.1731 -0.3583
 4010SOL    HW223664   2.524   3.679   2.686 -1.5272 -1.8730  0.2433
 4011SOL     OW23665   2.271   3.042   5.420 -0.1201 -0.3803  0.3794
 4011SOL    HW123666   2.207   3.101   5.460 -1.6959 -1.5956 -0.3402
 4011SOL    HW223667   2.320   3.027   5.501  0.2839  1.6596  0.5199
 4012SOL     OW23668   1.841   0.182   5.203 -0.4126 -0.2686  0.3280
 4012SOL    HW123669   1.793   0.200   5.123  0.1588 -0.1472  0.0123
 4012SOL    HW223670   1.902   0.113   5.175 -0.4847 -1.1960  2.4252
 4013SOL     OW23671   0.771   1.215   5.523 -0.5452 -0.3373  0.1822
 4013SOL    HW123672   0.811   1.128   5.526  0.1338 -0.0332 -0.0793
 4013SOL    HW223673   0.815   1.266   5.590 -0.4373 -0.7956  0.4583
 4014SOL     OW23674   4.120   4.567   2.594 -0.4258 -0.8092 -0.2005
 4014SOL    HW123675   4.168   4.503   2.647  2.8434 -0.0208 -2.1902
 4014SOL    HW223676   4.063   4.603   2.662 -0.3586  3.5605 -2.4379
 4015SOL     OW23677   1.078   1.584  12.759 -0.1249 -0.1581  0.1545
 4015SOL    HW123678   1.106   1.674  12.779  1.2083 -0.7427  0.8760
 4015SOL    HW223679   1.116   1.536  12.832  0.9442  1.4388  0.6676
 4016SOL     OW23680   1.145   4.326   5.618 -0.4099 -0.8294  0.0981
 4016SOL    HW123681   1.149   4.403   5.561  0.0886 -2.8872 -2.6346
 4016SOL    HW223682   1.094   4.257   5.574  1.2531 -1.9571 -0.0527
 4017SOL     OW23683   3.243   1.698   0.309 -0.2971 -0.3082  0.2781
 4017SOL    HW123684   3.150   1.702   0.334  0.7794  4.3013  3.4477
 4017SOL    HW223685   3.240   1.703   0.213 -1.1672 -0.8002  0.2764
 4018SOL     OW23686   3.173   4.705   6.106  0.1862 -0.0376  0.2286
 4018SOL    HW123687   3.188   0.057   6.135 -0.3726 -0.4767  1.9227
 4018SOL    HW223688   3.133   4.733   6.024 -0.2312 -0.7260  0.1997
 4019SOL     OW23689   3.078   2.420   6.081  0.4642 -0.2553  0.2489
 4019SOL    HW123690   2.987   2.431   6.056  0.8184 -0.6466 -1.2126
 4019SOL    HW223691   3.087   2.325   6.084  0.8079 -0.2976 -1.9575
 4020SOL     OW23692   3.894   1.302   7.531 -0.1316 -0.5162 -0.3512
 4020SOL    HW123693   3.801   1.309   7.507  0.1991  0.4186 -1.3593
 4020SOL    HW223694   3.901   1.223   7.584 -1.3187 -1.6483 -1.8926
 4021SOL     OW23695   1.192   0.930   7.485 -0.3027  0.6629 -0.0720
 4021SOL    HW123696   1.098   0.927   7.502  0.0660 -1.5605  1.6027
 4021SOL    HW223697   1.214   0.956   7.574 -1.2469 -0.8372  0.6001
 4022SOL     OW23698   2.102   0.665   3.124  0.3405  0.3964 -0.1229
 4022SOL    HW123699   2.102   0.732   3.055  2.4184  1.3640  0.8224
 4022SOL    HW223700   2.015   0.678   3.162 -0.3962  2.5126 -2.4560
 4023SOL     OW23701   1.687   2.900   4.813  0.0795  0.0316 -0.0752
 4023SOL    HW123702   1.624   2.840   4.853 -0.0793  0.1630 -0.1283
 4023SOL    HW223703   1.747   2.915   4.885  2.8161  0.8524 -2.5289
 4024SOL     OW23704   0.150   4.374  14.261 -0.0251  0.1523  0.3435
 4024SOL    HW123705   0.159   4.469  14.266 -0.8542  0.3252 -1.3297
 4024SOL    HW223706   0.238   4.351  14.290  0.7346  0.1902 -1.9560
 4025SOL     OW23707   1.902   3.230  16.168 -0.1858  0.1225 -0.0161
 4025SOL    HW123708   1.819   3.261  16.132  0.4774  0.8396 -0.8983
 4025SOL    HW223709   1.878   3.137  16.162  0.2553 -0.0236  0.5410
 4026SOL     OW23710   2.635   0.843   5.533 -0.6580  0.4493  0.4419
 4026SOL    HW123711   2.618   0.749   5.530  0.3636  0.3171 -1.3679
 4026SOL    HW223712   2.549   0.885   5.540  0.6768  3.4333 -0.9315
 4027SOL     OW23713   4.468   1.481   3.306  0.0192 -0.3211  0.3157
 4027SOL    HW123714   4.487   1.397   3.346  0.2216 -0.2842  0.2979
 4027SOL    HW223715   4.548   1.533   3.305 -0.7331  0.8379  0.0507
 4028SOL     OW23716   3.755   0.163   4.462 -0.1223 -0.3199  0.2295
 4028SOL    HW123717   3.674   0.188   4.506 -1.4691 -0.3081 -2.2728
 4028SOL    HW223718   3.754   0.237   4.402  0.5046  1.1421  2.0151
 4029SOL     OW23719   3.628   1.478   7.074  0.0038  0.4919  0.0227
 4029SOL    HW123720   3.648   1.568   7.047  1.3014  0.0161 -0.6287
 4029SOL    HW223721   3.534   1.475   7.057 -0.0153  2.3535 -0.1947
 4030SOL     OW23722   2.616   4.721   7.918 -0.1134 -0.1270  0.6618
 4030SOL    HW123723   2.639   0.074   7.940 -0.2758 -0.1360  0.8739
 4030SOL    HW223724   2.684   4.705   7.852 -0.4978 -2.7189  0.8953
 4031SOL     OW23725   4.487   2.568   5.925  0.1287 -0.4689 -0.1527
 4031SOL    HW123726   4.452   2.481   5.906  1.6531 -0.5371 -2.7514
 4031SOL    HW223727   4.529   2.550   6.009 -1.3788 -0.9220  0.4963
 4032SOL     OW23728   4.659   0.915  12.878 -0.5453 -0.1112  0.1124
 4032SOL    HW123729   4.651   0.839  12.935 -0.2724  1.3482  2.0969
 4032SOL    HW223730   0.013   0.897  12.856 -0.2729  0.5405  0.6989
 4033SOL     OW23731   3.858   3.940   9.058  0.3342  0.6491  0.0331
 4033SOL    HW123732   3.852   3.991   9.139  0.9155 -2.3532  1.9725
 4033SOL    HW223733   3.797   3.991   9.004 -0.3122 -0.6963 -0.5273
 4034SOL     OW23734   3.949   3.910   8.188  0.3281 -0.3010  0.2726
 4034SOL    HW123735   3.929   3.963   8.265  1.5020 -0.4548  0.6776
 4034SOL    HW223736   4.022   3.856   8.217  0.8475  1.2976  1.9791
 4035SOL     OW23737   3.630   2.536   5.008  0.8172 -0.4187  0.1282
 4035SOL    HW123738   3.647   2.598   5.080  0.3425 -0.0234 -0.1069
 4035SOL    HW223739   3.717   2.498   4.996  0.3861 -1.4448  0.2641
 4036SOL     OW23740   0.757   4.098   4.242 -0.1765 -0.2836 -0.3304
 4036SOL    HW123741   0.689   4.145   4.194  1.7111  3.0731  0.3359
 4036SOL    HW223742   0.781   4.162   4.308  1.8994  1.0253 -2.3574
 4037SOL     OW23743   3.063   2.255   2.343 -0.1891 -0.6867 -0.2260
 4037SOL    HW123744   3.073   2.350   2.334 -2.5562 -0.5148 -0.9608
 4037SOL    HW223745   3.025   2.233   2.258  0.5996 -1.2147 -0.4429
 4038SOL     OW23746   4.117   0.895  14.980 -0.2978  0.0584  0.1297
 4038SOL    HW123747   4.039   0.915  15.031 -0.9982 -1.0167 -0.5310
 4038SOL    HW223748   4.136   0.802  14.990  1.0880  0.2183 -0.8672
 4039SOL     OW23749   3.752   0.521   5.192 -0.2397  0.1126 -0.0243
 4039SOL    HW123750   3.681   0.550   5.135  0.4410 -2.7416 -2.3219
 4039SOL    HW223751   3.795   0.606   5.205  0.1055  0.5727 -4.2187
 4040SOL     OW23752   2.619   2.650   3.319  0.1835  0.1148  0.4275
 4040SOL    HW123753   2.713   2.634   3.317  0.5800  2.0321  3.2519
 4040SOL    HW223754   2.605   2.629   3.411 -0.6700 -0.7580  0.1032
 4041SOL     OW23755   4.141   3.495   2.453 -0.3146 -0.5367  0.3862
 4041SOL    HW123756   4.120   3.571   2.507  1.7923  2.4275 -2.9504
 4041SOL    HW223757   4.190   3.437   2.512  0.1448 -1.2636 -0.7119
 4042SOL     OW23758   3.845   2.913   8.815 -0.0883 -0.1204  0.4752
 4042SOL    HW123759   3.859   2.974   8.888 -1.7918  0.0834  0.6250
 4042SOL    HW223760   3.832   2.832   8.864  1.5440 -0.4245  0.4229
 4043SOL     OW23761   1.635   4.535  11.922 -0.4284 -0.1837 -0.1537
 4043SOL    HW123762   1.634   4.478  11.999 -0.1540 -0.0793 -0.0733
 4043SOL    HW223763   1.658   4.469  11.856  3.7070  0.9132  0.2116
 4044SOL     OW23764   3.632   0.874   3.206  0.5678 -0.5432  0.9298
 4044SOL    HW123765   3.652   0.967   3.199 -0.5507 -0.1098  3.2578
 4044SOL    HW223766   3.718   0.845   3.235  1.6593  0.8639 -0.9003
 4045SOL     OW23767   4.346   1.730   2.917  0.0244  0.6769  0.1403
 4045SOL    HW123768   4.329   1.813   2.962 -0.5025 -0.5064  2.0990
 4045SOL    HW223769   4.291   1.742   2.839  0.9679  0.2806 -0.5975
 4046SOL     OW23770   4.403   2.509   1.098  0.3066 -0.6996  0.1035
 4046SOL    HW123771   4.423   2.430   1.147  2.6994 -0.4110 -0.4224
 4046SOL    HW223772   4.492   2.534   1.075  0.4154  0.0606  1.3599
 4047SOL     OW23773   1.144   0.917   6.379 -0.5443  0.3487  0.2387
 4047SOL    HW123774   1.073   0.971   6.346 -0.9138 -2.1998 -3.1735
 4047SOL    HW223775   1.124   0.898   6.471 -0.0700 -0.1738  0.2384
 4048SOL     OW23776   1.039   0.945   6.676  0.8965 -0.2279  0.0034
 4048SOL    HW123777   1.074   0.885   6.742  0.3435 -0.2084  0.3134
 4048SOL    HW223778   0.975   0.999   6.722  0.0415 -0.3139 -1.0660
 4049SOL     OW23779   1.877   1.814   5.354 -0.5401  0.1364  0.1445
 4049SOL    HW123780   1.919   1.869   5.288 -2.2913  0.6644 -0.5230
 4049SOL    HW223781   1.899   1.861   5.434  0.8956 -0.3015  0.0104
 4050SOL     OW23782   0.755   0.177   9.780  0.4426  0.1372 -0.3299
 4050SOL    HW123783   0.695   0.211   9.847  0.6141 -1.4221  0.6024
 4050SOL    HW223784   0.717   0.226   9.707  0.2345  0.5086  0.0241
 4051SOL     OW23785   0.278   3.669   4.970 -0.1598 -0.0599 -0.1080
 4051SOL    HW123786   0.231   3.610   5.028  0.0548 -1.1219 -1.0114
 4051SOL    HW223787   0.216   3.683   4.899  0.4346 -2.2960 -1.0623
 4052SOL     OW23788   1.122   3.075   3.777  0.2479 -0.0145  0.1641
 4052SOL    HW123789   1.079   3.065   3.862 -1.0660 -3.3395 -0.8907
 4052SOL    HW223790   1.045   3.056   3.723  0.7659 -0.9639 -0.2428
 4053SOL     OW23791   4.698   0.001  12.543 -0.1987 -0.3921  0.1488
 4053SOL    HW123792   0.018   4.709  12.614 -0.7188  1.4971  1.3952
 4053SOL    HW223793   0.015   0.049  12.482 -1.5437 -0.1321 -0.8486
 4054SOL     OW23794   3.332   3.880   3.571  0.4494 -0.1256  0.0081
 4054SOL    HW123795   3.407   3.914   3.522  0.0201  0.1023 -0.4900
 4054SOL    HW223796   3.268   3.869   3.501  0.6179 -0.5824 -0.0723
 4055SOL     OW23797   1.313   0.467  13.002 -0.0180 -0.0928  0.5621
 4055SOL    HW123798   1.404   0.452  13.029  0.2126  0.1163 -0.0917
 4055SOL    HW223799   1.276   0.384  13.033  0.3527 -1.1563 -1.8624
 4056SOL     OW23800   4.148   3.048   2.850 -0.1447 -0.4955 -0.4318
 4056SOL    HW123801   4.210   3.047   2.777  1.1839 -1.3328  0.7001
 4056SOL    HW223802   4.185   3.108   2.915 -2.5391  0.5940 -0.0681
 4057SOL     OW23803   4.603   3.753   5.440 -0.1609 -1.3564 -0.3832
 4057SOL    HW123804   4.637   3.729   5.527 -0.3499  3.5700  1.0247
 4057SOL    HW223805   4.684   3.770   5.393 -1.5079  4.4952 -0.5518
 4058SOL     OW23806   3.361   4.033   4.626 -0.2175  0.1144  0.0956
 4058SOL    HW123807   3.377   4.083   4.546  1.0345 -1.0043 -0.3572
 4058SOL    HW223808   3.398   4.089   4.694 -0.9269 -1.3061  1.6585
 4059SOL     OW23809   3.806   1.985   1.248  0.2812 -0.2238  0.7641
 4059SOL    HW123810   3.711   1.984   1.236  0.1464  2.6129  1.4829
 4059SOL    HW223811   3.827   1.894   1.269 -0.4790 -0.5626  0.0494
 4060SOL     OW23812   2.925   3.480   1.649  0.4753  0.0900 -0.3105
 4060SOL    HW123813   2.851   3.539   1.638  1.0202  0.8176 -0.0756
 4060SOL    HW223814   2.952   3.495   1.739 -0.5387  0.9692 -0.1567
 4061SOL     OW23815   3.999   3.714   4.806 -0.5067  0.1472 -0.0589
 4061SOL    HW123816   3.909   3.701   4.776  0.1992 -0.8822 -1.7672
 4061SOL    HW223817   4.028   3.790   4.755 -0.1398  0.6666  0.9183
 4062SOL     OW23818   4.165   1.350  15.374 -0.8086  0.4938 -0.1756
 4062SOL    HW123819   4.092   1.287  15.376 -0.1006 -0.3064  0.2949
 4062SOL    HW223820   4.112   1.428  15.358 -0.2597  0.1660 -3.5351
 4063SOL     OW23821   0.018   3.471   7.625 -0.0418  0.2164 -0.1654
 4063SOL    HW123822   4.698   3.545   7.605 -1.5054 -1.1963 -1.2067
 4063SOL    HW223823   4.697   3.418   7.679  0.7138  0.4735  0.8920
 4064SOL     OW23824   4.306   4.433   8.462  0.6300  0.0083  0.2561
 4064SOL    HW123825   4.222   4.420   8.507  0.1281  1.0326 -0.3913
 4064SOL    HW223826   4.346   4.346   8.461 -0.7575 -0.6214 -0.9165
 4065SOL     OW23827   4.713   0.155   7.129 -0.0855  0.3566  0.1847
 4065SOL    HW123828   4.642   0.129   7.069  0.6949  0.2033 -0.6683
 4065SOL    HW223829   0.040   0.181   7.064  1.5207 -1.1740  1.1839
 4066SOL     OW23830   2.228   1.408   7.058  0.5119  0.0340  0.0406
 4066SOL    HW123831   2.320   1.389   7.076  0.3233  1.3354  2.2786
 4066SOL    HW223832   2.219   1.395   6.963 -1.4836  1.5248  0.0336
 4067SOL     OW23833   1.757   2.295  10.628 -0.0516  0.0664  0.2625
 4067SOL    HW123834   1.797   2.302  10.541 -1.7147 -3.7134 -0.7635
 4067SOL    HW223835   1.750   2.386  10.659 -1.9219 -0.0333  0.1294
 4068SOL     OW23836   4.480   2.463  11.462  0.2056 -0.1457 -0.2126
 4068SOL    HW123837   4.569   2.500  11.460  0.0703  0.2012  0.3367
 4068SOL    HW223838   4.465   2.444  11.554  0.2245  0.2726 -0.1242
 4069SOL     OW23839   4.097   0.625   9.179  0.0224  0.9548  0.0353
 4069SOL    HW123840   4.069   0.708   9.141  0.0638  0.4886 -0.9923
 4069SOL    HW223841   4.100   0.644   9.273  0.3402 -0.6932  0.3627
 4070SOL     OW23842   4.308   2.071   0.371  0.1789 -0.2170 -0.0995
 4070SOL    HW123843   4.243   2.006   0.344 -3.5148  3.0188  0.8884
 4070SOL    HW223844   4.306   2.132   0.297  0.9694  1.1100  0.9707
 4071SOL     OW23845   4.659   4.589   6.390  0.2954 -0.0645 -0.1102
 4071SOL    HW123846   4.682   4.499   6.414  0.2418 -0.3996 -1.3220
 4071SOL    HW223847   4.584   4.583   6.331 -0.0367  0.1933  0.2820
 4072SOL     OW23848   0.526   2.027   4.511  0.4492  0.0443 -0.3178
 4072SOL    HW123849   0.432   2.011   4.519  0.4599  0.0255 -0.2214
 4072SOL    HW223850   0.539   2.110   4.558  1.1522 -0.5650  0.5782
 4073SOL     OW23851   0.631   1.956   6.648  0.3842  0.3908  0.2602
 4073SOL    HW123852   0.555   1.936   6.594  0.6720  0.7772 -0.2826
 4073SOL    HW223853   0.700   1.898   6.616 -2.0059 -1.6684 -1.1311
 4074SOL     OW23854   0.861   1.995  10.916 -0.3550  0.1590  0.1597
 4074SOL    HW123855   0.916   1.965  10.989  0.6867  0.4529 -0.5094
 4074SOL    HW223856   0.916   2.046  10.857 -0.1001  2.4670  2.4101
 4075SOL     OW23857   2.179   4.605   4.300 -0.0127  0.6504  0.4518
 4075SOL    HW123858   2.142   4.690   4.276 -1.2320  0.1024  0.4222
 4075SOL    HW223859   2.260   4.640   4.337 -0.0299  1.4624 -0.2753
 4076SOL     OW23860   0.780   3.185   0.161  0.1743 -0.3739  0.3675
 4076SOL    HW123861   0.760   3.200   0.069  0.5379  1.0875  0.5341
 4076SOL    HW223862   0.715   3.120   0.188 -0.2992  0.0102  0.1481
 4077SOL     OW23863   4.208   1.821  11.033 -0.4560 -0.4038 -0.0449
 4077SOL    HW123864   4.176   1.753  10.974  2.3356 -2.1155  0.4413
 4077SOL    HW223865   4.275   1.852  10.972 -0.9804  0.6799 -0.0791
 4078SOL     OW23866   0.001   2.393   4.390  0.2462 -0.2269  0.6530
 4078SOL    HW123867   0.060   2.426   4.458  0.8157  0.6863 -0.2856
 4078SOL    HW223868   0.039   2.308   4.368  0.6466  0.0531  0.2425
 4079SOL     OW23869   4.452   3.912   7.538 -0.6426 -0.2163  0.0472
 4079SOL    HW123870   4.358   3.904   7.553 -0.7879 -2.2942 -1.9582
 4079SOL    HW223871   4.487   3.952   7.617  0.3364  1.3438 -1.1577
 4080SOL     OW23872   3.017   3.883   2.130 -0.0572 -0.0794  0.3020
 4080SOL    HW123873   3.027   3.936   2.209  1.0137  0.1540  0.0075
 4080SOL    HW223874   3.017   3.796   2.170  0.3689  0.1840  0.8891
 4081SOL     OW23875   0.546   3.631   5.013 -0.5126  0.3595  0.0295
 4081SOL    HW123876   0.452   3.646   5.006 -0.4840 -0.2456 -1.5619
 4081SOL    HW223877   0.560   3.611   4.921  0.2436 -1.8450  0.6232
 4082SOL     OW23878   4.190   3.902   7.651 -0.8914  0.1146 -0.2000
 4082SOL    HW123879   4.146   3.946   7.724  1.6656  0.0200  1.3899
 4082SOL    HW223880   4.113   3.874   7.602 -0.9988  1.0283 -0.5612
 4083SOL     OW23881   2.012   1.113   6.686  0.2887  0.3044 -0.2474
 4083SOL    HW123882   1.977   1.195   6.720  1.4183  0.7947 -0.2654
 4083SOL    HW223883   1.932   1.096   6.637  0.4698 -1.5130  0.0860
 4084SOL     OW23884   4.309   0.995   6.980  0.6767  0.4652 -0.1597
 4084SOL    HW123885   4.381   0.954   6.934 -1.6910 -0.5857 -2.9018
 4084SOL    HW223886   4.341   1.024   7.066  2.7145 -1.9503 -0.1093
 4085SOL     OW23887   0.754   0.308   6.505  0.6028  0.0595  0.0956
 4085SOL    HW123888   0.748   0.369   6.579 -0.0621  0.4422 -0.2698
 4085SOL    HW223889   0.670   0.262   6.503  0.6159  0.2129 -2.9627
 4086SOL     OW23890   4.220   4.513   2.192  0.2705  0.0792  0.0186
 4086SOL    HW123891   4.222   4.582   2.126  1.8686  0.1955  0.2069
 4086SOL    HW223892   4.168   4.442   2.155  0.9304  0.8173 -2.2655
 4087SOL     OW23893   2.779   3.856  15.328  0.0298 -0.1383  0.3468
 4087SOL    HW123894   2.786   3.899  15.413  1.7082 -1.7839  1.0420
 4087SOL    HW223895   2.860   3.808  15.312  0.1765  0.0617  0.4981
 4088SOL     OW23896   2.564   3.153   6.012  0.0597 -0.0231 -0.1392
 4088SOL    HW123897   2.553   3.162   5.917 -2.7462 -0.7984  0.0926
 4088SOL    HW223898   2.538   3.242   6.037 -3.0553 -0.5475 -1.5407
 4089SOL     OW23899   3.592   4.094  12.007 -0.0065  0.2566 -0.1845
 4089SOL    HW123900   3.518   4.097  12.067  1.0700 -0.0498  1.1500
 4089SOL    HW223901   3.664   4.074  12.067 -0.0074 -0.5647 -0.4537
 4090SOL     OW23902   0.279   2.504   1.574  0.5292  0.1649 -0.0280
 4090SOL    HW123903   0.331   2.519   1.654  0.2557  1.1824 -0.0381
 4090SOL    HW223904   0.305   2.416   1.546 -0.9053  0.7218 -3.0396
 4091SOL     OW23905   2.063   2.703   2.158 -0.2905  0.2426  0.4373
 4091SOL    HW123906   1.987   2.647   2.142 -0.4794  1.2124 -2.0358
 4091SOL    HW223907   2.122   2.628   2.162 -2.1479 -1.2882 -1.3682
 4092SOL     OW23908   2.937   0.022   2.328 -0.2760  0.4429 -0.0273
 4092SOL    HW123909   2.846   0.041   2.349 -0.6823 -0.5315 -0.9541
 4092SOL    HW223910   2.975   0.070   2.402  1.2750  0.4326 -0.8132
 4093SOL     OW23911   1.344   0.951   5.112  0.2862 -0.2044  0.1968
 4093SOL    HW123912   1.349   0.900   5.031  0.1162  0.4997 -0.2513
 4093SOL    HW223913   1.415   1.014   5.114 -0.5315  0.6333  2.3523
 4094SOL     OW23914   3.096   4.677   6.365 -0.4339 -0.2106 -0.3997
 4094SOL    HW123915   3.102   4.640   6.277  3.1733 -0.3227 -0.1048
 4094SOL    HW223916   3.097   0.033   6.345  2.5733  0.1242  1.3321
 4095SOL     OW23917   2.312   1.975   1.955  0.1509  0.0384 -0.0458
 4095SOL    HW123918   2.310   1.880   1.966  0.4849  0.2845  2.1840
 4095SOL    HW223919   2.388   1.980   1.897 -0.5218  0.8011 -0.8536
 4096SOL     OW23920   0.457   3.950   4.672 -0.2593  0.3642  0.5572
 4096SOL    HW123921   0.547   3.933   4.700  0.0965 -0.5920 -1.1708
 4096SOL    HW223922   0.459   4.029   4.619 -1.4056  0.4645  0.6732
 4097SOL     OW23923   4.555   3.350   8.869  0.0457 -0.1923  0.9915
 4097SOL    HW123924   4.590   3.434   8.899 -0.5246  0.7199 -0.8854
 4097SOL    HW223925   4.505   3.381   8.793  1.0446  0.1212  0.4676
 4098SOL     OW23926   1.556   2.181  12.645 -0.0759  0.5267 -0.0903
 4098SOL    HW123927   1.537   2.099  12.601 -0.4595  1.3245 -1.4099
 4098SOL    HW223928   1.627   2.212  12.588 -0.1903  0.2825 -0.3653
 4099SOL     OW23929   3.885   0.997   6.842 -1.2784  0.5035 -0.0272
 4099SOL    HW123930   3.800   0.970   6.876  0.0026 -0.1893  2.6181
 4099SOL    HW223931   3.913   1.043   6.921 -3.5353 -0.4923  1.3644
 4100SOL     OW23932   4.701   4.645  10.293 -0.1581  0.2004 -0.2240
 4100SOL    HW123933   4.650   4.609  10.221  1.0609  0.9234 -1.4536
 4100SOL    HW223934   4.638   4.640  10.365 -2.7524  2.9311 -2.2720
 4101SOL     OW23935   0.900   4.712   1.387 -0.0142 -0.7255 -0.2542
 4101SOL    HW123936   0.867   4.639   1.334  2.3534 -1.0299 -1.2997
 4101SOL    HW223937   0.992   4.687   1.391 -0.4652 -2.0590  1.5053
 4102SOL     OW23938   1.068   2.395   7.433 -0.4221  0.3401 -0.3577
 4102SOL    HW123939   1.085   2.432   7.520  1.3626  1.3447 -1.1134
 4102SOL    HW223940   1.102   2.308   7.453 -1.7160 -0.3652 -1.2888
 4103SOL     OW23941   2.185   2.370  17.140 -0.5221 -0.2790  0.7379
 4103SOL    HW123942   2.149   2.444  17.190  1.1588  0.3332  1.0437
 4103SOL    HW223943   2.208   2.310  17.211  0.7482 -1.4027 -0.6453
 4104SOL     OW23944   0.960   2.701   0.585  0.1840  0.3530 -0.0546
 4104SOL    HW123945   0.955   2.796   0.571  1.3009  0.4674  0.3711
 4104SOL    HW223946   0.971   2.709   0.680 -1.1165  1.4016  0.0112
 4105SOL     OW23947   2.816   1.981   3.552 -0.0619  0.0075  0.1611
 4105SOL    HW123948   2.835   1.998   3.459 -0.3173 -1.4088 -0.1417
 4105SOL    HW223949   2.900   1.948   3.581  0.1165  0.1837 -0.1499
 4106SOL     OW23950   2.703   0.695   6.435 -0.0565 -0.1659  0.1314
 4106SOL    HW123951   2.790   0.729   6.454 -0.3452  1.9650 -2.3314
 4106SOL    HW223952   2.673   0.764   6.375 -0.5129 -0.4919 -0.0189
 4107SOL     OW23953   1.971   0.774   3.694  0.6915  0.1993 -0.2255
 4107SOL    HW123954   1.984   0.850   3.750 -1.3712  1.2516 -1.1689
 4107SOL    HW223955   2.051   0.728   3.721  2.9919  2.3430 -3.3936
 4108SOL     OW23956   0.159   4.435   2.194  0.0148  0.5189 -0.1836
 4108SOL    HW123957   0.108   4.395   2.264 -1.4581  0.8558 -1.0699
 4108SOL    HW223958   0.251   4.427   2.219  0.0595  0.9294 -0.2287
 4109SOL     OW23959   3.126   2.152   1.505  0.3035 -0.3188  0.0204
 4109SOL    HW123960   3.057   2.157   1.439  0.2515  4.4291  0.4590
 4109SOL    HW223961   3.156   2.063   1.489  0.3987 -0.2683 -0.0829
 4110SOL     OW23962   4.443   4.553   7.954 -0.4498  0.6979  0.1547
 4110SOL    HW123963   4.499   4.521   8.026  0.3979 -0.2345 -0.9232
 4110SOL    HW223964   4.405   4.628   7.999  0.3791  1.3675 -0.2719
 4111SOL     OW23965   3.305   2.449   9.928  0.0678  0.0136 -0.1615
 4111SOL    HW123966   3.292   2.422   9.837 -1.4458 -0.4501  0.1950
 4111SOL    HW223967   3.368   2.381   9.952 -0.8338 -1.6543 -2.5735
 4112SOL     OW23968   2.290   1.142   5.105 -0.0056  0.1902  0.7300
 4112SOL    HW123969   2.384   1.161   5.108 -0.1489  1.3386 -1.8868
 4112SOL    HW223970   2.266   1.227   5.069 -1.4282 -0.6339 -0.2457
 4113SOL     OW23971   1.993   3.477  16.157 -0.5643 -0.5065  0.3321
 4113SOL    HW123972   1.960   3.387  16.153  0.2852 -0.7388 -1.4449
 4113SOL    HW223973   2.019   3.479  16.249 -1.9190  1.7926  0.6653
 4114SOL     OW23974   0.844   2.434  11.239 -0.2592  0.6879 -0.2354
 4114SOL    HW123975   0.863   2.344  11.214  0.4250  1.0566 -1.0514
 4114SOL    HW223976   0.880   2.494  11.173  2.4133  0.7384  1.2840
 4115SOL     OW23977   3.081   3.820   4.978 -0.1312 -0.3490 -0.1688
 4115SOL    HW123978   3.107   3.864   4.897  0.4016  0.2716  0.3401
 4115SOL    HW223979   3.153   3.759   4.992  1.3109  0.8046 -2.5328
 4116SOL     OW23980   0.164   1.556   9.093  0.3184 -0.5591 -0.1354
 4116SOL    HW123981   0.121   1.592   9.171  1.5217 -0.6540  0.5626
 4116SOL    HW223982   0.229   1.502   9.138  0.0272 -0.6982  0.1188
 4117SOL     OW23983   1.593   3.300   0.149  0.1377  0.0032 -0.0623
 4117SOL    HW123984   1.537   3.342   0.215  1.3405  0.0058  0.9555
 4117SOL    HW223985   1.630   3.379   0.110  0.1447  0.0386  0.0152
 4118SOL     OW23986   2.605   2.017   0.852  0.0282  0.0441  0.5534
 4118SOL    HW123987   2.625   2.012   0.945 -0.8694  0.6365  0.7834
 4118SOL    HW223988   2.570   1.931   0.830  0.0101  0.2318 -0.1687
 4119SOL     OW23989   4.158   2.459   5.023 -0.3080 -0.3506  0.2813
 4119SOL    HW123990   4.196   2.518   4.958  0.2810 -2.5210 -1.3261
 4119SOL    HW223991   4.153   2.532   5.085  0.4700 -1.1027  1.2311
 4120SOL     OW23992   3.707   2.737   7.232 -0.1777 -0.1030 -0.4449
 4120SOL    HW123993   3.724   2.774   7.145 -2.1263 -0.7502 -1.1034
 4120SOL    HW223994   3.611   2.733   7.226  0.0013 -1.4930 -2.5458
 4121SOL     OW23995   4.324   1.771   4.279 -0.0158  0.1566 -0.0989
 4121SOL    HW123996   4.238   1.776   4.236  0.1476  0.4092 -0.3974
 4121SOL    HW223997   4.308   1.835   4.349 -0.5461 -0.1608  0.0718
 4122SOL     OW23998   4.421   1.243  10.273 -0.2869  0.1750 -0.0850
 4122SOL    HW123999   4.452   1.189  10.200  2.4014  1.6371 -0.0184
 4122SOL    HW224000   4.340   1.201  10.302  0.2333 -0.3769  0.5772
 4123SOL     OW24001   1.434   1.164   7.139 -0.2623  0.8190 -0.2007
 4123SOL    HW124002   1.355   1.185   7.089 -0.7774  0.8441  0.6334
 4123SOL    HW224003   1.384   1.152   7.220 -0.4100  2.1982 -0.0897
 4124SOL     OW24004   3.128   1.223   0.954  0.0255  0.1518 -0.2248
 4124SOL    HW124005   3.115   1.255   0.864 -1.8501  0.8498  0.2886
 4124SOL    HW224006   3.111   1.130   0.941 -0.5512  0.2901 -0.4622
 4125SOL     OW24007   1.460   3.549  16.800  0.2688  0.2168  0.5103
 4125SOL    HW124008   1.368   3.524  16.797  0.2434  0.1143  2.2540
 4125SOL    HW224009   1.465   3.641  16.775  0.8767 -0.5163 -2.0951
 4126SOL     OW24010   1.595   0.961   7.031  0.0726  0.3495 -0.2298
 4126SOL    HW124011   1.671   0.947   7.087  0.6993  2.3145 -0.5946
 4126SOL    HW224012   1.542   1.014   7.091  2.0805  0.4617  1.4461
 4127SOL     OW24013   0.049   2.226   1.326 -0.2682 -0.2942  0.1162
 4127SOL    HW124014   4.716   2.285   1.354  0.5423  0.1973  1.1122
 4127SOL    HW224015   4.735   2.154   1.290  0.1899  1.0627 -3.2919
 4128SOL     OW24016   3.393   3.032   6.084 -0.3002 -0.2622 -0.6425
 4128SOL    HW124017   3.447   3.110   6.070 -3.1390  1.4866 -1.9123
 4128SOL    HW224018   3.304   3.065   6.070  0.5649  1.2426 -2.6108
 4129SOL     OW24019   4.665   1.769   6.439  0.2727 -0.2605 -0.0673
 4129SOL    HW124020   4.590   1.801   6.489  0.4990 -0.9118  0.6925
 4129SOL    HW224021   4.641   1.677   6.428  0.1076 -0.1411 -0.7037
 4130SOL     OW24022   3.956   4.324   5.545  0.2698  0.3793 -0.3022
 4130SOL    HW124023   3.989   4.362   5.464 -1.7312 -0.4202 -1.4745
 4130SOL    HW224024   4.018   4.252   5.554 -1.1553 -0.9847 -1.3084
 4131SOL     OW24025   4.290   2.122   6.078  0.2774  0.1951  0.1196
 4131SOL    HW124026   4.366   2.072   6.048  1.4421  1.1460  1.4812
 4131SOL    HW224027   4.276   2.072   6.158  1.6733  1.4911  1.1849
 4132SOL     OW24028   4.226   4.559  13.608  0.2331  0.2803  0.1875
 4132SOL    HW124029   4.270   4.571  13.523 -3.4322  0.9410 -1.6137
 4132SOL    HW224030   4.174   4.483  13.582 -0.5817  0.6061  0.8791
 4133SOL     OW24031   0.707   3.946  14.459  0.3573  0.2095  0.0967
 4133SOL    HW124032   0.741   3.905  14.380  2.7041  0.5472  0.9510
 4133SOL    HW224033   0.619   3.979  14.438  0.1533  0.5900  1.5898
 4134SOL     OW24034   3.589   2.950   0.806  1.0220 -0.1389 -0.3076
 4134SOL    HW124035   3.674   2.907   0.811 -0.0227 -2.4897 -2.5396
 4134SOL    HW224036   3.542   2.895   0.743 -1.1108  0.5951  0.6180
 4135SOL     OW24037   0.018   3.232   9.734 -0.2530 -0.2221 -0.2835
 4135SOL    HW124038   4.721   3.146   9.761 -1.7694 -0.0387 -1.7176
 4135SOL    HW224039   0.018   3.280   9.817  0.2202 -0.3443 -0.2121
 4136SOL     OW24040   3.300   4.324   7.278  0.5221 -0.6406 -0.2652
 4136SOL    HW124041   3.396   4.332   7.276  0.4659  0.9152  2.9762
 4136SOL    HW224042   3.290   4.287   7.366  2.7164  0.1435  0.3256
 4137SOL     OW24043   3.064   1.098   3.988 -0.2223  0.0075  0.0925
 4137SOL    HW124044   3.061   1.124   3.896  0.0128 -2.5132 -0.6257
 4137SOL    HW224045   3.090   1.177   4.037 -2.8771  1.1576 -0.3624
 4138SOL     OW24046   4.499   1.100   2.524 -0.3702  0.3936 -0.0500
 4138SOL    HW124047   4.511   1.068   2.613  2.1468 -1.0109 -0.9048
 4138SOL    HW224048   4.572   1.161   2.523  1.3780 -1.7226 -0.5540
 4139SOL     OW24049   2.587   0.518   7.480 -0.2751 -0.0782 -0.0718
 4139SOL    HW124050   2.495   0.498   7.462  0.6094 -4.1721 -0.0226
 4139SOL    HW224051   2.609   0.572   7.404 -2.3057  1.5924  0.5386
 4140SOL     OW24052   3.768   2.536   3.231 -0.8438  0.3662  0.3304
 4140SOL    HW124053   3.856   2.514   3.261 -0.3309  3.0108  0.7410
 4140SOL    HW224054   3.781   2.568   3.142  0.7860  2.1116  1.2196
 4141SOL     OW24055   4.287   1.146   7.417  0.1118 -0.0706 -0.2630
 4141SOL    HW124056   4.262   1.054   7.419  3.5527 -1.0100  0.0142
 4141SOL    HW224057   4.294   1.174   7.508 -2.5298  0.4875 -0.2357
 4142SOL     OW24058   0.589   3.839   2.589 -0.3867  0.1715  0.2388
 4142SOL    HW124059   0.678   3.822   2.558 -1.0801 -1.0065 -1.1133
 4142SOL    HW224060   0.551   3.751   2.578 -1.6420  0.7389  0.0669
 4143SOL     OW24061   4.322   2.129   8.924  0.4702 -0.5350  0.9171
 4143SOL    HW124062   4.331   2.083   9.007 -0.7727  0.5654  1.6720
 4143SOL    HW224063   4.346   2.219   8.944 -0.5080  0.1455 -0.9634
 4144SOL     OW24064   2.001   4.585  16.033  0.2443  0.4869  0.0256
 4144SOL    HW124065   1.974   4.585  15.942  0.1288  0.0551  0.0569
 4144SOL    HW224066   2.019   4.678  16.042 -0.2516  0.7016 -1.2443
 4145SOL     OW24067   1.829   2.543   5.718  0.1292  0.1099 -0.1826
 4145SOL    HW124068   1.818   2.614   5.654 -0.0011 -0.6600 -1.0182
 4145SOL    HW224069   1.804   2.589   5.798 -0.4077 -1.5756  0.6248
 4146SOL     OW24070   0.346   3.354   3.957  0.0937 -0.4996 -0.6099
 4146SOL    HW124071   0.303   3.271   3.977  0.2284 -0.5008 -0.3295
 4146SOL    HW224072   0.265   3.403   3.967 -0.2023 -0.9497 -0.8213
 4147SOL     OW24073   2.103   3.393   6.214  0.2019  0.3142 -0.1459
 4147SOL    HW124074   2.150   3.330   6.270  0.7432  0.2897 -0.6283
 4147SOL    HW224075   2.041   3.418   6.282  0.1357  1.3420 -0.5885
 4148SOL     OW24076   1.965   3.695  10.291 -0.0203 -0.0543 -0.1787
 4148SOL    HW124077   1.990   3.787  10.278 -1.3757  0.2173 -0.8520
 4148SOL    HW224078   1.889   3.702  10.349 -1.2373 -2.2622 -1.5082
 4149SOL     OW24079   4.580   2.694   9.834  0.0502 -0.0069 -0.1358
 4149SOL    HW124080   4.588   2.677   9.740  2.1495 -0.6353  0.1464
 4149SOL    HW224081   4.514   2.630   9.860 -0.4026  0.1495 -0.8904
 4150SOL     OW24082   4.607   4.222  10.292  0.2680  0.0210  0.6109
 4150SOL    HW124083   4.552   4.209  10.369 -1.0395 -1.9193 -0.6530
 4150SOL    HW224084   4.586   4.314  10.276 -1.6106 -0.6880 -0.9777
 4151SOL     OW24085   1.378   0.496   7.874 -0.2367  0.1030  0.4324
 4151SOL    HW124086   1.378   0.400   7.878  2.7393  0.0177 -1.4862
 4151SOL    HW224087   1.439   0.519   7.944 -0.0383 -0.0776  0.3205
 4152SOL     OW24088   1.481   4.501   0.256  0.0060  0.3991  0.2510
 4152SOL    HW124089   1.488   4.568   0.324  1.0340 -0.3603  0.8943
 4152SOL    HW224090   1.551   4.446   0.293 -0.5719 -1.0816 -0.8552
 4153SOL     OW24091   1.200   0.627   7.260 -0.1489  0.2695 -0.4671
 4153SOL    HW124092   1.288   0.624   7.298 -0.0814 -1.9134 -0.8256
 4153SOL    HW224093   1.225   0.678   7.183  0.7503  0.6727  0.0740
 4154SOL     OW24094   1.157   0.867   2.519 -0.0449  0.0679 -0.1793
 4154SOL    HW124095   1.138   0.784   2.476  0.7156 -0.2888  0.1752
 4154SOL    HW224096   1.119   0.931   2.458  1.0854  1.1952  0.2920
 4155SOL     OW24097   2.649   2.951   6.160  0.2893 -0.6080 -0.0763
 4155SOL    HW124098   2.609   3.023   6.112 -0.9491 -1.7094 -0.6729
 4155SOL    HW224099   2.737   2.942   6.122  1.2917  1.9920  1.6022
 4156SOL     OW24100   4.625   3.015  11.936  0.0465 -0.2293  0.0147
 4156SOL    HW124101   4.648   3.047  11.849 -2.5915  0.1025 -0.5595
 4156SOL    HW224102   4.581   3.092  11.971  0.0961  0.0578 -0.5545
 4157SOL     OW24103   1.213   3.659   8.650  0.4053 -0.5712 -0.2923
 4157SOL    HW124104   1.176   3.610   8.577 -2.0411  1.0724 -0.1435
 4157SOL    HW224105   1.170   3.743   8.635  2.1487  0.3804  0.0531
 4158SOL     OW24106   0.735   1.030   8.904  0.4329 -0.3820  0.5174
 4158SOL    HW124107   0.702   1.091   8.970  1.1868  1.4809 -0.8268
 4158SOL    HW224108   0.760   1.088   8.832  0.0988 -0.4190  0.3727
 4159SOL     OW24109   0.813   2.195   4.254  0.1613 -0.8519  0.2196
 4159SOL    HW124110   0.730   2.239   4.237  1.0215  0.7568  0.2214
 4159SOL    HW224111   0.841   2.226   4.340  0.8839  0.2885 -0.4251
 4160SOL     OW24112   2.625   3.716   4.844  0.3102 -0.3893 -0.4780
 4160SOL    HW124113   2.690   3.749   4.782 -1.9127  3.4534 -0.7604
 4160SOL    HW224114   2.673   3.658   4.902 -1.1455 -1.0039  0.1279
 4161SOL     OW24115   2.738   0.818   5.159  0.0178  0.2576  0.1087
 4161SOL    HW124116   2.768   0.761   5.088 -0.6815  0.9954 -0.7720
 4161SOL    HW224117   2.734   0.755   5.231 -0.2557 -1.2303 -1.2178
 4162SOL     OW24118   4.274   0.788   5.306  0.0893 -0.2214  0.3205
 4162SOL    HW124119   4.261   0.693   5.306  1.2421 -0.3765  0.6899
 4162SOL    HW224120   4.240   0.808   5.219  0.6744  1.9262  0.5943
 4163SOL     OW24121   2.735   1.280   0.680 -0.3754  0.2452  0.2468
 4163SOL    HW124122   2.793   1.338   0.729 -1.3176  0.5104  1.0521
 4163SOL    HW224123   2.673   1.338   0.636  0.2895  1.0148  0.3273
 4164SOL     OW24124   4.059   4.324   8.591  0.2060 -0.1315  0.1131
 4164SOL    HW124125   4.088   4.332   8.682  0.5993  0.8950 -0.1019
 4164SOL    HW224126   4.007   4.245   8.605 -0.5161  0.4809  0.8839
 4165SOL     OW24127   0.750   1.384   4.305 -0.2209  0.1207 -0.0177
 4165SOL    HW124128   0.830   1.360   4.259  0.1413 -0.2707  0.8107
 4165SOL    HW224129   0.697   1.317   4.261 -1.4967  1.6953 -0.8890
 4166SOL     OW24130   1.912   0.294  16.455  0.3158 -0.7802 -0.3040
 4166SOL    HW124131   1.944   0.334  16.536 -1.3175 -0.5040  0.1968
 4166SOL    HW224132   1.971   0.344  16.398 -1.4514  1.8629  0.1909
 4167SOL     OW24133   4.484   0.940  12.681 -0.2230 -0.1380 -0.0042
 4167SOL    HW124134   4.437   0.857  12.689 -1.5827  0.8532  2.3310
 4167SOL    HW224135   4.550   0.928  12.749 -0.8947 -0.4190  0.6074
 4168SOL     OW24136   4.430   3.590   5.298 -0.2769  0.2083  0.4434
 4168SOL    HW124137   4.473   3.650   5.359 -1.0313 -0.6142  1.7793
 4168SOL    HW224138   4.494   3.519   5.311  0.3498  0.5623 -0.6670
 4169SOL     OW24139   0.534   3.686   7.938  0.5171 -0.1677 -0.1134
 4169SOL    HW124140   0.501   3.771   7.909 -1.1040 -0.6655  0.3008
 4169SOL    HW224141   0.585   3.661   7.861  0.7544  2.2285 -0.7341
 4170SOL     OW24142   4.503   2.882  12.153  0.4208  0.1318 -0.8279
 4170SOL    HW124143   4.573   2.910  12.093  1.6707 -2.0954 -0.3991
 4170SOL    HW224144   4.490   2.962  12.205 -1.0071  0.8492 -2.2827
 4171SOL     OW24145   2.048   3.290   1.300  0.3181  0.1907 -0.1120
 4171SOL    HW124146   2.137   3.325   1.293  0.8772 -0.9481  1.3720
 4171SOL    HW224147   2.071   3.211   1.349 -3.2403 -0.9575 -0.3207
 4172SOL     OW24148   1.997   0.017   3.194 -0.1311 -0.6158  0.4279
 4172SOL    HW124149   1.978   0.062   3.276  1.0109  1.2222 -0.3137
 4172SOL    HW224150   1.955   0.059   3.118  0.8187  2.4771  1.6186
 4173SOL     OW24151   2.421   2.324   2.949 -0.3337 -0.2702 -0.1377
 4173SOL    HW124152   2.478   2.400   2.937 -0.9444  0.1688 -0.2528
 4173SOL    HW224153   2.403   2.330   3.042  1.0711  1.0046  0.0586
 4174SOL     OW24154   1.936   4.633   2.650  0.4288 -0.2049 -0.1017
 4174SOL    HW124155   1.861   4.583   2.618 -1.6081  1.8981  1.4675
 4174SOL    HW224156   1.958   4.583   2.729 -1.8547  0.3715  0.8985
 4175SOL     OW24157   4.264   1.846   1.962 -0.0005  0.2223 -0.3709
 4175SOL    HW124158   4.240   1.883   1.877 -0.4093 -0.0633 -0.3829
 4175SOL    HW224159   4.332   1.907   1.990  0.3744  0.7147 -2.4202
 4176SOL     OW24160   0.680   4.582   1.773 -0.0823 -0.1087  0.1704
 4176SOL    HW124161   0.593   4.600   1.808  0.3565  1.1269  0.6248
 4176SOL    HW224162   0.670   4.544   1.686  1.3761  3.6728 -1.6248
 4177SOL     OW24163   0.155   0.728  11.621  0.0279  0.8691  0.1531
 4177SOL    HW124164   0.082   0.775  11.580  0.6588  1.8724  0.1925
 4177SOL    HW224165   0.159   0.655  11.559 -0.8589 -0.7301  1.9896
 4178SOL     OW24166   2.497   0.127  11.042  0.2134  0.9022  0.7101
 4178SOL    HW124167   2.579   0.174  11.060  0.9064  0.4015 -1.1530
 4178SOL    HW224168   2.440   0.204  11.035 -0.7287 -0.0223 -1.9795
 4179SOL     OW24169   1.968   1.605   6.895 -0.2396 -0.1833 -0.0091
 4179SOL    HW124170   1.915   1.617   6.973  1.4869 -4.0524  1.7629
 4179SOL    HW224171   2.060   1.602   6.920 -0.5825  2.6343  1.5747
 4180SOL     OW24172   2.045   1.890   2.570 -0.6403  0.4128 -0.4439
 4180SOL    HW124173   2.022   1.967   2.518 -0.2096  0.7294 -0.1629
 4180SOL    HW224174   2.127   1.922   2.606 -0.6507 -1.6390  1.3739
 4181SOL     OW24175   1.678   3.801  11.844 -0.1101 -0.0549 -0.2563
 4181SOL    HW124176   1.602   3.803  11.902  0.1334 -0.4913  0.0730
 4181SOL    HW224177   1.635   3.831  11.764 -0.0979 -0.9191 -0.5911
 4182SOL     OW24178   1.437   1.568   2.576  0.2519  0.2625  0.0065
 4182SOL    HW124179   1.366   1.632   2.573 -0.3319 -0.3824  0.0881
 4182SOL    HW224180   1.401   1.489   2.617  1.5281 -0.2384  0.1679
 4183SOL     OW24181   0.080   1.398   6.764  0.1618 -0.5391  0.4638
 4183SOL    HW124182   0.090   1.337   6.838 -1.6203 -0.4179  0.8107
 4183SOL    HW224183   0.120   1.477   6.801 -0.5687 -0.3748  0.9011
 4184SOL     OW24184   2.505   1.798   8.535  0.0330  0.1526  0.2565
 4184SOL    HW124185   2.505   1.795   8.439 -0.9149 -2.4895  0.3280
 4184SOL    HW224186   2.446   1.728   8.563  0.6487 -1.0233 -1.3759
 4185SOL     OW24187   0.422   2.012  10.388  0.1883  0.6663 -0.8020
 4185SOL    HW124188   0.353   1.951  10.413  1.0080 -0.5913 -1.6269
 4185SOL    HW224189   0.489   1.945  10.404 -0.7270  0.0611  0.4816
 4186SOL     OW24190   1.526   1.808   1.369  0.0731  0.2475  0.0577
 4186SOL    HW124191   1.463   1.747   1.330 -1.6744  1.6426  0.7186
 4186SOL    HW224192   1.500   1.804   1.461  0.2300  0.3676  0.1081
 4187SOL     OW24193   3.303   2.813   0.122  0.2864 -0.0822 -0.6675
 4187SOL    HW124194   3.293   2.891   0.177 -2.0656  0.9824 -2.6031
 4187SOL    HW224195   3.242   2.835   0.052 -0.2408  1.0321  0.1437
 4188SOL     OW24196   3.952   1.454   9.178 -0.0844  0.7690  0.4967
 4188SOL    HW124197   3.944   1.368   9.219  2.7664 -0.4904 -1.6690
 4188SOL    HW224198   4.010   1.447   9.102  0.2116  0.8559  0.7141
 4189SOL     OW24199   0.847   0.277   2.933  0.6178  0.4765  0.4436
 4189SOL    HW124200   0.765   0.282   2.983  1.1336 -0.7653  1.3971
 4189SOL    HW224201   0.837   0.195   2.886 -0.4364  0.6313  0.3825
 4190SOL     OW24202   3.362   2.726   3.108  0.5298 -0.1850  0.7480
 4190SOL    HW124203   3.384   2.676   3.187 -0.3876 -2.6365 -0.5609
 4190SOL    HW224204   3.267   2.734   3.115  0.5440  0.2181  0.4587
 4191SOL     OW24205   2.215   1.735   1.997 -0.1354 -0.0737 -0.3562
 4191SOL    HW124206   2.276   1.685   2.050  0.5052 -0.6872 -1.6591
 4191SOL    HW224207   2.134   1.707   2.038  0.1167  0.0576  0.2222
 4192SOL     OW24208   0.753   4.290  14.317  0.2575 -0.0010  0.3302
 4192SOL    HW124209   0.840   4.309  14.351  0.6319  0.2454 -0.7655
 4192SOL    HW224210   0.769   4.238  14.238  2.0881  0.1935  0.5842
 4193SOL     OW24211   1.444   0.897   8.070  0.6014 -0.3982 -0.7006
 4193SOL    HW124212   1.490   0.826   8.116  1.7400  1.1424  0.5118
 4193SOL    HW224213   1.359   0.863   8.043 -0.7914  0.2187  2.9587
 4194SOL     OW24214   3.590   2.116   4.068 -0.0234 -0.1807  0.2677
 4194SOL    HW124215   3.543   2.161   4.138 -1.6186 -0.5881 -0.5573
 4194SOL    HW224216   3.541   2.122   3.986  0.1076  1.3791  0.3046
 4195SOL     OW24217   3.147   1.289   0.695  0.0135  0.0248 -0.3976
 4195SOL    HW124218   3.076   1.309   0.634 -1.1286 -0.7430  0.6847
 4195SOL    HW224219   3.206   1.250   0.631 -0.7677 -0.9332 -0.5341
 4196SOL     OW24220   1.719   0.511  14.300 -0.1823  0.3825  0.0684
 4196SOL    HW124221   1.624   0.511  14.288 -0.2615 -4.4230  0.9481
 4196SOL    HW224222   1.746   0.433  14.252 -0.7715 -1.4328  2.6916
 4197SOL     OW24223   3.297   1.014   5.117  0.1296 -0.4238  0.0403
 4197SOL    HW124224   3.208   1.025   5.151 -0.4173  0.1012 -1.5391
 4197SOL    HW224225   3.342   1.056   5.190  1.1422  0.3405 -1.0184
 4198SOL     OW24226   4.470   2.782   2.640  0.1984  0.8330 -0.2333
 4198SOL    HW124227   4.448   2.699   2.682 -1.3285  1.2168 -0.2458
 4198SOL    HW224228   4.444   2.767   2.549 -0.8720  1.8318 -0.0929
 4199SOL     OW24229   4.549   2.744   6.292  0.0941 -0.4921  0.6637
 4199SOL    HW124230   4.549   2.837   6.313 -2.1961 -0.0554 -1.2274
 4199SOL    HW224231   4.475   2.715   6.346  0.5467  1.6287  2.4163
 4200SOL     OW24232   2.063   1.978  14.308 -0.4176 -0.1655  0.2363
 4200SOL    HW124233   2.104   2.064  14.313 -0.1568 -0.3848  1.9623
 4200SOL    HW224234   1.994   2.006  14.248  1.6301  2.6173 -0.7875
 4201SOL     OW24235   2.672   2.804  11.723 -0.1088  0.0260 -0.0064
 4201SOL    HW124236   2.683   2.843  11.636  0.1911  0.4660  0.2323
 4201SOL    HW224237   2.577   2.790  11.726 -0.0865  0.0369  0.6853
 4202SOL     OW24238   4.377   4.736   2.655 -0.3894 -0.2054  0.2243
 4202SOL    HW124239   4.380   4.641   2.667  0.0622 -0.6412 -3.4158
 4202SOL    HW224240   4.361   0.013   2.562 -1.2146  0.7026  0.5099
 4203SOL     OW24241   4.072   1.665   4.628  0.0890 -0.0086  0.0036
 4203SOL    HW124242   4.048   1.673   4.720  0.2514 -1.9540  0.2127
 4203SOL    HW224243   3.993   1.625   4.593  1.7258 -0.6954 -2.9270
 4204SOL     OW24244   0.974   1.860   4.390  0.0208 -0.3363  0.0525
 4204SOL    HW124245   0.964   1.765   4.398  0.2037 -0.3549  0.0750
 4204SOL    HW224246   1.047   1.871   4.451  0.7330 -2.0188 -0.5002
 4205SOL     OW24247   4.711   4.677   5.333 -0.1814 -0.8565  0.8442
 4205SOL    HW124248   4.676   4.624   5.261  1.1639 -0.0269 -0.4215
 4205SOL    HW224249   4.627   4.718   5.354 -0.3929 -1.7364  1.7086
 4206SOL     OW24250   4.004   3.739   6.173 -0.4671 -0.2134 -0.0116
 4206SOL    HW124251   3.960   3.655   6.158 -0.5808 -0.2435  0.4889
 4206SOL    HW224252   3.961   3.798   6.111  1.0974  0.3429 -0.5498
 4207SOL     OW24253   4.228   1.949   7.715 -0.1968  0.5949 -0.2784
 4207SOL    HW124254   4.138   1.943   7.745 -0.5763  0.8076 -1.3542
 4207SOL    HW224255   4.233   2.032   7.666 -0.3579  0.7475 -0.0378
 4208SOL     OW24256   1.371   2.724   6.598 -0.4058 -0.0974  0.6170
 4208SOL    HW124257   1.380   2.817   6.620 -0.9399  0.8971 -3.3276
 4208SOL    HW224258   1.354   2.723   6.504  1.8701 -0.4033  0.2106
 4209SOL     OW24259   4.286   2.504   7.615 -0.5939 -0.6970 -0.8688
 4209SOL    HW124260   4.251   2.576   7.667  1.2057  0.5375 -1.3823
 4209SOL    HW224261   4.284   2.541   7.527  0.4343  0.0565 -0.5741
 4210SOL     OW24262   0.750   3.254   7.279  0.1010 -0.2156 -0.3159
 4210SOL    HW124263   0.842   3.272   7.258  0.4134 -1.4333 -0.0578
 4210SOL    HW224264   0.753   3.158   7.270  0.7996 -0.1672 -0.6482
 4211SOL     OW24265   0.543   2.301  12.960  0.4162  0.6241 -0.2296
 4211SOL    HW124266   0.494   2.351  12.895 -0.3806  0.6584  0.3959
 4211SOL    HW224267   0.619   2.354  12.982  0.5277 -0.8766  3.0140
 4212SOL     OW24268   4.511   0.305  13.580 -0.1416 -0.2225  0.0800
 4212SOL    HW124269   4.482   0.380  13.528  2.7212  1.5519  1.0740
 4212SOL    HW224270   4.597   0.333  13.611 -0.0838 -0.0014 -0.2801
 4213SOL     OW24271   2.062   0.239   3.866 -0.0825  0.4733 -0.0932
 4213SOL    HW124272   2.110   0.255   3.785 -1.0091 -1.1311 -0.9669
 4213SOL    HW224273   2.075   0.326   3.905  0.8626 -0.6140  2.0155
 4214SOL     OW24274   1.910   3.761   5.514 -0.4382  0.0193 -0.5468
 4214SOL    HW124275   1.992   3.799   5.484 -0.8671  0.8138 -0.7055
 4214SOL    HW224276   1.938   3.715   5.593  2.4218 -0.8430 -2.0373
 4215SOL     OW24277   1.252   3.592   4.244 -0.1617 -0.4582  0.9784
 4215SOL    HW124278   1.242   3.500   4.222  2.1965 -0.4538 -0.1295
 4215SOL    HW224279   1.182   3.610   4.307 -0.6658  2.1449 -0.3394
 4216SOL     OW24280   3.346   4.195   0.577 -0.6927 -0.1442  0.7066
 4216SOL    HW124281   3.345   4.272   0.634  1.7294  1.3687 -1.2713
 4216SOL    HW224282   3.437   4.165   0.571 -0.5951  0.2300  0.3801
 4217SOL     OW24283   2.572   4.310   6.600  0.1518 -0.1155  0.0317
 4217SOL    HW124284   2.532   4.238   6.648  2.1396 -0.6558  0.9074
 4217SOL    HW224285   2.660   4.274   6.611  0.3961  0.3829 -0.2801
 4218SOL     OW24286   1.104   2.079  10.796  0.3692 -0.3358  0.0094
 4218SOL    HW124287   1.075   2.031  10.719 -1.1417  0.1075  0.3045
 4218SOL    HW224288   1.170   2.134  10.753  1.5492 -1.8993 -0.1840
 4219SOL     OW24289   4.705   0.440  11.142  0.0157 -0.8885  0.1474
 4219SOL    HW124290   4.728   0.347  11.139  1.6137 -0.5851  3.2901
 4219SOL    HW224291   4.618   0.421  11.177  0.5026  0.1298  1.8521
 4220SOL     OW24292   0.977   0.981   6.148 -0.1755 -0.3639 -0.1928
 4220SOL    HW124293   0.977   0.939   6.062 -0.5707  0.7012 -0.7170
 4220SOL    HW224294   1.041   1.051   6.133 -0.6560 -0.0075 -0.5735
 4221SOL     OW24295   3.891   4.077   7.602 -0.0009 -0.0778  0.1705
 4221SOL    HW124296   3.974   4.035   7.579 -0.1676 -0.6014  0.5267
 4221SOL    HW224297   3.927   4.124   7.677 -0.6561 -0.3168  0.6375
 4222SOL     OW24298   1.176   2.861  17.415  0.4108 -0.8491 -0.5676
 4222SOL    HW124299   1.238   2.891  17.480 -2.4682 -0.5734  2.0594
 4222SOL    HW224300   1.170   2.934  17.353  2.0863 -0.5641 -0.3832
 4223SOL     OW24301   2.457   1.738   3.692  0.3990  0.6087 -0.0476
 4223SOL    HW124302   2.494   1.817   3.652 -0.9470  1.5190  0.4991
 4223SOL    HW224303   2.386   1.769   3.748  0.0304 -2.0165  0.9529
 4224SOL     OW24304   0.708   3.552   3.510 -0.5892  0.0593 -0.3789
 4224SOL    HW124305   0.768   3.614   3.469  1.4297 -2.9127 -1.8702
 4224SOL    HW224306   0.776   3.492   3.539  0.2701  0.3708 -1.7558
 4225SOL     OW24307   1.170   4.409   4.043 -0.2948 -0.1400 -0.4485
 4225SOL    HW124308   1.211   4.349   3.980 -2.2010 -0.2996 -1.5372
 4225SOL    HW224309   1.207   4.370   4.122 -1.0096 -0.4278 -0.2499
 4226SOL     OW24310   1.310   0.083   6.458 -0.0979  0.3171 -0.3709
 4226SOL    HW124311   1.216   0.099   6.472 -0.2276 -0.7898 -0.0036
 4226SOL    HW224312   1.303   0.046   6.370 -1.0834  2.1867 -1.0792
 4227SOL     OW24313   1.725   4.424   3.119 -0.2784  0.7355  0.3273
 4227SOL    HW124314   1.680   4.442   3.037 -0.8490  0.3259  0.5473
 4227SOL    HW224315   1.725   4.505   3.170  0.5818  0.9678 -0.0504
 4228SOL     OW24316   0.640   3.105   2.866  0.4082  0.4365 -0.1487
 4228SOL    HW124317   0.664   3.197   2.852  3.3964 -0.0383  2.0029
 4228SOL    HW224318   0.548   3.110   2.892  0.8646  0.3348  1.4625
 4229SOL     OW24319   0.274   2.477   1.910 -0.3553  0.1752 -0.4984
 4229SOL    HW124320   0.336   2.406   1.928  0.5303  1.1627  0.3207
 4229SOL    HW224321   0.194   2.430   1.887 -0.6076 -0.1048  0.9341
 4230SOL     OW24322   1.710   1.403   1.371  0.0351  0.7227  0.0482
 4230SOL    HW124323   1.671   1.339   1.312 -0.0922  0.6510  0.2088
 4230SOL    HW224324   1.642   1.412   1.438 -0.1983  1.3862 -0.2800
 4231SOL     OW24325   1.246   1.247   5.605  0.4738  0.1209  0.2490
 4231SOL    HW124326   1.292   1.293   5.534  0.5697  1.0393  0.9062
 4231SOL    HW224327   1.236   1.162   5.562 -2.8751  1.8910 -2.5573
 4232SOL     OW24328   0.676   1.698   6.492  0.0077  0.0460  0.2792
 4232SOL    HW124329   0.631   1.684   6.576  0.7074  1.9661  0.9897
 4232SOL    HW224330   0.597   1.706   6.439 -0.0280 -0.6078  0.2436
 4233SOL     OW24331   3.203   4.624  14.902  0.0800 -1.1079 -0.0178
 4233SOL    HW124332   3.257   4.694  14.864 -1.8981  0.5076  0.1474
 4233SOL    HW224333   3.214   4.644  14.995 -0.4576  1.9303 -0.5854
 4234SOL     OW24334   1.085   2.097  11.353  0.3305  0.1426  0.2240
 4234SOL    HW124335   1.110   2.161  11.287  0.1841  0.8987  0.9074
 4234SOL    HW224336   0.992   2.087  11.330 -0.0104 -0.1190  1.7217
 4235SOL     OW24337   3.704   3.659   3.287  0.0688  0.0137 -0.5900
 4235SOL    HW124338   3.619   3.703   3.291  0.9716  1.7400 -0.1866
 4235SOL    HW224339   3.743   3.716   3.220 -1.9551  1.9929 -0.0911
 4236SOL     OW24340   0.204   1.283   4.109  0.5990 -0.2823  0.4798
 4236SOL    HW124341   0.112   1.263   4.124  0.5476 -0.1182  0.3855
 4236SOL    HW224342   0.208   1.329   4.025  1.4707 -1.4141 -0.1024
 4237SOL     OW24343   1.751   0.059  11.979 -0.5828  0.0295 -0.1287
 4237SOL    HW124344   1.737   4.707  11.949  0.0929 -0.3842  0.7690
 4237SOL    HW224345   1.838   0.064  12.019 -0.6414  2.6287 -0.3372
 4238SOL     OW24346   1.743   1.775   8.817 -0.2768 -0.1910  0.1399
 4238SOL    HW124347   1.808   1.709   8.793 -0.7214 -0.8717  0.8263
 4238SOL    HW224348   1.791   1.857   8.804 -1.4037  0.2197 -1.4698
 4239SOL     OW24349   1.833   0.080   0.880  0.1624 -0.7088 -0.2136
 4239SOL    HW124350   1.907   0.033   0.841 -0.1831  0.6354 -2.4938
 4239SOL    HW224351   1.784   0.096   0.799 -2.0693  0.2104  1.3125
 4240SOL     OW24352   1.765   0.359   4.220  0.1651 -0.6769  0.5771
 4240SOL    HW124353   1.739   0.351   4.311 -0.2423 -0.9260  0.4350
 4240SOL    HW224354   1.847   0.409   4.230  0.6205 -1.2981 -0.0596
 4241SOL     OW24355   2.049   0.005   6.222  0.3759  0.0530 -0.2403
 4241SOL    HW124356   2.013   4.674   6.166  1.9890  0.4862 -1.8047
 4241SOL    HW224357   2.034   4.712   6.311 -1.0213  1.6625  0.0779
 4242SOL     OW24358   2.023   3.482  11.943  0.3203  0.1351 -0.4163
 4242SOL    HW124359   2.024   3.521  11.855  0.9604 -0.6699 -0.7664
 4242SOL    HW224360   1.941   3.525  11.966 -0.1545 -1.1964  0.3886
 4243SOL     OW24361   0.153   0.771  17.350  0.3500  0.2576 -0.0931
 4243SOL    HW124362   0.230   0.718  17.328  0.2665  0.6020 -1.2075
 4243SOL    HW224363   0.093   0.752  17.277  0.7937  1.0558 -0.6666
 4244SOL     OW24364   2.905   2.444   0.672  0.1260  0.1108 -0.0464
 4244SOL    HW124365   2.861   2.529   0.674  1.1338  0.6396 -0.2667
 4244SOL    HW224366   2.892   2.420   0.581  1.5826  1.4051 -0.6037
 4245SOL     OW24367   0.246   4.710   9.987 -0.2309 -0.7053  0.6023
 4245SOL    HW124368   0.301   0.014   9.921  1.2523 -0.1564  2.1765
 4245SOL    HW224369   0.307   4.666  10.047  0.4964 -0.6980 -0.1393
 4246SOL     OW24370   4.567   4.101   6.270 -0.1357 -0.3744 -0.7530
 4246SOL    HW124371   4.523   4.115   6.186 -0.5833 -2.4144 -0.8627
 4246SOL    HW224372   4.510   4.150   6.329 -2.1521 -2.8731 -0.6258
 4247SOL     OW24373   2.427   1.156   7.729 -0.1442  0.7707  0.1066
 4247SOL    HW124374   2.338   1.176   7.700 -0.3838 -0.8518 -0.2734
 4247SOL    HW224375   2.475   1.225   7.684 -0.0305  1.1740  0.8586
 4248SOL     OW24376   1.570   3.325  11.163 -0.4894  0.1100  0.3475
 4248SOL    HW124377   1.616   3.394  11.210  0.3940  1.1406 -2.0371
 4248SOL    HW224378   1.512   3.375  11.104  0.5728 -2.1525 -2.5872
 4249SOL     OW24379   4.006   3.493   3.266  0.9885  0.1486 -0.1297
 4249SOL    HW124380   3.977   3.441   3.341  2.3095  0.2181  0.4359
 4249SOL    HW224381   3.951   3.571   3.272  2.2634  1.0083  0.3682
 4250SOL     OW24382   3.679   3.855   5.215 -0.1459 -0.1917  0.2088
 4250SOL    HW124383   3.676   3.948   5.194  0.4046  0.0561  1.2318
 4250SOL    HW224384   3.756   3.831   5.163 -1.2278 -0.2013 -1.4029
 4251SOL     OW24385   3.135   4.217  16.539  0.0103  0.4800 -0.2823
 4251SOL    HW124386   3.094   4.297  16.570 -2.1058  0.1054 -2.1155
 4251SOL    HW224387   3.103   4.207  16.449 -1.0013 -1.3464  0.2888
 4252SOL     OW24388   2.285   3.537  10.224 -0.1624 -0.8103  0.7905
 4252SOL    HW124389   2.322   3.450  10.238  0.4780 -0.2874  2.4021
 4252SOL    HW224390   2.201   3.531  10.270  0.4413  1.6463  2.2417
 4253SOL     OW24391   0.846   3.992   8.932  0.1346  0.0375  0.0947
 4253SOL    HW124392   0.865   3.917   8.988 -0.5198  0.0098  0.2706
 4253SOL    HW224393   0.776   3.951   8.881 -0.0528 -0.1820  0.5298
 4254SOL     OW24394   2.333   3.476  14.873  0.2767 -0.0156 -0.7689
 4254SOL    HW124395   2.363   3.446  14.787 -0.4629  0.5016 -1.2038
 4254SOL    HW224396   2.417   3.503  14.911  0.9341 -1.9719 -0.8714
 4255SOL     OW24397   2.111   0.023   7.682  0.2519 -0.6928  0.1113
 4255SOL    HW124398   2.031   0.005   7.732  2.9633 -2.0986  3.8866
 4255SOL    HW224399   2.107   0.119   7.681  0.9225 -0.6333  2.4499
 4256SOL     OW24400   2.803   0.227   6.066 -0.3188 -0.2534  0.4968
 4256SOL    HW124401   2.833   0.137   6.056 -1.6624 -0.8490  1.8552
 4256SOL    HW224402   2.756   0.221   6.149  1.4111  0.8713  1.5570
 4257SOL     OW24403   0.656   1.780   9.130  0.4700 -0.0061 -0.1254
 4257SOL    HW124404   0.659   1.875   9.144  0.0569  0.3319 -2.3749
 4257SOL    HW224405   0.671   1.745   9.218 -2.8825 -0.4507  0.2552
 4258SOL     OW24406   0.192   2.199   2.725 -0.3588 -0.2686  0.5172
 4258SOL    HW124407   0.271   2.163   2.684 -0.8096 -0.2133 -0.4103
 4258SOL    HW224408   0.153   2.116   2.752 -0.5468 -1.4939 -3.5525
 4259SOL     OW24409   4.588   0.527  11.596 -0.3994  0.2925  0.3546
 4259SOL    HW124410   4.668   0.531  11.648  0.0800  0.3677 -0.3968
 4259SOL    HW224411   4.541   0.450  11.630 -0.4185  0.6760  1.1885
 4260SOL     OW24412   0.165   0.709  13.954  0.7392  0.4020 -0.1640
 4260SOL    HW124413   0.221   0.786  13.964  1.4329 -0.3712  1.9545
 4260SOL    HW224414   0.096   0.745  13.897 -0.5191 -1.1112  0.4095
 4261SOL     OW24415   4.198   3.247  16.508 -0.2521 -0.2713  0.4431
 4261SOL    HW124416   4.231   3.329  16.546  0.7693 -0.6024  0.2703
 4261SOL    HW224417   4.106   3.264  16.527 -0.3885 -1.5486  0.8877
 4262SOL     OW24418   1.541   4.049   7.760  0.0030  0.2872  0.2188
 4262SOL    HW124419   1.603   3.999   7.813  0.1459 -1.0640 -1.2138
 4262SOL    HW224420   1.577   4.137   7.770 -0.3658  0.4377  0.2387
 4263SOL     OW24421   0.385   4.200   9.464 -0.4585 -0.1278 -0.6363
 4263SOL    HW124422   0.416   4.222   9.552 -1.2503  2.2030 -0.9491
 4263SOL    HW224423   0.463   4.209   9.410  0.2788 -1.1426  0.2493
 4264SOL     OW24424   1.721   1.245   2.049  0.4717 -0.2434  0.1443
 4264SOL    HW124425   1.694   1.315   1.990 -0.9560 -0.2611  0.7772
 4264SOL    HW224426   1.641   1.193   2.060  1.4968 -1.4728  1.6792
 4265SOL     OW24427   0.212   3.362  15.747 -0.5628  0.0890 -0.2158
 4265SOL    HW124428   0.217   3.343  15.653  0.5876  1.7547 -0.5095
 4265SOL    HW224429   0.119   3.347  15.763 -0.4530 -0.1828  0.1516
 4266SOL     OW24430   3.247   2.821   0.737 -0.2803  0.3002 -0.1166
 4266SOL    HW124431   3.338   2.813   0.710 -0.0173  0.4236  0.7113
 4266SOL    HW224432   3.266   2.840   0.829 -0.0934 -1.0199  0.1167
 4267SOL     OW24433   3.652   4.350  13.061  0.9904 -0.2908  0.1743
 4267SOL    HW124434   3.692   4.269  13.095 -1.7407 -1.4465  0.5902
 4267SOL    HW224435   3.717   4.419  13.073 -1.3512  2.4464 -3.1600
 4268SOL     OW24436   1.392   0.936   7.804  0.2418  0.5733  0.5168
 4268SOL    HW124437   1.396   0.922   7.898  0.2969  2.8566  0.8435
 4268SOL    HW224438   1.369   0.849   7.771 -0.4876  0.3833  1.5391
 4269SOL     OW24439   2.831   0.361   7.500 -0.6347 -0.2763 -0.5412
 4269SOL    HW124440   2.746   0.350   7.543 -0.9912  0.6588 -1.0253
 4269SOL    HW224441   2.878   0.410   7.568  0.6298 -1.5366 -0.5084
 4270SOL     OW24442   0.732   0.910   5.056 -0.3433  0.3506 -0.1772
 4270SOL    HW124443   0.640   0.936   5.046 -1.4784 -2.9528  1.6973
 4270SOL    HW224444   0.774   0.984   5.012  1.0515 -0.1724  0.2653
 4271SOL     OW24445   1.092   1.998   2.774  0.0312 -0.6295  0.4073
 4271SOL    HW124446   1.147   2.061   2.819  1.4527 -0.5091 -1.4839
 4271SOL    HW224447   1.107   1.923   2.831  0.3150 -0.6490  0.3051
 4272SOL     OW24448   0.899   4.248   4.645 -0.6603 -0.2623 -0.5843
 4272SOL    HW124449   0.856   4.322   4.602 -0.2402  0.4641  0.2413
 4272SOL    HW224450   0.826   4.198   4.680  1.6052 -1.3312  2.5540
 4273SOL     OW24451   1.015   0.018  14.612 -0.5658 -0.2970 -0.1049
 4273SOL    HW124452   0.975   0.097  14.575 -1.4855 -1.5788 -1.8934
 4273SOL    HW224453   0.933   4.713  14.638 -1.8430  1.5405 -1.1195
 4274SOL     OW24454   4.608   3.664   3.224 -0.4282  0.4853 -0.2008
 4274SOL    HW124455   4.625   3.699   3.136  1.7385 -1.2786 -0.4937
 4274SOL    HW224456   4.626   3.743   3.275  0.8040  1.0511 -1.5082
 4275SOL     OW24457   3.592   2.218   3.614  0.0532  0.0958  0.4994
 4275SOL    HW124458   3.653   2.281   3.576 -0.7259  0.3200 -0.3768
 4275SOL    HW224459   3.616   2.230   3.706 -1.0825 -0.8325  0.9175
 4276SOL     OW24460   3.971   0.443   7.724 -0.1581  0.3294  0.1132
 4276SOL    HW124461   3.949   0.358   7.687 -2.7469  1.8034 -1.7328
 4276SOL    HW224462   3.971   0.502   7.648 -2.1626 -0.4092 -0.4715
 4277SOL     OW24463   0.815   0.853  14.518  0.4574 -0.9039  0.1759
 4277SOL    HW124464   0.728   0.843  14.555  0.2414  2.8998  0.6916
 4277SOL    HW224465   0.864   0.877  14.597  0.1431  0.0101  0.0915
 4278SOL     OW24466   3.216   3.853  14.370  0.2628 -0.3238  0.3569
 4278SOL    HW124467   3.130   3.831  14.335  0.1030 -0.5589  0.8970
 4278SOL    HW224468   3.186   3.938  14.402  3.0785 -0.0048  2.1657
 4279SOL     OW24469   2.516   2.716  16.942 -0.3544  0.0500 -0.0538
 4279SOL    HW124470   2.437   2.691  16.896  0.6551 -1.0213 -1.1989
 4279SOL    HW224471   2.492   2.696  17.032  0.5875  3.1642  0.8992
 4280SOL     OW24472   3.866   4.118   9.257 -0.1909  0.0016  0.3383
 4280SOL    HW124473   3.842   4.152   9.343 -1.9552  0.7765 -0.4674
 4280SOL    HW224474   3.959   4.098   9.273  0.1187  0.5435 -0.7585
 4281SOL     OW24475   1.512   3.179   6.188 -0.1177  0.1255 -0.0780
 4281SOL    HW124476   1.484   3.095   6.152 -0.7185  0.5639 -0.6350
 4281SOL    HW224477   1.446   3.244   6.167 -1.0766 -0.6316  0.5992
 4282SOL     OW24478   1.999   4.555  15.108  0.2239 -0.0347 -0.5343
 4282SOL    HW124479   2.063   4.508  15.055 -0.4713 -1.3670 -0.2159
 4282SOL    HW224480   2.008   4.498  15.185  1.9357 -1.7438 -1.9904
 4283SOL     OW24481   0.976   2.965   0.569  0.1867 -0.5745 -0.1285
 4283SOL    HW124482   0.918   3.019   0.516 -1.0550 -0.9803  0.8057
 4283SOL    HW224483   1.004   3.029   0.634 -0.3750  0.2018 -0.6652
 4284SOL     OW24484   2.309   4.538   7.246  0.8992 -0.2251  0.0604
 4284SOL    HW124485   2.281   4.537   7.154  0.2085  0.6672  0.2640
 4284SOL    HW224486   2.350   4.624   7.255  1.2672 -0.1769 -2.1250
 4285SOL     OW24487   3.881   2.767   6.019  0.2237  0.1725 -0.0537
 4285SOL    HW124488   3.795   2.790   5.983  0.5323  1.4403 -0.0058
 4285SOL    HW224489   3.866   2.754   6.113  1.9924 -2.1107 -0.1012
 4286SOL     OW24490   3.037   2.261  11.733 -0.1586 -0.5541 -0.1510
 4286SOL    HW124491   2.954   2.221  11.756  0.0603  0.1201  1.8285
 4286SOL    HW224492   3.061   2.285  11.823  1.8899  1.4686 -1.2430
 4287SOL     OW24493   2.692   4.531   5.917  0.1727 -0.2773  0.1193
 4287SOL    HW124494   2.629   4.565   5.981  0.8383  2.5414 -0.7029
 4287SOL    HW224495   2.692   4.436   5.927 -1.4873 -0.1604  1.2498
 4288SOL     OW24496   1.693   2.470  11.495 -0.0636  0.2645  0.0920
 4288SOL    HW124497   1.736   2.478  11.410  2.1718  1.5802  1.3587
 4288SOL    HW224498   1.721   2.382  11.521  0.9879  0.6656  0.3153
 4289SOL     OW24499   4.448   0.293   4.630  0.6357  0.3318 -0.0348
 4289SOL    HW124500   4.471   0.229   4.697 -0.8279 -0.3863 -0.2080
 4289SOL    HW224501   4.356   0.266   4.626  0.5634  0.7282 -0.9378
 4290SOL     OW24502   1.789   3.854   3.256  0.6789 -0.4229  0.0011
 4290SOL    HW124503   1.782   3.906   3.336 -0.0454 -0.7410  0.1409
 4290SOL    HW224504   1.729   3.785   3.281 -1.0047  1.1486  0.3213
 4291SOL     OW24505   4.185   3.718  10.776  0.4898 -0.3048  0.6786
 4291SOL    HW124506   4.272   3.756  10.788  0.6507 -1.0829  2.0864
 4291SOL    HW224507   4.183   3.711  10.681  2.6860  2.2625  0.4435
 4292SOL     OW24508   4.689   0.231   9.288 -0.3761 -1.0375  0.6016
 4292SOL    HW124509   4.689   0.310   9.342 -0.5414 -0.1758 -0.6571
 4292SOL    HW224510   4.628   0.178   9.339 -1.0661 -1.8616 -1.0870
 4293SOL     OW24511   2.420   2.713  11.789 -0.2881  0.2772 -0.3575
 4293SOL    HW124512   2.328   2.739  11.780 -0.4964 -0.6687 -0.9859
 4293SOL    HW224513   2.416   2.641  11.726  1.8264  1.1574 -1.5022
 4294SOL     OW24514   4.717   2.522   5.410  0.1277 -0.0725 -0.5425
 4294SOL    HW124515   4.701   2.430   5.392  0.3975 -0.4565  1.1538
 4294SOL    HW224516   4.680   2.531   5.498 -0.3853 -1.4413 -0.6222
 4295SOL     OW24517   1.064   3.597   7.817 -0.2503  0.7123 -0.3368
 4295SOL    HW124518   1.044   3.685   7.786 -0.3382  1.7582  2.6789
 4295SOL    HW224519   0.985   3.581   7.869 -0.2362  0.6763 -0.3261
 4296SOL     OW24520   1.975   3.820  11.483 -0.8326 -0.7490  0.6047
 4296SOL    HW124521   2.002   3.870  11.560 -1.8140 -1.8045  1.6364
 4296SOL    HW224522   2.059   3.793  11.446 -1.8230 -4.1279  0.8156
 4297SOL     OW24523   2.116   0.813  11.879 -0.6014  0.1231  0.0487
 4297SOL    HW124524   2.207   0.843  11.869 -1.2263  2.0607  0.1926
 4297SOL    HW224525   2.113   0.828  11.973 -1.4020 -0.5278  0.1277
 4298SOL     OW24526   2.895   0.207   9.728  0.2737  0.2733 -0.0691
 4298SOL    HW124527   2.807   0.175   9.710 -0.2793  2.0184 -0.4263
 4298SOL    HW224528   2.911   0.155   9.806 -0.0236  1.1000  0.5346
 4299SOL     OW24529   0.254   1.699  16.910 -0.6363  0.4922  0.2161
 4299SOL    HW124530   0.205   1.622  16.879 -0.8192  0.3052  0.9711
 4299SOL    HW224531   0.303   1.663  16.984  0.1129  2.4402  0.6603
 4300SOL     OW24532   3.551   2.235   9.056  0.3415 -0.5431  0.2641
 4300SOL    HW124533   3.618   2.204   9.118  1.7894 -1.2319 -1.6204
 4300SOL    HW224534   3.526   2.147   9.028 -2.6839  0.4810 -0.1752
 4301SOL     OW24535   0.802   2.100   1.438 -0.1548 -0.1163 -0.6829
 4301SOL    HW124536   0.731   2.164   1.449  0.3670  0.9128 -3.4390
 4301SOL    HW224537   0.837   2.113   1.526 -1.8194  1.3531 -0.2408
 4302SOL     OW24538   4.125   3.497   4.887  0.0566 -0.6143 -0.0679
 4302SOL    HW124539   4.199   3.547   4.920 -1.9924  2.0556  0.4854
 4302SOL    HW224540   4.066   3.567   4.857  0.7238  0.7725  1.8313
 4303SOL     OW24541   3.377   1.263   3.166 -0.0073 -0.2973 -0.3575
 4303SOL    HW124542   3.465   1.301   3.170 -0.6292  1.2915 -1.7322
 4303SOL    HW224543   3.344   1.318   3.095  1.4587 -1.4014 -1.8947
 4304SOL     OW24544   2.754   4.021  15.799 -0.3484 -0.1736 -0.1538
 4304SOL    HW124545   2.670   4.038  15.841  0.2700  2.6365 -0.0475
 4304SOL    HW224546   2.808   4.021  15.879  1.5609 -3.4234 -1.4728
 4305SOL     OW24547   3.504   4.335   2.388  0.4073  0.4416 -0.2863
 4305SOL    HW124548   3.448   4.323   2.465  1.7382 -0.5777  0.5309
 4305SOL    HW224549   3.542   4.248   2.372 -1.1079 -0.9212  3.4638
 4306SOL     OW24550   0.328   1.271   7.147  0.0787 -0.0140 -0.0376
 4306SOL    HW124551   0.284   1.310   7.222 -0.1457  0.1457 -0.2501
 4306SOL    HW224552   0.421   1.290   7.158  0.0310  1.3879 -2.0207
 4307SOL     OW24553   0.447   1.721   8.943 -0.1642  0.2180  0.0071
 4307SOL    HW124554   0.523   1.746   8.995 -2.3352  0.7497  2.9268
 4307SOL    HW224555   0.465   1.627   8.936 -0.3929  0.1186  0.8542
 4308SOL     OW24556   1.257   3.369   2.063 -0.7238 -0.0813 -0.1541
 4308SOL    HW124557   1.306   3.336   2.138  0.4393  0.2982 -0.7453
 4308SOL    HW224558   1.207   3.289   2.050 -0.6657 -0.1981  0.3423
 4309SOL     OW24559   3.446   2.675   9.274 -0.4829  0.4454  0.0329
 4309SOL    HW124560   3.470   2.594   9.320  1.4479  0.5472 -0.7871
 4309SOL    HW224561   3.495   2.735   9.331 -0.7957  0.2486  0.5082
 4310SOL     OW24562   0.150   1.378   9.462  0.2687 -0.4981 -0.0809
 4310SOL    HW124563   0.226   1.353   9.514  0.1724 -2.9786 -1.1512
 4310SOL    HW224564   0.092   1.306   9.487  0.6666 -1.0674 -0.8048
 4311SOL     OW24565   1.597   0.173   1.567  0.3054 -0.1307  0.4663
 4311SOL    HW124566   1.624   0.168   1.659  1.5120  0.4930  0.1328
 4311SOL    HW224567   1.625   0.089   1.529  0.2461  0.2212 -0.3556
 4312SOL     OW24568   4.716   3.253   3.660  0.1195  0.0569  0.2457
 4312SOL    HW124569   0.034   3.181   3.689  0.4887  0.7102  1.1438
 4312SOL    HW224570   0.007   3.323   3.718 -0.1213  0.8538 -0.6112
 4313SOL     OW24571   2.449   3.416   6.018  0.3280 -0.4998 -0.5099
 4313SOL    HW124572   2.497   3.482   5.968  0.3566  0.9405  1.4392
 4313SOL    HW224573   2.362   3.443   5.987  0.5696 -0.0309 -0.7709
 4314SOL     OW24574   3.647   3.527   2.539  0.2089  0.3267 -0.1859
 4314SOL    HW124575   3.676   3.537   2.629 -1.3526 -0.7127  0.4238
 4314SOL    HW224576   3.670   3.434   2.528 -0.0083  0.2541 -0.0177
 4315SOL     OW24577   4.091   0.429  10.393 -0.1197  0.0758  0.4996
 4315SOL    HW124578   4.088   0.493  10.464  0.0298 -0.3946  0.9301
 4315SOL    HW224579   4.122   0.474  10.314 -0.7482  0.0870  0.2612
 4316SOL     OW24580   0.099   1.981  14.942 -0.2297 -0.0194  0.0910
 4316SOL    HW124581   0.185   1.968  14.903  0.6520  0.4810  1.9023
 4316SOL    HW224582   0.074   1.890  14.957 -1.3620  0.3357  0.3602
 4317SOL     OW24583   3.409   2.428   8.113 -0.2657  0.2869  0.3273
 4317SOL    HW124584   3.395   2.437   8.207  1.0677  1.2169  0.4321
 4317SOL    HW224585   3.502   2.441   8.095 -0.3763  1.0556  0.3080
 4318SOL     OW24586   3.676   2.431   8.468  0.4322  0.0864 -0.3064
 4318SOL    HW124587   3.714   2.365   8.525  0.0787  0.8872  0.8534
 4318SOL    HW224588   3.756   2.483   8.463  0.7495 -0.4348 -0.6529
 4319SOL     OW24589   2.457   4.455   2.646 -0.4260 -0.0953  0.3156
 4319SOL    HW124590   2.364   4.439   2.664 -0.7743 -0.9711 -2.1969
 4319SOL    HW224591   2.452   4.522   2.578 -0.7727 -0.6559 -0.2165
 4320SOL     OW24592   3.189   0.388   8.212 -0.3519  0.3550  0.0241
 4320SOL    HW124593   3.248   0.458   8.186 -1.1890  1.3555  0.7794
 4320SOL    HW224594   3.217   0.320   8.152  1.1191 -1.4608  2.7940
 4321SOL     OW24595   4.734   1.643   9.716  0.3943 -0.3432  0.0066
 4321SOL    HW124596   0.092   1.648   9.716  0.3803  0.0850 -1.3339
 4321SOL    HW224597   4.703   1.733   9.726 -0.0815 -0.4761 -0.2427
 4322SOL     OW24598   0.819   4.374   5.040 -0.7600 -0.2726 -0.1389
 4322SOL    HW124599   0.728   4.347   5.027  0.4222 -2.8608 -3.0286
 4322SOL    HW224600   0.805   4.458   5.084  2.0791  0.5121 -0.7775
 4323SOL     OW24601   2.238   4.541   2.031 -0.1932  0.2303 -0.4003
 4323SOL    HW124602   2.185   4.563   2.108 -1.6701 -1.5265 -0.9137
 4323SOL    HW224603   2.327   4.531   2.064 -0.4824  0.1508  0.3463
 4324SOL     OW24604   3.028   3.616   4.712 -0.0698 -0.2728  0.2442
 4324SOL    HW124605   2.966   3.659   4.771 -0.5966 -1.6739  0.7137
 4324SOL    HW224606   2.995   3.621   4.622 -0.8761  0.2051  0.5673
 4325SOL     OW24607   0.783   4.027   5.690  0.1304  0.4816 -0.6435
 4325SOL    HW124608   0.854   4.000   5.632 -0.2763 -1.4562 -0.2306
 4325SOL    HW224609   0.829   4.104   5.723 -1.0438  0.4746  1.0316
 4326SOL     OW24610   3.054   0.071   4.986 -0.2873  0.1480  0.1846
 4326SOL    HW124611   3.006   0.070   5.069 -0.8705 -3.8891 -0.2087
 4326SOL    HW224612   3.146   0.063   5.013  0.1611 -0.5635 -1.5697
 4327SOL     OW24613   2.895   0.092   9.966  0.4194  0.0991 -0.2550
 4327SOL    HW124614   2.898   0.004   9.929  2.3828 -0.0044  0.1247
 4327SOL    HW224615   2.964   0.074  10.030 -1.3413  0.0733  1.6277
 4328SOL     OW24616   3.885   3.749  16.617  0.4863 -0.2229  0.1178
 4328SOL    HW124617   3.953   3.711  16.672  0.4066  0.9753  1.0506
 4328SOL    HW224618   3.907   3.699  16.539  0.2945  0.9254 -0.6760
 4329SOL     OW24619   2.315   0.591   1.449  0.0765  0.1509  0.0344
 4329SOL    HW124620   2.351   0.678   1.470  1.3961 -0.2816 -0.4399
 4329SOL    HW224621   2.227   0.613   1.419 -0.6248 -1.0214  1.2691
 4330SOL     OW24622   1.333   2.202  13.455  0.0635  0.2913  0.3147
 4330SOL    HW124623   1.346   2.109  13.474 -1.1624 -0.0335 -0.4522
 4330SOL    HW224624   1.268   2.196  13.385  1.9036  2.7275 -1.5758
 4331SOL     OW24625   0.843   0.408   9.543  0.3842  0.0450 -0.0991
 4331SOL    HW124626   0.753   0.437   9.555  1.8800  4.0698  1.6297
 4331SOL    HW224627   0.886   0.485   9.580 -0.6641 -0.3258  1.8665
 4332SOL     OW24628   0.870   1.979   0.134  0.0639  0.0867  0.5609
 4332SOL    HW124629   0.829   2.033   0.202 -0.9268  0.9859 -0.7517
 4332SOL    HW224630   0.963   1.988   0.155  0.0297 -1.1639  1.2166
 4333SOL     OW24631   1.223   1.463   3.552 -0.2103  0.0516 -0.2399
 4333SOL    HW124632   1.198   1.509   3.632  0.6192 -1.5893  0.9691
 4333SOL    HW224633   1.315   1.443   3.568 -0.4633 -1.0570 -0.1200
 4334SOL     OW24634   2.723   2.084   7.707 -0.3346  0.1964 -0.0162
 4334SOL    HW124635   2.803   2.092   7.655  0.3103 -1.4360  0.7206
 4334SOL    HW224636   2.758   2.047   7.788  3.8601  0.7475 -1.6140
 4335SOL     OW24637   0.950   2.166  10.473  0.0972  0.3044 -0.2257
 4335SOL    HW124638   0.963   2.122  10.389 -2.5139  2.4324 -1.7317
 4335SOL    HW224639   0.974   2.096  10.534  1.6303  0.0071 -1.1880
 4336SOL     OW24640   4.562   1.684  16.772 -0.3970  0.0940  0.2712
 4336SOL    HW124641   4.549   1.658  16.681 -0.0082  0.1747  0.1909
 4336SOL    HW224642   4.540   1.776  16.764  0.1342  0.5122  3.4322
 4337SOL     OW24643   4.072   3.889   3.818 -0.2557 -0.0325 -0.0182
 4337SOL    HW124644   4.131   3.861   3.888  2.7283  2.6610 -1.4290
 4337SOL    HW224645   4.127   3.913   3.743 -0.0345  0.5121  0.3164
 4338SOL     OW24646   4.083   3.804   0.183 -0.6706 -0.2760 -0.2227
 4338SOL    HW124647   4.070   3.840   0.095  2.2771  1.4138  0.0193
 4338SOL    HW224648   4.098   3.884   0.234 -0.1028 -0.1195 -0.6376
 4339SOL     OW24649   3.751   0.227   3.391  0.4411 -0.0156 -0.0224
 4339SOL    HW124650   3.658   0.238   3.368  0.1791  0.2535  1.1442
 4339SOL    HW224651   3.747   0.183   3.477  0.4613 -0.1396 -0.0851
 4340SOL     OW24652   1.499   1.253   0.963  0.9074  0.2332  0.1465
 4340SOL    HW124653   1.444   1.222   0.891 -0.3565  0.2622  1.0890
 4340SOL    HW224654   1.559   1.179   0.968 -1.0544 -1.3732  0.0414
 4341SOL     OW24655   0.891   3.025   7.498 -0.6254  0.1873 -0.5725
 4341SOL    HW124656   0.809   3.001   7.454  0.1843  1.9000 -3.0436
 4341SOL    HW224657   0.873   3.115   7.524  0.8503  0.9365 -2.0885
 4342SOL     OW24658   3.002   1.232   6.825  0.1896  1.0338  0.2999
 4342SOL    HW124659   2.947   1.249   6.749 -0.9605 -1.7623  0.5163
 4342SOL    HW224660   3.055   1.312   6.829 -0.4053  1.5863 -2.8397
 4343SOL     OW24661   4.272   2.387   8.991  0.4370 -0.2796 -0.0762
 4343SOL    HW124662   4.242   2.362   9.078 -0.2871 -1.0680 -0.5593
 4343SOL    HW224663   4.346   2.447   9.005  0.9342 -0.3388 -2.4310
 4344SOL     OW24664   0.836   0.433   4.307 -0.0911 -0.1261 -0.0535
 4344SOL    HW124665   0.876   0.416   4.392  0.1059  3.5938  0.5932
 4344SOL    HW224666   0.828   0.528   4.315 -0.3417 -0.0546 -1.1739
 4345SOL     OW24667   2.514   0.337   4.637 -0.1346 -0.6081 -0.0148
 4345SOL    HW124668   2.445   0.308   4.697  1.4834 -2.8185  0.7929
 4345SOL    HW224669   2.583   0.273   4.654  0.3514 -0.2165 -0.5144
 4346SOL     OW24670   3.484   4.569   3.113  0.5148  0.2905 -0.3009
 4346SOL    HW124671   3.443   4.589   3.198  0.8070 -2.3737  0.4765
 4346SOL    HW224672   3.523   4.654   3.091  2.4199 -1.0703 -2.1442
 4347SOL     OW24673   1.339   3.302  11.425 -0.4926 -0.2363  0.4969
 4347SOL    HW124674   1.360   3.387  11.465 -3.3520  0.4043  0.6534
 4347SOL    HW224675   1.427   3.267  11.412 -1.2270 -1.7574 -0.3350
 4348SOL     OW24676   1.540   1.494   4.973 -0.1047  0.3301 -0.0606
 4348SOL    HW124677   1.586   1.516   4.892  0.5697 -0.6379  0.0537
 4348SOL    HW224678   1.508   1.578   5.006 -2.6198 -0.2244 -1.1136
 4349SOL     OW24679   0.699   4.635   9.697  0.9627  0.1047  0.0153
 4349SOL    HW124680   0.672   4.612   9.785 -2.5257 -3.9443 -2.1332
 4349SOL    HW224681   0.735   4.723   9.706  2.6326 -0.3275 -2.4604
 4350SOL     OW24682   3.494   2.662   0.390  0.0702 -0.4753  0.0704
 4350SOL    HW124683   3.441   2.633   0.317  0.9181 -2.2685  0.1627
 4350SOL    HW224684   3.499   2.583   0.445  0.1032  0.7127  1.7944
 4351SOL     OW24685   3.178   2.448  13.611  0.6361  0.6095 -0.1647
 4351SOL    HW124686   3.141   2.535  13.624 -0.1333  0.3240 -0.4868
 4351SOL    HW224687   3.208   2.426  13.699  0.8917 -0.6850 -0.5761
 4352SOL     OW24688   4.452   1.148   3.245 -0.3074 -0.6489 -0.1407
 4352SOL    HW124689   4.382   1.128   3.183 -0.6203 -0.1457  0.0533
 4352SOL    HW224690   4.506   1.190   3.178 -2.0217 -0.3916 -1.3587
 4353SOL     OW24691   1.653   0.130   3.196  0.0759 -0.2214  0.0953
 4353SOL    HW124692   1.571   0.168   3.163 -1.1415  0.4898  3.8788
 4353SOL    HW224693   1.726   0.170   3.150  0.5359  2.0265  2.7965
 4354SOL     OW24694   3.654   3.626   0.536  0.4553 -0.6621 -0.6107
 4354SOL    HW124695   3.578   3.662   0.491 -1.1349 -0.7909  2.0125
 4354SOL    HW224696   3.615   3.587   0.614 -0.5015  1.3322 -0.0959
 4355SOL     OW24697   3.082   0.062   3.468  0.3730 -0.1290  0.0718
 4355SOL    HW124698   3.122   4.730   3.520  2.0674 -1.8534 -3.5132
 4355SOL    HW224699   3.055   0.130   3.529  1.2504  0.7410 -0.5108
 4356SOL     OW24700   0.921   0.688   4.294 -0.0109  0.2664  0.5384
 4356SOL    HW124701   0.899   0.776   4.266 -0.4263  0.0228  0.0917
 4356SOL    HW224702   0.998   0.674   4.238 -0.8520 -0.0742 -0.5503
 4357SOL     OW24703   4.348   4.209   9.809  0.2837  0.2850 -0.0326
 4357SOL    HW124704   4.427   4.261   9.797  0.5069  0.0214  0.2853
 4357SOL    HW224705   4.360   4.178   9.899 -0.9599 -1.4511 -0.4705
 4358SOL     OW24706   1.245   4.272  16.289  0.0997  0.2455 -0.2214
 4358SOL    HW124707   1.211   4.342  16.344 -0.4990 -0.6201  0.5051
 4358SOL    HW224708   1.196   4.195  16.317 -0.5138  0.0983 -1.7104
 4359SOL     OW24709   2.898   0.451   7.253 -0.3571  0.7311  0.0123
 4359SOL    HW124710   2.831   0.519   7.249  0.0179  1.1515  0.8971
 4359SOL    HW224711   2.902   0.428   7.346 -1.3824 -0.2471 -0.1882
 4360SOL     OW24712   3.647   4.357  14.133 -0.2929  0.6869 -0.3621
 4360SOL    HW124713   3.582   4.391  14.072  0.6205 -2.8139 -3.3667
 4360SOL    HW224714   3.615   4.410  14.205 -0.0621  1.6744 -0.9778
 4361SOL     OW24715   1.185   0.572  13.473 -0.6190 -0.5907 -0.4405
 4361SOL    HW124716   1.106   0.591  13.524 -0.6305  0.8300 -1.0038
 4361SOL    HW224717   1.237   0.560  13.552 -1.0071 -1.3543 -0.2969
 4362SOL     OW24718   2.510   2.740  14.223  0.2233  0.0207  0.0415
 4362SOL    HW124719   2.516   2.645  14.223  0.1666  0.0225  2.3679
 4362SOL    HW224720   2.510   2.751  14.128  1.6731  0.1226  0.0667
 4363SOL     OW24721   0.833   0.474   3.202 -0.0003  0.0535  0.0034
 4363SOL    HW124722   0.918   0.516   3.216  0.0067 -0.3900  1.2949
 4363SOL    HW224723   0.830   0.478   3.107 -0.8100 -1.8671 -0.0352
 4364SOL     OW24724   1.164   2.115   6.001 -0.6469  0.0167  0.3016
 4364SOL    HW124725   1.145   2.085   6.089  2.2183 -0.3460  0.8204
 4364SOL    HW224726   1.179   2.034   5.952 -0.1986  0.0441  0.3849
 4365SOL     OW24727   1.342   4.125  17.186  0.0936  0.3203  0.4685
 4365SOL    HW124728   1.401   4.196  17.162  0.5188 -0.4684 -0.8376
 4365SOL    HW224729   1.394   4.053  17.150 -0.0103  0.0456  0.8646
 4366SOL     OW24730   2.372   3.245   3.130 -0.1908 -0.2395  0.0301
 4366SOL    HW124731   2.307   3.261   3.062 -0.3632 -0.2698  0.1888
 4366SOL    HW224732   2.391   3.334   3.158 -4.5407  0.0401  1.9953
 4367SOL     OW24733   4.608   3.537   2.657  0.0063  0.1884  0.5568
 4367SOL    HW124734   4.683   3.597   2.659 -0.2048  0.4825 -0.1984
 4367SOL    HW224735   4.636   3.491   2.736 -0.5787  0.2050  0.7711
 4368SOL     OW24736   1.563   1.214  12.679  0.5564 -0.1158 -0.1271
 4368SOL    HW124737   1.472   1.208  12.652  0.8726  3.1360 -1.9524
 4368SOL    HW224738   1.580   1.120  12.687  1.2933 -0.1257 -1.7268
 4369SOL     OW24739   3.805   3.334  17.117 -0.0138 -0.1457 -0.3064
 4369SOL    HW124740   3.727   3.315  17.064 -1.3834  4.9659 -0.0581
 4369SOL    HW224741   3.868   3.280  17.069 -0.0636  0.7978 -1.4514
 4370SOL     OW24742   1.392   3.773   1.635 -0.4388  0.1365  0.3292
 4370SOL    HW124743   1.440   3.727   1.567 -0.3406  1.1965 -0.3193
 4370SOL    HW224744   1.388   3.860   1.594 -0.1573  0.3714  0.8000
 4371SOL     OW24745   0.845   1.626   6.960  1.1355 -0.8019  0.1481
 4371SOL    HW124746   0.773   1.674   7.000  0.6988 -1.3220 -0.0268
 4371SOL    HW224747   0.848   1.689   6.888 -2.2665 -0.4623  0.3020
 4372SOL     OW24748   3.936   2.033   2.268 -0.1224 -0.7817 -0.0500
 4372SOL    HW124749   3.889   2.082   2.201  1.7438 -0.8822 -1.4564
 4372SOL    HW224750   3.860   2.007   2.319 -0.9860 -0.6799 -1.2908
 4373SOL     OW24751   2.870   4.720   7.791  0.1353 -0.3166  0.4077
 4373SOL    HW124752   2.914   0.067   7.797 -0.1966 -0.1146  0.0227
 4373SOL    HW224753   2.929   4.660   7.837 -0.6451 -0.4210  1.2624
 4374SOL     OW24754   3.904   0.085   2.355  0.4177 -0.4659  0.3487
 4374SOL    HW124755   3.894   0.099   2.261  1.6261 -1.9190  0.0135
 4374SOL    HW224756   3.999   0.083   2.367  0.5754 -1.4561 -1.1317
 4375SOL     OW24757   4.068   0.222   9.237  0.6720 -0.7633 -0.2616
 4375SOL    HW124758   4.110   0.141   9.267  2.1974 -0.3550 -1.3254
 4375SOL    HW224759   4.146   0.271   9.211  0.4821 -1.4421 -2.1120
 4376SOL     OW24760   0.661   2.065   9.188  0.2758  0.4664 -0.4661
 4376SOL    HW124761   0.644   2.111   9.271  0.8748  2.6940 -1.5815
 4376SOL    HW224762   0.591   2.100   9.133 -2.3413 -1.7524  1.4450
 4377SOL     OW24763   2.434   1.515   6.781  0.2193 -0.0496 -0.9085
 4377SOL    HW124764   2.362   1.454   6.795  1.2733 -0.9395  0.5302
 4377SOL    HW224765   2.391   1.601   6.785 -0.8055 -0.6293  0.4659
 4378SOL     OW24766   0.067   0.655   0.820 -0.1431  0.0041  0.1481
 4378SOL    HW124767   0.076   0.674   0.914 -0.7062 -1.4932  0.5081
 4378SOL    HW224768   0.017   0.573   0.822  0.1257 -0.1680 -0.1541
 4379SOL     OW24769   3.641   2.073   8.113  0.0775 -0.0644 -0.7871
 4379SOL    HW124770   3.678   1.988   8.136  0.0623  0.2812  0.5215
 4379SOL    HW224771   3.702   2.128   8.162  0.1747  1.2788 -2.4080
 4380SOL     OW24772   0.338   3.026   2.385  0.0324 -0.8998 -0.0021
 4380SOL    HW124773   0.262   2.972   2.405 -1.6913  1.9489  1.1524
 4380SOL    HW224774   0.306   3.107   2.424 -0.1507 -1.3062  0.6849
 4381SOL     OW24775   0.381   0.188  11.407 -0.2457 -0.0188 -0.1844
 4381SOL    HW124776   0.317   0.150  11.468  1.2349 -1.4366  0.4859
 4381SOL    HW224777   0.450   0.221  11.463  1.5661 -4.3220  0.1387
 4382SOL     OW24778   2.246   3.469   2.364  0.3720 -0.1880  0.4159
 4382SOL    HW124779   2.200   3.553   2.356  1.3249  0.2387 -0.5633
 4382SOL    HW224780   2.338   3.488   2.345 -0.2030  0.4277 -1.8146
 4383SOL     OW24781   4.609   2.383  16.959 -0.0930 -0.0362  0.3917
 4383SOL    HW124782   4.547   2.336  16.904  1.0385 -1.0853  0.0066
 4383SOL    HW224783   4.561   2.393  17.041  0.8446 -0.0233  0.9437
 4384SOL     OW24784   3.353   0.146   8.095 -0.8436  0.4452  0.4707
 4384SOL    HW124785   3.303   0.067   8.073 -1.3603  0.6478  0.9032
 4384SOL    HW224786   3.432   0.134   8.043 -1.5091  1.6028 -0.7914
 4385SOL     OW24787   3.678   2.958   4.154 -0.0791 -0.0619  0.4760
 4385SOL    HW124788   3.650   3.006   4.076  1.9553 -0.3288 -0.4433
 4385SOL    HW224789   3.595   2.939   4.197  1.5900 -0.7319  3.4466
 4386SOL     OW24790   1.040   0.076   9.281 -0.2000 -0.0779 -0.3146
 4386SOL    HW124791   0.957   0.093   9.325  0.1265 -0.7263  0.5533
 4386SOL    HW224792   1.037   0.152   9.223 -3.4358 -0.5254 -0.7248
 4387SOL     OW24793   1.350   0.797   5.723  0.4047  0.2482 -0.5518
 4387SOL    HW124794   1.331   0.714   5.767 -0.1382 -0.1968 -1.6568
 4387SOL    HW224795   1.353   0.856   5.799 -1.9259  0.1865 -0.4142
 4388SOL     OW24796   1.882   0.742   4.485 -0.7395 -0.7875 -0.2039
 4388SOL    HW124797   1.804   0.703   4.523  0.0617 -0.5483  1.6775
 4388SOL    HW224798   1.944   0.764   4.555 -0.2972 -2.9368  0.0955
 4389SOL     OW24799   3.860   2.186   6.557 -0.1538 -0.1353 -0.0552
 4389SOL    HW124800   3.860   2.106   6.505  1.5038  0.6405 -1.2615
 4389SOL    HW224801   3.925   2.230   6.502 -0.3314  1.3637  0.9406
 4390SOL     OW24802   0.315   3.579   2.728 -0.5851  0.5233  0.1206
 4390SOL    HW124803   0.311   3.485   2.710  0.3305  0.5245 -0.0761
 4390SOL    HW224804   0.410   3.591   2.737 -0.2323 -0.5650 -2.1268
 4391SOL     OW24805   2.406   1.662   8.046 -0.1342  0.1460 -0.5714
 4391SOL    HW124806   2.437   1.593   8.104  0.5338 -0.9781 -2.2630
 4391SOL    HW224807   2.382   1.734   8.104  1.1613  0.2785 -0.1909
 4392SOL     OW24808   3.007   2.033  13.883  0.5468 -0.5605 -0.2907
 4392SOL    HW124809   3.073   1.994  13.941 -0.2528 -0.3587  0.7536
 4392SOL    HW224810   3.018   2.127  13.892 -0.1070 -0.6975  1.9608
 4393SOL     OW24811   2.133   3.075   5.705  0.1293  0.2754  0.3154
 4393SOL    HW124812   2.093   2.992   5.680 -1.0710  1.1722 -0.7200
 4393SOL    HW224813   2.138   3.070   5.800  0.2026  0.9223  0.3487
 4394SOL     OW24814   3.081   3.591  10.688  0.1170  0.7716  0.2711
 4394SOL    HW124815   3.031   3.557  10.613 -0.7347 -0.7991  1.5585
 4394SOL    HW224816   3.092   3.514  10.743 -2.3508 -1.0505 -1.7999
 4395SOL     OW24817   0.415   4.091   1.701  0.2689  0.2004  0.3648
 4395SOL    HW124818   0.439   4.091   1.609 -0.4041  0.4119  0.1883
 4395SOL    HW224819   0.478   4.026   1.732  0.9446  0.8042  0.2383
 4396SOL     OW24820   0.343   0.779  12.634 -0.2181 -0.2671 -0.1926
 4396SOL    HW124821   0.321   0.868  12.607 -2.0781 -0.8217 -0.5870
 4396SOL    HW224822   0.438   0.781  12.641 -0.3696  1.6190  1.1538
 4397SOL     OW24823   2.925   0.078   4.743  0.1428 -0.0642  0.1841
 4397SOL    HW124824   2.969   0.080   4.828  0.6458  1.8121 -0.1368
 4397SOL    HW224825   3.002   0.093   4.688  0.8854  0.8370  1.4954
 4398SOL     OW24826   4.271   0.920   2.166  0.0862  0.5955 -0.4181
 4398SOL    HW124827   4.259   0.827   2.184 -0.8854  0.3386 -2.3442
 4398SOL    HW224828   4.184   0.955   2.183  0.0184  0.9511 -1.4819
 4399SOL     OW24829   0.386   0.720  10.061 -0.3889  0.0720  0.8290
 4399SOL    HW124830   0.455   0.672  10.015 -0.1427 -0.7304  2.0540
 4399SOL    HW224831   0.442   0.754  10.131  0.3799  0.5773 -0.0284
 4400SOL     OW24832   2.365   0.701  11.353  0.0477 -0.2591 -0.7863
 4400SOL    HW124833   2.377   0.696  11.448  0.9974 -1.3623 -0.9693
 4400SOL    HW224834   2.348   0.794  11.336  0.2170  0.0231  0.5476
 4401SOL     OW24835   1.753   3.451  11.306 -0.2940 -0.0389  0.1753
 4401SOL    HW124836   1.747   3.402  11.388 -0.2447 -1.6614 -0.7939
 4401SOL    HW224837   1.845   3.439  11.283 -0.7625 -2.3932 -0.4953
 4402SOL     OW24838   4.438   1.481   3.735 -0.3313  0.6335  0.7164
 4402SOL    HW124839   4.504   1.441   3.678 -0.5648  1.2590  0.0054
 4402SOL    HW224840   4.435   1.570   3.701  1.2756  0.3475 -0.1988
 4403SOL     OW24841   2.910   2.296   8.858  0.0054  0.2011  0.0037
 4403SOL    HW124842   2.913   2.208   8.893 -2.4255 -1.1083 -3.0500
 4403SOL    HW224843   2.830   2.284   8.806 -0.8087  1.7962  0.8840
 4404SOL     OW24844   2.757   1.568   2.707 -0.6498  0.1647  0.2107
 4404SOL    HW124845   2.687   1.574   2.642  1.6729 -0.7547 -2.3677
 4404SOL    HW224846   2.744   1.476   2.729 -0.3044 -0.1456 -0.9229
 4405SOL     OW24847   2.382   4.326   8.557  0.4903 -0.2727  0.3879
 4405SOL    HW124848   2.474   4.354   8.552  0.4537 -0.5549 -2.0275
 4405SOL    HW224849   2.396   4.232   8.549  2.4098 -0.3102  4.1609
 4406SOL     OW24850   3.545   2.339  11.244  0.1074 -0.2816  0.6430
 4406SOL    HW124851   3.586   2.413  11.200 -1.6919  1.0285  1.1711
 4406SOL    HW224852   3.465   2.344  11.192  0.3195  2.5393  0.5941
 4407SOL     OW24853   1.096   1.112  16.739  0.3201  0.3662  0.2398
 4407SOL    HW124854   1.043   1.170  16.683  0.9626  0.4016 -0.3348
 4407SOL    HW224855   1.182   1.120  16.698  0.5822 -0.1202  0.6919
 4408SOL     OW24856   3.875   3.319  15.411  0.0718 -0.1554  0.1989
 4408SOL    HW124857   3.922   3.395  15.444 -1.6843  0.3078  1.6327
 4408SOL    HW224858   3.802   3.361  15.367  1.0333  0.5965 -0.6603
 4409SOL     OW24859   2.571   1.463   0.559  0.4005  0.1401  0.1505
 4409SOL    HW124860   2.544   1.555   0.567  0.6152  0.1983  0.1892
 4409SOL    HW224861   2.568   1.447   0.464 -0.3914  0.3463  0.1350
 4410SOL     OW24862   0.445   1.268   0.304 -0.5324  0.6591 -0.4606
 4410SOL    HW124863   0.416   1.357   0.320  0.2629  0.4039  2.3865
 4410SOL    HW224864   0.393   1.250   0.226 -2.0126 -1.6956  1.0633
 4411SOL     OW24865   0.849   3.342   8.577 -0.3855 -1.3979  0.0218
 4411SOL    HW124866   0.915   3.328   8.645  1.9793  0.8641 -1.8248
 4411SOL    HW224867   0.895   3.399   8.515 -0.5850 -1.6235 -0.3327
 4412SOL     OW24868   0.251   4.509   5.081 -0.1252  0.0051  0.0618
 4412SOL    HW124869   0.261   4.421   5.118 -3.8242 -0.3478  0.2398
 4412SOL    HW224870   0.209   4.488   4.997 -2.3637 -0.2029  1.2296
 4413SOL     OW24871   3.622   3.594  16.606  0.1374 -0.3931  0.6522
 4413SOL    HW124872   3.565   3.516  16.607  1.3690 -1.2722  2.7247
 4413SOL    HW224873   3.707   3.566  16.573 -0.1357  0.0841 -0.4377
 4414SOL     OW24874   3.489   0.690   3.093  0.1386 -0.0808 -0.7433
 4414SOL    HW124875   3.548   0.751   3.137  0.6506 -0.5871 -0.7282
 4414SOL    HW224876   3.452   0.636   3.162 -0.0810  1.3355  0.2614
 4415SOL     OW24877   3.365   0.718   7.883 -0.5170  0.2328  0.0252
 4415SOL    HW124878   3.287   0.728   7.827 -0.9121 -2.3878  0.0989
 4415SOL    HW224879   3.382   0.812   7.873  2.5118 -0.5208 -1.8784
 4416SOL     OW24880   4.220   1.480   4.457  0.1127  0.4776 -0.2559
 4416SOL    HW124881   4.180   1.540   4.519  0.0647  1.6382 -1.4018
 4416SOL    HW224882   4.274   1.532   4.397 -1.7317  0.9355 -1.5221
 4417SOL     OW24883   1.486   3.568   9.003  0.0878 -0.1911 -0.4867
 4417SOL    HW124884   1.400   3.592   8.971 -0.2050  0.6082  0.9112
 4417SOL    HW224885   1.473   3.577   9.098 -0.9764  3.0097 -0.9385
 4418SOL     OW24886   0.155   0.842   2.467 -0.0006  0.0426 -0.5303
 4418SOL    HW124887   0.172   0.749   2.478 -1.5762 -0.4949 -2.6404
 4418SOL    HW224888   0.067   0.859   2.501  1.3414  1.8268  2.0320
 4419SOL     OW24889   3.042   0.822  17.281 -0.3007 -0.1709 -0.2553
 4419SOL    HW124890   2.953   0.810  17.249 -0.4329  2.0682 -0.7064
 4419SOL    HW224891   3.066   0.903  17.237 -2.3669 -0.2150 -1.4434
 4420SOL     OW24892   2.930   3.485  10.489  0.3843 -0.6182  0.2182
 4420SOL    HW124893   2.889   3.545  10.427 -1.6675 -1.6250  0.5811
 4420SOL    HW224894   2.923   3.398  10.451 -0.5426  0.1559 -1.3941
 4421SOL     OW24895   4.620   0.732   3.706 -0.5003  0.6849 -0.4276
 4421SOL    HW124896   4.682   0.700   3.640 -0.5572  2.0103 -1.1230
 4421SOL    HW224897   4.589   0.810   3.659 -1.1556 -0.4328 -1.8746
 4422SOL     OW24898   2.596   3.013   0.943  0.4288 -0.5684 -0.0254
 4422SOL    HW124899   2.619   3.030   0.851 -3.2942  2.9610 -0.2749
 4422SOL    HW224900   2.502   3.029   0.947  0.0550 -3.3734  2.9959
 4423SOL     OW24901   0.224   0.264   3.718  0.5089 -0.4654 -1.1892
 4423SOL    HW124902   0.280   0.322   3.769  0.4587  0.1515 -1.8338
 4423SOL    HW224903   0.164   0.231   3.785  1.8866  2.1639  1.3124
 4424SOL     OW24904   3.258   1.829  17.364 -0.2112 -0.3910 -0.5588
 4424SOL    HW124905   3.162   1.824  17.370 -0.2730 -0.0926 -1.2776
 4424SOL    HW224906   3.268   1.916  17.402  0.3668 -0.4161 -0.6580
 4425SOL     OW24907   4.497   2.436   8.729 -0.9949 -0.5370 -0.1701
 4425SOL    HW124908   4.564   2.394   8.783  0.7129  1.2979 -0.8868
 4425SOL    HW224909   4.460   2.505   8.784  0.1500  0.2960 -0.4480
 4426SOL     OW24910   4.113   2.200   7.294 -0.0688  0.5963 -0.0426
 4426SOL    HW124911   4.043   2.252   7.333 -0.0548  0.1662  0.5632
 4426SOL    HW224912   4.069   2.175   7.213 -0.4636 -3.3663  1.3843
 4427SOL     OW24913   0.880   1.724   9.020  0.1762  0.4570  0.5065
 4427SOL    HW124914   0.794   1.752   9.051 -0.4347  1.4339 -2.1005
 4427SOL    HW224915   0.884   1.774   8.938  3.6605  0.0549  0.4072
 4428SOL     OW24916   2.546   0.360   2.628  0.0539  0.3154 -0.1573
 4428SOL    HW124917   2.598   0.439   2.643  0.6154 -0.1229  0.2231
 4428SOL    HW224918   2.494   0.387   2.552  0.3744 -0.4690 -0.6592
 4429SOL     OW24919   3.870   2.222   4.620 -0.1040  0.1581  0.0408
 4429SOL    HW124920   3.825   2.289   4.568 -0.1087 -0.9433 -1.4010
 4429SOL    HW224921   3.934   2.276   4.665 -1.8269  1.1862  1.2160
 4430SOL     OW24922   2.268   0.653   8.888  0.5399  0.5032  0.6009
 4430SOL    HW124923   2.291   0.658   8.981 -0.8687 -1.6453  1.0793
 4430SOL    HW224924   2.279   0.559   8.877 -0.7351  0.5432 -1.0303
 4431SOL     OW24925   0.602   4.411   0.593  0.1995 -0.5500 -0.4483
 4431SOL    HW124926   0.667   4.480   0.583  0.6036 -0.7401  0.9264
 4431SOL    HW224927   0.636   4.351   0.527  0.7618  0.0166 -0.6673
 4432SOL     OW24928   3.610   4.047   8.432  0.1291  0.3512  0.5423
 4432SOL    HW124929   3.695   4.012   8.460 -0.2767 -0.2661  1.0079
 4432SOL    HW224930   3.601   4.003   8.347 -1.0590  0.3959  0.6508
 4433SOL     OW24931   4.485   3.446   3.296  0.7270 -0.9437  0.3633
 4433SOL    HW124932   4.404   3.459   3.246  1.1384  0.9353  0.2005
 4433SOL    HW224933   4.540   3.511   3.253 -0.0181 -0.3135  0.3739
 4434SOL     OW24934   3.303   1.430  13.410 -0.6626  1.0470 -0.2960
 4434SOL    HW124935   3.329   1.359  13.468  0.3095  1.5134 -0.1573
 4434SOL    HW224936   3.304   1.503  13.473  2.2600  1.1827 -0.5041
 4435SOL     OW24937   3.309   2.073  17.241  0.0537  0.1308  0.2067
 4435SOL    HW124938   3.318   1.979  17.231 -1.4299 -0.1673  1.9204
 4435SOL    HW224939   3.375   2.118  17.187 -0.8585  2.6928  1.2415
 4436SOL     OW24940   4.061   2.615   3.241  0.0589 -0.4646  0.1890
 4436SOL    HW124941   4.154   2.631   3.252  0.2828 -1.0236 -0.8531
 4436SOL    HW224942   4.030   2.692   3.194  2.6703  0.5697  0.1677
 4437SOL     OW24943   4.203   3.796  13.678 -0.1242  0.7919 -0.0946
 4437SOL    HW124944   4.271   3.854  13.711  0.1055  0.1661  0.5479
 4437SOL    HW224945   4.256   3.747  13.615 -0.0832 -0.0098  0.5648
 4438SOL     OW24946   0.466   0.941   5.013  0.0196  0.2546 -0.1455
 4438SOL    HW124947   0.430   1.008   5.071 -0.5698 -0.5996  0.4758
 4438SOL    HW224948   0.386   0.938   4.960  0.6641  0.9439 -1.1345
 4439SOL     OW24949   3.191   3.855   7.038  0.0302 -0.7944 -0.5976
 4439SOL    HW124950   3.207   3.949   7.044  0.7160 -1.0131  1.1026
 4439SOL    HW224951   3.276   3.832   7.075  0.9869  2.1769 -0.9674
 4440SOL     OW24952   2.377   2.948   5.919  0.2928 -0.1297 -0.2105
 4440SOL    HW124953   2.319   3.022   5.937  1.6268  0.3568  2.1164
 4440SOL    HW224954   2.309   2.882   5.908  0.2853 -0.8580  4.0125
 4441SOL     OW24955   3.041   3.012  13.575  0.0203  0.3814  0.1116
 4441SOL    HW124956   3.075   2.926  13.550 -2.4890 -0.6275  0.1541
 4441SOL    HW224957   3.119   3.057  13.607 -0.5578  0.5621  1.2560
 4442SOL     OW24958   1.452   1.432   4.336 -0.9676  0.3074 -0.3807
 4442SOL    HW124959   1.502   1.353   4.358 -0.2315  0.2565 -2.2254
 4442SOL    HW224960   1.525   1.495   4.339 -0.4482 -0.3734  1.6845
 4443SOL     OW24961   1.662   3.324  10.468 -0.3252  0.0698  0.4601
 4443SOL    HW124962   1.648   3.415  10.493 -0.9916 -0.2012  1.0747
 4443SOL    HW224963   1.578   3.278  10.474  1.2275 -2.7609  0.6502
 4444SOL     OW24964   2.071   1.001  16.811 -0.2806 -0.3232  0.3609
 4444SOL    HW124965   2.128   1.049  16.750  0.2932  0.9728  1.9124
 4444SOL    HW224966   2.001   0.965  16.758 -0.0130 -0.1702 -0.0983
 4445SOL     OW24967   0.308   3.844   5.173  0.5795  0.6806  0.2919
 4445SOL    HW124968   0.309   3.787   5.095  2.0313  1.1855 -0.0567
 4445SOL    HW224969   0.374   3.909   5.151  0.4418  0.7973  0.2261
 4446SOL     OW24970   0.339   2.687  12.328 -0.3333 -0.2246  0.5623
 4446SOL    HW124971   0.249   2.710  12.352  0.3236  1.4742  1.3978
 4446SOL    HW224972   0.337   2.591  12.335  1.9179 -0.1353  2.3460
 4447SOL     OW24973   4.715   1.476  10.685 -0.0763 -0.0860 -0.0429
 4447SOL    HW124974   4.663   1.555  10.673 -0.2836 -0.2287 -0.0859
 4447SOL    HW224975   4.640   1.423  10.712 -0.9596 -0.5884 -3.4634
 4448SOL     OW24976   1.000   4.595  12.750 -0.6365  0.1994  0.4315
 4448SOL    HW124977   0.952   4.641  12.681 -2.6654 -1.1103  0.9682
 4448SOL    HW224978   0.970   4.504  12.744 -1.7040  0.5649  0.2102
 4449SOL     OW24979   2.370   2.139   0.968  0.2190  0.0187  0.2921
 4449SOL    HW124980   2.373   2.072   0.900 -3.1952 -0.1830  0.3484
 4449SOL    HW224981   2.349   2.083   1.043  3.6783 -0.0801  1.1790
 4450SOL     OW24982   4.664   3.086   7.714  0.5987 -0.4650  0.2282
 4450SOL    HW124983   4.660   3.181   7.709  1.0779 -0.4079  0.9351
 4450SOL    HW224984   4.592   3.071   7.776  0.0027  0.9029 -0.1335
 4451SOL     OW24985   3.147   2.160   6.082 -0.3067  0.1930  0.0438
 4451SOL    HW124986   3.227   2.136   6.129 -0.5224 -0.3737  0.1204
 4451SOL    HW224987   3.172   2.136   5.992 -0.0540  0.9824 -0.1011
 4452SOL     OW24988   2.522   2.426   6.940  0.1661 -0.1680  0.0629
 4452SOL    HW124989   2.603   2.440   6.990 -1.0047  1.0799  1.5956
 4452SOL    HW224990   2.518   2.515   6.905 -0.4593 -0.2537 -0.0814
 4453SOL     OW24991   1.604   0.544   2.187 -0.0732 -0.3705 -0.0110
 4453SOL    HW124992   1.634   0.617   2.131 -0.3945 -0.3599 -0.1692
 4453SOL    HW224993   1.533   0.521   2.127 -3.1536  1.1762  3.0985
 4454SOL     OW24994   1.992   4.421   0.637  0.1416 -0.2898 -0.7786
 4454SOL    HW124995   2.006   4.362   0.563  1.6525 -1.0364  0.1084
 4454SOL    HW224996   1.989   4.361   0.712 -0.4457 -0.5519 -1.0186
 4455SOL     OW24997   1.581   0.089   7.973  0.7002  0.2907 -0.1758
 4455SOL    HW124998   1.626   0.044   8.044  1.8226 -0.4285 -1.3344
 4455SOL    HW224999   1.546   0.164   8.022 -1.0986 -1.2150  0.8081
 4456SOL     OW25000   3.458   2.807   6.245 -0.0002  0.1731  0.2671
 4456SOL    HW125001   3.413   2.875   6.195 -0.4670  0.4366  1.0303
 4456SOL    HW225002   3.422   2.728   6.204  0.3748 -0.3633  0.9751
 4457SOL     OW25003   3.271   3.384   9.934  0.3170  0.3054  0.0640
 4457SOL    HW125004   3.207   3.414   9.869 -1.2875 -0.5284  1.2579
 4457SOL    HW225005   3.227   3.302   9.956  1.4742 -0.1515  0.6709
 4458SOL     OW25006   2.852   2.910   3.694 -0.1774 -0.0073  0.3681
 4458SOL    HW125007   2.825   2.847   3.628  0.2851 -0.2620  0.4249
 4458SOL    HW225008   2.938   2.935   3.661 -0.2798 -2.5217 -1.7660
 4459SOL     OW25009   1.631   1.091   6.315 -0.0289  0.3787  0.3273
 4459SOL    HW125010   1.554   1.040   6.291 -0.2053  0.2297  1.2107
 4459SOL    HW225011   1.596   1.151   6.381 -0.5026  0.6149 -0.1430
 4460SOL     OW25012   0.043   0.440   3.582 -0.3222 -0.1303  0.1210
 4460SOL    HW125013   4.724   0.427   3.658  0.0815 -1.8334  0.1363
 4460SOL    HW225014   0.123   0.393   3.606 -0.3291  0.7087  1.7740
 4461SOL     OW25015   0.306   3.381   9.881  0.3536  0.6722 -0.3182
 4461SOL    HW125016   0.239   3.330   9.927 -0.3042  1.6877 -0.1418
 4461SOL    HW225017   0.318   3.327   9.802  0.7110  0.3216 -0.0234
 4462SOL     OW25018   4.253   2.982   8.824 -0.0226  0.2190  0.0241
 4462SOL    HW125019   4.232   2.940   8.741  0.4379  0.1583 -0.0604
 4462SOL    HW225020   4.234   2.912   8.885 -0.5574 -0.8073 -1.3174
 4463SOL     OW25021   4.295   0.340   8.052 -0.4109  0.0862 -0.6525
 4463SOL    HW125022   4.341   0.258   8.037 -2.1521 -1.2166  1.1682
 4463SOL    HW225023   4.214   0.316   8.096  0.4163 -1.6099 -0.0471
 4464SOL     OW25024   1.846   1.504   2.391  0.1079  0.5390  0.0471
 4464SOL    HW125025   1.797   1.568   2.441 -1.5117 -0.4799 -0.2265
 4464SOL    HW225026   1.803   1.419   2.403  1.4746 -0.0982  0.4040
 4465SOL     OW25027   3.117   4.413   7.629 -0.0011  0.1411 -0.0217
 4465SOL    HW125028   3.173   4.486   7.604  0.7708 -1.0251 -1.7082
 4465SOL    HW225029   3.178   4.339   7.623 -0.7761 -0.3799 -1.4605
 4466SOL     OW25030   3.614   2.876   4.484  0.7244 -0.6952  0.0749
 4466SOL    HW125031   3.612   2.847   4.393  0.9430  1.4010 -0.5769
 4466SOL    HW225032   3.587   2.795   4.529  0.0809 -0.6669 -0.2520
 4467SOL     OW25033   4.092   1.810   9.439  0.3804  0.6607  0.3309
 4467SOL    HW125034   4.138   1.875   9.492 -1.0228  1.1468  0.9587
 4467SOL    HW225035   4.162   1.780   9.381 -1.2421 -1.6383 -0.4424
 4468SOL     OW25036   1.858   3.184  10.358 -0.4248  0.1111  0.7536
 4468SOL    HW125037   1.903   3.237  10.424  0.3707  0.9407 -0.4479
 4468SOL    HW225038   1.770   3.223  10.357  0.0417  1.1404  0.1117
 4469SOL     OW25039   2.330   0.455   7.532  0.5163 -0.4100  0.1079
 4469SOL    HW125040   2.301   0.377   7.485  0.7284 -1.5789  1.8975
 4469SOL    HW225041   2.295   0.441   7.621  2.6014 -2.2916  0.6402
 4470SOL     OW25042   2.039   1.249   8.219 -0.1240  0.4735 -0.2235
 4470SOL    HW125043   2.088   1.277   8.296 -1.7603  0.2568  0.8867
 4470SOL    HW225044   2.113   1.202   8.180  0.3473  0.5557  0.5650
 4471SOL     OW25045   0.089   4.162   6.726  0.1212 -0.2492 -0.2269
 4471SOL    HW125046   0.079   4.098   6.655  4.1765 -0.9353 -0.1363
 4471SOL    HW225047   0.159   4.216   6.691 -0.2882  0.5890  0.2495
 4472SOL     OW25048   0.261   3.938   2.088  0.9639 -0.0014  0.4218
 4472SOL    HW125049   0.329   4.004   2.076  1.7158 -1.1367 -1.4745
 4472SOL    HW225050   0.282   3.911   2.177 -0.6907  0.0194  0.8200
 4473SOL     OW25051   2.296   2.382   7.141  0.2739  0.5512 -0.0140
 4473SOL    HW125052   2.373   2.394   7.085 -0.1171 -0.8455 -0.8466
 4473SOL    HW225053   2.274   2.291   7.121 -0.0932 -0.0697  3.1938
 4474SOL     OW25054   4.206   2.699  10.050  0.4740  0.5738  0.1354
 4474SOL    HW125055   4.152   2.778  10.059 -1.8700 -0.8558 -1.1534
 4474SOL    HW225056   4.137   2.635  10.030  1.5462 -0.0102 -1.7029
 4475SOL     OW25057   4.109   2.278   6.463 -0.0458  0.6776 -0.0195
 4475SOL    HW125058   4.087   2.301   6.373 -1.5608  2.7350  0.8748
 4475SOL    HW225059   4.205   2.281   6.467 -0.0111 -1.1838  0.5591
 4476SOL     OW25060   0.762   2.904   8.345  0.0352 -0.2807 -0.0884
 4476SOL    HW125061   0.803   2.874   8.264 -1.3346  3.0604 -1.9871
 4476SOL    HW225062   0.706   2.975   8.314  1.7847  1.1852  0.0934
 4477SOL     OW25063   0.881   1.710   6.302 -0.0105 -0.1015  0.1214
 4477SOL    HW125064   0.822   1.689   6.375 -0.2252 -0.1783 -0.0769
 4477SOL    HW225065   0.920   1.623   6.297 -1.4423 -0.6495 -1.1962
 4478SOL     OW25066   1.793   4.281   9.602 -0.1333  0.1792  0.2071
 4478SOL    HW125067   1.763   4.217   9.667 -0.3648  0.2112  0.1302
 4478SOL    HW225068   1.726   4.346   9.623 -0.8528 -0.4016 -0.3131
 4479SOL     OW25069   0.573   4.268   9.267 -0.5786 -0.2212 -0.0544
 4479SOL    HW125070   0.546   4.268   9.175 -0.9567 -1.4586  0.0580
 4479SOL    HW225071   0.617   4.353   9.271 -0.3617 -0.4476  2.4444
 4480SOL     OW25072   0.838   1.257   6.272 -0.4499 -0.2634 -0.4805
 4480SOL    HW125073   0.888   1.247   6.191 -3.2555 -0.5532 -2.1834
 4480SOL    HW225074   0.760   1.304   6.245  0.3592  0.5376 -1.4139
 4481SOL     OW25075   1.976   2.386   3.770  0.6391 -0.6151 -0.1121
 4481SOL    HW125076   1.962   2.355   3.680 -1.0820  1.8969 -0.6972
 4481SOL    HW225077   1.928   2.314   3.810 -1.6330  1.3743  0.7074
 4482SOL     OW25078   0.467   1.759   5.034 -0.4456 -0.0061 -0.0758
 4482SOL    HW125079   0.518   1.679   5.044 -0.9106 -0.3434 -0.4498
 4482SOL    HW225080   0.433   1.763   5.124  0.2167  0.5833  0.1465
 4483SOL     OW25081   3.006   2.528   8.003 -0.1617 -1.0655 -0.1919
 4483SOL    HW125082   3.068   2.556   7.936  1.3439  0.6553  1.9629
 4483SOL    HW225083   3.052   2.556   8.081  1.1374  1.0081 -1.7044
 4484SOL     OW25084   0.176   2.439   6.627  0.3441  0.6096  0.6437
 4484SOL    HW125085   0.116   2.406   6.694  3.2179 -0.7596  2.5282
 4484SOL    HW225086   0.214   2.364   6.581 -0.0883  2.1869 -2.3404
 4485SOL     OW25087   3.551   4.188   8.681  0.3805 -0.0676  0.1310
 4485SOL    HW125088   3.573   4.160   8.592  1.9700  1.8245 -0.0700
 4485SOL    HW225089   3.510   4.274   8.667  0.4776 -0.1049 -0.3980
 4486SOL     OW25090   0.609   1.863   3.559  0.2857  0.2136 -0.0399
 4486SOL    HW125091   0.516   1.883   3.561 -0.1901 -2.0538  0.5744
 4486SOL    HW225092   0.652   1.945   3.536  0.0161  1.0956  2.5765
 4487SOL     OW25093   4.644   2.310   6.167 -0.2450  0.6047 -0.0268
 4487SOL    HW125094   4.684   2.396   6.153 -1.8594  1.0472 -1.8378
 4487SOL    HW225095   4.556   2.344   6.180 -0.6089 -0.8086  1.2187
 4488SOL     OW25096   4.453   1.720   3.615 -0.1344  0.1497  0.0944
 4488SOL    HW125097   4.363   1.704   3.586  0.7167  1.7197 -3.4341
 4488SOL    HW225098   4.466   1.806   3.576 -0.1938  0.2995  0.4046
 4489SOL     OW25099   3.634   1.882   4.203  0.4404 -0.2654  0.0986
 4489SOL    HW125100   3.687   1.830   4.142 -1.8878  1.1831 -3.1891
 4489SOL    HW225101   3.638   1.963   4.152  1.0537 -0.0382  0.5108
 4490SOL     OW25102   4.237   1.833   8.384  0.4322  0.2483 -0.0396
 4490SOL    HW125103   4.305   1.779   8.346 -0.1118  0.3277 -1.1240
 4490SOL    HW225104   4.299   1.866   8.449  0.2101 -2.3874  1.5062
 4491SOL     OW25105   1.473   2.983   1.828 -0.0953 -0.0737  0.2108
 4491SOL    HW125106   1.553   2.983   1.881  0.6585  1.2142 -0.9428
 4491SOL    HW225107   1.424   2.934   1.894  1.3237 -1.0918  0.5360
 4492SOL     OW25108   2.798   2.266   3.575 -0.0627 -0.3612 -0.3043
 4492SOL    HW125109   2.769   2.188   3.622  0.2707 -1.3815 -1.8054
 4492SOL    HW225110   2.807   2.239   3.483  1.0117 -0.9059 -0.0298
 4493SOL     OW25111   4.180   0.183   4.610 -0.3335  0.6473 -0.0825
 4493SOL    HW125112   4.089   0.196   4.636 -0.8024  1.1769 -2.0079
 4493SOL    HW225113   4.191   0.088   4.620  0.5328  0.4769 -2.6737
 4494SOL     OW25114   2.930   1.995   1.754  0.3234 -0.1256  0.7248
 4494SOL    HW125115   2.913   1.901   1.743 -0.0702 -0.0222  0.4586
 4494SOL    HW225116   2.856   2.020   1.809  1.1551  0.5375  1.5233
 4495SOL     OW25117   0.548   2.435   2.252 -0.0375  0.2405  0.0203
 4495SOL    HW125118   0.574   2.453   2.162  1.3269 -2.6331 -0.1611
 4495SOL    HW225119   0.467   2.480   2.274 -0.2277 -0.1594  0.1366
 4496SOL     OW25120   1.920   0.041   5.624 -0.0957 -0.1255  0.3366
 4496SOL    HW125121   1.897   0.132   5.605 -0.6406 -0.1321  0.9539
 4496SOL    HW225122   1.934   0.043   5.719  0.4321 -1.2898  0.2862
 4497SOL     OW25123   2.163   1.480  11.967 -0.0482  0.2735 -0.2789
 4497SOL    HW125124   2.070   1.499  11.973  0.2573  1.7858 -0.4848
 4497SOL    HW225125   2.171   1.394  11.924 -0.7994 -0.3617  0.8764
 4498SOL     OW25126   3.092   0.277   4.105  0.6516 -0.3010 -0.1897
 4498SOL    HW125127   3.118   0.188   4.081  0.4372 -0.5974  0.6626
 4498SOL    HW225128   3.027   0.294   4.037  0.3373 -1.8863 -0.2901
 4499SOL     OW25129   0.562   1.244   5.320 -0.0515  0.1010 -0.1112
 4499SOL    HW125130   0.625   1.253   5.249  0.9819  0.0204  0.7898
 4499SOL    HW225131   0.624   1.243   5.393  0.1383  1.0164 -0.2645
 4500SOL     OW25132   4.014   3.469   6.004  0.3734 -0.1187 -0.0546
 4500SOL    HW125133   3.920   3.461   6.019  0.8822 -2.9082  1.5575
 4500SOL    HW225134   4.041   3.379   6.023 -0.3403 -0.4047 -0.3774
 4501SOL     OW25135   3.898   2.634   1.427  0.5817  0.4231 -0.1655
 4501SOL    HW125136   3.882   2.710   1.372 -0.6949  0.3800  0.1370
 4501SOL    HW225137   3.836   2.570   1.391  0.1688  0.6718  0.1083
 4502SOL     OW25138   2.918   4.432  16.120  0.2958 -0.0631  0.5714
 4502SOL    HW125139   2.884   4.378  16.191 -2.4170  1.2116  0.2505
 4502SOL    HW225140   2.941   4.368  16.053 -0.9194 -0.8281  0.8784
 4503SOL     OW25141   2.365   0.747   2.795  0.4319  0.3436  0.3533
 4503SOL    HW125142   2.388   0.743   2.888  1.9426 -0.0883 -0.0305
 4503SOL    HW225143   2.448   0.786   2.767  0.0284  0.4406 -0.6885
 4504SOL     OW25144   4.331   3.098   6.597 -0.2834  0.1716 -0.1340
 4504SOL    HW125145   4.236   3.104   6.608 -0.3955 -1.0985 -0.4730
 4504SOL    HW225146   4.357   3.189   6.581 -0.4634 -0.2451 -2.7750
 4505SOL     OW25147   2.969   2.909   4.480 -0.4756 -0.5553 -0.4605
 4505SOL    HW125148   3.036   2.967   4.444 -1.1793  0.9399  0.6302
 4505SOL    HW225149   3.029   2.841   4.509 -0.6518 -1.2714 -1.7584
 4506SOL     OW25150   2.087   3.614   5.654  0.3964 -0.2935 -0.8216
 4506SOL    HW125151   2.180   3.618   5.676  0.7745  0.4424 -2.5560
 4506SOL    HW225152   2.046   3.537   5.694 -0.8751  0.3838 -0.8405
 4507SOL     OW25153   0.450   4.538   8.764 -0.4103  0.2732  0.3560
 4507SOL    HW125154   0.503   4.462   8.739 -1.2005  0.0305 -0.5353
 4507SOL    HW225155   0.515   4.604   8.787 -0.0331  0.3887 -1.0811
 4508SOL     OW25156   1.674   2.190   6.200  0.4703  0.7309  1.0861
 4508SOL    HW125157   1.641   2.268   6.244 -1.6000  0.4904 -0.0611
 4508SOL    HW225158   1.751   2.229   6.159  0.3041 -1.6076 -1.4566
 4509SOL     OW25159   0.298   2.380   9.399  0.1205 -0.1069  0.2993
 4509SOL    HW125160   0.376   2.326   9.384 -1.8968 -2.7168 -0.6940
 4509SOL    HW225161   0.331   2.467   9.424 -0.7766  0.4098 -0.3125
 4510SOL     OW25162   2.192   2.138   4.840 -0.4658 -0.4887  0.1495
 4510SOL    HW125163   2.261   2.102   4.784 -1.7459 -1.6790 -0.6880
 4510SOL    HW225164   2.223   2.228   4.850  0.8459 -0.7365 -1.7191
 4511SOL     OW25165   3.916   3.125   3.248 -0.9019 -0.4533  0.1719
 4511SOL    HW125166   3.833   3.093   3.284 -2.2555  2.6213 -0.1579
 4511SOL    HW225167   3.887   3.186   3.179  1.6668  0.0265 -0.4563
 4512SOL     OW25168   1.730   0.941   5.017 -0.6562 -0.8768 -0.0346
 4512SOL    HW125169   1.769   0.980   4.938  0.4325 -0.2285  0.8087
 4512SOL    HW225170   1.704   0.853   4.990 -1.0905 -0.0393 -2.4078
 4513SOL     OW25171   2.360   3.464   4.000 -0.5848  0.2344  0.6621
 4513SOL    HW125172   2.319   3.381   4.028  2.6182 -1.6268 -0.1411
 4513SOL    HW225173   2.284   3.523   4.001 -0.9424 -0.2493  2.6279
 4514SOL     OW25174   2.774   0.227   2.997 -0.2726 -0.3438 -0.1950
 4514SOL    HW125175   2.762   0.243   3.091 -1.1393 -1.3769 -0.1333
 4514SOL    HW225176   2.869   0.236   2.997 -0.1874 -1.2692  1.7328
 4515SOL     OW25177   1.957   0.208   0.559 -0.1694 -0.0848 -0.1574
 4515SOL    HW125178   1.897   0.271   0.598  0.8429  0.6119  0.2795
 4515SOL    HW225179   1.908   0.126   0.551  0.0446 -0.1301 -1.0821
 4516SOL     OW25180   1.662   3.834   7.214  0.0780 -0.0740 -0.2756
 4516SOL    HW125181   1.736   3.777   7.193 -0.1948 -1.5365  2.8506
 4516SOL    HW225182   1.694   3.918   7.180  1.6460 -2.1239 -3.8239
 4517SOL     OW25183   3.466   4.684  10.127 -0.2671  0.0654  0.3249
 4517SOL    HW125184   3.478   4.673  10.221 -0.3747  0.5394  0.3899
 4517SOL    HW225185   3.390   4.627  10.114 -0.7629  0.7474  0.2435
 4518SOL     OW25186   2.204   3.457   8.513  0.4932  0.0109  0.1134
 4518SOL    HW125187   2.131   3.487   8.459 -1.0143 -1.3956  1.3915
 4518SOL    HW225188   2.159   3.454   8.597  0.3264 -0.4751  0.0055
 4519SOL     OW25189   0.577   1.270   1.347  0.7561  0.2834  0.0359
 4519SOL    HW125190   0.636   1.213   1.299 -0.4596 -1.8969  1.1478
 4519SOL    HW225191   0.488   1.237   1.334  0.5487  1.2677 -1.0918
 4520SOL     OW25192   3.679   3.870   6.247  0.4915  0.5015 -0.1120
 4520SOL    HW125193   3.601   3.921   6.222 -0.6148 -0.5476  1.2081
 4520SOL    HW225194   3.748   3.911   6.195 -1.4936  3.8600 -0.1261
 4521SOL     OW25195   4.002   2.597   3.551  0.0850 -0.2875 -0.0817
 4521SOL    HW125196   3.984   2.591   3.644 -1.2164  0.3114 -0.2906
 4521SOL    HW225197   4.069   2.664   3.541 -0.8960  0.7245  0.2194
 4522SOL     OW25198   1.344   0.568  16.503  0.0881  0.1832  0.3700
 4522SOL    HW125199   1.348   0.663  16.516  1.5942  0.0526  0.8319
 4522SOL    HW225200   1.356   0.567  16.408 -2.9793 -0.1181  0.0050
 4523SOL     OW25201   3.321   2.361  11.082 -0.1715 -0.0712 -0.4804
 4523SOL    HW125202   3.315   2.268  11.061  1.4418 -0.1304 -0.6412
 4523SOL    HW225203   3.252   2.373  11.148 -1.9993  2.6527 -2.8883
 4524SOL     OW25204   1.088   3.065   6.756  0.3213  1.0866  0.4730
 4524SOL    HW125205   1.098   3.157   6.781 -1.2732  1.2329  0.5706
 4524SOL    HW225206   1.014   3.070   6.696 -0.9455  3.9236  2.2490
 4525SOL     OW25207   1.873   1.474   1.129 -0.2308  0.5396 -0.4824
 4525SOL    HW125208   1.809   1.511   1.068 -0.4132  0.7390 -0.1680
 4525SOL    HW225209   1.824   1.467   1.211 -0.8348  0.3553 -0.8575
 4526SOL     OW25210   0.742   1.416  16.283 -0.0822 -0.1960 -0.1249
 4526SOL    HW125211   0.676   1.482  16.262  0.0230  0.1123  0.5024
 4526SOL    HW225212   0.676   1.356  16.318  1.6378 -0.9292  1.8559
 4527SOL     OW25213   2.693   1.285  17.074  0.1414  0.0734  0.1447
 4527SOL    HW125214   2.610   1.255  17.110  0.6052  0.3334  1.4455
 4527SOL    HW225215   2.754   1.222  17.115  0.8436  0.8309  0.2616
 4528SOL     OW25216   4.399   3.156  14.813  0.1319  0.4772 -0.4343
 4528SOL    HW125217   4.445   3.076  14.789  2.0001  1.2153  0.6873
 4528SOL    HW225218   4.316   3.122  14.849 -0.2878 -1.5547 -3.2686
 4529SOL     OW25219   0.658   4.315   7.578  0.1218  0.1272 -0.9066
 4529SOL    HW125220   0.670   4.365   7.659 -2.8186  0.1764 -0.5030
 4529SOL    HW225221   0.562   4.312   7.573  0.0042  2.3606 -0.1119
 4530SOL     OW25222   1.761   2.332   2.917 -0.1360  1.0999  0.0873
 4530SOL    HW125223   1.731   2.375   2.997 -0.9409  2.2333 -0.8363
 4530SOL    HW225224   1.718   2.376   2.844 -0.6385 -0.1743 -0.3957
 4531SOL     OW25225   1.274   3.267   3.939 -0.0598  0.0450  0.1486
 4531SOL    HW125226   1.226   3.204   3.884 -0.7173  0.2395  0.4985
 4531SOL    HW225227   1.336   3.206   3.979 -0.6273 -0.3381  0.4505
 4532SOL     OW25228   2.563   4.089  17.459 -0.1787 -0.2416  0.1586
 4532SOL    HW125229   2.648   4.080  17.417  0.9597 -2.4772  2.9502
 4532SOL    HW225230   2.506   4.065  17.386  1.7713 -0.3624 -1.3063
 4533SOL     OW25231   1.515   4.325  17.102 -0.4490 -0.4632 -0.6742
 4533SOL    HW125232   1.542   4.412  17.073 -1.4399 -0.4740 -1.6461
 4533SOL    HW225233   1.584   4.302  17.164  0.9767  0.3875 -1.9498
 4534SOL     OW25234   0.154   4.132   3.278  0.9668 -0.2871 -0.0632
 4534SOL    HW125235   0.242   4.114   3.244  1.2708 -0.4877  0.8444
 4534SOL    HW225236   0.135   4.048   3.318  1.4232  0.1084  0.9762
 4535SOL     OW25237   3.916   0.220   7.598  0.2245 -0.7153  0.4272
 4535SOL    HW125238   3.850   0.218   7.529 -0.7755 -0.7580  1.3823
 4535SOL    HW225239   3.992   0.196   7.546 -0.0131 -0.0802 -0.2111
 4536SOL     OW25240   0.010   2.287   2.494  0.4950 -0.8906 -0.3714
 4536SOL    HW125241   4.674   2.291   2.556  0.6843 -3.9125  0.0314
 4536SOL    HW225242   0.079   2.256   2.552  0.9237  0.5066 -0.1463
 4537SOL     OW25243   4.477   2.405  12.478  0.0579  0.2828  0.2316
 4537SOL    HW125244   4.415   2.428  12.408 -0.9790  0.5528  1.2469
 4537SOL    HW225245   4.441   2.323  12.510 -0.1190 -0.0706 -0.8807
 4538SOL     OW25246   3.358   0.065   1.300  0.9521  0.3611 -0.4957
 4538SOL    HW125247   3.322   0.109   1.223 -0.0023 -0.4889 -0.5391
 4538SOL    HW225248   3.387   0.139   1.352  3.9008  0.6645 -2.5582
 4539SOL     OW25249   2.197   4.251   4.701 -0.4439 -0.3930 -0.4984
 4539SOL    HW125250   2.198   4.198   4.622 -2.1206 -2.1924  0.7104
 4539SOL    HW225251   2.105   4.270   4.720 -0.2749 -0.0229 -0.0385
 4540SOL     OW25252   0.959   0.280   9.052 -0.3345  0.2322  0.2322
 4540SOL    HW125253   0.933   0.371   9.062 -0.0247  0.5724 -2.0157
 4540SOL    HW225254   1.039   0.292   9.001  0.0038 -1.7887  0.2823
 4541SOL     OW25255   3.332   0.190   3.542 -0.2900  0.2850  0.3897
 4541SOL    HW125256   3.268   0.131   3.502 -0.2799  1.6442 -1.6294
 4541SOL    HW225257   3.275   0.247   3.593  0.0416  0.4980  0.5193
 4542SOL     OW25258   1.272   0.535   3.587 -0.0291 -0.1631 -0.2973
 4542SOL    HW125259   1.186   0.525   3.546  0.6969 -2.0010 -1.3702
 4542SOL    HW225260   1.244   0.511   3.675  1.8180 -0.0996  0.3191
 4543SOL     OW25261   3.408   3.121   9.802 -0.1304  0.1137 -0.1789
 4543SOL    HW125262   3.342   3.185   9.776 -0.2827  0.3001  0.6645
 4543SOL    HW225263   3.367   3.084   9.880 -0.0805  1.6958  0.5845
 4544SOL     OW25264   1.432   0.917   2.012  0.7251 -0.5038  0.3407
 4544SOL    HW125265   1.516   0.874   2.024 -0.0142 -1.6175  1.4736
 4544SOL    HW225266   1.374   0.849   2.046 -0.4820  0.6477  0.6051
 4545SOL     OW25267   3.955   2.756   8.086 -0.0453 -0.2260 -0.0256
 4545SOL    HW125268   3.983   2.786   8.173 -2.2247 -0.3091  0.7144
 4545SOL    HW225269   3.871   2.718   8.110 -0.2016  0.2128  0.1289
 4546SOL     OW25270   3.743   3.478   7.380 -0.0466 -0.8493 -0.2434
 4546SOL    HW125271   3.661   3.515   7.412  1.8562  0.8861  2.6373
 4546SOL    HW225272   3.791   3.551   7.341  2.0747 -1.3324  1.4676
 4547SOL     OW25273   2.517   2.475   6.622  0.5998  0.4725 -0.1312
 4547SOL    HW125274   2.471   2.554   6.592  1.6572  0.9102 -0.6328
 4547SOL    HW225275   2.499   2.495   6.714 -0.3469  0.1386 -0.2419
 4548SOL     OW25276   3.446   4.715   7.665 -0.3306 -0.1214  0.4945
 4548SOL    HW125277   3.518   0.012   7.611 -1.7446 -1.0659 -1.9920
 4548SOL    HW225278   3.416   4.636   7.620 -1.0844  0.9030 -0.8049
 4549SOL     OW25279   2.040   0.659  15.605  0.8971  0.5378  0.7637
 4549SOL    HW125280   2.084   0.726  15.552 -0.2228  1.9432  1.6141
 4549SOL    HW225281   1.984   0.630  15.534  0.7128  3.8496 -0.4737
 4550SOL     OW25282   4.625   3.088   5.636 -0.2970 -0.0305  0.0170
 4550SOL    HW125283   4.716   3.117   5.651 -0.0015 -1.3489  0.7780
 4550SOL    HW225284   4.576   3.153   5.686 -1.7318 -0.3831 -0.9582
 4551SOL     OW25285   4.565   1.120  10.879 -0.6692  0.3689  0.0223
 4551SOL    HW125286   4.634   1.095  10.942 -0.8145  0.4345  0.2066
 4551SOL    HW225287   4.596   1.072  10.802 -0.6380 -1.5492  1.2103
 4552SOL     OW25288   2.118   3.849  12.943  0.1492 -0.4867 -0.5973
 4552SOL    HW125289   2.054   3.911  12.908  1.7766  0.1573 -2.4881
 4552SOL    HW225290   2.072   3.816  13.020  0.5832 -1.5041 -0.7700
 4553SOL     OW25291   4.398   4.601   7.112  0.1232 -0.3739  0.0226
 4553SOL    HW125292   4.439   4.521   7.080  0.0512  0.0897 -1.2284
 4553SOL    HW225293   4.360   4.568   7.193  1.8526 -0.1847  0.9095
 4554SOL     OW25294   1.589   3.997   2.759 -0.2910  0.2483  0.0711
 4554SOL    HW125295   1.658   3.962   2.815 -0.1480  0.7207  0.1934
 4554SOL    HW225296   1.588   4.089   2.786  0.3125 -0.0004  0.9510
 4555SOL     OW25297   3.180   3.498   5.378 -0.1802 -0.1345  0.1934
 4555SOL    HW125298   3.195   3.578   5.429 -0.5954  0.0301  0.0583
 4555SOL    HW225299   3.115   3.525   5.313 -0.0948  1.3466  0.7169
 4556SOL     OW25300   1.262   4.610   2.786 -0.0323  0.6527 -0.4213
 4556SOL    HW125301   1.195   4.649   2.730  0.1616 -1.0969 -1.8826
 4556SOL    HW225302   1.343   4.657   2.765  0.7860 -1.3904 -1.8443
 4557SOL     OW25303   1.855   2.305   8.878 -0.9919 -0.0613  0.2115
 4557SOL    HW125304   1.942   2.309   8.838 -0.7326  0.0601  0.7742
 4557SOL    HW225305   1.825   2.393   8.854  2.7501  0.7496 -1.6248
 4558SOL     OW25306   1.365   4.063   6.099 -0.1393 -0.0723 -0.1734
 4558SOL    HW125307   1.277   4.064   6.062 -0.9032 -3.5724  1.5774
 4558SOL    HW225308   1.363   4.151   6.134 -1.2615 -0.1224 -0.1073
 4559SOL     OW25309   3.946   4.596   5.625  0.2106  0.4192 -0.7235
 4559SOL    HW125310   3.851   4.608   5.636  0.0102 -0.4911 -1.5024
 4559SOL    HW225311   3.955   4.500   5.623  0.4879  0.4256  0.1266
 4560SOL     OW25312   1.899   2.725   7.286  0.0659 -0.0652  0.1331
 4560SOL    HW125313   1.967   2.683   7.234 -0.2453 -1.3524  0.7717
 4560SOL    HW225314   1.929   2.720   7.377 -1.1662  1.8946  0.6692
 4561SOL     OW25315   0.017   1.477  11.460 -0.1519 -0.9888 -0.2653
 4561SOL    HW125316   0.003   1.533  11.536  1.1256  0.2141 -0.9075
 4561SOL    HW225317   4.711   1.534  11.396 -1.5996 -1.9878 -0.1766
 4562SOL     OW25318   0.545   1.587  10.563 -0.1793 -0.4139  0.0032
 4562SOL    HW125319   0.571   1.522  10.497  1.1853  0.8589 -0.7053
 4562SOL    HW225320   0.453   1.608  10.545  0.2053 -0.1673 -1.7002
 4563SOL     OW25321   1.988   1.537  10.773 -0.5583  0.1050  0.6913
 4563SOL    HW125322   2.013   1.482  10.699 -0.3399  0.6684  0.3476
 4563SOL    HW225323   2.075   1.572  10.791  0.0001 -0.2940 -1.2149
 4564SOL     OW25324   2.807   2.590  14.154 -0.0844 -0.2156  0.2454
 4564SOL    HW125325   2.795   2.618  14.245  0.5792  0.8656 -0.0039
 4564SOL    HW225326   2.810   2.494  14.153 -0.0590 -0.2398  2.2336
 4565SOL     OW25327   3.432   2.213   6.624 -0.8512  0.4214 -0.3435
 4565SOL    HW125328   3.378   2.277   6.671 -1.7967 -0.6503  0.0237
 4565SOL    HW225329   3.505   2.274   6.613  0.2415 -0.5209  1.5722
 4566SOL     OW25330   1.152   2.412   6.516 -0.0045 -0.0030  0.5261
 4566SOL    HW125331   1.135   2.501   6.486 -0.4880 -0.4377 -0.4769
 4566SOL    HW225332   1.193   2.373   6.439 -1.0545  0.6760 -0.3705
 4567SOL     OW25333   2.342   4.430   8.178  0.0150  0.4897 -0.0261
 4567SOL    HW125334   2.408   4.461   8.240  2.2875  0.5753 -2.5169
 4567SOL    HW225335   2.346   4.334   8.185 -1.6621  0.2846 -1.8920
 4568SOL     OW25336   0.341   0.525   3.520  0.8897 -0.4462 -0.0148
 4568SOL    HW125337   0.391   0.461   3.571 -0.1280 -2.1802 -1.1804
 4568SOL    HW225338   0.411   0.568   3.472 -1.0510  1.3732 -1.2320
 4569SOL     OW25339   2.668   4.493   3.110 -0.3931 -0.3343 -0.4955
 4569SOL    HW125340   2.652   4.504   3.017 -2.1575  1.0405 -0.0186
 4569SOL    HW225341   2.585   4.480   3.156  0.2366  0.2010  0.7862
 4570SOL     OW25342   0.998   0.103  13.260  0.0512 -0.1525 -0.1331
 4570SOL    HW125343   0.973   0.026  13.311 -0.8471  1.2759  1.5583
 4570SOL    HW225344   0.963   0.174  13.313  2.7565  1.1597 -0.1329
 4571SOL     OW25345   2.846   2.650  11.336  0.3121  0.0537  0.1743
 4571SOL    HW125346   2.849   2.570  11.284  0.1350  0.1455  0.0246
 4571SOL    HW225347   2.923   2.636  11.392 -0.0856  1.2084  0.9961
 4572SOL     OW25348   2.426   2.767  10.761 -0.2200  0.5345 -0.1044
 4572SOL    HW125349   2.508   2.719  10.749  0.0027  1.1255 -0.9308
 4572SOL    HW225350   2.381   2.697  10.807 -0.8504  0.7976 -0.3257
 4573SOL     OW25351   2.494   1.490  13.835 -0.3005  0.5134 -0.4610
 4573SOL    HW125352   2.517   1.578  13.863  4.0458 -0.4551 -1.0071
 4573SOL    HW225353   2.467   1.440  13.913  1.9313 -0.8449 -0.5565
 4574SOL     OW25354   1.951   1.638   9.010  0.2304 -0.1153  0.1243
 4574SOL    HW125355   1.873   1.691   9.030 -1.9604 -1.9155 -3.6101
 4574SOL    HW225356   1.978   1.597   9.092  0.8128  2.2884  1.1518
 4575SOL     OW25357   4.363   1.432  14.228  0.0661  0.2469 -0.4866
 4575SOL    HW125358   4.344   1.420  14.135 -0.5589  0.1340 -0.3455
 4575SOL    HW225359   4.273   1.410  14.253 -0.3386  2.1344 -0.2586
 4576SOL     OW25360   3.563   2.869  14.084 -0.9482  0.8773  0.3538
 4576SOL    HW125361   3.579   2.814  14.008 -0.0697  2.0711 -0.3285
 4576SOL    HW225362   3.467   2.865  14.089 -0.9261 -0.9448 -0.7754
 4577SOL     OW25363   0.796   1.245  14.065  0.1502 -0.0068  0.0877
 4577SOL    HW125364   0.739   1.304  14.015 -1.2696  0.9295  2.7799
 4577SOL    HW225365   0.812   1.296  14.144  2.4811  0.0047 -0.3959
 4578SOL     OW25366   3.221   0.839   7.394  0.3287 -0.0975 -0.0586
 4578SOL    HW125367   3.268   0.910   7.350  0.7946 -0.6660 -0.4748
 4578SOL    HW225368   3.175   0.893   7.459 -1.6384 -0.8123 -0.8727
 4579SOL     OW25369   2.172   2.771   5.902  0.0590 -0.8590 -0.3010
 4579SOL    HW125370   2.190   2.716   5.978 -0.9581  1.7790  1.8494
 4579SOL    HW225371   2.078   2.789   5.909  0.1308  0.7950 -3.4580
 4580SOL     OW25372   2.995   4.618   7.067 -0.7263  0.3450  0.7182
 4580SOL    HW125373   3.047   4.611   7.147  1.6317  1.0040 -0.7844
 4580SOL    HW225374   3.013   4.705   7.033 -1.5371 -0.5483 -2.0162
 4581SOL     OW25375   1.203   1.680   9.408  0.5554  0.1069 -0.1738
 4581SOL    HW125376   1.194   1.690   9.313 -1.6329 -1.3380 -0.1125
 4581SOL    HW225377   1.115   1.704   9.436  0.2041 -0.5404 -0.7241
 4582SOL     OW25378   3.150   4.339   3.585 -0.0535  0.3953  0.3970
 4582SOL    HW125379   3.154   4.253   3.626  1.4186  0.2969  0.0242
 4582SOL    HW225380   3.086   4.334   3.514 -2.4874  4.0850  2.3595
 4583SOL     OW25381   1.744   3.804  13.276 -0.8333 -0.5599  0.4260
 4583SOL    HW125382   1.715   3.759  13.355 -0.4319  0.7346  1.3230
 4583SOL    HW225383   1.733   3.895  13.306 -0.1921 -0.3263 -0.0362
 4584SOL     OW25384   0.331   3.325   5.298 -0.1503  0.0111  0.5440
 4584SOL    HW125385   0.303   3.233   5.295 -0.8334  0.2242  0.4528
 4584SOL    HW225386   0.414   3.321   5.251  0.1940  1.8370  1.0314
 4585SOL     OW25387   2.089   2.660   8.039 -0.3850  0.3153 -0.5124
 4585SOL    HW125388   2.012   2.698   8.080 -0.9319  0.2231 -1.4527
 4585SOL    HW225389   2.103   2.730   7.976  1.5896  0.0481 -0.3896
 4586SOL     OW25390   1.031   1.259   2.271  0.0159 -0.4108 -0.3478
 4586SOL    HW125391   0.984   1.319   2.328  0.0661  1.0259 -1.8177
 4586SOL    HW225392   1.081   1.324   2.221 -2.2508 -0.4636 -2.7295
 4587SOL     OW25393   0.138   1.641   2.114 -0.0718 -0.4046  0.3801
 4587SOL    HW125394   0.078   1.714   2.130  0.0423  0.1422 -1.7684
 4587SOL    HW225395   0.083   1.585   2.059 -0.2571 -2.3712  2.5344
 4588SOL     OW25396   4.173   4.204  15.370 -0.7251 -0.1677 -0.0278
 4588SOL    HW125397   4.156   4.225  15.279  0.7875 -0.9367 -0.5023
 4588SOL    HW225398   4.150   4.286  15.412 -1.2758  0.2613 -1.1727
 4589SOL     OW25399   0.213   0.535  12.637  0.5213  0.3920  0.2856
 4589SOL    HW125400   0.259   0.617  12.620  0.3979  0.6372  1.1247
 4589SOL    HW225401   0.224   0.542  12.732 -1.8105 -0.5399  0.6146
 4590SOL     OW25402   0.749   3.162   1.911 -0.2707 -0.3596 -0.4194
 4590SOL    HW125403   0.746   3.101   1.837  1.4093 -1.9705  0.8269
 4590SOL    HW225404   0.710   3.120   1.987  0.6339 -0.5530 -0.0629
 4591SOL     OW25405   0.008   2.906   6.458 -0.1145  0.4797 -0.2143
 4591SOL    HW125406   0.009   2.812   6.473  2.6593  0.8227  1.8698
 4591SOL    HW225407   4.718   2.934   6.546  2.4739 -0.7848  1.0036
 4592SOL     OW25408   0.721   0.560   7.931  0.4090  0.5669 -0.1006
 4592SOL    HW125409   0.669   0.640   7.929 -0.1721  0.1781 -0.5795
 4592SOL    HW225410   0.762   0.565   7.845 -0.2356  1.2402 -0.3709
 4593SOL     OW25411   0.701   4.124   3.035  0.0388 -0.2267  0.2178
 4593SOL    HW125412   0.651   4.056   2.991  0.2425  0.3426 -0.8957
 4593SOL    HW225413   0.658   4.115   3.120 -0.0327 -0.6708  0.1337
 4594SOL     OW25414   4.095   0.586   2.706  0.4899  0.1877  0.2858
 4594SOL    HW125415   4.021   0.530   2.682 -0.1430  0.1877  2.2531
 4594SOL    HW225416   4.043   0.664   2.724 -0.4914 -0.7188  1.3563
 4595SOL     OW25417   2.061   3.125   4.290  0.1437 -0.2399  0.2191
 4595SOL    HW125418   1.998   3.060   4.259  0.9901 -1.1973  0.5210
 4595SOL    HW225419   2.128   3.062   4.318 -1.3524 -0.1415  3.9451
 4596SOL     OW25420   2.101   4.305   6.622  0.3790 -0.2774 -0.3470
 4596SOL    HW125421   2.007   4.312   6.604  0.0204 -1.1553  1.2408
 4596SOL    HW225422   2.136   4.310   6.533  0.4052 -0.9759 -0.3747
 4597SOL     OW25423   1.091   3.812   5.755  0.4637  0.2774 -0.2726
 4597SOL    HW125424   1.066   3.746   5.690  0.0370  0.3976 -0.2314
 4597SOL    HW225425   1.155   3.864   5.707  1.3156 -0.0310  0.5314
 4598SOL     OW25426   4.160   3.900  13.351  0.0455  0.1665  0.2537
 4598SOL    HW125427   4.190   3.913  13.261 -0.0365  0.4373  0.2677
 4598SOL    HW225428   4.087   3.840  13.331 -2.3560  3.9595 -2.2959
 4599SOL     OW25429   3.895   4.234   9.526 -0.5533  0.2294 -0.2666
 4599SOL    HW125430   3.881   4.159   9.584 -3.4497 -0.1447 -1.4417
 4599SOL    HW225431   3.982   4.265   9.552 -0.1198 -0.4966 -0.8865
 4600SOL     OW25432   1.005   0.788  12.682 -0.0617 -0.0626  0.1624
 4600SOL    HW125433   1.084   0.821  12.638  1.9138 -2.3885  1.9332
 4600SOL    HW225434   0.954   0.761  12.606 -1.6835 -1.5182  1.7773
 4601SOL     OW25435   1.670   4.439   0.804 -0.2089  0.1664  0.0053
 4601SOL    HW125436   1.674   4.384   0.726  1.2092  0.1563  0.0855
 4601SOL    HW225437   1.582   4.477   0.799 -1.0137 -1.5284  1.1063
 4602SOL     OW25438   0.776   3.330   1.069 -0.0136  0.3012 -0.3541
 4602SOL    HW125439   0.776   3.349   1.163 -0.3950 -0.5264 -0.1914
 4602SOL    HW225440   0.711   3.260   1.067  0.1241  0.1553  0.7209
 4603SOL     OW25441   1.649   2.169   7.487  0.2183  0.1247  0.1470
 4603SOL    HW125442   1.605   2.099   7.439 -1.2341  1.0900  0.0589
 4603SOL    HW225443   1.580   2.236   7.488  1.0461  0.9700  0.5374
 4604SOL     OW25444   2.549   2.023   2.566  0.2356 -0.1051 -0.0146
 4604SOL    HW125445   2.628   2.073   2.547 -1.2697  1.3791 -2.2503
 4604SOL    HW225446   2.538   2.031   2.661 -2.4922  0.4694 -0.3733
 4605SOL     OW25447   1.497   4.562   4.359  0.0873  0.7976 -0.4478
 4605SOL    HW125448   1.474   4.624   4.291 -0.4605  1.1834  0.0891
 4605SOL    HW225449   1.558   4.504   4.313 -0.3504  0.3052 -0.4058
 4606SOL     OW25450   0.134   0.018  13.589 -0.3332 -0.1097 -0.4000
 4606SOL    HW125451   0.157   4.682  13.532 -0.6907 -2.0483  1.9826
 4606SOL    HW225452   0.044   0.016  13.557 -0.5156  2.3288 -0.0465
 4607SOL     OW25453   2.267   0.702   4.591  0.9652 -0.4016  0.2370
 4607SOL    HW125454   2.316   0.785   4.596 -0.6220  0.5504  0.1833
 4607SOL    HW225455   2.232   0.706   4.681  1.4282  2.0629  0.3139
 4608SOL     OW25456   0.244   0.794   5.829 -0.7093  0.1335  0.5363
 4608SOL    HW125457   0.331   0.831   5.811 -0.9892  0.4819 -0.0992
 4608SOL    HW225458   0.189   0.814   5.753  2.1392 -0.5375 -1.7029
 4609SOL     OW25459   3.248   1.670  12.486  0.4533  0.7487 -0.0634
 4609SOL    HW125460   3.227   1.577  12.481  1.9362  0.3783  0.5891
 4609SOL    HW225461   3.301   1.675  12.565  3.4921  0.7301 -2.0675
 4610SOL     OW25462   0.607   0.357  17.074 -0.5382  0.1813 -0.4347
 4610SOL    HW125463   0.682   0.403  17.037 -1.2329  0.5379 -1.3929
 4610SOL    HW225464   0.642   0.349  17.162 -3.2177 -0.2979  0.5889
 4611SOL     OW25465   0.340   4.684  10.353  0.2109 -0.0406  0.4699
 4611SOL    HW125466   0.341   0.040  10.333 -0.3927  0.2737  1.8718
 4611SOL    HW225467   0.401   4.642  10.293  1.3825  1.5854  0.5087
 4612SOL     OW25468   3.357   3.479   1.563 -0.2403  0.2881  0.2801
 4612SOL    HW125469   3.329   3.410   1.623  0.7546  0.7288  1.2485
 4612SOL    HW225470   3.444   3.502   1.595 -0.6060 -2.7755  3.4066
 4613SOL     OW25471   1.082   4.268   7.178 -0.3353  0.8537  0.2761
 4613SOL    HW125472   1.084   4.271   7.273  2.4684  1.9210  0.1818
 4613SOL    HW225473   0.994   4.233   7.161 -1.1032  1.5713  2.8010
 4614SOL     OW25474   4.728   1.724   4.446  0.8545 -0.2454  0.3339
 4614SOL    HW125475   4.687   1.649   4.487  1.7463 -1.7721 -1.5483
 4614SOL    HW225476   4.692   1.804   4.483 -1.6911  0.1035 -2.9233
 4615SOL     OW25477   1.336   1.278   8.061  0.1514 -0.3325 -0.1764
 4615SOL    HW125478   1.305   1.257   8.149  1.3121 -0.1198  0.2842
 4615SOL    HW225479   1.346   1.373   8.071 -0.4590 -0.4705  1.7201
 4616SOL     OW25480   2.584   1.922   4.506 -0.3903 -0.0155  0.2050
 4616SOL    HW125481   2.574   1.890   4.416 -1.0808  0.7826 -0.0004
 4616SOL    HW225482   2.582   1.839   4.553  0.4393 -0.1492  0.0067
 4617SOL     OW25483   3.752   2.990   7.686  0.1570  0.2777  0.2096
 4617SOL    HW125484   3.817   2.946   7.631 -2.9216 -1.8251 -1.7811
 4617SOL    HW225485   3.668   2.953   7.658  0.3067 -0.6225  0.9740
 4618SOL     OW25486   3.788   1.809   0.895  0.5048  0.3891 -0.3861
 4618SOL    HW125487   3.739   1.808   0.813  0.3623 -1.4519 -0.2815
 4618SOL    HW225488   3.819   1.900   0.899 -0.8278  0.8442 -0.3795
 4619SOL     OW25489   3.830   1.929   9.441 -0.3895  0.0280 -0.4899
 4619SOL    HW125490   3.921   1.902   9.432 -0.2166  1.2990 -2.3227
 4619SOL    HW225491   3.823   1.906   9.534 -2.1236  0.6456 -0.4661
 4620SOL     OW25492   1.233   1.260   6.952 -0.4282  0.2816 -0.1674
 4620SOL    HW125493   1.257   1.243   6.861 -1.1988  0.6785 -0.4494
 4620SOL    HW225494   1.145   1.297   6.944 -1.3032 -1.8572 -0.2664
 4621SOL     OW25495   2.178   0.432   4.421  0.3388 -0.2212  0.4101
 4621SOL    HW125496   2.204   0.493   4.489  2.9859  0.3552 -1.1060
 4621SOL    HW225497   2.241   0.467   4.358  2.1421 -1.7034  1.3945
 4622SOL     OW25498   1.679   1.275   4.431  0.6315 -0.3495 -0.0365
 4622SOL    HW125499   1.609   1.211   4.445  0.9495 -1.0752 -1.7220
 4622SOL    HW225500   1.698   1.293   4.523  2.3061 -1.3706 -0.1855
 4623SOL     OW25501   3.476   2.281  10.166  0.2593  0.8824 -0.2510
 4623SOL    HW125502   3.541   2.350  10.157  0.8423 -0.1581 -3.6998
 4623SOL    HW225503   3.528   2.215  10.213  0.6390  0.1057 -1.7907
 4624SOL     OW25504   4.307   0.520  11.188 -0.1767  0.2139  0.2027
 4624SOL    HW125505   4.363   0.469  11.246 -1.4280  0.3626  1.5509
 4624SOL    HW225506   4.326   0.467  11.111 -1.1261  0.7770 -0.4100
 4625SOL     OW25507   4.686   2.035  16.760  0.0937 -0.0710  0.2123
 4625SOL    HW125508   4.605   1.985  16.749  0.6776 -0.8403 -0.5596
 4625SOL    HW225509   0.007   1.985  16.703  0.1981 -0.5971  0.7943
 4626SOL     OW25510   3.326   3.048   2.450  0.4176  0.0310  0.0229
 4626SOL    HW125511   3.253   3.014   2.398 -0.3233 -1.4265  2.0006
 4626SOL    HW225512   3.398   3.022   2.394 -0.3658 -2.1388 -0.0148
 4627SOL     OW25513   4.033   2.371   3.380 -0.1583 -0.2511 -0.2863
 4627SOL    HW125514   4.029   2.438   3.313 -0.7219 -1.1856 -1.1938
 4627SOL    HW225515   4.017   2.424   3.457  0.0069  0.0191 -0.4395
 4628SOL     OW25516   2.440   4.046   7.953 -0.2064  0.1733  0.0061
 4628SOL    HW125517   2.392   4.018   7.875  0.6498 -0.0412 -0.4420
 4628SOL    HW225518   2.464   4.136   7.930  0.7637 -0.5331 -1.7491
 4629SOL     OW25519   2.600   2.550   3.828  0.6291  0.2736 -0.2762
 4629SOL    HW125520   2.571   2.639   3.842  0.6392  0.2135  0.1169
 4629SOL    HW225521   2.685   2.561   3.785  0.7973 -0.2180 -0.0796
 4630SOL     OW25522   2.424   0.706   9.168 -0.3816  0.2520  0.0482
 4630SOL    HW125523   2.342   0.743   9.200 -0.6156 -0.1344 -0.1130
 4630SOL    HW225524   2.461   0.676   9.251 -2.0252 -0.4616  0.5053
 4631SOL     OW25525   4.364   0.695  15.026  0.0548 -0.1169  0.1052
 4631SOL    HW125526   4.453   0.730  15.020  0.2050 -0.1057  2.5723
 4631SOL    HW225527   4.336   0.752  15.097  1.5329  0.0633  0.5337
 4632SOL     OW25528   4.293   1.194   6.762  0.1864 -0.0430 -0.1393
 4632SOL    HW125529   4.266   1.234   6.845 -0.4870  0.2810 -0.5147
 4632SOL    HW225530   4.305   1.104   6.792 -0.1739 -0.2294 -0.5600
 4633SOL     OW25531   0.823   4.143   7.902  0.2258 -0.8399  0.3180
 4633SOL    HW125532   0.817   4.106   7.990 -1.2620  2.6553  1.6897
 4633SOL    HW225533   0.740   4.190   7.888  1.6076  1.4647 -0.0459
 4634SOL     OW25534   1.458   1.392  12.944 -0.5248 -0.3138 -0.1054
 4634SOL    HW125535   1.480   1.443  13.022 -2.6161 -0.0889  0.3479
 4634SOL    HW225536   1.521   1.430  12.884 -1.8372 -0.0488 -1.2967
 4635SOL     OW25537   0.253   0.924   4.798  0.1956 -0.1522 -0.1523
 4635SOL    HW125538   0.185   0.864   4.768  0.8506 -1.2880  0.5848
 4635SOL    HW225539   0.298   0.937   4.715  0.1409  0.0302 -0.1526
 4636SOL     OW25540   0.151   2.962   9.287  0.2045  0.1910  0.7006
 4636SOL    HW125541   0.108   2.877   9.295  0.5331 -0.1072 -0.7358
 4636SOL    HW225542   0.117   3.007   9.364 -0.6436  1.1017 -0.2030
 4637SOL     OW25543   4.104   2.538  14.192  0.1169  0.3765  0.8177
 4637SOL    HW125544   4.058   2.526  14.109  0.2768  1.8338  0.5250
 4637SOL    HW225545   4.062   2.620  14.219 -1.7853 -0.1448 -0.5581
 4638SOL     OW25546   3.759   2.637   9.234  0.0039 -0.4883  0.5761
 4638SOL    HW125547   3.772   2.543   9.221  0.1124  0.1663 -3.8347
 4638SOL    HW225548   3.679   2.626   9.286 -3.6432  3.5138 -4.2290
 4639SOL     OW25549   3.450   0.078   6.286 -0.3446  0.0948  0.5533
 4639SOL    HW125550   3.413   0.147   6.342 -0.5667  0.8976 -0.5814
 4639SOL    HW225551   3.505   0.031   6.348 -1.8665 -0.7943  1.2169
 4640SOL     OW25552   1.032   1.341   3.393  0.2578  0.2117 -0.1127
 4640SOL    HW125553   1.083   1.385   3.461  0.6496 -1.0815  0.4364
 4640SOL    HW225554   1.091   1.282   3.346  0.7310  0.5814  0.0176
 4641SOL     OW25555   0.482   1.082   9.915 -0.3495  0.1965  0.4557
 4641SOL    HW125556   0.528   1.124   9.842 -0.1678 -0.4163  0.2161
 4641SOL    HW225557   0.536   1.115   9.987 -1.4002  0.5835  1.0706
 4642SOL     OW25558   4.253   0.710  10.831 -0.2623  0.0604  0.6487
 4642SOL    HW125559   4.206   0.627  10.844  0.3919 -0.1864  1.4169
 4642SOL    HW225560   4.329   0.711  10.889  0.0266  0.7665  0.2553
 4643SOL     OW25561   2.256   0.156   4.227 -0.4715 -0.6541  0.8930
 4643SOL    HW125562   2.170   0.183   4.197 -0.1700 -0.5094  0.1511
 4643SOL    HW225563   2.288   0.236   4.269  1.6738 -1.8789  1.6052
 4644SOL     OW25564   1.697   0.532   9.841  0.5172  0.0478  0.1541
 4644SOL    HW125565   1.725   0.623   9.851 -0.0357  0.2461 -0.0989
 4644SOL    HW225566   1.707   0.507   9.933 -0.2579 -0.3512  0.1266
 4645SOL     OW25567   0.458   3.396   8.924  0.4094  0.4422 -0.0110
 4645SOL    HW125568   0.404   3.475   8.924  1.5170  1.1959 -0.4683
 4645SOL    HW225569   0.390   3.334   8.899 -0.3089 -0.0182  3.0441
 4646SOL     OW25570   0.793   0.741   4.539  0.3488  0.1492 -0.1080
 4646SOL    HW125571   0.841   0.716   4.461 -1.1658 -0.6752 -0.7639
 4646SOL    HW225572   0.837   0.819   4.572  1.2145 -0.8665  1.1385
 4647SOL     OW25573   0.575   0.170   6.803 -0.0932  0.6691 -0.1163
 4647SOL    HW125574   0.529   0.091   6.832 -0.3798  1.1053  0.6145
 4647SOL    HW225575   0.506   0.225   6.767 -0.7316  0.0029  0.0968
 4648SOL     OW25576   2.437   3.564   7.733  0.0613 -0.1912 -0.3720
 4648SOL    HW125577   2.352   3.520   7.726  0.1761 -0.7627  1.6260
 4648SOL    HW225578   2.471   3.526   7.814  0.1275 -0.9849 -0.7736
 4649SOL     OW25579   2.879   3.219   0.249  0.2264  0.2324  0.3700
 4649SOL    HW125580   2.960   3.190   0.292  0.0834  0.6363  0.9121
 4649SOL    HW225581   2.905   3.213   0.157 -0.9742 -0.9189  0.1067
 4650SOL     OW25582   3.298   1.406  15.368 -0.1483 -0.7818 -0.4746
 4650SOL    HW125583   3.379   1.424  15.321 -0.3515  0.4915 -0.3590
 4650SOL    HW225584   3.303   1.328  15.423 -1.2648  1.6318  3.1399
 4651SOL     OW25585   1.961   2.400   2.382 -0.6681 -0.2681 -0.5524
 4651SOL    HW125586   2.012   2.437   2.454  0.5167  0.4037 -1.7274
 4651SOL    HW225587   1.888   2.462   2.374 -0.1805  0.4457  0.5255
 4652SOL     OW25588   0.442   3.049   6.013 -0.0534  0.3239  0.2882
 4652SOL    HW125589   0.495   3.087   6.083 -1.5826  0.0481  1.6224
 4652SOL    HW225590   0.483   2.963   6.006  0.1786  0.2658  2.3558
 4653SOL     OW25591   3.490   1.783  14.633  0.4392 -0.1024 -0.1404
 4653SOL    HW125592   3.432   1.854  14.659  1.4119  1.4520 -2.1699
 4653SOL    HW225593   3.496   1.728  14.711 -1.0484 -1.4532 -0.9770
 4654SOL     OW25594   2.823   2.362   2.539  0.0598 -0.0083 -0.6269
 4654SOL    HW125595   2.831   2.390   2.448  0.4410  1.2386 -0.2066
 4654SOL    HW225596   2.832   2.266   2.533 -0.5431 -0.1551  0.8076
 4655SOL     OW25597   4.107   4.565  13.867  0.2266 -0.1669  0.1493
 4655SOL    HW125598   4.025   4.541  13.823 -0.5929  3.2894 -0.1906
 4655SOL    HW225599   4.144   4.608  13.790  1.6205 -0.8119  0.4536
 4656SOL     OW25600   4.164   3.374   6.792 -0.1084 -0.1240 -0.6046
 4656SOL    HW125601   4.147   3.356   6.885  0.1426  1.3952 -0.2639
 4656SOL    HW225602   4.115   3.454   6.777  2.4756  1.5424 -0.0796
 4657SOL     OW25603   3.686   0.401   4.713  0.0861 -0.3561  0.1257
 4657SOL    HW125604   3.692   0.493   4.738  1.2130  0.1399 -1.9264
 4657SOL    HW225605   3.602   0.409   4.667  0.8642  0.6106 -1.1453
 4658SOL     OW25606   1.549   3.011   7.341 -0.0398 -0.4213 -0.1678
 4658SOL    HW125607   1.511   3.044   7.423 -0.2299 -2.0489  0.3898
 4658SOL    HW225608   1.550   3.088   7.283 -0.8574 -1.4254 -1.5167
 4659SOL     OW25609   1.280   0.749  13.025 -0.1281  0.0548  0.4673
 4659SOL    HW125610   1.301   0.657  13.039 -2.2408 -0.5807 -0.5583
 4659SOL    HW225611   1.290   0.754  12.930  1.1258  0.2221  0.6015
 4660SOL     OW25612   2.800   2.893  11.149 -0.2062  0.2536  0.3936
 4660SOL    HW125613   2.825   2.826  11.212  1.0665 -0.1184 -0.5044
 4660SOL    HW225614   2.712   2.924  11.171 -0.8695 -1.3051 -0.1237
 4661SOL     OW25615   0.874   2.398   6.506  0.4960  0.1163  0.0045
 4661SOL    HW125616   0.949   2.354   6.548 -0.6635 -1.0728  0.8531
 4661SOL    HW225617   0.802   2.365   6.560  0.1634  0.3757 -0.2891
 4662SOL     OW25618   2.603   3.028  12.449 -0.3662 -0.4878  0.1705
 4662SOL    HW125619   2.607   2.998  12.358 -2.5665  0.4406 -0.2387
 4662SOL    HW225620   2.663   2.964  12.488  1.0737  0.0162 -1.2065
 4663SOL     OW25621   0.188   4.589   4.476  0.1846  0.1647 -0.1971
 4663SOL    HW125622   0.159   4.500   4.455  0.7966  0.4413 -2.1473
 4663SOL    HW225623   0.169   4.632   4.393  0.8134  0.0253 -0.4085
 4664SOL     OW25624   0.094   3.624   8.689  0.2327  0.6253  0.4758
 4664SOL    HW125625   0.175   3.641   8.641  0.5025 -0.9212  0.3678
 4664SOL    HW225626   0.034   3.630   8.614  2.4277 -0.5069 -1.4080
 4665SOL     OW25627   2.644   0.730   2.352 -1.0179 -0.0871 -0.0998
 4665SOL    HW125628   2.682   0.751   2.267 -0.4045  0.0590  0.2079
 4665SOL    HW225629   2.658   0.814   2.395  0.2575 -0.5360  0.3673
 4666SOL     OW25630   4.375   2.345   6.476 -0.2072 -0.0710 -0.2854
 4666SOL    HW125631   4.380   2.420   6.416 -2.2174 -0.3560 -0.7803
 4666SOL    HW225632   4.416   2.282   6.417 -2.7123  0.4602 -2.5588
 4667SOL     OW25633   4.146   1.442   5.354  0.2181 -0.4506 -0.4413
 4667SOL    HW125634   4.137   1.531   5.387  0.3066 -0.2178 -1.0320
 4667SOL    HW225635   4.155   1.401   5.440  1.5223  0.8625  0.0359
 4668SOL     OW25636   1.725   2.185   4.081  0.1585  0.0145 -0.5838
 4668SOL    HW125637   1.635   2.177   4.110  0.3918  1.5132  0.5415
 4668SOL    HW225638   1.750   2.093   4.090  2.5429  0.9378  2.0343
 4669SOL     OW25639   0.384   1.546   3.759  0.0241 -0.3707  0.0742
 4669SOL    HW125640   0.386   1.544   3.663  0.9827  1.7259  0.0499
 4669SOL    HW225641   0.442   1.622   3.766  0.2174 -0.6050  1.0726
 4670SOL     OW25642   0.296   1.783  12.675 -0.1495 -0.3215 -0.2554
 4670SOL    HW125643   0.285   1.828  12.591  0.9487 -2.3193 -1.4660
 4670SOL    HW225644   0.236   1.838  12.724  1.0008 -0.7650  1.6623
 4671SOL     OW25645   3.471   0.970  17.527  0.6557  0.3654  0.4895
 4671SOL    HW125646   3.436   0.889  17.565  2.7657 -0.3153  0.9667
 4671SOL    HW225647   3.558   0.972  17.566  1.4375 -1.1623 -1.1469
 4672SOL     OW25648   3.838   0.935   7.257 -0.6494 -0.3654 -0.1114
 4672SOL    HW125649   3.911   0.997   7.251 -1.3229  0.3662 -0.7445
 4672SOL    HW225650   3.871   0.855   7.217  0.1440 -1.5797  2.9534
 4673SOL     OW25651   0.595   3.143   6.639 -0.0568 -0.1747 -0.7422
 4673SOL    HW125652   0.517   3.129   6.586 -1.4290  0.8905  1.0175
 4673SOL    HW225653   0.563   3.160   6.727  0.4012 -4.0783  0.2010
 4674SOL     OW25654   2.787   2.156   9.796  0.1121 -0.0204  0.5396
 4674SOL    HW125655   2.769   2.151   9.702 -1.8083 -1.9903  1.0192
 4674SOL    HW225656   2.831   2.241   9.797  2.8457 -1.4292 -0.1050
 4675SOL     OW25657   3.966   2.547   3.799  0.0987 -0.1982 -0.3806
 4675SOL    HW125658   4.040   2.498   3.834  1.1836 -0.1945 -2.6584
 4675SOL    HW225659   3.910   2.553   3.876  0.9319  0.6706  0.1617
 4676SOL     OW25660   3.985   1.221   3.013  0.5126 -0.4485  0.3081
 4676SOL    HW125661   3.989   1.187   2.924 -1.5392  0.3819 -0.1101
 4676SOL    HW225662   4.072   1.200   3.049  0.4008 -1.0507  0.2260
 4677SOL     OW25663   1.135   0.197   8.512 -0.1370  0.1811  0.0401
 4677SOL    HW125664   1.155   0.191   8.605 -1.3019 -0.1128  0.2717
 4677SOL    HW225665   1.220   0.190   8.469 -0.0934 -2.1129  0.5038
 4678SOL     OW25666   1.674   1.568   4.322 -0.1224 -0.2546 -0.2383
 4678SOL    HW125667   1.754   1.570   4.375 -0.4982  1.3418  0.2857
 4678SOL    HW225668   1.709   1.554   4.234  1.6092  1.0344  0.2344
 4679SOL     OW25669   2.488   0.648   4.976  0.0119  0.0789 -0.6609
 4679SOL    HW125670   2.482   0.743   4.986  2.4896  0.1909 -0.2250
 4679SOL    HW225671   2.535   0.637   4.894 -0.0511 -1.8033 -0.4501
 4680SOL     OW25672   2.081   4.027  16.206 -0.8930 -0.5183 -0.3774
 4680SOL    HW125673   2.014   3.999  16.268  0.5414 -3.6073 -0.2679
 4680SOL    HW225674   2.092   3.955  16.144  0.9999 -0.1483 -0.4845
 4681SOL     OW25675   2.844   2.311   2.963  0.3237  0.1746  0.3502
 4681SOL    HW125676   2.913   2.336   3.025  0.6874  1.9405 -0.7765
 4681SOL    HW225677   2.900   2.278   2.893 -0.4507 -0.7994  0.1910
 4682SOL     OW25678   2.866   3.146   5.159 -0.3142  0.6676 -0.1783
 4682SOL    HW125679   2.817   3.197   5.223 -0.7225  1.9070 -1.4759
 4682SOL    HW225680   2.815   3.159   5.079 -1.1883 -1.1745  0.0955
 4683SOL     OW25681   4.518   3.511   8.589  0.4407 -0.5310 -0.1501
 4683SOL    HW125682   4.441   3.498   8.644  1.2950  1.2279  1.4622
 4683SOL    HW225683   4.506   3.435   8.532 -1.8898  1.0243 -1.6870
 4684SOL     OW25684   1.346   3.809  17.512  0.2153 -0.0041 -0.0960
 4684SOL    HW125685   1.292   3.777  17.584 -0.0582 -1.8249 -1.0791
 4684SOL    HW225686   1.301   3.884  17.472 -0.1452 -0.0991  0.1320
 4685SOL     OW25687   1.316   2.071   2.179  0.2068  0.1549  0.6668
 4685SOL    HW125688   1.256   2.145   2.181  0.8383  0.5774  3.2517
 4685SOL    HW225689   1.333   2.063   2.273  0.6638  0.0155  0.5730
 4686SOL     OW25690   3.861   1.278   2.363  0.2057 -0.2300 -0.5830
 4686SOL    HW125691   3.811   1.206   2.401  2.2082 -1.1192  0.3654
 4686SOL    HW225692   3.809   1.348   2.403  0.0721  0.2071 -1.5199
 4687SOL     OW25693   1.598   3.334   5.875 -0.4704  0.8749 -0.0298
 4687SOL    HW125694   1.526   3.350   5.936 -2.3203 -2.8479 -1.2623
 4687SOL    HW225695   1.585   3.245   5.843  1.8618 -1.0187  4.2391
 4688SOL     OW25696   3.905   2.675   5.742 -0.2549 -0.6312  0.1429
 4688SOL    HW125697   3.869   2.689   5.830  0.6634  1.0603  0.2511
 4688SOL    HW225698   3.980   2.622   5.768  0.1483 -0.4281 -0.5873
 4689SOL     OW25699   0.211   0.720   3.353  0.7037  0.0820  0.0105
 4689SOL    HW125700   0.260   0.800   3.335  2.0783 -0.0926  3.0511
 4689SOL    HW225701   0.275   0.658   3.316 -0.4253  1.1515 -3.7910
 4690SOL     OW25702   0.615   3.298   5.259 -0.2673  0.1104 -0.6250
 4690SOL    HW125703   0.587   3.219   5.306  0.7093 -1.5941 -2.9570
 4690SOL    HW225704   0.629   3.364   5.327  2.2131  1.1830 -2.2143
 4691SOL     OW25705   2.588   1.194   5.148 -0.2209 -0.5266  0.0636
 4691SOL    HW125706   2.538   1.217   5.226  2.7985  1.0977  1.5641
 4691SOL    HW225707   2.678   1.204   5.181 -0.2842 -1.3919  0.4928
 4692SOL     OW25708   1.035   2.403   8.844  0.1460 -0.7384  0.1498
 4692SOL    HW125709   1.013   2.315   8.874  0.4785 -1.8507 -2.8822
 4692SOL    HW225710   0.947   2.435   8.825  0.0895  0.3731  2.2032
 4693SOL     OW25711   3.405   2.077   3.874 -0.6803  0.4168 -0.2227
 4693SOL    HW125712   3.337   2.118   3.820 -0.6268  2.1328  0.9993
 4693SOL    HW225713   3.426   1.995   3.830  1.4521  0.7967  0.0839
 4694SOL     OW25714   3.606   0.414   0.886  0.4791 -0.2327 -0.1277
 4694SOL    HW125715   3.680   0.451   0.837  0.2632 -1.1814 -1.1449
 4694SOL    HW225716   3.633   0.324   0.867 -1.4127 -1.2800  2.1836
 4695SOL     OW25717   2.744   0.856   3.976  0.2414 -0.1924 -0.0329
 4695SOL    HW125718   2.770   0.908   3.900 -0.4185  0.5721  0.2621
 4695SOL    HW225719   2.803   0.890   4.044 -1.5151 -0.9230  1.8628
 4696SOL     OW25720   2.713   2.579   9.543 -0.2562  0.1828  0.4855
 4696SOL    HW125721   2.766   2.535   9.609  0.4494 -0.2303 -0.3484
 4696SOL    HW225722   2.664   2.640   9.599 -0.0681  0.7971 -0.0224
 4697SOL     OW25723   2.029   2.981   2.119  0.5474 -0.5758 -0.3004
 4697SOL    HW125724   2.047   2.966   2.027 -1.2827 -0.1985 -0.7115
 4697SOL    HW225725   2.042   2.894   2.157 -1.4670 -0.4613  0.6574
 4698SOL     OW25726   4.089   1.778   1.544  0.4169 -0.0249 -0.1164
 4698SOL    HW125727   4.025   1.767   1.473  0.6510 -2.5294  0.0871
 4698SOL    HW225728   4.077   1.690   1.579  0.7447 -1.0645 -2.6502
 4699SOL     OW25729   0.989   4.081  13.381 -0.3351 -0.5057  0.3639
 4699SOL    HW125730   1.041   4.138  13.438 -0.3537 -1.0647  0.9457
 4699SOL    HW225731   1.030   3.995  13.380 -0.5098 -0.6100  2.5878
 4700SOL     OW25732   0.747   0.307   7.261  0.1510  0.3161  0.7988
 4700SOL    HW125733   0.750   0.329   7.168  1.4910 -0.4423  0.6703
 4700SOL    HW225734   0.697   0.384   7.286  0.6115  1.3186 -1.3879
 4701SOL     OW25735   1.124   0.257   8.117 -0.1348  0.0171 -0.0596
 4701SOL    HW125736   1.105   0.305   8.198 -1.0116  0.3908 -0.4815
 4701SOL    HW225737   1.037   0.260   8.078 -1.0726  0.0217  2.0173
 4702SOL     OW25738   2.745   1.105   7.289 -0.7729  0.5146  0.0966
 4702SOL    HW125739   2.703   1.088   7.373  0.3216  0.7253  0.6879
 4702SOL    HW225740   2.787   1.019   7.283 -1.1416  0.4746 -1.9406
 4703SOL     OW25741   3.231   3.767  13.690  0.3806 -0.3297 -0.4924
 4703SOL    HW125742   3.297   3.715  13.736 -0.1146  0.8817  1.6182
 4703SOL    HW225743   3.275   3.798  13.611 -0.0450 -3.4569 -1.9480
 4704SOL     OW25744   1.791   4.727  14.989  0.3195  0.7423 -0.1426
 4704SOL    HW125745   1.857   0.018  14.926  0.3716  1.0093  0.0351
 4704SOL    HW225746   1.852   4.668  15.035 -2.0636 -2.3693 -0.9720
 4705SOL     OW25747   3.905   0.687   6.084  0.0697  0.1254  0.0526
 4705SOL    HW125748   3.982   0.643   6.119  0.6648  1.9739  1.1048
 4705SOL    HW225749   3.884   0.613   6.027 -1.7058  1.6624 -1.2705
 4706SOL     OW25750   1.363   1.546  11.057 -0.3731  0.1684 -0.0601
 4706SOL    HW125751   1.448   1.580  11.027  0.1646  1.0185  2.4417
 4706SOL    HW225752   1.313   1.627  11.060 -1.3588 -0.4134 -0.8407
 4707SOL     OW25753   2.593   3.271   5.354  0.1829 -0.0234 -0.2031
 4707SOL    HW125754   2.688   3.267   5.368  0.3926 -0.1289 -1.6443
 4707SOL    HW225755   2.556   3.278   5.442 -1.0836  1.2728 -0.8460
 4708SOL     OW25756   4.483   1.119  12.926 -0.5456  0.0240  0.3426
 4708SOL    HW125757   4.531   1.198  12.953  0.7277 -0.0535 -1.6624
 4708SOL    HW225758   4.558   1.061  12.912  0.2207  1.2124 -0.5002
 4709SOL     OW25759   4.092   1.700   7.581  0.2450  0.0792 -0.6955
 4709SOL    HW125760   4.002   1.673   7.566  0.0514  0.2991  0.0724
 4709SOL    HW225761   4.119   1.745   7.501 -0.5619  0.2656 -0.8645
 4710SOL     OW25762   4.705   2.909   7.480  0.5883 -0.3780 -0.2566
 4710SOL    HW125763   4.691   2.966   7.555  0.7883  1.5002 -1.6156
 4710SOL    HW225764   4.671   2.968   7.412  1.8163  1.2116  0.4967
 4711SOL     OW25765   3.753   2.893   2.757 -0.2052 -0.4621  0.2722
 4711SOL    HW125766   3.765   2.978   2.716  1.2117 -0.3804  0.8405
 4711SOL    HW225767   3.837   2.885   2.803 -1.1241 -2.7438  1.5823
 4712SOL     OW25768   0.879   3.130   9.061  0.5596 -0.1421 -0.0715
 4712SOL    HW125769   0.920   3.209   9.025 -1.5816  1.9230  2.0567
 4712SOL    HW225770   0.925   3.069   9.002 -0.0111 -0.5200 -0.1314
 4713SOL     OW25771   0.078   3.985   4.638  0.1869 -0.3890 -0.1511
 4713SOL    HW125772   0.117   3.912   4.589  0.3006 -0.8286  0.5867
 4713SOL    HW225773   0.122   3.979   4.723  1.6684  0.3858 -0.8629
 4714SOL     OW25774   0.674   1.379  12.623  0.8195  0.2201  0.1770
 4714SOL    HW125775   0.670   1.474  12.631  2.5721  0.5535 -2.5829
 4714SOL    HW225776   0.767   1.363  12.643  0.3369 -1.3588  1.1878
 4715SOL     OW25777   3.104   1.298   9.210  0.1215  0.4213 -0.0216
 4715SOL    HW125778   3.162   1.232   9.171  1.0258  0.4862  1.2071
 4715SOL    HW225779   3.066   1.349   9.138 -4.3662 -1.4798  1.0272
 4716SOL     OW25780   3.898   2.339   2.936 -0.4212 -0.8885 -0.2903
 4716SOL    HW125781   3.984   2.315   2.901 -0.3279  0.1957 -0.8126
 4716SOL    HW225782   3.870   2.373   2.851 -0.8653  0.0085  0.2164
 4717SOL     OW25783   4.642   0.890   7.436  0.5955  0.4140 -0.3060
 4717SOL    HW125784   4.670   0.799   7.427  0.5841  0.3263  0.5559
 4717SOL    HW225785   4.611   0.896   7.526 -0.4864  1.5725 -0.7618
 4718SOL     OW25786   2.100   1.937  15.404 -0.6904  0.0659  0.3693
 4718SOL    HW125787   2.182   1.913  15.447  1.3810  2.0568 -2.4043
 4718SOL    HW225788   2.115   2.029  15.382  0.0557  0.3327  2.0099
 4719SOL     OW25789   4.721   3.530   6.012  0.6438  0.4480 -0.3377
 4719SOL    HW125790   0.044   3.555   6.082 -0.1982  1.6103 -0.0187
 4719SOL    HW225791   0.054   3.505   5.953  0.3099  1.9746 -1.3752
 4720SOL     OW25792   4.078   3.860  12.098 -0.9778  0.0470  0.1691
 4720SOL    HW125793   4.068   3.934  12.038 -1.5965 -0.2043 -0.0429
 4720SOL    HW225794   4.109   3.792  12.038  0.8799 -0.1805  1.4020
 4721SOL     OW25795   3.415   2.274  17.543 -0.5993  0.1099 -0.6170
 4721SOL    HW125796   3.491   2.302  17.491 -0.3404 -1.1841 -0.9330
 4721SOL    HW225797   3.361   2.353  17.533 -1.0444  0.0323  1.1690
 4722SOL     OW25798   1.920   0.460   6.239 -0.0664  0.3964  0.6207
 4722SOL    HW125799   1.889   0.396   6.175 -3.4155  0.4147  2.2340
 4722SOL    HW225800   1.836   0.495   6.267 -0.5575 -0.4459  0.1930
 4723SOL     OW25801   1.982   0.112   1.400  0.1818 -0.5432 -0.0840
 4723SOL    HW125802   2.065   0.093   1.444 -1.3680 -0.4671  2.8415
 4723SOL    HW225803   1.948   0.180   1.457 -1.5914 -2.6227  1.3276
 4724SOL     OW25804   1.530   1.484   3.347 -0.1088  0.6354 -0.0886
 4724SOL    HW125805   1.588   1.481   3.271 -1.2433  1.9617 -1.0057
 4724SOL    HW225806   1.554   1.560   3.400 -1.5466  0.4119  0.8588
 4725SOL     OW25807   4.255   3.783   9.352  0.4488 -0.5789  0.1383
 4725SOL    HW125808   4.170   3.748   9.378 -0.3272  0.7965 -0.5123
 4725SOL    HW225809   4.318   3.724   9.393  1.0378  0.4331  0.7133
 4726SOL     OW25810   3.997   1.569  15.326  0.0968  0.6741  0.2917
 4726SOL    HW125811   4.030   1.596  15.240 -1.1478 -0.1389 -0.4456
 4726SOL    HW225812   3.906   1.594  15.309 -0.0019  0.1172 -0.0018
 4727SOL     OW25813   0.830   3.060   4.380  0.2339  0.4571  0.1700
 4727SOL    HW125814   0.836   2.966   4.359 -1.2832 -0.2327  2.7157
 4727SOL    HW225815   0.735   3.070   4.374  0.4604  1.4356 -1.4753
 4728SOL     OW25816   2.105   0.881   8.977  0.0870  0.3438  0.7711
 4728SOL    HW125817   2.151   0.799   8.992  1.5061  0.6102 -2.1733
 4728SOL    HW225818   2.088   0.918   9.063 -1.5640 -0.2680  0.7166
 4729SOL     OW25819   1.229   2.808   7.399 -0.0345  0.5780 -0.4558
 4729SOL    HW125820   1.237   2.872   7.328 -0.8006  2.1362  0.8579
 4729SOL    HW225821   1.173   2.737   7.368 -1.0979  0.8271  0.8952
 4730SOL     OW25822   1.190   1.225   9.171 -0.0681 -0.1449 -1.1513
 4730SOL    HW125823   1.123   1.291   9.151  1.9862  1.6282 -2.1274
 4730SOL    HW225824   1.250   1.218   9.097 -1.2330 -0.9190 -2.0212
 4731SOL     OW25825   3.955   3.743  13.257  0.0981 -0.0218  0.4238
 4731SOL    HW125826   3.923   3.763  13.169 -0.3569 -0.1251  0.5622
 4731SOL    HW225827   3.876   3.707  13.298 -0.3156  1.6052  1.0531
 4732SOL     OW25828   1.771   3.787   5.864  0.3171 -0.0987 -0.0867
 4732SOL    HW125829   1.705   3.809   5.929  1.3934 -0.4037  1.1177
 4732SOL    HW225830   1.728   3.710   5.827  2.5825 -0.7389 -1.3988
 4733SOL     OW25831   2.257   2.087   5.244 -0.2911 -0.3927  0.5893
 4733SOL    HW125832   2.243   2.182   5.250  1.3947  0.0413 -2.2954
 4733SOL    HW225833   2.173   2.044   5.232 -1.0160  1.1173  0.2402
 4734SOL     OW25834   4.127   4.228  15.031 -1.0318  0.2363 -0.0032
 4734SOL    HW125835   4.207   4.264  15.067  1.6804 -3.5495 -2.2627
 4734SOL    HW225836   4.083   4.309  15.005 -1.6888 -0.1648 -0.1451
 4735SOL     OW25837   3.611   4.058   6.561 -0.6951 -0.3335 -0.1405
 4735SOL    HW125838   3.642   3.981   6.610 -1.5422 -1.3275 -1.1470
 4735SOL    HW225839   3.684   4.073   6.501 -0.6536 -3.1925 -0.8310
 4736SOL     OW25840   0.370   0.976  10.249  0.2623  0.7071  0.5660
 4736SOL    HW125841   0.287   0.928  10.249  0.5453  0.2132  0.4309
 4736SOL    HW225842   0.434   0.907  10.261  0.5427  0.8335 -0.1843
 4737SOL     OW25843   4.702   2.911  14.034  0.2946  0.3561 -0.0438
 4737SOL    HW125844   4.643   2.837  14.049 -1.2898  1.4342 -1.0768
 4737SOL    HW225845   4.636   2.970  13.999  1.2678  1.0602 -0.6972
 4738SOL     OW25846   1.374   0.551  10.578 -0.0591  0.8555  0.0932
 4738SOL    HW125847   1.320   0.504  10.642 -1.4609  1.6216 -0.5148
 4738SOL    HW225848   1.338   0.640  10.579  0.6016  1.1260 -0.5489
 4739SOL     OW25849   0.149   4.549   4.041 -0.3447 -0.8015 -0.5482
 4739SOL    HW125850   0.144   4.458   4.011 -0.8591 -0.7258 -0.7047
 4739SOL    HW225851   0.222   4.573   3.984  0.2114  1.4493  1.0799
 4740SOL     OW25852   2.601   4.174  12.213  0.3497  0.0365  0.0214
 4740SOL    HW125853   2.508   4.164  12.234  1.2399 -0.4506  3.6312
 4740SOL    HW225854   2.602   4.247  12.151 -2.2475 -0.9117 -1.1418
 4741SOL     OW25855   3.063   0.556   5.565 -0.5440  0.8096 -0.4107
 4741SOL    HW125856   2.974   0.585   5.586 -0.1195  1.4666  0.5248
 4741SOL    HW225857   3.067   0.468   5.601  0.8577  1.0802  0.1156
 4742SOL     OW25858   2.090   4.207   2.178  0.2378  0.0769  0.4162
 4742SOL    HW125859   2.108   4.300   2.180  3.0623 -0.4307 -2.3300
 4742SOL    HW225860   2.081   4.208   2.083  1.4232 -0.9709  0.2952
 4743SOL     OW25861   3.020   0.353   4.622  0.1668 -0.4294  0.6387
 4743SOL    HW125862   3.087   0.284   4.625 -1.2114 -1.7239  1.1082
 4743SOL    HW225863   2.997   0.363   4.530 -0.6159  2.3487  1.1354
 4744SOL     OW25864   0.174   0.299   3.990 -0.0543 -0.3560 -0.3813
 4744SOL    HW125865   0.236   0.227   3.977  0.0635 -0.1863 -0.7630
 4744SOL    HW225866   0.109   0.254   4.044  1.4165 -0.9776  0.8549
 4745SOL     OW25867   4.568   2.179   4.205 -0.3845 -0.0413  0.1440
 4745SOL    HW125868   4.552   2.116   4.276  2.4764  0.0503  0.8917
 4745SOL    HW225869   4.645   2.137   4.166 -0.6692 -1.7723  1.4261
 4746SOL     OW25870   0.052   3.697  15.807 -0.2716 -0.1214 -0.4716
 4746SOL    HW125871   0.040   3.780  15.853  2.6620 -0.7591  1.4118
 4746SOL    HW225872   0.001   3.639  15.863  1.6160  0.0953  1.4536
 4747SOL     OW25873   0.026   0.106  10.105  0.1921 -0.3893 -0.1503
 4747SOL    HW125874   0.110   0.059  10.111 -0.3918 -1.3988  0.0683
 4747SOL    HW225875   4.727   0.060  10.180  0.1494 -0.2734 -0.1010
 4748SOL     OW25876   0.343   3.776  14.182 -0.1389 -0.2761 -0.6863
 4748SOL    HW125877   0.378   3.835  14.116 -2.7820  2.2444  0.1942
 4748SOL    HW225878   0.427   3.747  14.217 -0.0372  0.4361 -0.3369
 4749SOL     OW25879   2.493   3.359   3.408  0.8376  0.1430 -0.4021
 4749SOL    HW125880   2.494   3.438   3.463 -0.4307  1.4049 -2.1970
 4749SOL    HW225881   2.488   3.390   3.318 -4.2205  0.8532  0.1222
 4750SOL     OW25882   1.483   1.455   3.660  0.1311  0.2333 -0.6581
 4750SOL    HW125883   1.545   1.519   3.625 -0.3936  0.7161 -0.7034
 4750SOL    HW225884   1.513   1.449   3.751  0.7020  0.3202 -0.8399
 4751SOL     OW25885   4.329   2.237   1.839 -0.2244  0.7999 -0.4188
 4751SOL    HW125886   4.246   2.210   1.876  0.4138 -1.6558 -0.7597
 4751SOL    HW225887   4.331   2.330   1.861 -0.7935  1.1007 -1.6209
 4752SOL     OW25888   4.020   1.458   6.236 -0.0731  1.2654  0.2335
 4752SOL    HW125889   3.930   1.427   6.243  0.9800 -2.0042 -0.6738
 4752SOL    HW225890   4.037   1.430   6.146  3.7005  1.1961  0.9753
 4753SOL     OW25891   4.030   2.013   3.922 -0.1569 -0.2382  0.4558
 4753SOL    HW125892   3.960   1.948   3.928 -0.5797  0.3135  1.4265
 4753SOL    HW225893   4.027   2.023   4.017  1.2739  1.6169  0.3215
 4754SOL     OW25894   3.662   2.685   3.404 -0.3479 -0.0044  0.3635
 4754SOL    HW125895   3.698   2.638   3.480  0.0707  0.8171  0.6774
 4754SOL    HW225896   3.705   2.635   3.334 -1.7431  1.1155 -1.2832
 4755SOL     OW25897   3.403   0.758   8.534  0.2749  0.5988  0.1174
 4755SOL    HW125898   3.471   0.691   8.540  0.7050  0.7491 -2.8142
 4755SOL    HW225899   3.469   0.823   8.557  0.2786  0.2234  1.1755
 4756SOL     OW25900   0.350   4.168   7.204  0.4383 -0.0578  0.2490
 4756SOL    HW125901   0.408   4.119   7.262  0.1241 -0.4461  0.2321
 4756SOL    HW225902   0.285   4.187   7.272 -1.7659 -1.1059 -1.5605
 4757SOL     OW25903   0.466   2.486   6.852 -0.3880  0.4210  0.0110
 4757SOL    HW125904   0.472   2.460   6.943 -0.3389  0.9274  0.1544
 4757SOL    HW225905   0.410   2.563   6.864  0.9219  1.6735 -1.8200
 4758SOL     OW25906   1.024   3.235  15.869  0.3822  0.3801  0.3082
 4758SOL    HW125907   1.026   3.280  15.953  1.8169  1.6635 -0.4110
 4758SOL    HW225908   1.107   3.266  15.834  0.0436  0.9014 -0.0281
 4759SOL     OW25909   0.683   4.368  15.586  0.2280  0.3936  0.2693
 4759SOL    HW125910   0.694   4.335  15.675 -0.7809 -0.1345  0.1942
 4759SOL    HW225911   0.692   4.285  15.538 -0.1590 -0.6686  2.0505
 4760SOL     OW25912   2.311   4.530  16.207  0.2410 -0.1317  0.2277
 4760SOL    HW125913   2.401   4.543  16.236 -0.4976  2.5032  1.2536
 4760SOL    HW225914   2.295   4.442  16.243  0.7489 -0.3357 -0.0478
 4761SOL     OW25915   0.183   2.699  14.833  0.8038 -0.6493 -0.1006
 4761SOL    HW125916   0.224   2.781  14.804 -1.4409  1.1861  1.8505
 4761SOL    HW225917   0.106   2.729  14.882  0.0047 -2.5465 -0.2103
 4762SOL     OW25918   4.599   0.554   4.119 -0.0656  0.1399  0.2601
 4762SOL    HW125919   4.518   0.539   4.167  1.8152 -1.3765  2.9973
 4762SOL    HW225920   4.578   0.494   4.048  1.8522  0.9070 -0.9584
 4763SOL     OW25921   1.085   1.576  15.718  0.4153  0.6760  0.1408
 4763SOL    HW125922   1.162   1.522  15.698  0.5668  1.4184 -1.2737
 4763SOL    HW225923   1.123   1.663  15.729 -0.9248  1.4868 -1.6716
 4764SOL     OW25924   2.073   2.237   2.651 -0.6601 -0.3791  0.0409
 4764SOL    HW125925   2.038   2.220   2.564 -0.6015 -0.4061  0.0229
 4764SOL    HW225926   2.052   2.331   2.656 -0.7046 -0.5436  2.9070
 4765SOL     OW25927   3.073   0.053   3.183  0.5815  1.2732  0.2514
 4765SOL    HW125928   3.089   0.041   3.276 -0.8773 -1.0738  0.1918
 4765SOL    HW225929   3.001   4.728   3.171  2.7448 -1.0766 -0.4720
 4766SOL     OW25930   4.455   3.477   6.039 -0.2091  0.3133 -0.4870
 4766SOL    HW125931   4.451   3.523   6.123 -0.8881 -0.3338 -0.1664
 4766SOL    HW225932   4.551   3.477   6.034 -0.1070  1.7792  1.3725
 4767SOL     OW25933   3.469   4.030  12.952 -0.1897  0.8353  0.0963
 4767SOL    HW125934   3.520   3.958  12.987  0.0292 -0.2944 -2.5726
 4767SOL    HW225935   3.528   4.081  12.896  2.6300 -2.0059  0.4769
 4768SOL     OW25936   1.255   0.900  12.597 -0.0162  0.4315  0.5585
 4768SOL    HW125937   1.332   0.847  12.576  0.3444  0.5194  1.6760
 4768SOL    HW225938   1.295   0.982  12.627 -1.2164  1.6803 -1.1936
 4769SOL     OW25939   1.222   3.780  16.041  0.0051  0.3451  0.8511
 4769SOL    HW125940   1.280   3.737  16.103  0.7295  0.9501  0.6108
 4769SOL    HW225941   1.280   3.847  16.003 -0.9585  0.2525 -0.7915
 4770SOL     OW25942   3.472   0.406   1.338  0.0423  0.4085 -0.1473
 4770SOL    HW125943   3.446   0.408   1.245 -0.1542  0.0892 -0.0987
 4770SOL    HW225944   3.388   0.375   1.372 -1.8301  2.9990 -2.2814
 4771SOL     OW25945   3.400   2.871  10.448 -0.2716  0.5935  0.0757
 4771SOL    HW125946   3.319   2.860  10.397 -0.2900 -1.0825  0.4737
 4771SOL    HW225947   3.457   2.908  10.381  0.8024  0.8503  1.1406
 4772SOL     OW25948   2.825   4.005  16.081  0.2058  0.7313  0.2008
 4772SOL    HW125949   2.830   4.065  16.156  0.9116 -0.8100  1.3760
 4772SOL    HW225950   2.918   4.010  16.062 -0.0524  1.0754 -0.9487
 4773SOL     OW25951   0.193   0.639  15.381 -0.1808  0.1418  0.1999
 4773SOL    HW125952   0.231   0.664  15.466  1.2579  0.3472 -0.5025
 4773SOL    HW225953   0.144   0.714  15.347  2.3731  0.5562 -2.5646
 4774SOL     OW25954   1.659   2.997  10.617 -0.2364 -0.0042 -0.0498
 4774SOL    HW125955   1.651   2.934  10.688 -1.5717 -0.0553 -0.2549
 4774SOL    HW225956   1.569   3.013  10.590  0.7455  1.1441 -2.7638
 4775SOL     OW25957   2.537   2.330   9.198 -0.2341  0.0746  0.6302
 4775SOL    HW125958   2.614   2.386   9.195  0.3733 -0.6662  2.4503
 4775SOL    HW225959   2.466   2.385   9.233 -0.6759  0.3705 -0.7459
 4776SOL     OW25960   1.372   4.004  15.917  0.5247  0.3798  0.2421
 4776SOL    HW125961   1.448   4.049  15.953  0.1547 -1.4789  3.3446
 4776SOL    HW225962   1.391   3.993  15.824  0.6060 -1.0304  0.4143
 4777SOL     OW25963   3.617   4.584  10.354  0.1564  0.2628  0.1858
 4777SOL    HW125964   3.534   4.557  10.394  1.0247  0.8035  2.3402
 4777SOL    HW225965   3.685   4.584  10.422  0.7169  0.5563 -0.3753
 4778SOL     OW25966   1.251   4.408   6.341 -0.5737  0.2794 -0.3099
 4778SOL    HW125967   1.310   4.436   6.411  0.3321 -2.0455 -0.1201
 4778SOL    HW225968   1.315   4.416   6.271 -0.1219  1.5795  0.2526
 4779SOL     OW25969   4.512   3.479   0.024 -0.3760 -0.1924  0.0168
 4779SOL    HW125970   4.472   3.424   0.091  0.2036  1.4101  1.6569
 4779SOL    HW225971   4.431   3.502  17.727  0.9145  1.4363 -1.4619
 4780SOL     OW25972   0.477   0.922   5.819  0.3216  0.2197 -0.6692
 4780SOL    HW125973   0.565   0.886   5.809 -0.0753 -0.3234 -2.1370
 4780SOL    HW225974   0.476   1.014   5.793  2.1549  0.0524 -1.2942
 4781SOL     OW25975   2.131   0.780   4.099 -0.2149  0.0821  0.2681
 4781SOL    HW125976   2.187   0.785   4.022 -0.4933 -1.2162 -0.0073
 4781SOL    HW225977   2.111   0.687   4.102  3.1030 -0.5589  2.8276
 4782SOL     OW25978   2.938   1.240  16.333  0.2210 -0.4178  0.0519
 4782SOL    HW125979   2.921   1.153  16.368 -0.4085  0.2780  1.4787
 4782SOL    HW225980   2.963   1.281  16.416  2.4166 -0.6885 -0.4809
 4783SOL     OW25981   0.870   2.917   4.984 -0.4945  0.4889 -0.3760
 4783SOL    HW125982   0.902   2.891   5.070 -3.1414 -1.1841  0.1227
 4783SOL    HW225983   0.946   2.957   4.942 -0.1678 -0.7450 -0.9587
 4784SOL     OW25984   0.613   0.123   7.398  0.5474 -0.4464 -0.8752
 4784SOL    HW125985   0.560   0.111   7.319 -0.7654 -0.5984  0.0329
 4784SOL    HW225986   0.682   0.178   7.362 -1.1189  1.6692 -0.8607
 4785SOL     OW25987   3.641   2.383  17.448 -0.2936  0.5075 -0.4325
 4785SOL    HW125988   3.596   2.466  17.465 -1.2848 -0.2345  0.5656
 4785SOL    HW225989   3.720   2.413  17.493  0.0387  0.9880 -1.3413
 4786SOL     OW25990   1.686   0.614   5.880 -0.1753  0.3834  0.2990
 4786SOL    HW125991   1.774   0.639   5.908 -0.1403 -0.3314  0.8293
 4786SOL    HW225992   1.687   0.625   5.785  0.5800  0.4793  0.3165
 4787SOL     OW25993   0.672   3.111   2.445 -0.1401  0.2201  0.3834
 4787SOL    HW125994   0.688   3.197   2.406 -2.2396  0.2753 -0.3764
 4787SOL    HW225995   0.714   3.117   2.531 -0.4722  0.4529  0.5285
 4788SOL     OW25996   1.586   0.647  13.759  0.1401 -0.1719 -0.1031
 4788SOL    HW125997   1.655   0.645  13.693 -1.0006 -0.1182 -1.2981
 4788SOL    HW225998   1.551   0.561  13.779 -0.6325 -0.1669 -1.4493
 4789SOL     OW25999   0.089   1.884  16.575  0.0575  0.0623  0.7454
 4789SOL    HW126000   0.114   1.796  16.547  1.5407  0.6850  0.1085
 4789SOL    HW226001   0.061   1.930  16.496  0.3800  1.8401  1.6803
 4790SOL     OW26002   3.096   3.205   0.398 -0.0134  0.4223  0.3477
 4790SOL    HW126003   3.072   3.257   0.475  2.1005  1.7173  0.1351
 4790SOL    HW226004   3.104   3.116   0.433 -0.6630 -0.2095 -1.0980
 4791SOL     OW26005   1.593   2.328   1.424  0.3101  0.3264  0.1693
 4791SOL    HW126006   1.539   2.404   1.446 -1.5278  0.4750 -4.7853
 4791SOL    HW226007   1.549   2.266   1.482 -0.7888  0.3414 -0.6458
 4792SOL     OW26008   2.197   0.777   9.282  0.2363 -0.3331 -0.6243
 4792SOL    HW126009   2.210   0.692   9.324  1.3687  0.5028  0.7541
 4792SOL    HW226010   2.132   0.819   9.338  1.4480  0.3499  0.2825
 4793SOL     OW26011   3.221   3.055   8.466 -0.5178 -0.2274 -0.0125
 4793SOL    HW126012   3.300   3.003   8.453 -1.2471 -0.6638 -2.6641
 4793SOL    HW226013   3.243   3.141   8.432  0.0803  0.4088  1.9747
 4794SOL     OW26014   4.728   4.341   6.084  0.7551 -0.4279 -0.2364
 4794SOL    HW126015   4.720   4.337   6.180  0.3109 -1.4530 -0.3252
 4794SOL    HW226016   0.068   4.285   6.074  1.2050  0.2742 -0.6818
 4795SOL     OW26017   1.906   0.755   6.865 -0.7939  0.2064 -0.2747
 4795SOL    HW126018   1.917   0.676   6.918  0.4924  0.8744  0.4618
 4795SOL    HW226019   1.810   0.759   6.858 -0.7721  0.5071 -0.4185
 4796SOL     OW26020   3.983   2.713   2.428 -0.0817 -0.2988  0.2135
 4796SOL    HW126021   3.913   2.675   2.481 -0.5135  0.7669  0.4168
 4796SOL    HW226022   3.961   2.665   2.349  1.0291 -0.4041 -0.0368
 4797SOL     OW26023   3.260   1.907  15.529  0.3752  0.0414 -0.1581
 4797SOL    HW126024   3.274   1.915  15.624 -0.5911  1.0383 -0.1008
 4797SOL    HW226025   3.201   1.982  15.519  1.6003  1.0451  0.1860
 4798SOL     OW26026   3.718   1.333  15.879  0.0531 -0.1221  0.1399
 4798SOL    HW126027   3.745   1.355  15.790  0.8705 -0.7623  0.2353
 4798SOL    HW226028   3.667   1.253  15.867 -0.0507  0.1277 -1.0944
 4799SOL     OW26029   3.481   1.377  14.007  0.3102 -0.0557 -0.0349
 4799SOL    HW126030   3.474   1.294  14.056  0.0667 -0.4060 -0.6663
 4799SOL    HW226031   3.435   1.439  14.063 -2.3226 -1.8266 -0.2307
 4800SOL     OW26032   1.079   4.153  17.114 -0.1164 -0.0392 -0.0283
 4800SOL    HW126033   1.074   4.231  17.170 -0.0758 -0.6689  0.8472
 4800SOL    HW226034   1.175   4.150  17.116 -0.0236  1.6571 -1.9354
 4801SOL     OW26035   0.789   1.171  11.925 -0.3981 -0.3713 -0.3219
 4801SOL    HW126036   0.723   1.165  11.994  2.1370 -2.5076  1.9082
 4801SOL    HW226037   0.749   1.236  11.867  0.0387  0.1347 -0.0567
 4802SOL     OW26038   4.646   1.815   2.925 -1.0026  0.0247 -0.9580
 4802SOL    HW126039   4.567   1.784   2.880  0.5248 -1.8028 -2.3774
 4802SOL    HW226040   4.609   1.900   2.949  0.4681  0.0244  1.2824
 4803SOL     OW26041   3.174   2.266   1.075 -0.8605  0.0753 -0.3651
 4803SOL    HW126042   3.082   2.239   1.083 -0.5031 -0.8553  0.6050
 4803SOL    HW226043   3.160   2.357   1.050 -0.6604  0.2782  0.2522
 4804SOL     OW26044   1.436   4.401  10.593  0.3137 -0.2412  0.2896
 4804SOL    HW126045   1.353   4.388  10.638 -0.2766 -0.7599 -0.9539
 4804SOL    HW226046   1.399   4.431  10.510 -1.5341  0.0888  1.2394
 4805SOL     OW26047   2.032   3.026   9.142  0.0362  0.1238 -0.4565
 4805SOL    HW126048   1.967   3.032   9.072 -1.1329 -1.1160  0.5424
 4805SOL    HW226049   1.989   3.041   9.226 -1.0034 -0.3290 -0.9088
 4806SOL     OW26050   1.530   0.144  15.326 -0.1160 -0.0523  0.1498
 4806SOL    HW126051   1.556   0.183  15.243  0.8130  1.7702  1.3000
 4806SOL    HW226052   1.437   0.129  15.311 -0.6621  1.4663  2.0592
 4807SOL     OW26053   3.522   1.347   5.816 -0.1122 -0.3242  0.4116
 4807SOL    HW126054   3.554   1.257   5.827  1.6106 -0.0346 -2.4171
 4807SOL    HW226055   3.585   1.386   5.757 -1.3584  0.5068 -0.3632
 4808SOL     OW26056   4.191   1.700   6.815  0.3033  0.1538  0.0869
 4808SOL    HW126057   4.205   1.669   6.726  0.2168 -1.1243  0.5219
 4808SOL    HW226058   4.165   1.621   6.862 -2.8878  0.6443 -0.8079
 4809SOL     OW26059   3.976   0.558   7.986 -0.4519 -0.5694  0.0766
 4809SOL    HW126060   3.985   0.493   8.055 -2.1554 -1.3518 -0.4282
 4809SOL    HW226061   3.949   0.503   7.913 -0.1674  0.1574 -0.5816
 4810SOL     OW26062   3.190   1.279   2.134 -0.0753 -0.8437 -0.0360
 4810SOL    HW126063   3.200   1.257   2.227 -0.6333  1.5605  0.6083
 4810SOL    HW226064   3.215   1.206   2.078  1.4227 -0.5188  0.2067
 4811SOL     OW26065   0.954   1.853   6.067  0.6158  0.1199  0.3714
 4811SOL    HW126066   0.920   1.832   6.154 -2.4886 -1.0837 -1.1280
 4811SOL    HW226067   0.909   1.794   6.006  1.6716  0.6727 -0.9344
 4812SOL     OW26068   2.932   3.454  17.693  0.2551  0.9396 -0.4470
 4812SOL    HW126069   2.983   3.455   0.026 -0.6805  1.3571  0.1375
 4812SOL    HW226070   2.859   3.509  17.723 -0.1435 -0.2854  0.8320
 4813SOL     OW26071   2.109   0.658   6.238 -0.7824  0.0460 -0.5307
 4813SOL    HW126072   2.035   0.597   6.243 -0.3209 -0.5279 -0.6966
 4813SOL    HW226073   2.100   0.693   6.149 -1.1494 -2.2842 -1.4179
 4814SOL     OW26074   1.475   4.724   0.401  0.3226  0.0438  0.3922
 4814SOL    HW126075   1.389   0.014   0.369  1.5679  1.1527 -1.9844
 4814SOL    HW226076   1.542   0.043   0.362  0.0062  0.2262  0.1094
 4815SOL     OW26077   2.205   2.185   6.669 -0.1995  0.3880  0.1535
 4815SOL    HW126078   2.243   2.268   6.698 -0.0557 -0.3598  2.1301
 4815SOL    HW226079   2.122   2.219   6.637 -0.7251  1.6557  2.9190
 4816SOL     OW26080   4.186   1.779   5.199 -0.1826  0.1851  0.4043
 4816SOL    HW126081   4.257   1.755   5.259 -0.4672 -0.7122  0.3849
 4816SOL    HW226082   4.149   1.856   5.241 -0.1203  0.3553  0.1463
 4817SOL     OW26083   0.512   4.417   5.666 -0.6779 -0.5792 -0.1833
 4817SOL    HW126084   0.532   4.326   5.691  0.8587 -0.7812 -2.1823
 4817SOL    HW226085   0.499   4.466   5.747 -1.5872 -0.6647 -0.2745
 4818SOL     OW26086   4.247   1.898  10.764  0.1393 -0.4313 -0.5343
 4818SOL    HW126087   4.187   1.973  10.767  1.6165  0.8472 -2.4331
 4818SOL    HW226088   4.188   1.833  10.727 -2.9285  2.3975 -0.6093
 4819SOL     OW26089   4.080   3.000   7.624 -0.4139 -0.3733  0.3899
 4819SOL    HW126090   4.088   3.078   7.679 -0.3240  2.2289 -3.3242
 4819SOL    HW226091   4.089   3.041   7.538 -1.2301  0.9167  0.9301
 4820SOL     OW26092   2.244   0.875   9.580 -0.3142  0.0808 -0.1278
 4820SOL    HW126093   2.184   0.871   9.505 -0.3696 -0.0662 -0.0765
 4820SOL    HW226094   2.198   0.826   9.648  1.2155 -3.4431 -1.6338
 4821SOL     OW26095   4.223   1.168   5.235 -0.7547  0.1202  0.0472
 4821SOL    HW126096   4.276   1.225   5.291  1.3056 -1.7872  0.0225
 4821SOL    HW226097   4.163   1.234   5.199  0.7549  2.2336  1.3803
 4822SOL     OW26098   1.046   1.471  17.470  0.2780  0.0560  0.2742
 4822SOL    HW126099   1.068   1.378  17.466 -1.7278 -0.4530  0.7806
 4822SOL    HW226100   1.053   1.481  17.565  1.1499 -2.7319  0.4935
 4823SOL     OW26101   3.013   2.830   4.827  0.6453 -0.2952 -0.3883
 4823SOL    HW126102   3.052   2.907   4.869  1.3129 -0.8642  0.0344
 4823SOL    HW226103   3.096   2.801   4.788 -0.4112 -2.2447 -1.1778
 4824SOL     OW26104   1.422   3.932   3.846 -0.2089 -0.4027  0.2792
 4824SOL    HW126105   1.341   3.962   3.887 -0.5919 -2.4948  1.0494
 4824SOL    HW226106   1.394   3.854   3.797 -3.3162  0.0283  1.3695
 4825SOL     OW26107   2.529   3.383   0.874 -0.3282 -0.5773  0.1254
 4825SOL    HW126108   2.620   3.407   0.886 -0.4334 -0.4279  0.5984
 4825SOL    HW226109   2.541   3.359   0.782 -0.3239  2.3565 -0.6149
 4826SOL     OW26110   0.836   4.248   8.831 -0.2739  0.3041 -0.6040
 4826SOL    HW126111   0.845   4.160   8.866 -1.7808 -0.7377 -2.8288
 4826SOL    HW226112   0.905   4.298   8.875 -0.2449  0.9749 -1.4153
 4827SOL     OW26113   3.524   2.933   3.032  0.0789 -0.6321 -0.0225
 4827SOL    HW126114   3.603   2.893   2.994  1.4061  0.5124  1.5494
 4827SOL    HW226115   3.470   2.855   3.044  0.2603 -1.1059 -2.2078
 4828SOL     OW26116   2.915   4.252   5.836 -0.5489  0.1462  1.0557
 4828SOL    HW126117   3.003   4.276   5.866 -0.0102 -0.8744  0.2961
 4828SOL    HW226118   2.857   4.277   5.907  0.2592 -1.2205  2.1921
 4829SOL     OW26119   3.278   0.488   3.548 -0.2870  0.0077  0.1344
 4829SOL    HW126120   3.350   0.529   3.595  1.3044 -2.6274 -0.0091
 4829SOL    HW226121   3.228   0.565   3.522  0.5525  0.1834 -0.9704
 4830SOL     OW26122   4.447   4.553   6.230 -0.3068  0.0802 -0.5504
 4830SOL    HW126123   4.454   4.608   6.152  1.3562  2.3046  1.1703
 4830SOL    HW226124   4.364   4.507   6.212  0.0492 -0.7841  0.0227
 4831SOL     OW26125   4.589   3.631   4.898  0.1352 -0.3447 -0.0701
 4831SOL    HW126126   4.635   3.673   4.971  2.1435 -0.2305 -1.3854
 4831SOL    HW226127   4.502   3.644   4.936  1.3508 -1.3621  3.1323
 4832SOL     OW26128   3.403   2.133   7.348 -0.7822 -0.0617  0.5590
 4832SOL    HW126129   3.310   2.156   7.349 -0.6313  0.3842  2.7639
 4832SOL    HW226130   3.432   2.224   7.359  0.9695 -0.7610  1.6774
 4833SOL     OW26131   4.192   3.736   3.022 -0.0748 -0.0843 -0.0328
 4833SOL    HW126132   4.109   3.699   2.992 -0.0990 -2.5530  3.1887
 4833SOL    HW226133   4.170   3.828   3.004 -4.3317 -1.2479 -0.6971
 4834SOL     OW26134   4.574   0.941   9.461  0.3845 -0.1445  0.9373
 4834SOL    HW126135   4.643   1.006   9.457  1.6777 -1.6702 -1.4481
 4834SOL    HW226136   4.529   0.959   9.543 -3.1270 -3.6074 -0.2042
 4835SOL     OW26137   0.989   2.939  17.627  0.9313 -0.0832  0.4563
 4835SOL    HW126138   1.032   2.916  17.544  1.8604 -0.3053  1.0030
 4835SOL    HW226139   0.943   2.857  17.646 -1.1231  1.2080  1.0439
 4836SOL     OW26140   2.735   2.652   5.831 -0.0633  0.9283  0.3931
 4836SOL    HW126141   2.663   2.684   5.886  1.2940  0.5470  2.4131
 4836SOL    HW226142   2.688   2.592   5.773 -1.7327  0.1928  2.4794
 4837SOL     OW26143   2.246   1.704   1.727 -0.3847 -0.0344 -0.2242
 4837SOL    HW126144   2.279   1.693   1.816  1.5425 -0.3913 -0.9677
 4837SOL    HW226145   2.274   1.617   1.698 -0.0437  0.2136 -0.6358
 4838SOL     OW26146   2.656   2.768   1.035  0.0488  0.2464  0.6238
 4838SOL    HW126147   2.650   2.852   0.988  2.0346 -1.1534 -2.0920
 4838SOL    HW226148   2.566   2.740   1.017  0.1879  0.8891 -1.0897
 4839SOL     OW26149   0.812   4.523   4.589  0.3385 -0.8286  0.7129
 4839SOL    HW126150   0.733   4.576   4.596 -1.8269 -4.0232  0.6766
 4839SOL    HW226151   0.878   4.573   4.636  2.3209 -0.9217 -2.0007
 4840SOL     OW26152   0.012   2.616   3.878  0.6569  0.3631  0.6888
 4840SOL    HW126153   0.104   2.596   3.860 -0.4635 -2.6772 -1.6647
 4840SOL    HW226154   0.004   2.591   3.970  2.1382 -1.3003  0.3661
 4841SOL     OW26155   2.183   4.472   1.766  0.2297 -0.2179  0.2038
 4841SOL    HW126156   2.253   4.406   1.761  0.9159  0.5608 -0.4771
 4841SOL    HW226157   2.191   4.509   1.854 -1.6770 -2.1662  1.2077
 4842SOL     OW26158   3.933   0.931   9.813  0.4564  0.3480  0.2409
 4842SOL    HW126159   3.870   0.873   9.770 -0.8691  0.7805  1.6096
 4842SOL    HW226160   3.967   0.977   9.735 -0.7586 -0.2943 -0.6683
 4843SOL     OW26161   2.672   4.059   1.446 -0.6854 -0.2494 -0.0369
 4843SOL    HW126162   2.682   4.057   1.542  1.3636 -2.3234 -0.3055
 4843SOL    HW226163   2.608   3.988   1.435 -0.6641 -0.6035  1.9816
 4844SOL     OW26164   4.538   4.272   3.380  0.1400  0.8736  0.1757
 4844SOL    HW126165   4.520   4.365   3.364 -2.1834  0.0709 -1.7367
 4844SOL    HW226166   4.450   4.235   3.372  0.0522  1.5673 -2.0381
 4845SOL     OW26167   4.048   4.430  11.003 -0.5517 -0.1333  0.4221
 4845SOL    HW126168   3.965   4.432  10.954 -0.0438 -2.1067 -0.5266
 4845SOL    HW226169   4.109   4.429  10.929 -1.3541 -0.3602 -0.2464
 4846SOL     OW26170   4.425   3.058   7.890 -0.3116 -0.2754  0.1315
 4846SOL    HW126171   4.449   2.974   7.930  2.3130  0.5542  0.3047
 4846SOL    HW226172   4.377   3.105   7.957  0.6368  0.6106  0.1757
 4847SOL     OW26173   1.735   1.738   9.376 -0.6411  0.2835 -0.2689
 4847SOL    HW126174   1.775   1.676   9.315  1.6926  2.0258 -0.4991
 4847SOL    HW226175   1.792   1.810   9.352  1.8947 -0.7729  2.6071
 4848SOL     OW26176   3.114   0.659  17.019 -0.1414  0.0597  0.2083
 4848SOL    HW126177   3.117   0.689  16.928 -0.5828 -0.3284  0.0707
 4848SOL    HW226178   3.181   0.709  17.066  2.8654 -4.4775  0.7354
 4849SOL     OW26179   2.217   0.555   9.455 -0.3945  0.3234  0.5290
 4849SOL    HW126180   2.269   0.574   9.533 -0.6015  0.0358  0.7353
 4849SOL    HW226181   2.149   0.496   9.487  0.1330 -0.2115  0.6799
 4850SOL     OW26182   0.424   2.430  12.527  0.5557  0.2777  0.3132
 4850SOL    HW126183   0.458   2.444  12.615  0.7864 -1.1762  0.4560
 4850SOL    HW226184   0.331   2.430  12.546  0.6204  3.2020  0.6539
 4851SOL     OW26185   0.781   0.865  13.132 -0.1044  0.2443 -1.1579
 4851SOL    HW126186   0.760   0.779  13.169 -1.7079  1.8988  1.6854
 4851SOL    HW226187   0.833   0.844  13.054  1.4520  0.2670 -0.1159
 4852SOL     OW26188   3.901   1.514   5.189 -0.8479  0.0406 -0.0508
 4852SOL    HW126189   3.927   1.501   5.280 -1.0519  1.3760  0.2083
 4852SOL    HW226190   3.806   1.507   5.202 -0.8382 -0.3929 -0.2253
 4853SOL     OW26191   3.906   1.314  11.382 -0.2017  0.1460  0.3148
 4853SOL    HW126192   3.919   1.296  11.475 -0.5032 -1.6484 -0.0070
 4853SOL    HW226193   3.837   1.380  11.390 -0.8081 -0.3416 -0.9185
 4854SOL     OW26194   3.191   0.761  11.888 -0.1876  0.0480 -0.2799
 4854SOL    HW126195   3.141   0.779  11.808  0.6375 -1.2137 -1.0788
 4854SOL    HW226196   3.269   0.811  11.864 -1.3760  1.7315 -0.6024
 4855SOL     OW26197   1.638   1.124   5.194 -0.3759  0.3735 -0.3294
 4855SOL    HW126198   1.590   1.154   5.117  0.2730  0.5890 -0.6492
 4855SOL    HW226199   1.678   1.045   5.158  0.2057  0.0730  0.9652
 4856SOL     OW26200   3.893   0.760   5.112 -0.0742 -0.0750 -0.3541
 4856SOL    HW126201   3.871   0.850   5.085 -0.1751  0.2122  0.6552
 4856SOL    HW226202   3.937   0.730   5.034 -0.1582  0.3143 -0.5518
 4857SOL     OW26203   3.964   2.749   0.605  0.2024  0.1306  0.0517
 4857SOL    HW126204   3.936   2.777   0.692 -3.1162  2.6894 -1.8137
 4857SOL    HW226205   3.907   2.673   0.597 -0.0352  0.2469  0.6478
 4858SOL     OW26206   0.202   3.628   3.983 -0.4418 -0.7029 -0.1102
 4858SOL    HW126207   0.204   3.669   4.070 -0.1587 -0.8540 -0.0437
 4858SOL    HW226208   0.273   3.672   3.936 -0.2306 -1.9755 -0.9945
 4859SOL     OW26209   1.261   3.873   3.298  0.5255  0.9489 -0.5547
 4859SOL    HW126210   1.271   3.930   3.374 -1.2544 -0.4198  0.7121
 4859SOL    HW226211   1.335   3.813   3.301  0.0541  0.2486 -2.5346
 4860SOL     OW26212   2.196   3.145   6.014 -0.0977 -0.4159 -0.5670
 4860SOL    HW126213   2.105   3.176   6.013 -0.4468 -1.4033  0.5649
 4860SOL    HW226214   2.207   3.137   6.109  0.8480  0.3905 -0.6045
 4861SOL     OW26215   3.198   3.980  16.336 -0.0351 -0.6035 -0.1962
 4861SOL    HW126216   3.107   3.993  16.311 -0.4011 -1.2625  0.7754
 4861SOL    HW226217   3.207   4.026  16.420 -0.3715 -2.5777  0.9268
 4862SOL     OW26218   3.774   4.625   2.504  0.3322  0.3801 -0.3921
 4862SOL    HW126219   3.688   4.667   2.508  0.2647  0.2497 -0.5017
 4862SOL    HW226220   3.826   4.681   2.446  1.4020  0.2620  0.4526
 4863SOL     OW26221   3.915   0.084   7.855  0.6174  0.0969  0.6028
 4863SOL    HW126222   4.009   0.069   7.862  0.6307 -0.6663 -1.1525
 4863SOL    HW226223   3.910   0.137   7.776 -2.2222 -0.4707  0.3756
 4864SOL     OW26224   1.829   1.264  10.118 -0.1232 -0.1769 -0.7740
 4864SOL    HW126225   1.912   1.217  10.114 -0.7393 -1.4087  0.8175
 4864SOL    HW226226   1.803   1.236  10.206 -0.9557  2.9747 -0.0345
 4865SOL     OW26227   4.306   1.246   8.066 -0.3077  0.5730  0.2040
 4865SOL    HW126228   4.300   1.187   7.991 -0.3269  1.0425 -0.1661
 4865SOL    HW226229   4.382   1.301   8.047 -0.2544  0.8462  1.1917
 4866SOL     OW26230   0.155   1.918   6.449  0.0844 -0.2262 -0.1707
 4866SOL    HW126231   0.081   1.957   6.495 -0.8993  0.4638 -2.3406
 4866SOL    HW226232   0.112   1.839   6.417  1.0925 -0.6462 -0.4925
 4867SOL     OW26233   3.527   2.479  16.471  0.1200 -0.5583 -0.2193
 4867SOL    HW126234   3.569   2.419  16.411 -0.5072 -0.0621 -1.1632
 4867SOL    HW226235   3.479   2.528  16.404 -0.1081 -0.9310 -0.3259
 4868SOL     OW26236   1.743   0.659  13.999  0.0156  0.1478 -0.2978
 4868SOL    HW126237   1.715   0.666  13.908  1.6117  0.6257 -0.7452
 4868SOL    HW226238   1.716   0.570  14.022  0.0460  0.0114 -0.7928
 4869SOL     OW26239   1.529   3.740  10.474 -0.3259 -0.2155  0.1695
 4869SOL    HW126240   1.604   3.685  10.451  0.5201  2.0340 -2.4052
 4869SOL    HW226241   1.558   3.778  10.557 -1.9419  0.6170  0.3574
 4870SOL     OW26242   0.764   0.435  12.453  0.3018 -0.0162 -0.2065
 4870SOL    HW126243   0.675   0.439  12.489  0.0389  2.0578 -1.0713
 4870SOL    HW226244   0.745   0.425  12.360  0.3637 -4.0290  0.2058
 4871SOL     OW26245   4.213   2.072   8.667 -0.5780 -0.1221  0.0325
 4871SOL    HW126246   4.285   2.055   8.607  0.3767  2.0346  0.5828
 4871SOL    HW226247   4.254   2.086   8.752 -0.1780  2.8333 -0.6719
 4872SOL     OW26248   0.219   3.982   3.588  0.4337 -0.2812  0.2391
 4872SOL    HW126249   0.201   4.040   3.661  1.3662 -0.5823  0.7026
 4872SOL    HW226250   0.191   3.897   3.623 -0.4865  0.4001  1.1454
 4873SOL     OW26251   4.121   3.814   8.379 -0.0731  0.4047  0.3126
 4873SOL    HW126252   4.207   3.847   8.406  0.5010  0.0316 -1.0340
 4873SOL    HW226253   4.093   3.774   8.461 -1.0699  1.8623  0.6715
 4874SOL     OW26254   3.231   0.779   2.941 -0.1454 -0.2370  0.3555
 4874SOL    HW126255   3.161   0.823   2.989  2.8484  2.4592  2.3080
 4874SOL    HW226256   3.293   0.771   3.014 -0.6784  0.4399  0.8823
 4875SOL     OW26257   4.091   4.170   5.240 -0.1464 -0.0630  0.0752
 4875SOL    HW126258   4.134   4.150   5.323 -2.1610 -1.0647  0.8936
 4875SOL    HW226259   4.166   4.154   5.183 -0.0707 -2.1016  0.7377
 4876SOL     OW26260   2.572   4.335   6.947  1.0088 -0.1678  0.1770
 4876SOL    HW126261   2.553   4.242   6.938  3.5597 -0.6258 -0.6282
 4876SOL    HW226262   2.605   4.338   7.037  0.7015  1.9459  0.2263
 4877SOL     OW26263   4.101   2.591   8.671  0.7984  0.6316  0.4115
 4877SOL    HW126264   4.127   2.502   8.691 -1.6707 -0.0223  0.6525
 4877SOL    HW226265   4.036   2.571   8.604 -0.0820 -1.8688  2.0349
 4878SOL     OW26266   0.094   3.155   9.485  0.2850  0.5535  0.1609
 4878SOL    HW126267   0.053   3.202   9.412  0.5123  0.3395 -0.1065
 4878SOL    HW226268   0.060   3.210   9.556  0.2614  0.3347  0.3205
 4879SOL     OW26269   2.505   2.508  13.426 -0.0327  0.7356  0.0528
 4879SOL    HW126270   2.541   2.593  13.402 -0.0522  0.9155  0.6610
 4879SOL    HW226271   2.524   2.458  13.347 -0.4849 -0.9792  1.0300
 4880SOL     OW26272   2.691   2.631  10.778  0.2269 -0.5135  0.2581
 4880SOL    HW126273   2.751   2.647  10.705 -0.8755  1.8407 -0.1112
 4880SOL    HW226274   2.755   2.591  10.836 -1.4231 -2.5337  0.7071
 4881SOL     OW26275   0.239   0.815   8.157 -0.1661 -0.0253  0.2281
 4881SOL    HW126276   0.222   0.746   8.092  0.0619  1.6860 -1.6367
 4881SOL    HW226277   0.150   0.848   8.170 -1.1148 -1.4884 -2.4292
 4882SOL     OW26278   4.658   4.589   1.785  0.0743  0.4199  0.1158
 4882SOL    HW126279   4.677   4.555   1.872 -1.1865  2.4241  1.1579
 4882SOL    HW226280   4.592   4.527   1.753 -1.3895  1.8881  0.2858
 4883SOL     OW26281   4.499   3.301   5.711  0.0284 -0.3180  0.2520
 4883SOL    HW126282   4.577   3.349   5.682 -0.4223  1.4926  2.0296
 4883SOL    HW226283   4.443   3.369   5.749  2.6415  2.6678 -1.2204
 4884SOL     OW26284   0.378   1.906   4.807 -0.1144  0.4031 -0.3720
 4884SOL    HW126285   0.410   1.839   4.868 -0.6008  0.7614  0.2673
 4884SOL    HW226286   0.361   1.982   4.862 -0.9579 -0.2837  0.3121
 4885SOL     OW26287   1.704   1.517   7.774  0.8742  0.5363  0.3271
 4885SOL    HW126288   1.700   1.459   7.849 -0.6406  1.1313  0.7142
 4885SOL    HW226289   1.767   1.578   7.812  1.7193  0.2678 -0.6381
 4886SOL     OW26290   0.033   0.407  13.621 -0.2801 -0.3241 -0.0979
 4886SOL    HW126291   0.027   0.479  13.559 -2.5767  0.9430  1.6146
 4886SOL    HW226292   0.088   0.450  13.686  0.2324 -1.9859  0.5857
 4887SOL     OW26293   3.153   2.985   5.891  0.0530 -0.4905 -0.1407
 4887SOL    HW126294   3.228   2.950   5.842 -0.5265 -2.5047  0.4316
 4887SOL    HW226295   3.086   2.921   5.867 -1.5642  0.9431  0.5258
 4888SOL     OW26296   3.071   1.993   1.147  0.3853 -0.1878  0.1186
 4888SOL    HW126297   2.981   1.974   1.175 -0.9602  1.0323 -3.3075
 4888SOL    HW226298   3.113   1.921   1.194  1.1068  0.2756  0.1823
 4889SOL     OW26299   0.638   1.906   8.397  0.1435 -0.4899 -0.4990
 4889SOL    HW126300   0.544   1.903   8.378 -0.2200 -0.2745  1.2363
 4889SOL    HW226301   0.640   1.988   8.446 -0.4124 -1.5086  1.2669
 4890SOL     OW26302   0.461   1.530   3.493  0.1238  0.9285  0.5117
 4890SOL    HW126303   0.495   1.591   3.428 -2.2393  0.2542 -1.3673
 4890SOL    HW226304   0.380   1.505   3.448  0.1980  1.7792 -0.0771
 4891SOL     OW26305   1.988   1.643   2.180  0.0539  0.1325  0.2560
 4891SOL    HW126306   2.044   1.685   2.245 -0.7909 -0.2541  1.2269
 4891SOL    HW226307   1.938   1.604   2.251 -0.7716 -0.8260 -0.8653
 4892SOL     OW26308   0.828   2.188   5.682  0.0510 -0.5989 -0.2194
 4892SOL    HW126309   0.850   2.103   5.645 -0.3317 -0.6900 -0.2451
 4892SOL    HW226310   0.914   2.220   5.706  0.2502 -3.3540  2.7159
 4893SOL     OW26311   4.055   2.240  14.469  0.2689  0.4187  0.2637
 4893SOL    HW126312   3.974   2.241  14.419  1.2371  2.3032 -1.2664
 4893SOL    HW226313   4.040   2.164  14.525  1.4807  0.6493  0.9138
 4894SOL     OW26314   2.319   3.495   8.898 -0.4590  0.0602  0.2434
 4894SOL    HW126315   2.400   3.466   8.856 -0.3616  1.6218 -0.6511
 4894SOL    HW226316   2.243   3.474   8.844  0.8852  1.0914 -2.0696
 4895SOL     OW26317   2.638   1.095   8.734  0.4441 -0.2874 -0.6620
 4895SOL    HW126318   2.587   1.141   8.667  1.9448  1.5503 -0.5367
 4895SOL    HW226319   2.645   1.005   8.703  0.5047 -0.4252 -0.2507
 4896SOL     OW26320   0.054   0.279   4.565  0.0200 -0.0437 -0.8249
 4896SOL    HW126321   0.062   0.316   4.653  2.5784  0.9582 -1.4788
 4896SOL    HW226322   0.050   0.350   4.501  0.3574 -0.8739 -1.7540
 4897SOL     OW26323   0.505   1.069  15.247 -0.0804 -0.5651 -0.0680
 4897SOL    HW126324   0.497   1.151  15.297  0.2979 -0.3733 -0.3202
 4897SOL    HW226325   0.558   1.110  15.178 -3.4791  0.2556 -2.1878
 4898SOL     OW26326   2.522   3.123   4.597 -0.2209 -0.1881  0.3443
 4898SOL    HW126327   2.503   3.134   4.504 -0.7308 -1.7309  0.2613
 4898SOL    HW226328   2.604   3.074   4.598 -0.3729 -0.4557 -0.2165
 4899SOL     OW26329   0.102   0.241  16.907 -0.3116  0.5835  0.0502
 4899SOL    HW126330   0.182   0.242  16.959 -0.1792  0.2129 -0.1515
 4899SOL    HW226331   0.102   0.150  16.879 -0.4842 -0.1903  2.5855
 4900SOL     OW26332   3.711   0.850   5.618 -0.6870  0.2729  0.1286
 4900SOL    HW126333   3.761   0.797   5.679  0.9516  0.7158 -0.8404
 4900SOL    HW226334   3.776   0.861   5.548 -0.7465  2.1758  0.3806
 4901SOL     OW26335   2.901   0.106   6.649  0.1768 -1.0552  0.1368
 4901SOL    HW126336   2.844   0.086   6.575 -0.0493 -0.5569  0.1799
 4901SOL    HW226337   2.897   0.201   6.651 -1.7211 -1.1151 -0.7154
 4902SOL     OW26338   0.735   0.420   3.482 -0.2351  0.3242  0.3220
 4902SOL    HW126339   0.749   0.514   3.490  0.4166  0.1354  1.5107
 4902SOL    HW226340   0.747   0.404   3.389  0.0615 -1.2489  0.6252
 4903SOL     OW26341   3.943   2.303   7.523 -0.2562  0.1383  0.1287
 4903SOL    HW126342   3.875   2.365   7.499 -0.7580 -0.2724  0.5005
 4903SOL    HW226343   3.893   2.221   7.531 -1.7915  1.2806  2.1088
 4904SOL     OW26344   3.248   3.524   7.035  0.0357  0.5394  0.8354
 4904SOL    HW126345   3.246   3.520   6.939 -0.7076 -0.6924  0.8948
 4904SOL    HW226346   3.273   3.616   7.041  0.8556  0.4781 -1.6768
 4905SOL     OW26347   3.196   2.193   3.640 -0.0613  0.2314  0.2688
 4905SOL    HW126348   3.270   2.251   3.624 -1.2969  1.0441 -2.4101
 4905SOL    HW226349   3.209   2.118   3.581 -1.6756 -0.8794  1.3179
 4906SOL     OW26350   2.800   0.157  11.020  0.0224 -0.3048  0.0150
 4906SOL    HW126351   2.832   0.169  11.110 -0.2119 -0.2041  0.0853
 4906SOL    HW226352   2.857   0.085  10.993 -2.3642 -2.9045  1.7756
 4907SOL     OW26353   0.227   2.777   6.641 -0.7320  0.2992 -0.0925
 4907SOL    HW126354   0.187   2.690   6.645 -0.2653  0.1182  0.5995
 4907SOL    HW226355   0.315   2.746   6.618 -0.6086 -0.8109  1.8644
 4908SOL     OW26356   0.556   0.246   9.961 -0.3260 -0.2772 -0.2969
 4908SOL    HW126357   0.486   0.275  10.020  1.2801  2.7617  0.1760
 4908SOL    HW226358   0.514   0.176   9.912 -0.7924 -1.2216  1.4635
 4909SOL     OW26359   2.302   3.244   1.189  0.0705  0.6416  0.6455
 4909SOL    HW126360   2.347   3.169   1.229 -0.8376  0.1035  0.6520
 4909SOL    HW226361   2.352   3.319   1.221 -2.1539  1.1279  2.9869
 4910SOL     OW26362   2.490   2.169   0.632  0.1497  0.3464  0.7446
 4910SOL    HW126363   2.414   2.215   0.667  0.9952  1.2283  1.4208
 4910SOL    HW226364   2.531   2.150   0.716  2.1761 -1.6938 -0.7174
 4911SOL     OW26365   3.510   3.373   3.452 -0.0786  0.3231  0.1631
 4911SOL    HW126366   3.491   3.454   3.406  0.9022  0.5157  0.0918
 4911SOL    HW226367   3.583   3.338   3.400  0.0559  3.2010 -1.5445
 4912SOL     OW26368   3.510   3.026  10.213 -0.0461 -0.2440 -0.0824
 4912SOL    HW126369   3.423   3.013  10.174 -0.6338 -2.0326  1.8581
 4912SOL    HW226370   3.537   3.097  10.154 -2.1498 -0.1128 -0.9290
 4913SOL     OW26371   1.995   4.407   9.492  0.6855  0.5786  0.3688
 4913SOL    HW126372   1.965   4.396   9.402  0.3578 -1.1935  0.6791
 4913SOL    HW226373   1.927   4.351   9.530  0.0836  0.7987 -0.3886
 4914SOL     OW26374   4.674   1.212   3.904  0.0933  0.0893  0.1345
 4914SOL    HW126375   0.005   1.146   3.919 -2.0797 -2.3144 -0.6777
 4914SOL    HW226376   4.729   1.280   3.865  0.0409  1.8186  3.0523
 4915SOL     OW26377   1.088   0.181   4.460  0.3228 -0.0594  0.6766
 4915SOL    HW126378   1.021   0.233   4.505 -1.0621  0.0288 -1.4824
 4915SOL    HW226379   1.143   0.154   4.533  1.2809 -1.5609 -0.6048
 4916SOL     OW26380   3.912   2.233   5.717 -0.6993 -0.0265  0.1055
 4916SOL    HW126381   3.926   2.187   5.799  1.5011  1.5268  0.6015
 4916SOL    HW226382   3.985   2.294   5.722 -1.4378  1.1139 -2.8975
 4917SOL     OW26383   4.292   4.729   9.297  0.5730  0.3725 -0.3349
 4917SOL    HW126384   4.279   4.641   9.332 -0.8745  0.8454  0.3321
 4917SOL    HW226385   4.365   0.018   9.353  0.3423  2.0648 -0.8362
 4918SOL     OW26386   3.682   4.096  12.800  0.1445  0.1359 -0.1640
 4918SOL    HW126387   3.690   4.027  12.734 -0.9501 -0.9855  0.8660
 4918SOL    HW226388   3.771   4.108  12.833 -0.2489 -0.9988  1.3469
 4919SOL     OW26389   4.213   4.303   4.745  0.2096  0.2347  0.4841
 4919SOL    HW126390   4.226   4.278   4.653 -2.5099 -1.4993  0.5566
 4919SOL    HW226391   4.118   4.307   4.757 -0.1501 -0.0582 -2.2652
 4920SOL     OW26392   0.178   3.571   6.197 -0.5116 -0.2495 -0.0237
 4920SOL    HW126393   0.138   3.493   6.234 -2.3727  0.2144 -1.0446
 4920SOL    HW226394   0.266   3.558   6.232 -0.3941  0.9440  0.1273
 4921SOL     OW26395   0.017   4.174   5.331 -0.5627 -0.1594  0.1291
 4921SOL    HW126396   4.734   4.210   5.245 -1.1204  0.4500  0.5170
 4921SOL    HW226397   0.052   4.254   5.370 -0.9584 -1.6764  3.6444
 4922SOL     OW26398   3.212   3.632   2.908 -0.0166 -0.4383  0.2833
 4922SOL    HW126399   3.154   3.570   2.951  1.1932 -1.6116  0.2237
 4922SOL    HW226400   3.255   3.579   2.842  1.8782  1.6921 -0.2025
 4923SOL     OW26401   3.371   2.530   4.132 -0.2765  0.3837 -0.6075
 4923SOL    HW126402   3.394   2.493   4.047 -0.2590  1.9791 -1.3013
 4923SOL    HW226403   3.276   2.539   4.121 -0.5460 -1.3908  0.2655
 4924SOL     OW26404   2.397   0.318   6.684 -0.0416 -0.3145 -0.4994
 4924SOL    HW126405   2.307   0.337   6.657 -0.2283  0.0229  0.3879
 4924SOL    HW226406   2.408   0.258   6.610  2.4391 -1.2290  0.5952
 4925SOL     OW26407   4.432   3.368  13.513 -0.0680  0.7398  0.0431
 4925SOL    HW126408   4.370   3.391  13.445  0.1700  2.2342  0.3160
 4925SOL    HW226409   4.454   3.281  13.482 -1.3401  0.7979 -1.0016
 4926SOL     OW26410   3.885   3.174   2.257  0.2984 -0.1313  0.2232
 4926SOL    HW126411   3.825   3.100   2.250 -1.0052  0.6952  2.5976
 4926SOL    HW226412   3.965   3.132   2.224  0.5215  0.0173  0.5685
 4927SOL     OW26413   2.142   4.375  16.007  0.7976 -0.1503  0.0141
 4927SOL    HW126414   2.225   4.414  16.036  0.1306  1.4076 -0.1695
 4927SOL    HW226415   2.084   4.450  16.021 -0.7125 -1.3501  0.0987
 4928SOL     OW26416   2.394   0.334   1.473 -0.3683 -0.1386 -0.3345
 4928SOL    HW126417   2.339   0.413   1.469 -2.6182 -1.6616  0.4795
 4928SOL    HW226418   2.446   0.328   1.393 -0.2856 -0.2008 -0.2763
 4929SOL     OW26419   0.561   2.588   0.577 -0.3917  0.5058 -0.2860
 4929SOL    HW126420   0.608   2.560   0.655 -2.6345  0.9879  1.2353
 4929SOL    HW226421   0.603   2.535   0.508  0.4998 -1.6201  1.8970
 4930SOL     OW26422   0.507   3.104   7.853  0.1077  0.0999  0.0677
 4930SOL    HW126423   0.508   3.161   7.775  0.3283 -0.5551 -0.4117
 4930SOL    HW226424   0.584   3.049   7.837 -1.1452 -1.1513 -1.6636
 4931SOL     OW26425   4.531   3.007   4.051  0.0247  0.5738  0.1741
 4931SOL    HW126426   4.619   2.994   4.086  0.9805  1.4920 -1.8938
 4931SOL    HW226427   4.504   3.077   4.112  0.7325  0.5235  0.5494
 4932SOL     OW26428   1.402   0.256   8.090  0.0983 -0.1766 -0.1285
 4932SOL    HW126429   1.422   0.244   8.183  2.7689 -2.6393 -1.0486
 4932SOL    HW226430   1.309   0.276   8.101  0.2856  0.4821  0.2188
 4933SOL     OW26431   4.359   4.023  13.529 -0.1061  0.1231  0.0532
 4933SOL    HW126432   4.454   4.012  13.533  0.1076  1.9115 -0.3861
 4933SOL    HW226433   4.330   3.974  13.453 -2.4147  1.7980 -0.1343
 4934SOL     OW26434   3.433   3.938   7.398 -0.1808 -0.0216 -0.4658
 4934SOL    HW126435   3.525   3.965   7.392 -0.2557  0.1879 -0.6906
 4934SOL    HW226436   3.394   4.026   7.395 -0.9211 -0.3048  1.2899
 4935SOL     OW26437   2.717   1.682   3.470 -0.6107  0.1646 -0.3441
 4935SOL    HW126438   2.768   1.703   3.392  0.9482  0.5176  0.7705
 4935SOL    HW226439   2.701   1.770   3.504 -1.7477  0.5194 -1.7922
 4936SOL     OW26440   4.032   1.281  11.976  0.4826 -0.2854 -0.3277
 4936SOL    HW126441   4.102   1.259  12.038  0.0908  1.2163  0.6480
 4936SOL    HW226442   4.015   1.375  11.984 -1.4826 -0.7277  0.7578
 4937SOL     OW26443   0.825   0.360  13.371  0.1079  0.2519  0.0559
 4937SOL    HW126444   0.753   0.323  13.320  0.6901 -0.6799 -0.0864
 4937SOL    HW226445   0.798   0.338  13.460 -0.8925  0.3371 -0.2267
 4938SOL     OW26446   1.226   4.700  16.911 -0.2374 -0.1715 -0.0123
 4938SOL    HW126447   1.210   0.019  16.835 -2.4850 -2.4165 -1.2377
 4938SOL    HW226448   1.319   4.711  16.927 -0.1720  0.0782 -0.5625
 4939SOL     OW26449   3.736   3.695   4.526 -0.2536  0.0065  0.0714
 4939SOL    HW126450   3.675   3.657   4.464  0.2017 -1.4059  0.4766
 4939SOL    HW226451   3.731   3.642   4.606 -0.1685  1.5434  1.1038
 4940SOL     OW26452   2.042   1.052  10.620 -0.1179 -0.2407 -0.8245
 4940SOL    HW126453   1.948   1.053  10.601 -0.2719 -1.8938 -0.1183
 4940SOL    HW226454   2.081   1.016  10.541 -0.1808  0.3243 -1.1148
 4941SOL     OW26455   3.568   2.004  11.736  0.1129  0.7381 -0.0543
 4941SOL    HW126456   3.516   1.924  11.726  1.5339 -0.0238 -1.4426
 4941SOL    HW226457   3.532   2.023  11.822 -0.7152 -0.3306 -0.1665
 4942SOL     OW26458   1.614   1.871  10.902  0.0354 -0.5902 -0.2701
 4942SOL    HW126459   1.523   1.849  10.882  0.2171 -1.2751 -0.3352
 4942SOL    HW226460   1.661   1.789  10.888  0.8703 -0.0037 -0.9291
 4943SOL     OW26461   4.135   0.916   6.215  0.5815 -0.0468  0.2306
 4943SOL    HW126462   4.134   0.841   6.275  0.5831 -0.6137 -0.4745
 4943SOL    HW226463   4.226   0.947   6.216  0.4825  0.2504 -0.3757
 4944SOL     OW26464   3.594   3.895   0.740  0.1574  0.6009 -0.2860
 4944SOL    HW126465   3.546   3.878   0.659 -0.7244 -0.8140  0.5318
 4944SOL    HW226466   3.527   3.942   0.789 -0.4823 -0.7379  0.1118
 4945SOL     OW26467   0.718   2.162   8.499  0.1735 -0.3971 -0.4522
 4945SOL    HW126468   0.721   2.255   8.522 -1.6605 -0.3443 -0.3903
 4945SOL    HW226469   0.697   2.132   8.588 -1.1868 -1.0091 -0.9802
 4946SOL     OW26470   4.175   1.602  17.288  0.4266  0.1608  0.0737
 4946SOL    HW126471   4.081   1.596  17.276  0.1485  0.5143  2.2027
 4946SOL    HW226472   4.206   1.625  17.200 -2.6711  2.1264 -0.4757
 4947SOL     OW26473   4.339   1.396   2.124  0.2861  0.4027 -0.2009
 4947SOL    HW126474   4.266   1.334   2.129  1.5056 -0.8939  1.4163
 4947SOL    HW226475   4.344   1.407   2.219 -0.1045  0.3716 -0.1749
 4948SOL     OW26476   1.059   3.467   7.499  0.1393 -0.4503  0.1755
 4948SOL    HW126477   1.109   3.386   7.486  1.2741  0.4443 -0.9295
 4948SOL    HW226478   1.083   3.492   7.588  1.3470  1.1569 -0.6040
 4949SOL     OW26479   3.363   2.608  16.291 -0.5709  0.2355  0.2481
 4949SOL    HW126480   3.306   2.532  16.287 -0.0332 -0.3041  2.5380
 4949SOL    HW226481   3.301   2.681  16.287 -0.6182  0.1412 -0.7583
 4950SOL     OW26482   3.117   3.639  15.612  0.2912 -0.4322 -0.2842
 4950SOL    HW126483   3.161   3.636  15.697  0.9771  2.0554 -0.5482
 4950SOL    HW226484   3.160   3.716  15.574  2.2111 -1.1637  0.4140
 4951SOL     OW26485   0.014   3.819   5.034 -0.2692 -0.5783 -0.2531
 4951SOL    HW126486   0.078   3.885   5.007 -1.2753  0.5732  0.1502
 4951SOL    HW226487   0.053   3.773   5.107 -2.0986  1.0238  1.7520
 4952SOL     OW26488   2.253   0.058   8.897 -0.4310  0.3459  0.4319
 4952SOL    HW126489   2.275   4.706   8.870  0.4772  0.3270  1.2491
 4952SOL    HW226490   2.165   0.057   8.860 -0.7530 -0.1142  1.2312
 4953SOL     OW26491   0.915   2.139   6.629 -0.4110  0.0013 -0.4542
 4953SOL    HW126492   0.917   2.058   6.577  1.5098 -0.1943 -0.0686
 4953SOL    HW226493   0.977   2.127   6.700 -0.9028  1.1819  0.1667
 4954SOL     OW26494   1.451   2.548   1.524 -0.5687 -0.3136  0.3680
 4954SOL    HW126495   1.471   2.525   1.615 -1.1770 -1.5535  0.1826
 4954SOL    HW226496   1.416   2.637   1.527  1.2432  0.4409 -1.0532
 4955SOL     OW26497   1.132   3.181   7.546 -0.6933 -0.0301 -0.1520
 4955SOL    HW126498   1.101   3.205   7.633  0.2600 -0.2930  0.2483
 4955SOL    HW226499   1.070   3.113   7.521 -2.0308  0.4519  1.8256
 4956SOL     OW26500   1.309   2.708   0.991  0.6335 -0.4550  0.6044
 4956SOL    HW126501   1.391   2.754   0.975  0.4654  0.0844  1.2763
 4956SOL    HW226502   1.238   2.759   0.954  1.0534 -0.8800 -0.7698
 4957SOL     OW26503   4.048   1.870  10.560  0.0494 -0.5536  0.0775
 4957SOL    HW126504   3.999   1.903  10.485 -0.2589 -0.0885  0.4904
 4957SOL    HW226505   4.078   1.949  10.604 -1.8531  0.8248 -1.1245
 4958SOL     OW26506   3.217   4.698  16.065  0.0511 -0.0222 -0.5878
 4958SOL    HW126507   3.208   4.605  16.047  1.4190 -0.3168  0.2797
 4958SOL    HW226508   3.304   4.696  16.103  0.7421 -1.8452 -2.2850
 4959SOL     OW26509   0.059   2.970  12.970  0.0005  0.3324  0.3040
 4959SOL    HW126510   4.729   2.974  12.903  0.0840 -2.4675  0.0488
 4959SOL    HW226511   0.140   3.001  12.930 -0.4806  0.3805 -0.6285
 4960SOL     OW26512   4.140   0.767   1.578  0.1339  0.3536  0.0110
 4960SOL    HW126513   4.078   0.694   1.575  1.0787 -0.4007 -1.0230
 4960SOL    HW226514   4.182   0.759   1.492 -0.1070  1.3974 -0.2114
 4961SOL     OW26515   1.314   1.766   6.848 -0.2506 -0.1890 -0.0722
 4961SOL    HW126516   1.276   1.715   6.920  0.2151 -1.1497 -0.4993
 4961SOL    HW226517   1.403   1.730   6.852  0.2575  1.2380  1.5842
 4962SOL     OW26518   1.358   3.758   2.195  0.1115 -0.1016 -0.4008
 4962SOL    HW126519   1.267   3.730   2.191  0.7931 -2.1966 -1.5033
 4962SOL    HW226520   1.359   3.791   2.106  2.7893  3.8117  1.0920
 4963SOL     OW26521   2.325   2.986   6.584  0.4007  0.0908  0.4343
 4963SOL    HW126522   2.361   3.056   6.639  0.5994  1.4613 -1.4495
 4963SOL    HW226523   2.397   2.990   6.521 -0.0115  0.6997  0.0028
 4964SOL     OW26524   0.462   4.118   3.515  1.1993  0.5434 -0.2297
 4964SOL    HW126525   0.520   4.190   3.539  1.0098  0.5245  0.2770
 4964SOL    HW226526   0.393   4.141   3.576  1.5787 -2.8105  1.4742
 4965SOL     OW26527   1.660   2.434  17.608 -0.2474  0.5059 -0.3623
 4965SOL    HW126528   1.633   2.474  17.690 -0.7849  2.3260 -1.4252
 4965SOL    HW226529   1.708   2.357  17.637 -0.1934  0.3953 -0.7422
 4966SOL     OW26530   0.063   0.459   7.006 -0.0869  0.2133  0.0316
 4966SOL    HW126531   0.040   0.526   7.071  1.8065  1.8297 -0.9778
 4966SOL    HW226532   0.028   0.485   6.921  1.9911  1.3531 -0.4865
 4967SOL     OW26533   2.778   4.473   1.374  0.1772  0.3518 -0.5339
 4967SOL    HW126534   2.779   4.384   1.338  1.2132 -0.0257  0.4355
 4967SOL    HW226535   2.872   4.487   1.366  0.6161 -2.5178 -0.4656
 4968SOL     OW26536   1.543   3.229   5.585 -0.0563 -1.0732  0.1274
 4968SOL    HW126537   1.564   3.254   5.495  0.7704  1.1291  0.9436
 4968SOL    HW226538   1.458   3.269   5.602 -0.3204 -0.0997 -3.3950
 4969SOL     OW26539   4.029   3.869   1.718  0.3058 -0.0947  0.4481
 4969SOL    HW126540   3.984   3.917   1.649 -0.1275 -0.9541  0.1317
 4969SOL    HW226541   4.074   3.802   1.667  1.4082 -0.1868  1.5298
 4970SOL     OW26542   3.886   0.212   3.178 -0.2303 -0.2464  0.0288
 4970SOL    HW126543   3.838   0.210   3.261  0.6093  1.8743  0.5512
 4970SOL    HW226544   3.977   0.231   3.202  0.0417 -0.1218 -1.0991
 4971SOL     OW26545   4.345   0.865   4.482  0.1829  0.3616  0.4318
 4971SOL    HW126546   4.322   0.786   4.433  1.9318 -0.1855  0.5017
 4971SOL    HW226547   4.367   0.914   4.403 -1.9090 -0.9614 -0.9718
 4972SOL     OW26548   3.885   1.119   9.152 -0.3264  0.1648 -0.3857
 4972SOL    HW126549   3.963   1.163   9.186 -1.1434  3.1688 -2.4808
 4972SOL    HW226550   3.820   1.111   9.222 -1.5496  1.0922 -1.4369
 4973SOL     OW26551   1.438   1.056   8.380  0.0749 -0.1931 -0.2917
 4973SOL    HW126552   1.502   1.117   8.343  1.2488  0.7712  3.3351
 4973SOL    HW226553   1.382   1.039   8.304  0.1718  0.2654 -0.4644
 4974SOL     OW26554   3.865   4.203   7.994 -0.3404  0.0561  0.4668
 4974SOL    HW126555   3.806   4.278   7.990 -0.1089  0.1661 -0.9983
 4974SOL    HW226556   3.924   4.229   8.065  0.6320 -1.4337  0.2126
 4975SOL     OW26557   2.571   3.478   5.181 -0.6265  0.0306  0.1896
 4975SOL    HW126558   2.565   3.389   5.215 -1.2129  0.0539  0.1450
 4975SOL    HW226559   2.486   3.487   5.138 -1.4403 -0.7923  1.6118
 4976SOL     OW26560   0.950   4.222   8.453 -0.3606  0.0873 -0.3547
 4976SOL    HW126561   0.874   4.175   8.487  0.2925  1.2851  2.7437
 4976SOL    HW226562   1.006   4.225   8.531 -1.0413 -0.8828  0.1702
 4977SOL     OW26563   3.170   2.933   6.317  0.2594 -0.0086 -0.6852
 4977SOL    HW126564   3.163   2.881   6.236 -1.2913 -1.1831  0.2102
 4977SOL    HW226565   3.158   2.868   6.386 -3.1300 -1.8716 -3.0136
 4978SOL     OW26566   4.640   2.784   5.336  0.0288 -0.0925  0.2938
 4978SOL    HW126567   4.686   2.701   5.345  3.3792  1.8691  1.2151
 4978SOL    HW226568   4.707   2.843   5.371  0.7582 -0.8012  0.0947
 4979SOL     OW26569   1.414   1.197  13.813 -0.0431  0.2100 -0.1697
 4979SOL    HW126570   1.402   1.112  13.770  0.2399  2.3034 -4.4068
 4979SOL    HW226571   1.391   1.178  13.904 -1.4286  1.3159 -0.2937
 4980SOL     OW26572   3.613   3.600   6.776  0.5501  0.2703  0.1352
 4980SOL    HW126573   3.599   3.694   6.762 -1.4339  0.3125  2.3502
 4980SOL    HW226574   3.555   3.574   6.704  0.9731 -0.6208  0.1259
 4981SOL     OW26575   2.104   3.046   2.767  0.8772  0.7763 -0.1933
 4981SOL    HW126576   2.023   3.021   2.723  0.2000 -0.4498  1.7351
 4981SOL    HW226577   2.127   2.957   2.793 -0.0596  0.0610 -1.8662
 4982SOL     OW26578   1.390   2.702   8.941  0.3251  0.1544 -0.3064
 4982SOL    HW126579   1.387   2.612   8.973  1.0375  0.1571 -0.2331
 4982SOL    HW226580   1.303   2.740   8.951  1.0312  1.6510  0.0665
 4983SOL     OW26581   0.326   0.286   4.293  0.5046  0.0696 -0.4632
 4983SOL    HW126582   0.234   0.311   4.299  0.7487  0.8256  0.1015
 4983SOL    HW226583   0.367   0.367   4.262  2.3687 -0.9422 -0.6138
 4984SOL     OW26584   1.208   0.327   2.941  0.2231 -0.0159 -0.1584
 4984SOL    HW126585   1.284   0.297   2.990 -0.7230  0.8621  1.8701
 4984SOL    HW226586   1.144   0.318   3.013  1.0862 -3.6562  0.1225
 4985SOL     OW26587   3.161   2.702   4.530 -0.5889  0.5327 -0.5842
 4985SOL    HW126588   3.089   2.664   4.580 -1.0973 -1.1315 -2.5711
 4985SOL    HW226589   3.178   2.625   4.476 -2.1349  1.4564 -2.4102
 4986SOL     OW26590   4.573   1.489   4.608 -0.0454 -0.2239 -0.1243
 4986SOL    HW126591   4.483   1.518   4.619  0.1261  0.0516  0.5746
 4986SOL    HW226592   4.602   1.489   4.699 -3.7390 -3.6070  1.0656
 4987SOL     OW26593   2.026   0.493   3.975 -0.2610 -0.0727  0.1669
 4987SOL    HW126594   1.949   0.541   3.943  0.8547  1.3767 -0.3167
 4987SOL    HW226595   2.024   0.509   4.069 -0.0047 -1.9702  0.5007
 4988SOL     OW26596   3.380   3.044   3.381  0.0943 -0.3674 -0.3651
 4988SOL    HW126597   3.320   2.969   3.383  0.3804 -0.5617  0.6249
 4988SOL    HW226598   3.369   3.075   3.470 -0.1613 -4.7617  1.1576
 4989SOL     OW26599   0.498   2.480   5.539  0.4297 -0.2243 -0.6441
 4989SOL    HW126600   0.422   2.506   5.487  0.9198  1.0187 -0.7273
 4989SOL    HW226601   0.559   2.458   5.469  0.6222 -4.3969  0.8386
 4990SOL     OW26602   3.528   1.137   4.536  0.2488  0.2018  0.1825
 4990SOL    HW126603   3.489   1.210   4.584 -1.4671  0.4571 -1.5997
 4990SOL    HW226604   3.620   1.145   4.561  0.8833 -2.7112 -1.2031
 4991SOL     OW26605   4.593   1.875  16.296  0.1395 -0.5100  0.8566
 4991SOL    HW126606   4.660   1.909  16.236 -3.7186  3.3383 -1.3226
 4991SOL    HW226607   4.523   1.941  16.291  0.1942 -0.3783  1.8742
 4992SOL     OW26608   3.295   2.425   4.643  0.1331  0.4177  0.2778
 4992SOL    HW126609   3.351   2.498   4.668 -0.8735  1.0532  0.7154
 4992SOL    HW226610   3.282   2.453   4.553  1.1594  1.1807  0.3736
 4993SOL     OW26611   1.160   0.800  17.110  0.1611  0.1459 -0.5030
 4993SOL    HW126612   1.122   0.885  17.132 -0.0964 -0.8149  2.8133
 4993SOL    HW226613   1.245   0.805  17.153 -0.5230  2.2329  0.6231
 4994SOL     OW26614   1.467   2.799  14.095 -0.0783 -0.2206 -0.3741
 4994SOL    HW126615   1.446   2.879  14.143  0.0901 -1.3751  1.6421
 4994SOL    HW226616   1.563   2.807  14.094 -0.1831  1.4518  1.5116
 4995SOL     OW26617   0.973   2.389   1.219 -0.4728  0.3190  0.4790
 4995SOL    HW126618   1.065   2.366   1.232 -1.0867 -2.0721  0.6013
 4995SOL    HW226619   0.941   2.388   1.309 -0.6550 -1.8788  0.3836
 4996SOL     OW26620   3.422   1.162   0.615  0.9894  0.0529 -0.1518
 4996SOL    HW126621   3.379   1.077   0.603  0.8008  0.1911 -0.4516
 4996SOL    HW226622   3.386   1.201   0.536  0.9202  1.8961  0.7980
 4997SOL     OW26623   3.170   0.547  12.347 -0.5131  0.4010 -0.0090
 4997SOL    HW126624   3.080   0.527  12.373 -0.8405  1.1662 -0.5548
 4997SOL    HW226625   3.156   0.617  12.284 -0.4886  0.1563 -0.2883
 4998SOL     OW26626   0.013   2.558   1.712 -0.4012 -0.4826  0.3826
 4998SOL    HW126627   4.675   2.537   1.657  0.6103 -3.0049 -0.0839
 4998SOL    HW226628   0.089   2.548   1.653  0.4492  0.4008  1.3419
 4999SOL     OW26629   3.163   1.329   4.096  0.5873 -0.5932 -0.0993
 4999SOL    HW126630   3.172   1.400   4.033 -0.1154  0.8651  1.4646
 4999SOL    HW226631   3.077   1.348   4.132  1.1426 -1.9329  1.9585
 5000SOL     OW26632   2.293   1.070   8.423  0.2995 -0.2587  0.3260
 5000SOL    HW126633   2.382   1.085   8.453  0.9718 -0.9526 -1.3275
 5000SOL    HW226634   2.281   1.152   8.375  0.6523 -1.0235 -1.0649
 5001SOL     OW26635   0.460   4.031   5.053 -0.2383  0.0855  0.4323
 5001SOL    HW126636   0.520   4.037   5.127 -1.7086 -0.1690  1.6316
 5001SOL    HW226637   0.481   4.112   5.007 -0.1013  0.1208  0.5579
 5002SOL     OW26638   2.784   1.120   7.782  0.2881 -0.0180 -0.4960
 5002SOL    HW126639   2.707   1.139   7.728 -0.2327 -1.5608 -0.2959
 5002SOL    HW226640   2.854   1.162   7.732  0.5641  1.7354  1.3645
 5003SOL     OW26641   1.180   4.257   5.144 -0.5136 -0.1793 -0.4068
 5003SOL    HW126642   1.095   4.265   5.186 -0.3123 -1.1823  0.2086
 5003SOL    HW226643   1.182   4.166   5.113  0.8494 -0.1909 -0.3036
 5004SOL     OW26644   4.403   1.026   4.774  0.0986 -0.1749  0.0854
 5004SOL    HW126645   4.466   1.069   4.716  0.5883  2.0372  2.2558
 5004SOL    HW226646   4.419   1.078   4.852  1.0623 -1.8383  0.9738
 5005SOL     OW26647   4.073   1.063   0.571 -0.3404  0.1743  0.6625
 5005SOL    HW126648   3.994   1.018   0.542 -0.2227  1.2448 -1.3531
 5005SOL    HW226649   4.117   1.101   0.495 -1.0998  0.0370  0.1482
 5006SOL     OW26650   1.011   0.663   3.734 -0.1623  0.5553  0.4037
 5006SOL    HW126651   0.973   0.609   3.803  0.7810 -2.0045 -1.0987
 5006SOL    HW226652   1.029   0.591   3.674 -3.8631  0.0103 -0.0698
 5007SOL     OW26653   1.396   3.401   6.062 -0.8347  0.3995 -0.0537
 5007SOL    HW126654   1.320   3.438   6.016  0.8691  1.7468 -1.7927
 5007SOL    HW226655   1.443   3.483   6.076 -0.4281  0.4792 -1.8867
 5008SOL     OW26656   1.217   0.007  16.047  0.6630  0.1386 -0.2119
 5008SOL    HW126657   1.196   4.667  15.994 -0.3847  0.4066 -0.1997
 5008SOL    HW226658   1.130   0.016  16.086  1.3765  0.4219  1.3301
 5009SOL     OW26659   3.336   0.607   7.263  1.0070  0.0860  0.7120
 5009SOL    HW126660   3.251   0.564   7.273  0.5144  1.3112  1.8511
 5009SOL    HW226661   3.326   0.672   7.333  2.2726 -0.4599  1.3956
 5010SOL     OW26662   0.621   4.638   1.198  0.1935 -0.3729  0.7348
 5010SOL    HW126663   0.630   4.733   1.206 -3.2515 -0.0862  1.1007
 5010SOL    HW226664   0.691   4.613   1.137  1.7444  3.1188  1.0566
 5011SOL     OW26665   3.397   1.493   1.200 -0.4215 -0.0212 -0.5253
 5011SOL    HW126666   3.372   1.407   1.166 -3.3234  0.4970  0.3219
 5011SOL    HW226667   3.437   1.467   1.283  0.6955  1.2955 -0.6450
 5012SOL     OW26668   1.090   4.383   4.908  0.1509  0.4073  0.3159
 5012SOL    HW126669   0.999   4.380   4.938 -0.2988 -0.6735 -1.1719
 5012SOL    HW226670   1.134   4.346   4.984 -0.9121  0.3274  0.8817
 5013SOL     OW26671   4.238   4.172   4.005 -0.3620  0.3003 -0.0586
 5013SOL    HW126672   4.333   4.178   3.990  0.0051 -1.9184  1.3076
 5013SOL    HW226673   4.205   4.262   3.997 -0.6791  0.0967 -1.0544
 5014SOL     OW26674   2.676   0.600   3.894  0.0096  0.2564  0.4928
 5014SOL    HW126675   2.710   0.687   3.912  0.2699  0.3208 -0.3092
 5014SOL    HW226676   2.698   0.546   3.971 -0.7295 -1.7439 -0.6910
 5015SOL     OW26677   3.153   1.764   2.250 -0.0529 -0.2789  0.3900
 5015SOL    HW126678   3.146   1.787   2.157  1.3147  0.4477  0.4607
 5015SOL    HW226679   3.159   1.853   2.286  0.7517 -0.8870  1.7592
 5016SOL     OW26680   2.471   3.445   7.467  0.0348 -0.1567 -0.5684
 5016SOL    HW126681   2.462   3.489   7.551 -0.6198 -0.7967 -0.3016
 5016SOL    HW226682   2.476   3.512   7.399 -0.9983 -0.7484 -1.2230
 5017SOL     OW26683   3.800   2.309   7.888 -0.3716 -0.8202 -0.0026
 5017SOL    HW126684   3.850   2.391   7.892 -2.5903  0.6356 -1.8896
 5017SOL    HW226685   3.872   2.246   7.890 -0.2608 -0.7349 -0.9350
 5018SOL     OW26686   4.643   3.606   6.695  0.1598  0.3972  0.2793
 5018SOL    HW126687   4.731   3.643   6.708  0.4913  0.2281 -1.3930
 5018SOL    HW226688   4.658   3.524   6.648  1.8416  1.1936 -0.6008
 5019SOL     OW26689   0.121   0.254   6.338  0.2847 -0.0774  0.7372
 5019SOL    HW126690   0.078   0.248   6.253  0.0790  1.1946  0.7620
 5019SOL    HW226691   0.134   0.160   6.352  0.8326 -0.0040  0.7188
 5020SOL     OW26692   4.571   3.271   5.393 -0.6005 -0.6510  0.2365
 5020SOL    HW126693   4.496   3.235   5.345  0.2610 -3.8240  1.3066
 5020SOL    HW226694   4.569   3.213   5.469  0.0793 -0.5700  0.3217
 5021SOL     OW26695   3.123   0.872   8.080  0.3849 -0.3837 -0.0592
 5021SOL    HW126696   3.165   0.945   8.036 -2.1310 -0.0993 -2.0084
 5021SOL    HW226697   3.195   0.835   8.130 -0.4897 -2.2120 -0.1233
 5022SOL     OW26698   1.239   0.392   7.496  0.2838 -0.0783 -0.3811
 5022SOL    HW126699   1.191   0.368   7.416  0.8028  1.7496 -1.2497
 5022SOL    HW226700   1.199   0.345   7.569 -1.7277 -0.3782 -1.6515
 5023SOL     OW26701   1.702   3.547   6.197 -0.7421 -0.3179 -0.1435
 5023SOL    HW126702   1.713   3.465   6.150 -0.3842  0.1131 -0.8048
 5023SOL    HW226703   1.648   3.588   6.129  0.8656  1.7878 -0.1634
 5024SOL     OW26704   0.859   3.704   6.675 -0.4197 -0.4863 -0.0870
 5024SOL    HW126705   0.915   3.652   6.732 -0.5966  0.9387  1.3873
 5024SOL    HW226706   0.908   3.787   6.673 -0.3730 -0.5412 -0.9413
 5025SOL     OW26707   3.217   2.008   2.404  0.3343 -0.1173 -0.3573
 5025SOL    HW126708   3.301   2.043   2.371 -0.5077  2.6475  0.4175
 5025SOL    HW226709   3.154   2.080   2.403  1.1907  0.6176 -2.0476
 5026SOL     OW26710   2.167   1.783   4.324  0.4747  1.1370  0.1708
 5026SOL    HW126711   2.115   1.791   4.404  0.7797  2.8931  0.1845
 5026SOL    HW226712   2.137   1.698   4.290  0.1629  2.2790 -2.4197
 5027SOL     OW26713   4.381   3.715   6.727 -0.2263 -0.5218  0.0451
 5027SOL    HW126714   4.457   3.662   6.752  0.6450  1.8211  2.2472
 5027SOL    HW226715   4.390   3.716   6.632 -0.0246 -2.6775  0.0285
 5028SOL     OW26716   2.220   1.131   8.061  0.5255  0.9319 -0.2908
 5028SOL    HW126717   2.302   1.083   8.075  0.0906  0.2708  0.0269
 5028SOL    HW226718   2.188   1.074   7.992 -0.1857  1.7551 -0.6375
 5029SOL     OW26719   4.001   0.550  11.174  0.1585 -0.1068 -0.2374
 5029SOL    HW126720   3.983   0.641  11.150 -3.2158 -1.3233 -2.3256
 5029SOL    HW226721   4.094   0.540  11.153  0.0134  1.5117 -1.6567
 5030SOL     OW26722   0.761   3.980   6.849 -0.0202 -0.3148 -0.0324
 5030SOL    HW126723   0.719   4.027   6.921  0.5283 -1.9698  1.3746
 5030SOL    HW226724   0.758   4.047   6.780  0.8722  1.4936  1.6789
 5031SOL     OW26725   2.359   1.581  12.140  0.6087  0.3501  0.1785
 5031SOL    HW126726   2.292   1.542  12.084  1.4243  0.2006 -0.6779
 5031SOL    HW226727   2.337   1.520  12.211 -3.0117  1.9179  0.4309
 5032SOL     OW26728   1.345   2.375   2.712 -0.3915  0.2639  0.2103
 5032SOL    HW126729   1.252   2.395   2.720 -0.3313 -0.1809  2.0571
 5032SOL    HW226730   1.367   2.411   2.798  1.6220  0.7793 -0.5266
 5033SOL     OW26731   2.207   3.671   3.491 -0.1527 -0.0588  0.2832
 5033SOL    HW126732   2.278   3.608   3.497  1.1324  1.4881  1.2664
 5033SOL    HW226733   2.240   3.749   3.447  0.9178 -0.8999 -0.3877
 5034SOL     OW26734   4.261   0.452  15.110 -0.0115  0.0676  0.1392
 5034SOL    HW126735   4.297   0.527  15.062 -2.2321 -0.5303 -2.4613
 5034SOL    HW226736   4.238   0.400  15.033 -0.3281 -1.3438  1.1976
 5035SOL     OW26737   4.461   0.963   5.231 -0.0053  0.0503 -0.4103
 5035SOL    HW126738   4.403   0.888   5.246 -0.4616 -0.1680 -3.2978
 5035SOL    HW226739   4.403   1.026   5.273 -0.2494  0.1970 -0.9619
 5036SOL     OW26740   0.848   1.642   7.967 -0.6270  0.1010  0.1596
 5036SOL    HW126741   0.782   1.666   8.032  0.9792  1.3101  1.3546
 5036SOL    HW226742   0.862   1.551   7.992 -0.3969 -0.6456 -2.6901
 5037SOL     OW26743   3.837   4.388   3.214 -0.4765 -0.0679 -0.0990
 5037SOL    HW126744   3.862   4.351   3.299  0.7358 -4.2711 -2.2969
 5037SOL    HW226745   3.810   4.472   3.253 -0.8575  0.1126 -0.7521
 5038SOL     OW26746   1.889   0.192  12.478  0.3604  0.0608  0.2789
 5038SOL    HW126747   1.823   0.169  12.544  0.0378  1.7550  0.5320
 5038SOL    HW226748   1.960   0.220  12.535  2.5619 -0.9659 -1.9539
 5039SOL     OW26749   2.475   4.328   4.377 -0.0206 -0.0558  0.5419
 5039SOL    HW126750   2.469   4.420   4.351  1.0861  0.3479  1.7074
 5039SOL    HW226751   2.480   4.336   4.473  0.9446 -2.4705  0.7005
 5040SOL     OW26752   2.858   1.550   1.216  0.9562 -0.0826 -0.2825
 5040SOL    HW126753   2.795   1.511   1.275  0.9726 -1.2047 -1.0143
 5040SOL    HW226754   2.903   1.467   1.198 -1.7578 -1.4651 -0.5854
 5041SOL     OW26755   1.706   0.627   5.211 -0.0261 -0.3213  0.5668
 5041SOL    HW126756   1.638   0.560   5.212  1.5490 -1.9368  0.1496
 5041SOL    HW226757   1.696   0.649   5.119  1.3951  0.6245  0.6421
 5042SOL     OW26758   2.734   0.568   5.599  0.0091 -0.2625  0.1258
 5042SOL    HW126759   2.710   0.476   5.610  1.6416 -0.7839 -0.6628
 5042SOL    HW226760   2.755   0.598   5.687 -0.1690  0.5919 -0.1307
 5043SOL     OW26761   0.453   0.211   7.748  0.3704  0.1823 -0.1412
 5043SOL    HW126762   0.399   0.166   7.683  0.2030  0.7685 -0.4036
 5043SOL    HW226763   0.403   0.291   7.763  1.4069  0.2017  3.0851
 5044SOL     OW26764   3.269   1.302  13.672 -0.0906  0.4014  0.0801
 5044SOL    HW126765   3.284   1.397  13.676  0.0753  0.3749  0.0757
 5044SOL    HW226766   3.176   1.301  13.693 -0.5523  0.1069 -1.9305
 5045SOL     OW26767   0.122   2.292  13.591 -0.0062 -0.2751  0.6033
 5045SOL    HW126768   0.103   2.377  13.550  0.3401  0.2225  1.4685
 5045SOL    HW226769   0.141   2.230  13.522 -0.4561 -0.3732  0.5662
 5046SOL     OW26770   2.617   2.715   1.504  0.0590 -0.5338 -0.0668
 5046SOL    HW126771   2.668   2.645   1.545  1.1082 -0.9108 -2.0190
 5046SOL    HW226772   2.593   2.675   1.420 -0.3840 -1.0373  0.3018
 5047SOL     OW26773   1.510   4.262   8.245  0.5391 -0.0617 -0.2197
 5047SOL    HW126774   1.502   4.173   8.279  1.8885 -0.2357 -0.3843
 5047SOL    HW226775   1.470   4.258   8.158  0.8794  0.7158 -0.4192
 5048SOL     OW26776   3.835   2.856   0.853 -0.1827  0.2394  0.6308
 5048SOL    HW126777   3.820   2.804   0.932  0.3319  0.1372  0.6621
 5048SOL    HW226778   3.840   2.946   0.886 -0.4576 -0.0741  1.5150
 5049SOL     OW26779   4.505   0.207  15.464  0.6149  0.0735 -0.1556
 5049SOL    HW126780   4.481   0.137  15.404 -1.0057  1.0724 -0.6708
 5049SOL    HW226781   4.600   0.194  15.470  0.7238  0.7760 -0.2791
 5050SOL     OW26782   2.868   1.364  15.502 -0.1638 -0.0706  0.7034
 5050SOL    HW126783   2.885   1.361  15.596  2.0990 -1.6171  0.2423
 5050SOL    HW226784   2.868   1.458  15.483 -1.0401 -0.5028 -1.4097
 5051SOL     OW26785   1.010   3.847   7.724  0.6525  0.5007  0.1962
 5051SOL    HW126786   0.972   3.922   7.678  0.2201  0.4046  0.3977
 5051SOL    HW226787   1.095   3.879   7.753  0.1381  1.5100  0.5910
 5052SOL     OW26788   0.477   0.364   3.845  0.3756 -0.1199 -0.2623
 5052SOL    HW126789   0.570   0.380   3.858 -0.2017  0.3545  3.2965
 5052SOL    HW226790   0.475   0.278   3.886 -0.9615 -0.3857 -0.8781
 5053SOL     OW26791   1.749   3.090   6.725 -0.4192  0.2842  0.4655
 5053SOL    HW126792   1.844   3.104   6.729 -0.5464  1.7129 -1.6540
 5053SOL    HW226793   1.714   3.162   6.777 -0.1512  0.3833  0.5094
 5054SOL     OW26794   1.953   3.558   4.293  0.4484 -0.0475  0.0483
 5054SOL    HW126795   1.891   3.518   4.232 -0.7161  0.9921  0.5609
 5054SOL    HW226796   1.943   3.494   4.363  0.4451 -1.6277 -1.3794
 5055SOL     OW26797   2.280   0.827   8.253  0.1840 -0.3393  0.3962
 5055SOL    HW126798   2.286   0.903   8.310 -0.2435  1.1103 -1.5157
 5055SOL    HW226799   2.348   0.834   8.186 -3.0526 -1.6229 -3.0254
 5056SOL     OW26800   2.534   1.437   6.530 -1.0399  0.4218  0.2982
 5056SOL    HW126801   2.626   1.455   6.548 -1.1755 -0.5250  1.9001
 5056SOL    HW226802   2.492   1.492   6.597  1.4650 -0.4027  2.5321
 5057SOL     OW26803   1.425   4.250  15.760  0.1803 -0.5055 -0.2295
 5057SOL    HW126804   1.478   4.185  15.714 -2.1345 -2.0364 -0.7388
 5057SOL    HW226805   1.496   4.299  15.802  0.3809 -0.0282 -1.1436
 5058SOL     OW26806   4.393   1.050  13.291 -0.0049 -0.0408 -0.2605
 5058SOL    HW126807   4.391   1.133  13.339 -0.7081 -1.2616  1.8294
 5058SOL    HW226808   4.487   1.037  13.282  0.1911  1.7925 -0.9035
 5059SOL     OW26809   3.433   1.026   8.248 -0.4660  0.4948  0.0343
 5059SOL    HW126810   3.420   1.046   8.155  0.3257 -0.3798 -0.2710
 5059SOL    HW226811   3.356   1.065   8.288  0.6218  1.0752  1.5641
 5060SOL     OW26812   4.058   3.020   4.114 -0.5506  0.2534 -0.6453
 5060SOL    HW126813   4.109   3.063   4.045  2.0652  0.2534  1.3098
 5060SOL    HW226814   4.054   3.093   4.177  0.1298 -1.8743  1.8522
 5061SOL     OW26815   2.380   2.529   5.891 -0.3420  0.5505  0.7729
 5061SOL    HW126816   2.428   2.455   5.856 -1.1155 -0.4771  1.9022
 5061SOL    HW226817   2.442   2.576   5.947  0.0355  0.3679  0.5122
 5062SOL     OW26818   0.010   3.902   1.996 -0.2304  0.8363  0.5120
 5062SOL    HW126819   0.102   3.916   1.972 -0.3888  1.9920  0.5974
 5062SOL    HW226820   0.008   3.855   2.079 -0.2724 -1.0385 -0.5518
 5063SOL     OW26821   4.454   1.966   9.779 -0.3511 -0.2887  0.1648
 5063SOL    HW126822   4.470   2.059   9.790 -2.0716 -0.2845  2.4201
 5063SOL    HW226823   4.520   1.924   9.834  0.7604 -0.8140 -1.5670
 5064SOL     OW26824   3.960   0.687   5.373 -0.0656 -0.0678  0.0631
 5064SOL    HW126825   3.946   0.718   5.283  0.6786  1.8983  0.6198
 5064SOL    HW226826   3.966   0.773   5.416  2.4896 -0.0077 -0.3862
 5065SOL     OW26827   1.518   3.732   7.591 -0.2520 -0.5654  0.9334
 5065SOL    HW126828   1.472   3.791   7.531  3.3142  1.2399 -0.0231
 5065SOL    HW226829   1.564   3.794   7.648  1.6858  1.8842 -3.3244
 5066SOL     OW26830   2.655   4.272   6.017  0.4220 -0.5958 -0.3509
 5066SOL    HW126831   2.671   4.186   6.056 -0.9199 -0.1322  1.2447
 5066SOL    HW226832   2.560   4.280   6.025  0.5754  1.5660 -0.6272
 5067SOL     OW26833   2.262   1.349   4.638  0.1410 -0.3603  0.0322
 5067SOL    HW126834   2.259   1.259   4.671  2.1910 -0.6016 -0.4393
 5067SOL    HW226835   2.242   1.343   4.544 -2.2714 -1.2817  0.5904
 5068SOL     OW26836   3.486   1.835   0.432  0.3974  0.7370  0.6274
 5068SOL    HW126837   3.551   1.765   0.429  0.9641  1.2138  1.6987
 5068SOL    HW226838   3.410   1.790   0.396  0.7617  0.0973  0.6636
 5069SOL     OW26839   4.565   1.272  11.464  0.0347  0.1074 -0.3553
 5069SOL    HW126840   4.634   1.337  11.479  0.0108 -0.2065  1.1718
 5069SOL    HW226841   4.572   1.262  11.369 -0.5070 -2.5029 -0.1029
 5070SOL     OW26842   4.135   2.067   5.837  0.1049  0.2279 -0.1232
 5070SOL    HW126843   4.169   2.097   5.922  0.3294  0.9057 -0.4513
 5070SOL    HW226844   4.047   2.034   5.856  0.1761  0.4564  0.6064
 5071SOL     OW26845   2.500   4.276  16.607  0.1457 -0.3663  0.2535
 5071SOL    HW126846   2.416   4.258  16.651 -0.0604 -1.2885 -0.5163
 5071SOL    HW226847   2.507   4.371  16.601 -1.7444 -0.2483 -0.0413
 5072SOL     OW26848   1.264   2.800   6.023  0.2938 -0.3326 -0.2231
 5072SOL    HW126849   1.267   2.895   6.034 -1.8616 -0.1635 -0.9826
 5072SOL    HW226850   1.236   2.788   5.932 -0.4120 -1.4828  0.1536
 5073SOL     OW26851   1.531   2.500  11.721  0.3126  0.2894  0.1673
 5073SOL    HW126852   1.513   2.442  11.647  0.9473 -0.4902  0.6310
 5073SOL    HW226853   1.606   2.553  11.694  1.6591 -1.5772  0.2550
 5074SOL     OW26854   2.760   1.440   3.617 -0.6182 -0.1486 -0.3333
 5074SOL    HW126855   2.725   1.523   3.585 -0.3443 -0.3895 -1.2552
 5074SOL    HW226856   2.757   1.384   3.539 -4.0906  0.2077 -0.4359
 5075SOL     OW26857   3.577   1.296  10.512  0.2972  0.3586 -0.2693
 5075SOL    HW126858   3.558   1.335  10.598 -0.3244  2.3416 -1.2966
 5075SOL    HW226859   3.515   1.342  10.455  0.0978  1.4806  0.8529
 5076SOL     OW26860   1.337   4.557   7.336  0.4088  0.3658 -0.1349
 5076SOL    HW126861   1.281   4.523   7.406  1.1634  0.0650  0.3188
 5076SOL    HW226862   1.420   4.562   7.384  0.8116  2.0154 -0.9975
 5077SOL     OW26863   4.155   4.083  12.339  0.2758  0.3573 -0.6059
 5077SOL    HW126864   4.190   4.131  12.263  0.8084 -0.4619 -0.8739
 5077SOL    HW226865   4.086   4.145  12.364 -0.2901  0.6400 -2.8471
 5078SOL     OW26866   3.553   4.119   5.548  0.3747 -0.8692  0.2146
 5078SOL    HW126867   3.467   4.137   5.509  0.7745  0.2135 -0.1732
 5078SOL    HW226868   3.604   4.177   5.491 -0.6152 -0.1959  0.0088
 5079SOL     OW26869   0.398   3.281   2.657  0.5061 -0.1496 -0.5150
 5079SOL    HW126870   0.404   3.224   2.733  1.7212 -0.7244 -1.0305
 5079SOL    HW226871   0.486   3.318   2.647  0.7000 -0.7533 -1.1351
 5080SOL     OW26872   3.841   0.463   6.728 -0.1734 -0.1031 -0.0332
 5080SOL    HW126873   3.931   0.486   6.751 -0.4031  0.6582  0.1210
 5080SOL    HW226874   3.839   0.504   6.642  0.4912  2.5162  1.1934
 5081SOL     OW26875   0.039   0.152  11.752  0.2468  0.1892  0.0820
 5081SOL    HW126876   4.711   0.086  11.772 -0.2882  0.8261  0.4216
 5081SOL    HW226877   4.731   0.229  11.786 -0.8213  0.1528 -1.2609
 5082SOL     OW26878   2.082   3.091  10.651 -0.1242 -0.1337  1.2858
 5082SOL    HW126879   2.008   3.051  10.605 -0.0181  0.1539  0.8637
 5082SOL    HW226880   2.154   3.051  10.601 -0.9638 -0.6362  0.4718
 5083SOL     OW26881   0.118   1.756   5.482  0.1547  0.4691 -0.5256
 5083SOL    HW126882   0.043   1.815   5.481  0.7020  1.1528 -1.0099
 5083SOL    HW226883   0.159   1.778   5.566 -1.0682 -1.4754  0.5945
 5084SOL     OW26884   2.509   1.219   6.178  0.4044  0.2276  0.4291
 5084SOL    HW126885   2.438   1.223   6.243  0.4594 -2.5887  0.6690
 5084SOL    HW226886   2.469   1.245   6.095  2.4542  2.3607  0.1137
 5085SOL     OW26887   1.634   4.132   3.936 -0.9814 -0.5539 -0.3786
 5085SOL    HW126888   1.689   4.155   4.011  0.1116  1.1618 -1.7073
 5085SOL    HW226889   1.591   4.049   3.960 -2.0370  0.6003  1.7930
 5086SOL     OW26890   3.914   1.206  10.233 -0.0755 -0.2952  0.0564
 5086SOL    HW126891   3.835   1.255  10.210  1.1358  2.5994  1.9897
 5086SOL    HW226892   3.917   1.129  10.176 -0.0110 -0.5789  0.4463
 5087SOL     OW26893   1.413   4.112   4.354  0.3389 -0.3786  0.1619
 5087SOL    HW126894   1.462   4.030   4.352  0.4478 -0.2551 -2.1725
 5087SOL    HW226895   1.484   4.176   4.363 -0.3457  0.4209 -0.1501
 5088SOL     OW26896   3.901   4.091   8.392 -0.2584  0.2539 -0.1820
 5088SOL    HW126897   3.866   4.176   8.415 -1.1729 -0.4537  1.0284
 5088SOL    HW226898   3.935   4.068   8.478 -0.4611 -0.5553 -0.3088
 5089SOL     OW26899   2.810   1.234  15.160  0.0241 -0.9626 -0.0071
 5089SOL    HW126900   2.777   1.201  15.244  1.0716 -1.6135  0.1525
 5089SOL    HW226901   2.809   1.327  15.183 -0.2720 -0.7067 -1.0540
 5090SOL     OW26902   3.825   3.935   0.196 -0.0970  0.1171 -0.3125
 5090SOL    HW126903   3.876   3.924   0.115  0.3621  1.8641 -0.2805
 5090SOL    HW226904   3.832   4.030   0.212 -1.3044 -0.2315  2.2931
 5091SOL     OW26905   1.193   1.841   1.515 -0.4162 -0.2720  0.8692
 5091SOL    HW126906   1.209   1.935   1.520  1.5678 -0.6840  2.1472
 5091SOL    HW226907   1.104   1.841   1.480  0.3455 -1.0253 -1.0877
 5092SOL     OW26908   1.107   4.647   8.569  0.0436 -0.4263  0.0395
 5092SOL    HW126909   1.183   4.590   8.560  0.7004  0.6116 -0.9571
 5092SOL    HW226910   1.121   4.666   8.662  0.6926 -0.0254 -0.1364
 5093SOL     OW26911   0.628   1.411   2.676 -0.1768  0.3344 -0.2930
 5093SOL    HW126912   0.598   1.352   2.745 -0.3753  2.6160  1.5796
 5093SOL    HW226913   0.606   1.357   2.600 -0.1239  1.1834 -0.9170
 5094SOL     OW26914   3.147   0.109   4.577 -0.0932 -0.3013 -0.0847
 5094SOL    HW126915   3.188   0.065   4.502  1.3006  1.3881 -0.3159
 5094SOL    HW226916   3.222   0.124   4.635 -2.1276  1.6674  1.9938
 5095SOL     OW26917   4.664   0.199   9.003  0.4983 -0.6454  0.0918
 5095SOL    HW126918   4.570   0.185   9.017  0.3000  1.7977  1.1979
 5095SOL    HW226919   4.672   0.226   9.094 -0.8490  0.7587 -0.2137
 5096SOL     OW26920   3.635   2.062   8.531 -0.2176 -0.3945  0.2743
 5096SOL    HW126921   3.591   2.006   8.595 -0.4746  1.5484  1.7936
 5096SOL    HW226922   3.576   2.132   8.502  0.2218 -0.4489 -0.7384
 5097SOL     OW26923   1.835   1.505   0.649  0.0108  0.0184  0.2638
 5097SOL    HW126924   1.902   1.516   0.717 -0.0323 -2.0739  0.6319
 5097SOL    HW226925   1.828   1.591   0.607 -2.0975 -1.6325 -2.7406
 5098SOL     OW26926   0.635   2.670  12.656  0.4681 -0.0702 -0.0889
 5098SOL    HW126927   0.708   2.723  12.688  0.8738 -1.4143  1.2371
 5098SOL    HW226928   0.678   2.584  12.656  0.6553  0.0255  1.3213
 5099SOL     OW26929   3.002   0.932   2.203 -0.5004  0.1029 -0.2047
 5099SOL    HW126930   2.973   0.959   2.290 -1.1100 -1.1737 -0.0077
 5099SOL    HW226931   2.916   0.901   2.173 -1.5442  1.0896  1.7916
 5100SOL     OW26932   4.102   4.379  13.450  0.5082 -0.2446  0.8856
 5100SOL    HW126933   4.088   4.302  13.506  1.7281 -1.8596 -1.0338
 5100SOL    HW226934   4.012   4.402  13.427  0.3855 -0.1556  1.4492
 5101SOL     OW26935   3.254   3.294   0.929  0.4131  0.2259  0.1880
 5101SOL    HW126936   3.273   3.388   0.922 -0.0435  0.1583 -2.0804
 5101SOL    HW226937   3.188   3.292   0.998 -1.0991 -1.4425 -1.3106
 5102SOL     OW26938   0.009   4.325   8.843  0.7911  0.3272 -0.7438
 5102SOL    HW126939   0.034   4.345   8.933  0.3654 -0.0584 -0.5412
 5102SOL    HW226940   0.074   4.375   8.793 -0.3567  2.5612 -0.0282
 5103SOL     OW26941   2.468   2.605   4.975 -0.4492  1.0263  0.1675
 5103SOL    HW126942   2.487   2.649   5.058 -1.6793  1.9947 -0.0737
 5103SOL    HW226943   2.460   2.513   5.003 -1.8965  0.8818 -0.7096
 5104SOL     OW26944   2.188   1.529   0.266 -0.2356  0.1490 -0.2503
 5104SOL    HW126945   2.100   1.503   0.292 -0.2595  0.6085  0.1388
 5104SOL    HW226946   2.205   1.476   0.188  2.7332 -0.0732  0.5358
 5105SOL     OW26947   4.371   2.031   3.512 -0.0121  0.0064 -0.2825
 5105SOL    HW126948   4.289   2.055   3.557 -0.7753  0.1185 -1.7260
 5105SOL    HW226949   4.344   2.026   3.421  0.4615  3.1800 -0.5979
 5106SOL     OW26950   0.991   3.791   9.288  0.2896  0.3057 -0.4131
 5106SOL    HW126951   1.020   3.751   9.206 -0.6446 -1.7820  0.2673
 5106SOL    HW226952   1.077   3.810   9.327  0.7836  5.0168 -3.8659
 5107SOL     OW26953   3.800   4.105   5.179  0.2128  0.2700 -0.9807
 5107SOL    HW126954   3.813   4.072   5.090  1.0486 -2.5191  0.1722
 5107SOL    HW226955   3.891   4.110   5.208 -0.3530 -2.0745  1.2516
 5108SOL     OW26956   2.767   2.271  17.457  0.0739  0.0525  0.4187
 5108SOL    HW126957   2.800   2.208  17.520  1.4287 -0.0771 -0.4269
 5108SOL    HW226958   2.829   2.283  17.385  0.1763 -0.8980  0.3509
 5109SOL     OW26959   1.350   1.018   3.986 -0.0951  0.1931 -0.3820
 5109SOL    HW126960   1.299   0.955   3.936  1.2615 -0.6616 -0.7083
 5109SOL    HW226961   1.332   1.096   3.933  1.9346  0.5382 -0.5876
 5110SOL     OW26962   1.795   3.222   3.539 -0.2386 -0.5036 -0.3380
 5110SOL    HW126963   1.884   3.187   3.527 -0.0506 -0.6363  1.4168
 5110SOL    HW226964   1.778   3.277   3.462 -0.9942 -0.6329 -0.2603
 5111SOL     OW26965   0.502   1.620   9.360  0.9996  0.4239  0.0793
 5111SOL    HW126966   0.499   1.611   9.456  2.4423 -0.4875  0.0281
 5111SOL    HW226967   0.502   1.527   9.336  0.5274  0.1102  1.2459
 5112SOL     OW26968   2.405   3.698   9.684  0.0596 -0.1799 -0.0005
 5112SOL    HW126969   2.472   3.654   9.633  0.7510 -0.9360  1.5645
 5112SOL    HW226970   2.392   3.774   9.627 -0.5470  0.3082  0.7833
 5113SOL     OW26971   1.597   1.823   4.831  0.3440 -0.5254 -0.4660
 5113SOL    HW126972   1.519   1.874   4.852  1.3610  0.9183 -0.1875
 5113SOL    HW226973   1.579   1.812   4.737  1.3479  0.0432 -0.7259
 5114SOL     OW26974   4.254   2.626  13.637  0.0991  0.2755 -0.7004
 5114SOL    HW126975   4.277   2.629  13.544  1.1909  0.3517 -0.4325
 5114SOL    HW226976   4.263   2.716  13.666  1.7001 -0.1333  0.0537
 5115SOL     OW26977   4.594   2.329  15.546 -0.1699  0.7101  0.6923
 5115SOL    HW126978   4.534   2.380  15.491 -1.1315 -0.3734  0.7380
 5115SOL    HW226979   4.635   2.398  15.598 -1.2798  0.4765  1.9101
 5116SOL     OW26980   1.843   0.745   9.055  0.1886 -0.6009 -0.6198
 5116SOL    HW126981   1.900   0.787   8.991  0.8417  1.6481  1.4395
 5116SOL    HW226982   1.882   0.658   9.066 -1.6944 -1.6983 -2.5072
 5117SOL     OW26983   0.356   2.583   2.711 -0.3411 -0.1882 -0.0086
 5117SOL    HW126984   0.445   2.581   2.746  0.5633  0.2162 -2.3329
 5117SOL    HW226985   0.312   2.517   2.765 -1.2489 -0.4263 -1.0470
 5118SOL     OW26986   2.287   3.596   8.069  0.4068 -0.1459  0.0097
 5118SOL    HW126987   2.199   3.560   8.077  0.2714  0.5003  1.3297
 5118SOL    HW226988   2.275   3.691   8.069 -1.0539 -0.3292 -1.1075
 5119SOL     OW26989   2.591   0.433   6.804  1.1807 -0.1150 -0.3104
 5119SOL    HW126990   2.504   0.403   6.776  1.4463 -1.2659  0.0865
 5119SOL    HW226991   2.603   0.396   6.892 -0.9831 -0.5514 -0.1935
 5120SOL     OW26992   4.698   0.293   9.647 -0.9832 -0.4780  0.0761
 5120SOL    HW126993   4.683   0.210   9.601 -0.2431 -0.5058 -0.1224
 5120SOL    HW226994   4.691   0.350   9.570 -0.9979  1.1681  1.3093
 5121SOL     OW26995   1.676   0.659   4.940 -0.3086 -0.0438  0.0662
 5121SOL    HW126996   1.602   0.603   4.920  0.4052 -0.4274 -1.4995
 5121SOL    HW226997   1.741   0.656   4.870  0.3044 -1.0932  0.6750
 5122SOL     OW26998   4.194   1.071   7.868 -0.0486  0.0217  0.8356
 5122SOL    HW126999   4.228   1.120   7.793 -0.9212  0.2358  0.5858
 5122SOL    HW227000   4.110   1.115   7.878 -0.8694 -1.0281 -1.4407
 5123SOL     OW27001   3.993   2.761   7.332 -0.8001 -0.9495  0.2177
 5123SOL    HW127002   4.035   2.847   7.331 -1.2809 -0.7039  1.0216
 5123SOL    HW227003   3.904   2.774   7.299  0.0818  0.3408 -1.6393
 5124SOL     OW27004   2.083   2.410   5.639  0.6088  0.0751  0.0100
 5124SOL    HW127005   1.997   2.451   5.627  0.8744  0.5437 -0.3180
 5124SOL    HW227006   2.071   2.323   5.602 -0.9874  0.5076 -0.4927
 5125SOL     OW27007   0.477   0.053   2.943  0.0194 -0.0820 -0.3178
 5125SOL    HW127008   0.539   0.012   2.882 -0.6011 -0.6732 -0.5554
 5125SOL    HW227009   0.433   4.724   2.995 -0.7970  0.2609 -0.5657
 5126SOL     OW27010   4.131   1.930  16.769  0.7021  0.7307  0.1811
 5126SOL    HW127011   4.095   1.921  16.681 -0.2306  0.3057  0.6121
 5126SOL    HW227012   4.119   1.845  16.811  0.1838  0.1162 -1.1883
 5127SOL     OW27013   0.871   1.413  15.109  0.1102 -0.7027  0.1598
 5127SOL    HW127014   0.966   1.405  15.102 -0.0371 -1.5858 -0.8136
 5127SOL    HW227015   0.867   1.485  15.173  1.8937 -1.5479  1.2039
 5128SOL     OW27016   2.297   0.482   4.836 -0.3292  0.3659  0.3784
 5128SOL    HW127017   2.250   0.566   4.841  2.7059  1.9344  2.4428
 5128SOL    HW227018   2.388   0.509   4.848 -0.0178 -0.7315  0.4231
 5129SOL     OW27019   0.841   2.829   6.811 -0.2567 -0.2581  0.0350
 5129SOL    HW127020   0.874   2.792   6.729 -0.5681  0.9051 -0.6184
 5129SOL    HW227021   0.872   2.764   6.875 -0.1895 -0.0155  0.2484
 5130SOL     OW27022   0.302   3.104   6.282  0.2927 -0.0839  0.4520
 5130SOL    HW127023   0.293   3.070   6.192 -0.0162  0.1561  0.3919
 5130SOL    HW227024   0.393   3.134   6.269  0.5460 -2.0113 -2.3620
 5131SOL     OW27025   2.295   4.140  16.068  0.2112  0.1283  0.4613
 5131SOL    HW127026   2.255   4.211  16.018  0.5111 -0.4204 -0.5603
 5131SOL    HW227027   2.244   4.134  16.149 -1.3629  0.3078 -0.5277
 5132SOL     OW27028   1.003   4.400   6.687  0.0851 -0.3694 -0.4765
 5132SOL    HW127029   1.039   4.432   6.603  2.3314  2.0231  1.3770
 5132SOL    HW227030   1.009   4.473   6.749 -0.5310 -1.1861  0.5369
 5133SOL     OW27031   0.050   4.537   7.427 -0.1936 -0.5721  0.3396
 5133SOL    HW127032   0.072   4.491   7.508 -1.1644 -1.1556  0.2589
 5133SOL    HW227033   0.026   4.468   7.366  0.3679 -0.5289  0.0647
 5134SOL     OW27034   1.819   3.049   3.749 -0.0462  0.0330 -0.0296
 5134SOL    HW127035   1.793   3.129   3.702  0.6647 -0.5015 -1.3302
 5134SOL    HW227036   1.847   2.996   3.675 -0.2407  0.2299 -0.2467
 5135SOL     OW27037   0.920   0.486  12.918 -0.1631  0.0042 -0.0769
 5135SOL    HW127038   0.935   0.570  12.961  0.9359  0.6502 -1.7460
 5135SOL    HW227039   0.968   0.428  12.977  1.0818  0.6080 -0.5055
 5136SOL     OW27040   2.827   3.618   3.195  0.2561 -0.1696 -0.3648
 5136SOL    HW127041   2.778   3.676   3.253 -0.0343 -0.5498 -0.2307
 5136SOL    HW227042   2.796   3.656   3.114 -0.8866  0.3317  0.3112
 5137SOL     OW27043   2.932   4.026   2.815 -0.2526 -0.0483 -0.0797
 5137SOL    HW127044   2.840   4.012   2.794 -0.1254  1.0475 -1.3753
 5137SOL    HW227045   2.922   4.098   2.877  1.1173  2.8617 -3.2674
 5138SOL     OW27046   3.015   4.164  10.913 -0.2527 -0.3544  0.5998
 5138SOL    HW127047   2.927   4.196  10.893  0.4439  0.4428 -1.1803
 5138SOL    HW227048   3.034   4.236  10.974 -0.6088 -1.2497  1.7682
 5139SOL     OW27049   3.128   2.747  14.275  0.4387 -0.6325 -0.0110
 5139SOL    HW127050   3.159   2.659  14.295 -0.3531 -0.9815 -0.3187
 5139SOL    HW227051   3.054   2.762  14.334 -0.9271 -2.4760 -1.2572
 5140SOL     OW27052   1.092   4.352   4.481 -0.1993 -0.6962  0.0430
 5140SOL    HW127053   1.017   4.298   4.509 -1.2891  1.0318  0.4393
 5140SOL    HW227054   1.093   4.325   4.390  3.4290  0.4417 -0.2310
 5141SOL     OW27055   4.234   0.580   1.876  0.1700 -0.0646  0.0088
 5141SOL    HW127056   4.315   0.600   1.829  0.6242 -1.8731  0.0216
 5141SOL    HW227057   4.195   0.518   1.813 -0.5417  0.1860  0.1967
 5142SOL     OW27058   4.574   1.297   3.050  0.2713  0.1009 -0.1418
 5142SOL    HW127059   4.633   1.372   3.044 -0.5442  0.7551  0.0135
 5142SOL    HW227060   4.527   1.297   2.967  2.4841 -1.2727 -1.3836
 5143SOL     OW27061   2.083   0.837   6.695 -0.0259  0.0658  0.6108
 5143SOL    HW127062   2.072   0.897   6.621  0.9574  0.4322  0.7628
 5143SOL    HW227063   2.012   0.859   6.755 -0.0808  4.2461 -0.9739
 5144SOL     OW27064   0.178   2.252   4.193  0.3744 -0.0477  0.0048
 5144SOL    HW127065   0.090   2.250   4.153  1.3652 -1.0632 -2.1475
 5144SOL    HW227066   0.213   2.179   4.142  0.1109  0.6509 -1.2031
 5145SOL     OW27067   0.557   2.385  10.681  0.1803 -0.5817  0.3760
 5145SOL    HW127068   0.592   2.298  10.663 -1.4083 -1.2615  0.5549
 5145SOL    HW227069   0.619   2.417  10.747  0.1258  2.2298 -0.9293
 5146SOL     OW27070   3.681   1.869   5.317  0.2147 -0.7810  0.0501
 5146SOL    HW127071   3.644   1.954   5.341  0.6978  0.2840 -2.9493
 5146SOL    HW227072   3.735   1.887   5.240 -0.9171 -0.6744 -0.7262
 5147SOL     OW27073   2.915   4.123  10.101 -0.0117 -0.1996 -0.0291
 5147SOL    HW127074   2.884   4.165  10.181 -0.7348  1.6242 -1.2657
 5147SOL    HW227075   2.853   4.050  10.098 -0.2759  0.1071 -2.5649
 5148SOL     OW27076   0.213   2.909  10.736  0.3697 -0.2083 -0.2300
 5148SOL    HW127077   0.166   2.867  10.663 -2.4302  0.5460  1.1638
 5148SOL    HW227078   0.154   2.908  10.811  2.7188 -0.4797  1.6073
 5149SOL     OW27079   1.190   3.377   3.101  0.3389 -0.1915 -0.8222
 5149SOL    HW127080   1.277   3.349   3.129  0.5122  1.4078  0.2163
 5149SOL    HW227081   1.208   3.409   3.013  1.1238  0.9943 -0.2285
 5150SOL     OW27082   0.276   4.725   6.097 -0.2380 -0.3390 -0.2639
 5150SOL    HW127083   0.265   0.082   6.098 -2.5640 -0.6161  0.2634
 5150SOL    HW227084   0.217   4.703   6.170  1.7115  0.8622  1.6429
 5151SOL     OW27085   2.032   0.242   3.397  0.8057 -0.1288  0.4119
 5151SOL    HW127086   2.092   0.273   3.329 -1.5054 -1.1101 -2.0918
 5151SOL    HW227087   1.975   0.318   3.412 -1.2307 -1.6994  0.6321
 5152SOL     OW27088   4.594   0.728   6.019  0.1480  0.1701 -0.2460
 5152SOL    HW127089   4.533   0.718   5.946 -0.2217  0.4893  0.0213
 5152SOL    HW227090   4.675   0.685   5.992  0.4293  0.1104  0.7101
 5153SOL     OW27091   1.628   0.023   9.101  0.3257  0.3908  0.9208
 5153SOL    HW127092   1.718   0.054   9.112  0.0146  2.0132 -1.1859
 5153SOL    HW227093   1.592   0.046   9.186 -0.8033 -0.8405  0.7821
 5154SOL     OW27094   1.489   3.048   7.669 -0.5779 -0.7131  0.0303
 5154SOL    HW127095   1.476   3.116   7.603 -0.3380 -0.6654  0.0339
 5154SOL    HW227096   1.402   3.008   7.681 -1.5720  0.7913 -2.1674
 5155SOL     OW27097   2.988   1.672  16.129  0.1358 -0.3738  0.2904
 5155SOL    HW127098   2.924   1.694  16.060  1.7302  1.5850 -0.5568
 5155SOL    HW227099   3.005   1.579  16.115  0.1421 -0.1595 -1.1529
 5156SOL     OW27100   0.760   1.551  12.850  0.5905  0.0253  0.3891
 5156SOL    HW127101   0.822   1.595  12.793 -1.0381 -0.7878 -1.9959
 5156SOL    HW227102   0.685   1.597  12.814  1.8203  1.7470  0.0095
 5157SOL     OW27103   0.969   4.737  15.378  0.1751  0.0562 -0.0355
 5157SOL    HW127104   0.904   4.687  15.428  1.5529 -1.0700  0.6682
 5157SOL    HW227105   0.987   4.675  15.307 -3.3725  1.5267 -2.1820
 5158SOL     OW27106   1.349   2.875   1.609 -0.5440  0.0060 -0.1568
 5158SOL    HW127107   1.411   2.906   1.675  2.2373 -2.6486 -1.4950
 5158SOL    HW227108   1.321   2.949   1.555 -2.6597 -0.6719  0.0084
 5159SOL     OW27109   3.209   2.830  10.848  0.1001  0.1008  0.2683
 5159SOL    HW127110   3.114   2.842  10.851  0.3121  1.7548  0.2717
 5159SOL    HW227111   3.229   2.913  10.890  0.1439  0.5947 -0.7243
 5160SOL     OW27112   1.127   3.341   6.294  0.3974 -0.2824 -0.2370
 5160SOL    HW127113   1.194   3.312   6.356 -1.5419  0.9835  2.4212
 5160SOL    HW227114   1.160   3.430   6.277  0.5906  0.1580  2.5332
 5161SOL     OW27115   0.889   1.342   3.144 -0.2848 -0.0517 -0.1336
 5161SOL    HW127116   0.925   1.321   3.230 -1.5456  0.8246  0.6033
 5161SOL    HW227117   0.833   1.265   3.142  0.9704 -0.9436 -0.9048
 5162SOL     OW27118   1.890   0.209   8.204 -0.1719 -0.1577  0.0211
 5162SOL    HW127119   1.909   0.153   8.279 -1.3888  0.1314  0.5523
 5162SOL    HW227120   1.801   0.239   8.224  0.4166  1.3498  0.4034
 5163SOL     OW27121   2.283   3.239   1.961 -0.0470 -0.5878  0.0628
 5163SOL    HW127122   2.194   3.252   1.992 -0.0918 -2.5304  0.7604
 5163SOL    HW227123   2.304   3.330   1.940  0.2103 -0.5481  0.4958
 5164SOL     OW27124   1.463   1.602  12.372 -0.3296  0.5537 -0.0701
 5164SOL    HW127125   1.375   1.578  12.342 -1.5037  2.2002  2.0739
 5164SOL    HW227126   1.455   1.596  12.467 -0.3495  0.7574 -0.0594
 5165SOL     OW27127   2.877   2.877   3.352  0.7428  0.2050 -0.5615
 5165SOL    HW127128   2.810   2.882   3.284 -0.3112  0.4411  0.4843
 5165SOL    HW227129   2.893   2.969   3.370  1.0674 -0.4755  2.7515
 5166SOL     OW27130   0.448   0.384  11.187  0.4264  0.0486  0.2738
 5166SOL    HW127131   0.467   0.405  11.278  1.9446 -1.0763  0.2328
 5166SOL    HW227132   0.355   0.375  11.205  0.0258  0.0354 -1.7501
 5167SOL     OW27133   4.286   3.348   7.727  0.0210 -0.1300 -0.1561
 5167SOL    HW127134   4.301   3.366   7.820  0.1779 -4.1442  0.5894
 5167SOL    HW227135   4.282   3.438   7.695 -0.0901  0.5709  1.7799
 5168SOL     OW27136   1.036   1.080   7.835  0.6072 -0.4221  0.0960
 5168SOL    HW127137   1.117   1.062   7.787 -1.7921 -2.9360 -2.9808
 5168SOL    HW227138   0.987   1.136   7.775  2.5774  1.1622 -0.0256
 5169SOL     OW27139   4.372   1.071   6.274 -0.0783  0.2331 -0.4622
 5169SOL    HW127140   4.357   1.100   6.364  1.4857  1.4655 -0.5862
 5169SOL    HW227141   4.446   1.012   6.288 -1.4135 -0.9149  1.5693
 5170SOL     OW27142   1.541   2.807   5.957 -0.3775 -0.4091  0.0047
 5170SOL    HW127143   1.449   2.792   5.982 -1.7176  2.1052 -3.2907
 5170SOL    HW227144   1.550   2.901   5.938  1.6662 -0.4526  0.8289
 5171SOL     OW27145   0.404   0.132   3.965  0.2526  0.0744  0.1205
 5171SOL    HW127146   0.459   0.139   4.043  1.6183  2.2900 -1.0458
 5171SOL    HW227147   0.413   0.039   3.943 -2.2262 -0.0865 -0.2616
 5172SOL     OW27148   0.995   2.746  15.625  0.2260  0.6795 -0.2753
 5172SOL    HW127149   0.991   2.674  15.688 -0.2364  1.6232  0.7630
 5172SOL    HW227150   1.010   2.820  15.684 -2.6604  1.8949 -1.0697
 5173SOL     OW27151   3.738   2.838   8.396 -1.2023  0.2999  0.1543
 5173SOL    HW127152   3.744   2.785   8.475 -1.0935 -1.5509 -1.1004
 5173SOL    HW227153   3.749   2.773   8.326  1.0689 -2.5173  3.1201
 5174SOL     OW27154   1.033   3.728   2.861 -0.1397 -0.3590  0.6022
 5174SOL    HW127155   0.950   3.721   2.815 -0.4665  0.3646  1.0749
 5174SOL    HW227156   1.025   3.805   2.917  2.4708  0.8845 -0.7462
 5175SOL     OW27157   4.431   2.298   5.866  0.2998  0.3014  0.8750
 5175SOL    HW127158   4.418   2.281   5.772 -2.2391 -1.2332  1.4823
 5175SOL    HW227159   4.456   2.211   5.896 -2.6967 -0.8671  0.0089
 5176SOL     OW27160   2.343   1.020   1.393 -0.1988  0.4058 -0.1699
 5176SOL    HW127161   2.349   0.985   1.304  1.6511 -0.1209  0.1644
 5176SOL    HW227162   2.382   0.948   1.442  0.3678  0.1822 -0.9485
 5177SOL     OW27163   0.820   3.567   5.888 -0.8603  0.5687  0.5360
 5177SOL    HW127164   0.765   3.646   5.888 -0.3433  0.9293  0.4516
 5177SOL    HW227165   0.883   3.584   5.958 -0.0581  0.2276 -0.0973
 5178SOL     OW27166   4.541   2.551  11.194  0.0482 -0.0759 -0.2793
 5178SOL    HW127167   4.548   2.470  11.144 -1.7082 -1.5343  1.8292
 5178SOL    HW227168   4.476   2.532  11.262 -1.8843 -1.6453 -2.5931
 5179SOL     OW27169   2.595   1.354   1.770  0.4959 -0.0874  0.6234
 5179SOL    HW127170   2.572   1.261   1.772 -1.3682  0.3611  0.1724
 5179SOL    HW227171   2.633   1.364   1.858  0.6620 -0.3962  0.5895
 5180SOL     OW27172   1.142   2.168   7.752  0.3413  0.0553 -0.4849
 5180SOL    HW127173   1.165   2.092   7.699 -0.8735 -0.1915 -0.6515
 5180SOL    HW227174   1.091   2.122   7.819  1.0266  0.5014  0.3565
 5181SOL     OW27175   3.484   1.138  13.684 -0.5576 -0.1821  0.5550
 5181SOL    HW127176   3.558   1.167  13.737 -1.1479  0.3783  1.0810
 5181SOL    HW227177   3.415   1.200  13.707  0.2064  0.6454  0.6080
 5182SOL     OW27178   4.563   0.869   6.857 -1.0709 -0.2652 -0.6058
 5182SOL    HW127179   4.582   0.778   6.881 -0.4815 -0.0433 -0.2347
 5182SOL    HW227180   4.570   0.868   6.761  0.8589  1.5840 -0.4730
 5183SOL     OW27181   1.460   1.849  16.862  0.0892 -0.0293 -0.0152
 5183SOL    HW127182   1.400   1.924  16.861 -0.1394 -0.1956  2.9166
 5183SOL    HW227183   1.534   1.899  16.827 -0.5776  1.0594  0.1366
 5184SOL     OW27184   2.522   3.821   4.320 -0.1785 -0.1716 -0.3893
 5184SOL    HW127185   2.471   3.743   4.341  1.2253 -1.3151 -1.1833
 5184SOL    HW227186   2.578   3.827   4.397 -1.0013  3.6142 -0.0999
 5185SOL     OW27187   3.455   0.721  17.659  0.2152  0.5244 -0.3265
 5185SOL    HW127188   3.421   0.646  17.609 -1.2788  0.0008  1.4851
 5185SOL    HW227189   3.470   0.682  17.745 -0.9314 -0.5471 -0.6026
 5186SOL     OW27190   1.496   0.673   2.425  0.2555 -0.1431 -0.5191
 5186SOL    HW127191   1.562   0.626   2.374  0.1173 -0.7185 -0.1759
 5186SOL    HW227192   1.456   0.735   2.365 -1.4022 -0.7485 -0.0522
 5187SOL     OW27193   0.647   4.419   2.898 -0.3433 -0.9013  0.2583
 5187SOL    HW127194   0.710   4.382   2.961 -1.2961 -0.7224  1.3141
 5187SOL    HW227195   0.567   4.375   2.926 -0.7940  0.0661  0.5007
 5188SOL     OW27196   0.639   3.752   4.096 -0.0294  0.2807 -1.0953
 5188SOL    HW127197   0.572   3.689   4.122  0.4149  0.0605 -0.4944
 5188SOL    HW227198   0.695   3.704   4.034 -1.4009 -0.3805 -1.8141
 5189SOL     OW27199   2.427   2.347   4.992 -0.2908 -0.1021  0.0864
 5189SOL    HW127200   2.366   2.377   4.924  0.7406 -0.3998 -0.9597
 5189SOL    HW227201   2.468   2.269   4.956 -0.9117 -0.0870 -0.6494
 5190SOL     OW27202   3.884   4.024   4.923  0.1072  0.3464 -0.3727
 5190SOL    HW127203   3.872   4.008   4.829 -0.2738  1.6095 -0.5388
 5190SOL    HW227204   3.912   3.938   4.954 -1.2444  0.3354  0.8000
 5191SOL     OW27205   2.290   4.221  10.952  0.2498 -0.0119 -0.6900
 5191SOL    HW127206   2.250   4.308  10.942 -1.5006 -0.9025 -1.2978
 5191SOL    HW227207   2.220   4.161  10.927  0.3431 -0.3279 -0.1710
 5192SOL     OW27208   2.902   4.207  10.353 -0.0960  0.0888  0.3178
 5192SOL    HW127209   2.821   4.256  10.370  0.1441 -0.0574  1.8626
 5192SOL    HW227210   2.951   4.252  10.422  1.0722  0.8271 -0.9798
 5193SOL     OW27211   0.782   2.768   4.321 -0.3115  0.1839  0.0986
 5193SOL    HW127212   0.708   2.811   4.363 -0.3157 -0.3328  0.6232
 5193SOL    HW227213   0.823   2.726   4.397 -0.7863  0.0583  0.2860
 5194SOL     OW27214   4.277   0.205   3.547  0.7539 -0.2811  0.0399
 5194SOL    HW127215   4.184   0.226   3.557  0.9608 -0.1401  1.6990
 5194SOL    HW227216   4.294   0.153   3.626 -0.8973 -1.4147 -0.3504
 5195SOL     OW27217   0.404   1.062   8.215 -0.3791 -0.2719 -0.2952
 5195SOL    HW127218   0.443   0.982   8.250  2.4771  0.6238 -1.4310
 5195SOL    HW227219   0.473   1.089   8.155 -0.4810  1.8870  0.5267
 5196SOL     OW27220   1.292   2.542   1.890  0.2379  0.2755  0.2002
 5196SOL    HW127221   1.263   2.572   1.804  0.1278 -1.5008 -0.3809
 5196SOL    HW227222   1.229   2.587   1.946 -1.6482 -0.4654 -1.3357
 5197SOL     OW27223   2.078   3.743   2.010  0.4867 -0.3077  0.0289
 5197SOL    HW127224   2.000   3.793   1.987  0.7206  1.0582  2.2335
 5197SOL    HW227225   2.041   3.680   2.072  2.5222  0.2632  1.8330
 5198SOL     OW27226   0.221   3.866   8.858 -0.3878  0.6366  0.0005
 5198SOL    HW127227   0.138   3.825   8.884  0.6341 -0.3809  1.6173
 5198SOL    HW227228   0.197   3.919   8.782  2.2358  2.2751  0.3400
 5199SOL     OW27229   0.864   3.799  11.047 -0.1544  0.5273 -0.1789
 5199SOL    HW127230   0.787   3.772  11.097  1.1188 -0.7454  1.0915
 5199SOL    HW227231   0.924   3.831  11.114  0.0554 -0.4861  0.1127
 5200SOL     OW27232   2.774   2.139  11.127  0.1733 -0.3077 -0.3996
 5200SOL    HW127233   2.775   2.047  11.155  2.6724  0.4970  2.2188
 5200SOL    HW227234   2.714   2.144  11.053  0.3838  1.8138 -0.4247
 5201SOL     OW27235   1.274   2.325   3.233 -0.4068  0.1471 -0.0170
 5201SOL    HW127236   1.310   2.366   3.312 -4.0639  4.0232 -0.3328
 5201SOL    HW227237   1.199   2.383   3.220 -1.5652 -1.4105 -0.2036
 5202SOL     OW27238   3.655   3.669  17.653 -0.2313  0.0907  0.1527
 5202SOL    HW127239   3.679   3.760  17.632  2.1992 -0.8859 -1.2479
 5202SOL    HW227240   3.629   3.680  17.744 -1.1687 -2.5352  0.1871
 5203SOL     OW27241   2.433   1.901   7.526  0.1449 -0.5850 -0.1338
 5203SOL    HW127242   2.481   1.954   7.462  0.2127 -0.1343  0.2824
 5203SOL    HW227243   2.498   1.843   7.565 -0.8677 -1.8982 -0.4292
 5204SOL     OW27244   0.356   1.476   6.922  0.3182  0.5707  0.1571
 5204SOL    HW127245   0.290   1.463   6.991  1.0232  0.2061  0.7537
 5204SOL    HW227246   0.394   1.561   6.946 -0.0423  0.9518 -0.6183
 5205SOL     OW27247   0.719   2.394  13.922 -0.0048  0.4767 -0.2486
 5205SOL    HW127248   0.735   2.482  13.957  0.2972  0.4628 -0.3570
 5205SOL    HW227249   0.779   2.402  13.848 -0.9134 -1.4516 -1.1839
 5206SOL     OW27250   4.152   2.332  17.418  0.0051  0.1083  0.2927
 5206SOL    HW127251   4.243   2.363  17.419  0.2516 -0.5930 -0.2220
 5206SOL    HW227252   4.160   2.254  17.363  0.8591 -0.0252  0.5920
 5207SOL     OW27253   0.113   2.487   9.054 -0.4762  0.4169  0.0872
 5207SOL    HW127254   0.168   2.477   8.976 -0.1830 -0.2069  0.3818
 5207SOL    HW227255   0.105   2.582   9.044  3.5961  0.7527  0.2251
 5208SOL     OW27256   3.318   2.507   1.684  0.5616  0.1010 -0.2942
 5208SOL    HW127257   3.372   2.485   1.608  1.6051 -2.0278  1.0865
 5208SOL    HW227258   3.280   2.420   1.694 -0.5015  0.4744 -1.0669
 5209SOL     OW27259   2.874   2.361   0.359 -0.1381  0.1569 -0.1332
 5209SOL    HW127260   2.789   2.335   0.393 -0.8052  0.1817 -1.7961
 5209SOL    HW227261   2.852   2.352   0.267  0.3214  3.2657 -0.5522
 5210SOL     OW27262   3.130   3.557   9.483 -0.9409 -0.1283 -0.0317
 5210SOL    HW127263   3.185   3.499   9.535 -1.9026  1.4179  2.7507
 5210SOL    HW227264   3.158   3.544   9.393  2.4932 -1.3913  1.2396
 5211SOL     OW27265   0.047   3.684   9.102  0.2308  0.3791  0.5721
 5211SOL    HW127266   4.721   3.654   9.037 -1.3966  1.4087  1.7032
 5211SOL    HW227267   0.133   3.653   9.072  0.5139  2.2235 -0.5528
 5212SOL     OW27268   3.370   0.845   9.701 -0.4333 -0.1107  0.3156
 5212SOL    HW127269   3.305   0.893   9.650  1.8012  0.0520 -2.3846
 5212SOL    HW227270   3.333   0.756   9.695 -0.9429  0.3479 -3.4114
 5213SOL     OW27271   0.747   1.374   9.527  0.1622 -0.1694  0.5280
 5213SOL    HW127272   0.678   1.309   9.512 -1.0569  1.0365  0.9730
 5213SOL    HW227273   0.801   1.319   9.584  0.1554 -0.2927  0.4167
 5214SOL     OW27274   0.434   1.701  13.795  0.0461  0.1379 -0.1688
 5214SOL    HW127275   0.462   1.610  13.791 -0.9751 -0.0519 -2.6070
 5214SOL    HW227276   0.339   1.693  13.795 -0.0903  1.7554 -0.3308
 5215SOL     OW27277   3.629   4.567  15.381 -0.2713  0.2100 -0.5191
 5215SOL    HW127278   3.689   4.504  15.420 -0.4867  1.4714  1.8331
 5215SOL    HW227279   3.621   4.538  15.290 -3.7163  0.0952 -0.1751
 5216SOL     OW27280   1.369   3.716   4.854 -0.3031  0.0959  0.0795
 5216SOL    HW127281   1.382   3.733   4.761  0.6704 -0.9836  0.0122
 5216SOL    HW227282   1.359   3.804   4.888  1.5174  0.8245 -1.2367
 5217SOL     OW27283   1.884   0.284   5.471  0.1659  0.4408 -0.2322
 5217SOL    HW127284   1.892   0.379   5.480  2.1078  0.2737 -0.3713
 5217SOL    HW227285   1.866   0.268   5.379  2.0661 -0.9244 -0.3568
 5218SOL     OW27286   1.488   2.177   7.183  0.0707 -0.1506 -0.1661
 5218SOL    HW127287   1.529   2.254   7.142  0.8802 -0.8306 -0.6476
 5218SOL    HW227288   1.405   2.185   7.136  0.1018  1.1045 -0.0091
 5219SOL     OW27289   4.641   0.059   7.391  0.1268  0.1527 -0.1651
 5219SOL    HW127290   4.646   0.057   7.296  1.5691  0.3791 -0.0883
 5219SOL    HW227291   4.709   4.737   7.421 -0.9126 -0.3384  1.2271
 5220SOL     OW27292   1.670   0.058   6.231  0.3129 -0.7768 -0.1090
 5220SOL    HW127293   1.664   0.142   6.277  1.3359  0.4263 -2.1780
 5220SOL    HW227294   1.749   0.021   6.270  1.9475  0.7773 -1.9356
 5221SOL     OW27295   0.215   1.090   7.510 -0.3234  0.3736  0.1791
 5221SOL    HW127296   0.141   1.053   7.558 -0.0375 -1.1301 -0.5581
 5221SOL    HW227297   0.232   1.027   7.441 -2.0184 -0.5964  0.6611
 5222SOL     OW27298   2.543   1.621   2.994  0.2188  0.0576 -0.5188
 5222SOL    HW127299   2.460   1.647   3.033  1.2916  0.0169  1.7647
 5222SOL    HW227300   2.509   1.554   2.935  0.3371 -1.3088  0.9579
 5223SOL     OW27301   0.948   4.018   2.895  0.1098  0.0193 -0.0402
 5223SOL    HW127302   0.909   4.016   2.982 -0.5935 -1.1600 -0.3870
 5223SOL    HW227303   1.042   4.020   2.915  0.4667  1.5593 -1.8647
 5224SOL     OW27304   3.984   3.889  17.687  0.2730  0.5384 -0.3437
 5224SOL    HW127305   4.014   3.939  17.611  3.6906  1.7746  1.8597
 5224SOL    HW227306   3.943   3.814  17.642 -0.7897  0.7446  0.2900
 5225SOL     OW27307   1.508   3.987  12.464 -0.1155 -0.3248  0.3296
 5225SOL    HW127308   1.570   3.931  12.510  0.8093  0.1930 -0.2816
 5225SOL    HW227309   1.428   3.950  12.499 -0.3005 -1.2109 -1.0047
 5226SOL     OW27310   3.048   3.800   5.706  0.0805 -0.2468 -0.5188
 5226SOL    HW127311   2.968   3.827   5.662  0.1820 -2.6371 -2.2006
 5226SOL    HW227312   3.102   3.876   5.684  2.2662 -1.5908  0.0825
 5227SOL     OW27313   1.376   0.597   4.232  0.0856 -0.2800 -0.1788
 5227SOL    HW127314   1.446   0.538   4.257  0.4125  0.5313  0.8225
 5227SOL    HW227315   1.292   0.551   4.238 -0.1853  0.1940 -0.3409
 5228SOL     OW27316   3.324   4.703   5.669 -0.2355  0.4315 -0.3203
 5228SOL    HW127317   3.333   4.617   5.711 -1.4808  1.0211  1.1648
 5228SOL    HW227318   3.307   4.677   5.579  2.1660 -0.4767 -0.4923
 5229SOL     OW27319   2.432   1.506   3.526  0.5268 -0.0017 -0.4088
 5229SOL    HW127320   2.430   1.593   3.567  1.5670 -0.5870  0.9022
 5229SOL    HW227321   2.481   1.525   3.446 -0.1016 -1.1761 -1.0530
 5230SOL     OW27322   0.360   2.114  12.796 -0.6374  0.3237 -0.1207
 5230SOL    HW127323   0.438   2.146  12.842 -0.0326  0.2977 -1.1349
 5230SOL    HW227324   0.350   2.179  12.726 -1.1435  1.7536  1.2680
 5231SOL     OW27325   4.642   3.335   7.821 -0.5164  0.3113 -0.8085
 5231SOL    HW127326   4.610   3.406   7.877 -0.0407  1.2240 -1.7052
 5231SOL    HW227327   4.701   3.298   7.887  0.0230  1.7465 -0.4949
 5232SOL     OW27328   3.533   0.250   2.995 -0.1509  0.2883 -0.0202
 5232SOL    HW127329   3.453   0.243   3.048  0.7979 -0.6860  1.2810
 5232SOL    HW227330   3.567   0.164   3.019  0.9388  0.8721  0.5028
 5233SOL     OW27331   4.540   4.069   2.725  0.2224 -0.5083  0.3621
 5233SOL    HW127332   4.598   4.071   2.801  1.5076  0.7591 -0.6461
 5233SOL    HW227333   4.607   4.071   2.656 -0.5204  3.0565 -0.2389
 5234SOL     OW27334   4.611   0.648  16.639  0.1551  0.4165  0.1641
 5234SOL    HW127335   4.705   0.637  16.650  0.0436  0.6881  1.3706
 5234SOL    HW227336   4.582   0.569  16.594 -0.9806  1.4900 -1.0101
 5235SOL     OW27337   0.572   3.545   2.614  0.3207 -0.5567 -0.4622
 5235SOL    HW127338   0.544   3.506   2.531 -0.7838  0.1867 -0.4432
 5235SOL    HW227339   0.667   3.548   2.605  0.6143 -0.7101  2.6509
 5236SOL     OW27340   4.700   1.078   5.504  0.4786  0.5045  0.5789
 5236SOL    HW127341   0.034   1.140   5.519  2.5925 -2.0197  0.8826
 5236SOL    HW227342   4.732   1.000   5.548  0.8870  0.3749  0.0414
 5237SOL     OW27343   0.253   3.639  17.721 -0.1501  0.0522  0.5078
 5237SOL    HW127344   0.158   3.648  17.712 -0.1496 -0.9436 -0.5747
 5237SOL    HW227345   0.291   3.626  17.634  0.2094  0.5158  0.5965
 5238SOL     OW27346   4.273   0.907   6.586  0.0764 -0.9382 -0.0073
 5238SOL    HW127347   4.197   0.958   6.613 -0.3190 -1.3930 -0.2689
 5238SOL    HW227348   4.222   0.844   6.536 -0.1477 -0.9776  0.2684
 5239SOL     OW27349   1.901   4.554   4.238  0.3429  0.5460 -0.2657
 5239SOL    HW127350   1.892   4.587   4.149  1.1744  0.2723 -0.4585
 5239SOL    HW227351   1.995   4.544   4.257  0.2147  0.8332  0.5177
 5240SOL     OW27352   4.227   3.240   2.995 -0.8451 -0.0001  0.6804
 5240SOL    HW127353   4.219   3.336   2.996  1.5349  0.2134 -2.6351
 5240SOL    HW227354   4.283   3.223   3.072 -1.4680 -0.0221  1.1290
 5241SOL     OW27355   4.064   0.621  14.963  0.4281 -0.5501  0.1823
 5241SOL    HW127356   4.042   0.607  15.055 -1.7814 -0.8489 -0.4028
 5241SOL    HW227357   4.064   0.532  14.928  0.4476 -0.5055  0.0663
 5242SOL     OW27358   4.687   3.729  10.450  0.2506  0.0393  0.1776
 5242SOL    HW127359   4.715   3.730  10.359 -1.3295 -1.0017 -0.3252
 5242SOL    HW227360   0.003   3.665  10.497 -0.1303 -1.2461 -1.1429
 5243SOL     OW27361   1.867   1.943   8.988 -0.2831 -0.1729  0.1523
 5243SOL    HW127362   1.883   1.988   9.071  0.1366  0.6485 -0.3804
 5243SOL    HW227363   1.953   1.903   8.971 -1.5567 -2.4566 -0.9804
 5244SOL     OW27364   1.868   0.447   2.974  0.6177 -0.4055  0.0962
 5244SOL    HW127365   1.893   0.471   2.885 -2.8561  0.3289 -0.6574
 5244SOL    HW227366   1.916   0.508   3.030 -2.0018 -1.6115  3.7311
 5245SOL     OW27367   3.588   0.527   1.856 -0.4531  0.3944  0.1502
 5245SOL    HW127368   3.542   0.591   1.910 -0.1738  0.4178  0.3616
 5245SOL    HW227369   3.669   0.575   1.839  0.2493 -0.8079  0.0719
 5246SOL     OW27370   0.164   2.452   8.342 -0.4298 -0.3639  0.0130
 5246SOL    HW127371   0.169   2.520   8.275 -1.5659 -1.2933 -1.0135
 5246SOL    HW227372   0.130   2.378   8.292 -0.9713 -0.3523  0.3737
 5247SOL     OW27373   3.013   3.073   0.038 -0.1168 -0.0161  0.1349
 5247SOL    HW127374   3.032   3.100  17.696  1.9008  2.1303  1.1892
 5247SOL    HW227375   2.933   3.024   0.021  0.5619 -1.0607 -0.0803
 5248SOL     OW27376   0.919   3.186   6.198  0.2142  0.0264  0.3103
 5248SOL    HW127377   0.922   3.108   6.254  0.5367  0.6511  1.1772
 5248SOL    HW227378   1.009   3.216   6.212  0.6446 -1.4958  0.8153
 5249SOL     OW27379   3.412   2.838   6.691  0.6380  0.0642 -0.6096
 5249SOL    HW127380   3.334   2.894   6.697  2.3570  2.2235  1.2882
 5249SOL    HW227381   3.422   2.806   6.781 -1.0235  1.1945 -0.0198
 5250SOL     OW27382   2.334   3.643   1.452 -0.0769 -0.2387 -0.2819
 5250SOL    HW127383   2.326   3.567   1.510 -0.5667 -0.0926 -0.1651
 5250SOL    HW227384   2.317   3.712   1.516 -3.2329 -1.5947  0.3111
 5251SOL     OW27385   3.443   1.305   9.229 -0.0877  0.3538 -0.3153
 5251SOL    HW127386   3.488   1.383   9.260 -1.3429  0.6262  0.8400
 5251SOL    HW227387   3.494   1.278   9.153  0.8693  1.4443 -0.0572
 5252SOL     OW27388   1.484   3.937   9.762  0.6939  0.0368  0.1095
 5252SOL    HW127389   1.499   3.881   9.838 -1.2037  0.5099  0.8319
 5252SOL    HW227390   1.408   3.990   9.789  1.5592 -0.5773  3.7056
 5253SOL     OW27391   3.522   0.289   8.311  0.2724 -0.1960 -0.1619
 5253SOL    HW127392   3.443   0.269   8.260  0.8307 -1.4705 -0.5219
 5253SOL    HW227393   3.566   0.204   8.317 -1.4465 -0.9303  2.1994
 5254SOL     OW27394   2.487   1.094   1.758  0.2346  0.1230  0.1633
 5254SOL    HW127395   2.441   1.022   1.714  0.5552  1.4438 -2.3017
 5254SOL    HW227396   2.456   1.101   1.849  0.4107  2.1932  0.0553
 5255SOL     OW27397   3.088   2.755   6.519 -0.1936 -0.2377 -0.4364
 5255SOL    HW127398   3.080   2.691   6.590 -0.3283  0.1757 -0.0821
 5255SOL    HW227399   2.997   2.779   6.505 -1.0893 -2.6203  1.3224
 5256SOL     OW27400   3.170   4.219   8.204 -0.2829 -0.1852  0.4413
 5256SOL    HW127401   3.241   4.206   8.267 -0.6693  2.6792  1.4983
 5256SOL    HW227402   3.095   4.236   8.261 -2.1181 -1.7354 -1.5404
 5257SOL     OW27403   4.347   2.657   9.373  0.1389 -0.5729 -0.3594
 5257SOL    HW127404   4.434   2.640   9.338 -0.3974  1.4150 -2.6750
 5257SOL    HW227405   4.312   2.568   9.376  0.5813 -0.7464 -0.3781
 5258SOL     OW27406   1.780   3.125   0.098  0.1910  0.2122  0.5267
 5258SOL    HW127407   1.701   3.179   0.107 -0.1268 -0.4200  1.5383
 5258SOL    HW227408   1.773   3.128   0.002  2.7317  0.1052  0.3597
 5259SOL     OW27409   1.900   2.573   5.380 -0.1600 -0.3237  0.3968
 5259SOL    HW127410   1.886   2.665   5.359 -2.1398 -0.7092  0.0053
 5259SOL    HW227411   1.996   2.570   5.379 -0.1450  0.3976 -0.2400
 5260SOL     OW27412   3.293   1.883   2.655  0.1947 -0.0900  0.1546
 5260SOL    HW127413   3.262   1.912   2.569  0.6653 -0.7098 -0.2288
 5260SOL    HW227414   3.366   1.940   2.678 -1.1128  1.4115  0.5853
 5261SOL     OW27415   3.401   0.542   8.085  0.2816  0.0391 -0.1826
 5261SOL    HW127416   3.374   0.613   8.144 -0.1638 -0.1138 -0.2022
 5261SOL    HW227417   3.397   0.597   8.007 -0.5217 -1.4332 -1.1777
 5262SOL     OW27418   0.489   2.437  11.563  0.0214 -0.5224 -0.1159
 5262SOL    HW127419   0.528   2.471  11.644 -1.2271  1.3695 -0.3056
 5262SOL    HW227420   0.439   2.363  11.598  0.5115 -1.7042 -1.9440
 5263SOL     OW27421   2.549   4.534   4.130 -0.0784 -0.1128 -0.2194
 5263SOL    HW127422   2.478   4.477   4.102  0.0920 -0.4882  0.1033
 5263SOL    HW227423   2.499   4.609   4.160  0.4648  0.1440  0.0484
 5264SOL     OW27424   2.630   0.250   7.279 -0.0262 -0.2927 -0.1641
 5264SOL    HW127425   2.677   0.327   7.311 -3.1113  1.6120 -0.0962
 5264SOL    HW227426   2.583   0.236   7.361 -2.4500 -1.1006 -1.6872
 5265SOL     OW27427   2.947   0.338   5.348  0.1786  0.7455 -0.2110
 5265SOL    HW127428   3.020   0.377   5.300 -0.4199  0.1861 -1.5512
 5265SOL    HW227429   2.985   0.325   5.435 -1.1260 -0.5347  0.1681
 5266SOL     OW27430   0.057   2.620   6.471  0.0999  0.2502 -0.0086
 5266SOL    HW127431   4.724   2.607   6.534  0.5293 -2.4418 -0.0892
 5266SOL    HW227432   0.117   2.551   6.497 -0.0795 -0.1783 -0.7238
 5267SOL     OW27433   3.686   1.315  10.141  0.2463  0.1852 -0.5001
 5267SOL    HW127434   3.686   1.406  10.112  2.0810  0.3451  0.0184
 5267SOL    HW227435   3.592   1.295  10.135 -0.3835  2.5185  1.5279
 5268SOL     OW27436   2.685   1.553   0.131 -0.1318  0.0101  0.4756
 5268SOL    HW127437   2.723   1.627   0.178  2.4268 -0.7365 -0.3796
 5268SOL    HW227438   2.745   1.481   0.153  1.2310  0.4126 -1.8945
 5269SOL     OW27439   1.983   2.108   2.430 -0.3727  0.1433 -0.3871
 5269SOL    HW127440   2.033   2.156   2.364  0.0393 -1.2274 -1.0682
 5269SOL    HW227441   1.924   2.067   2.367 -0.8577 -1.6723  1.2338
 5270SOL     OW27442   3.828   3.089   1.035  0.2804 -0.0677 -0.2687
 5270SOL    HW127443   3.760   3.131   0.982  0.0037 -0.5246 -0.2759
 5270SOL    HW227444   3.900   3.108   0.974  0.3088 -1.9888 -0.8248
 5271SOL     OW27445   3.637   2.839  14.401  0.0632  0.0564  0.2742
 5271SOL    HW127446   3.598   2.857  14.486 -2.4193 -0.7188 -0.6977
 5271SOL    HW227447   3.720   2.800  14.427 -1.8073 -2.8810  1.8757
 5272SOL     OW27448   3.780   0.797   9.358 -0.3439 -0.0120 -0.1033
 5272SOL    HW127449   3.699   0.844   9.338  0.2426  0.5117 -1.2102
 5272SOL    HW227450   3.757   0.706   9.337 -0.7460  0.2282 -0.6941
 5273SOL     OW27451   1.891   1.073  15.140 -0.2910 -0.0530  0.0880
 5273SOL    HW127452   1.963   1.108  15.087  0.7926 -1.9014  0.3289
 5273SOL    HW227453   1.911   1.109  15.227  1.4710 -2.5356  0.6955
 5274SOL     OW27454   1.967   2.263  10.056 -0.1805  0.5537 -0.3286
 5274SOL    HW127455   2.033   2.265  10.125 -0.2902 -0.9356 -0.1947
 5274SOL    HW227456   2.008   2.305   9.980  1.6665  0.3280  0.5615
 5275SOL     OW27457   3.040   4.663  14.040 -0.3191 -0.2868 -0.2452
 5275SOL    HW127458   3.093   4.584  14.028 -0.5541 -0.4131 -0.4404
 5275SOL    HW227459   3.093   4.732  14.080  1.6150 -2.1180  0.3459
 5276SOL     OW27460   1.316   2.288   5.627 -0.3628 -0.8237  0.4818
 5276SOL    HW127461   1.328   2.245   5.542 -3.3817  0.3099 -0.5516
 5276SOL    HW227462   1.401   2.330   5.642 -0.4495  0.3865 -2.2418
 5277SOL     OW27463   0.328   0.754   5.328  0.3395  0.2031 -0.0468
 5277SOL    HW127464   0.335   0.824   5.264 -0.5758 -1.0802 -1.5453
 5277SOL    HW227465   0.302   0.676   5.279 -0.7238  0.4353  0.1392
 5278SOL     OW27466   0.785   4.237   7.151 -0.0441 -0.1981  0.0111
 5278SOL    HW127467   0.731   4.172   7.106  2.4596 -1.5367 -1.0483
 5278SOL    HW227468   0.719   4.300   7.180  0.7606 -0.3124  2.0990
 5279SOL     OW27469   3.846   0.449  10.954  0.2461 -0.6277  0.3130
 5279SOL    HW127470   3.885   0.435  11.040  1.5500 -1.7936 -0.4801
 5279SOL    HW227471   3.759   0.467  10.989 -0.3104 -0.7014 -1.0166
 5280SOL     OW27472   0.725   2.698   0.126 -0.1201  0.0145 -0.6003
 5280SOL    HW127473   0.771   2.708   0.043 -0.6834  1.4959 -0.7350
 5280SOL    HW227474   0.750   2.607   0.141 -0.6303 -0.1729 -0.8700
 5281SOL     OW27475   3.469   4.382   9.242  0.0928  0.1240  0.5605
 5281SOL    HW127476   3.532   4.404   9.310  1.3213 -0.7953 -0.2776
 5281SOL    HW227477   3.409   4.456   9.242 -0.9344 -0.7002  1.5345
 5282SOL     OW27478   4.496   4.211   8.897  0.0396  0.0344  0.4649
 5282SOL    HW127479   4.498   4.148   8.969 -1.1099 -0.7948 -0.2235
 5282SOL    HW227480   4.585   4.212   8.861 -1.0433  0.2054 -2.2333
 5283SOL     OW27481   1.629   3.090  11.273 -0.1320  0.3705  0.2738
 5283SOL    HW127482   1.700   3.060  11.216 -2.9183 -1.5819 -2.1618
 5283SOL    HW227483   1.612   3.174  11.230  1.0672 -0.1289 -1.1420
 5284SOL     OW27484   4.709   2.585   6.126  0.0302  0.6411 -0.5052
 5284SOL    HW127485   0.029   2.650   6.085  1.1647  1.2429  2.0141
 5284SOL    HW227486   4.659   2.640   6.187  1.0090  1.0932 -0.1118
 5285SOL     OW27487   1.840   2.058   7.314 -0.4838  0.2731  0.4290
 5285SOL    HW127488   1.785   2.107   7.375  0.4695 -0.6172  2.0109
 5285SOL    HW227489   1.904   2.028   7.379 -1.2358  0.2154  1.1360
 5286SOL     OW27490   0.864   0.165   2.636 -0.1726  0.3236  0.0561
 5286SOL    HW127491   0.883   0.259   2.637  2.3920 -0.1824  0.3807
 5286SOL    HW227492   0.866   0.154   2.541 -1.2089  3.3137 -0.3152
 5287SOL     OW27493   0.676   1.229  15.688 -0.0251 -0.3675  0.2128
 5287SOL    HW127494   0.723   1.312  15.691 -0.7433  0.0576 -0.4341
 5287SOL    HW227495   0.716   1.171  15.752  0.0425 -0.4995  0.0513
 5288SOL     OW27496   2.591   2.683  17.541 -0.4311  0.4992  0.2708
 5288SOL    HW127497   2.516   2.741  17.555 -0.3810  0.6440 -0.0581
 5288SOL    HW227498   2.571   2.638  17.458 -1.3497 -1.0398  1.3293
 5289SOL     OW27499   4.665   0.048   6.582  1.2051 -0.0776  0.5297
 5289SOL    HW127500   4.667   0.007   6.496 -2.5153 -0.4090  0.6029
 5289SOL    HW227501   4.668   4.703   6.629 -2.3684 -0.2553  0.4933
 5290SOL     OW27502   0.110   0.755  16.112  0.3839  0.3762  0.2034
 5290SOL    HW127503   0.187   0.800  16.077  1.2198 -0.5105  0.9192
 5290SOL    HW227504   0.119   0.785  16.203  1.9540 -0.5842  0.3580
 5291SOL     OW27505   0.137   1.214   6.954  0.0976 -0.6629  0.9440
 5291SOL    HW127506   0.179   1.214   7.039  1.1582 -0.7341  0.4198
 5291SOL    HW227507   0.051   1.178   6.976 -1.3212  2.8726  1.2235
 5292SOL     OW27508   1.865   4.522  16.895 -0.3061  0.1271 -0.3079
 5292SOL    HW127509   1.909   4.549  16.815  2.1342 -0.1478  0.9372
 5292SOL    HW227510   1.883   4.429  16.906 -0.1680  0.2268  0.3355
 5293SOL     OW27511   2.135   4.375   7.746  0.0078  0.2714 -0.1148
 5293SOL    HW127512   2.228   4.375   7.724 -0.5124 -1.3281 -2.3630
 5293SOL    HW227513   2.128   4.370   7.841  1.8067  2.6216  0.1406
 5294SOL     OW27514   0.292   0.542   5.154 -0.0400 -0.6253  0.0555
 5294SOL    HW127515   0.382   0.563   5.129 -0.2355 -0.9584 -0.9244
 5294SOL    HW227516   0.260   0.483   5.086  0.5291  0.6649 -1.3384
 5295SOL     OW27517   1.174   3.950   3.961 -0.2185 -0.0023  0.3409
 5295SOL    HW127518   1.156   3.868   3.916  1.9850  0.1850 -0.8761
 5295SOL    HW227519   1.165   3.930   4.054  0.9539 -2.4911 -0.0832
 5296SOL     OW27520   0.537   4.201   6.643 -0.4072  0.0295 -0.4196
 5296SOL    HW127521   0.501   4.117   6.615 -0.2492 -0.8146  1.9439
 5296SOL    HW227522   0.516   4.249   6.563  0.1408 -0.1986 -0.6955
 5297SOL     OW27523   1.224   3.544   2.889  0.2622  0.0259 -0.2906
 5297SOL    HW127524   1.258   3.550   2.800 -2.8179 -2.8836 -1.6575
 5297SOL    HW227525   1.159   3.613   2.877  0.7733  0.7617  1.0983
 5298SOL     OW27526   2.271   0.470  11.623 -0.1250  0.3107  0.4124
 5298SOL    HW127527   2.224   0.506  11.699  0.5733  0.1560  0.9169
 5298SOL    HW227528   2.202   0.425  11.574 -0.7703 -0.4399  2.0297
 5299SOL     OW27529   4.015   2.522   9.948  0.4620  0.3868 -0.4192
 5299SOL    HW127530   4.028   2.494   9.858 -2.8874  1.5737 -1.2768
 5299SOL    HW227531   3.927   2.559   9.946 -0.2881 -1.3802 -0.3731
 5300SOL     OW27532   1.241   1.225   7.332 -0.3547  0.1772  0.3254
 5300SOL    HW127533   1.295   1.258   7.404  0.7183  2.2111 -1.3874
 5300SOL    HW227534   1.169   1.197   7.388 -1.0781  1.1157 -0.1343
 5301SOL     OW27535   1.659   1.953   7.120 -0.1030  0.4514  0.0439
 5301SOL    HW127536   1.592   2.020   7.128  1.1416  1.5514  1.3542
 5301SOL    HW227537   1.730   1.987   7.175 -0.8071 -2.2637  2.6219
 5302SOL     OW27538   1.781   3.285  10.749  0.5149  0.3502  0.3851
 5302SOL    HW127539   1.760   3.222  10.680  0.8517  0.3892  0.2462
 5302SOL    HW227540   1.844   3.343  10.705  0.6756 -0.2445 -0.1634
 5303SOL     OW27541   1.706   1.681   3.988 -0.4377 -0.5878  0.2695
 5303SOL    HW127542   1.710   1.776   3.980 -2.9297 -0.2504  3.1878
 5303SOL    HW227543   1.794   1.671   4.025  0.0363  1.5759 -0.3029
 5304SOL     OW27544   1.720   3.331  15.098 -0.0157 -0.0049  0.3988
 5304SOL    HW127545   1.798   3.378  15.127 -0.5474  0.5773  0.8779
 5304SOL    HW227546   1.723   3.343  15.003 -1.8797 -2.1206  0.0575
 5305SOL     OW27547   1.377   1.902   0.683  0.0389  0.6512  0.1077
 5305SOL    HW127548   1.418   1.831   0.731  3.0288  0.1253 -3.1881
 5305SOL    HW227549   1.293   1.863   0.660  1.4094 -0.3547 -3.2133
 5306SOL     OW27550   1.036   0.254   7.001  0.1702 -0.0777  0.6068
 5306SOL    HW127551   1.129   0.278   7.005  0.2588 -0.3851  0.3231
 5306SOL    HW227552   1.017   0.273   6.909  1.8636 -0.6140  0.1316
 5307SOL     OW27553   2.957   3.958   8.895 -0.0062 -0.4584 -0.3572
 5307SOL    HW127554   2.924   3.918   8.815 -3.5570 -1.0165  1.3948
 5307SOL    HW227555   3.038   3.912   8.918 -1.3489 -1.7125  1.8344
 5308SOL     OW27556   2.940   3.837   3.676  0.1545 -0.0445  0.1180
 5308SOL    HW127557   2.990   3.805   3.752  1.6548  0.9927 -0.4259
 5308SOL    HW227558   2.947   3.763   3.616  1.0589 -2.3316  3.0482
 5309SOL     OW27559   1.687   1.281   5.781  0.0425  0.1666 -0.1844
 5309SOL    HW127560   1.742   1.262   5.857 -0.5318 -0.6478  0.0283
 5309SOL    HW227561   1.750   1.336   5.733 -0.4783 -0.0373 -1.1107
 5310SOL     OW27562   1.394   1.415   4.062 -0.2142  0.8724 -0.1542
 5310SOL    HW127563   1.379   1.433   4.155 -1.8963  0.7808 -0.3935
 5310SOL    HW227564   1.432   1.327   4.067 -1.2005  0.4540  0.1784
 5311SOL     OW27565   2.822   1.545  11.097  0.0183 -0.3778  0.1255
 5311SOL    HW127566   2.778   1.488  11.034 -0.2094  0.1195 -0.1635
 5311SOL    HW227567   2.778   1.536  11.181 -0.8695  0.0864 -0.2826
 5312SOL     OW27568   4.664   4.502   2.046  0.0818  0.0277 -0.2285
 5312SOL    HW127569   4.588   4.466   2.091  0.0775  2.4931  1.7122
 5312SOL    HW227570   0.001   4.472   2.098 -0.8709 -2.9221 -0.5725
 5313SOL     OW27571   3.752   4.635  17.379  0.1527 -0.4263 -0.3644
 5313SOL    HW127572   3.820   4.628  17.446  0.6244  0.7161 -0.7134
 5313SOL    HW227573   3.807   4.660  17.304  0.2942  0.7101  0.1097
 5314SOL     OW27574   3.370   3.324   4.521  0.3606 -0.0804  0.0774
 5314SOL    HW127575   3.367   3.261   4.594 -2.1794  0.6963  0.6245
 5314SOL    HW227576   3.354   3.405   4.570  0.7612  0.6459 -1.0006
 5315SOL     OW27577   3.636   1.437   7.418  0.1872 -0.1677 -0.7637
 5315SOL    HW127578   3.545   1.467   7.417 -0.0176 -0.7844 -0.5423
 5315SOL    HW227579   3.663   1.432   7.326  2.2641  0.4663 -0.1833
 5316SOL     OW27580   0.151   1.603   7.148 -0.2818  0.0840  0.2361
 5316SOL    HW127581   0.161   1.696   7.166 -0.2643  0.0923  0.1829
 5316SOL    HW227582   0.064   1.587   7.184 -0.5194  2.7499  0.7845
 5317SOL     OW27583   3.800   0.215  16.250  0.9074  0.2121  0.2497
 5317SOL    HW127584   3.863   0.145  16.231 -0.8009 -1.3387  0.2176
 5317SOL    HW227585   3.754   0.172  16.322 -0.1167 -2.0043 -1.6869
 5318SOL     OW27586   4.691   3.340   9.976  0.0698 -0.0684 -0.1093
 5318SOL    HW127587   4.644   3.423   9.981  1.4992  0.6049  2.4210
 5318SOL    HW227588   4.691   3.321  10.070  0.2855 -1.7957 -0.4560
 5319SOL     OW27589   2.996   0.557   6.450  0.0114 -0.0225  0.3066
 5319SOL    HW127590   2.992   0.653   6.450  0.7978  0.0078 -0.1858
 5319SOL    HW227591   3.059   0.545   6.521  0.0841  2.2785  0.6427
 5320SOL     OW27592   2.533   0.062  12.353 -0.1116  0.1724  0.3938
 5320SOL    HW127593   2.471   0.077  12.424 -2.2421 -0.7154 -1.2837
 5320SOL    HW227594   2.596   0.134  12.364  1.8891 -1.5598  0.2366
 5321SOL     OW27595   0.841   2.024   3.233 -0.1221  0.0219  0.5541
 5321SOL    HW127596   0.883   2.071   3.161  0.0796  0.0703  0.7018
 5321SOL    HW227597   0.907   1.963   3.266  1.0520  1.2444  0.4703
 5322SOL     OW27598   3.020   3.931   1.843  0.5404 -0.0339  0.4864
 5322SOL    HW127599   2.932   3.921   1.807  0.7962  0.6982 -0.3538
 5322SOL    HW227600   3.010   3.887   1.927 -1.7157 -2.6101 -1.1044
 5323SOL     OW27601   3.108   4.696  11.104 -0.1130  0.6864 -0.8363
 5323SOL    HW127602   3.023   4.693  11.148 -0.7647  1.6371 -2.0264
 5323SOL    HW227603   3.161   4.723  11.178 -0.1465  2.2287 -1.3716
 5324SOL     OW27604   1.132   3.227   8.163  0.1480  0.0146 -0.3598
 5324SOL    HW127605   1.052   3.264   8.126 -1.0027 -0.6977  1.4353
 5324SOL    HW227606   1.198   3.263   8.104 -0.5988 -1.9420 -2.4300
 5325SOL     OW27607   3.194   2.391   8.748 -0.0100  0.4890 -0.0394
 5325SOL    HW127608   3.113   2.383   8.797 -0.1026 -1.3305 -0.4701
 5325SOL    HW227609   3.249   2.398   8.826 -3.0954 -1.2688  2.2637
 5326SOL     OW27610   0.795   0.077  10.419  0.1383  0.2080 -0.2083
 5326SOL    HW127611   0.750   0.058  10.337  0.3381  2.0331 -0.7412
 5326SOL    HW227612   0.782   4.736  10.472 -0.0431 -0.2518 -0.9524
 5327SOL     OW27613   3.866   4.583  13.718 -0.2959  0.1044  0.2297
 5327SOL    HW127614   3.872   4.593  13.623 -0.9050  2.0285  0.4027
 5327SOL    HW227615   3.813   4.661  13.731 -0.0819  0.4881 -1.2029
 5328SOL     OW27616   4.044   2.544  10.305  0.0967 -0.0518  0.0015
 5328SOL    HW127617   4.072   2.506  10.388  0.8371  0.2376 -0.1214
 5328SOL    HW227618   4.098   2.622  10.295  5.1874 -3.5740  0.4452
 5329SOL     OW27619   4.361   0.032   7.391 -0.6417  0.3253  0.1724
 5329SOL    HW127620   4.345   4.682   7.356  2.4955 -0.4106  0.5767
 5329SOL    HW227621   4.446   0.020   7.433  0.1928  0.2652 -1.5092
 5330SOL     OW27622   0.010   0.287   1.277 -0.0093  0.6227 -0.3464
 5330SOL    HW127623   0.081   0.345   1.304  1.7072 -1.9741  0.7261
 5330SOL    HW227624   0.062   0.207   1.269 -2.5050 -1.0444 -0.0034
 5331SOL     OW27625   0.665   1.858   6.945 -0.8092  0.5781 -0.3345
 5331SOL    HW127626   0.572   1.837   6.954 -0.3822 -0.2431  2.4653
 5331SOL    HW227627   0.677   1.898   6.859  1.4850 -0.7616 -0.6499
 5332SOL     OW27628   1.382   3.285   2.279  0.3909 -0.2180  0.0113
 5332SOL    HW127629   1.414   3.373   2.300  1.6301 -0.8282  0.6818
 5332SOL    HW227630   1.459   3.228   2.288  1.5764  1.2956 -0.4095
 5333SOL     OW27631   4.700   1.845   2.219 -0.3181  0.1280  0.5204
 5333SOL    HW127632   0.004   1.902   2.283 -0.7007  0.1155  0.7786
 5333SOL    HW227633   4.668   1.777   2.278 -1.6754  1.1311  0.9112
 5334SOL     OW27634   4.379   1.271   8.646  0.0942 -0.4712  0.1143
 5334SOL    HW127635   4.472   1.249   8.652  0.0086 -1.2027 -1.3509
 5334SOL    HW227636   4.371   1.326   8.725  1.7474  0.2268 -0.2066
 5335SOL     OW27637   3.524   1.699  11.902  0.2818  0.0623 -0.2313
 5335SOL    HW127638   3.468   1.726  11.829  0.3308 -0.6905 -0.5408
 5335SOL    HW227639   3.600   1.673  11.851  0.5150  0.3443 -0.0281
 5336SOL     OW27640   3.207   2.594   5.799  0.2839  0.7591  0.3035
 5336SOL    HW127641   3.145   2.532   5.838 -0.4531  1.1870 -0.1842
 5336SOL    HW227642   3.184   2.581   5.707  0.7592 -0.3881  0.3584
 5337SOL     OW27643   2.061   0.004   6.705  0.0085 -0.2944 -0.1899
 5337SOL    HW127644   2.067   0.089   6.661 -1.9975  0.2106  0.5203
 5337SOL    HW227645   2.123   4.692   6.651 -0.5871 -0.4968 -0.6862
 5338SOL     OW27646   1.000   0.954   2.021 -0.1526 -0.0059  0.4303
 5338SOL    HW127647   0.943   0.913   1.956 -0.1436  0.7061 -0.0243
 5338SOL    HW227648   1.012   1.043   1.989 -1.0498 -0.4629 -1.1318
 5339SOL     OW27649   1.359   4.421   8.890  0.1984 -0.2478  0.7673
 5339SOL    HW127650   1.381   4.342   8.841 -1.8930 -1.1403  1.2659
 5339SOL    HW227651   1.446   4.461   8.897  0.6310 -1.0676  0.0429
 5340SOL     OW27652   1.102   4.444   1.098  0.2406 -0.0416 -0.5525
 5340SOL    HW127653   1.030   4.435   1.160  1.2159  1.9909  0.8482
 5340SOL    HW227654   1.092   4.533   1.066  2.4212  0.6824  0.7665
 5341SOL     OW27655   0.255   2.560   3.753 -0.1550  0.3109  0.2367
 5341SOL    HW127656   0.309   2.635   3.774 -3.4595  2.1526  2.1224
 5341SOL    HW227657   0.304   2.492   3.799 -1.1189  0.3784  1.3343
 5342SOL     OW27658   0.455   1.832   7.951 -0.3243  0.0845 -0.2452
 5342SOL    HW127659   0.390   1.797   8.012 -0.0047  3.6278  2.1081
 5342SOL    HW227660   0.449   1.763   7.885  1.5615  0.5973 -0.9559
 5343SOL     OW27661   1.848   4.075   5.664  0.4052 -0.4351 -0.0248
 5343SOL    HW127662   1.942   4.058   5.658  0.2233 -0.2744 -2.9186
 5343SOL    HW227663   1.819   4.021   5.738  2.4730 -1.6454 -0.1228
 5344SOL     OW27664   2.629   2.039   5.716 -0.0199  0.2702 -0.1554
 5344SOL    HW127665   2.566   1.977   5.752 -0.3267  1.2159  0.9333
 5344SOL    HW227666   2.587   2.061   5.633  0.5203 -0.2384 -0.5618
 5345SOL     OW27667   0.657   1.785   5.527 -0.2895 -0.3266  0.1065
 5345SOL    HW127668   0.709   1.852   5.482 -1.1507 -1.3459 -2.4080
 5345SOL    HW227669   0.624   1.840   5.598  1.0382 -1.3894  1.5379
 5346SOL     OW27670   1.908   1.583   8.061  0.1646  0.6130 -0.1703
 5346SOL    HW127671   1.952   1.523   8.000 -0.8663 -0.9214  0.5940
 5346SOL    HW227672   1.925   1.672   8.029 -4.4699  0.9393 -1.7545
 5347SOL     OW27673   2.225   3.413  16.371 -0.1164  0.4665 -0.0233
 5347SOL    HW127674   2.300   3.383  16.320  0.3879 -1.9338  2.1112
 5347SOL    HW227675   2.260   3.382  16.455  0.5976  1.1832 -0.0445
 5348SOL     OW27676   4.320   2.705   3.308  0.0288 -0.5862 -0.0855
 5348SOL    HW127677   4.286   2.708   3.397 -1.2875 -1.4258 -0.5469
 5348SOL    HW227678   4.407   2.736   3.334 -1.2843  1.0482  2.3778
 5349SOL     OW27679   0.376   3.093  10.001  0.1592  0.1538  0.6427
 5349SOL    HW127680   0.411   3.150  10.070  1.8112  0.1950 -0.2265
 5349SOL    HW227681   0.340   3.027  10.059 -1.0964  0.8368  0.6365
 5350SOL     OW27682   3.944   1.692   8.887 -0.9082 -0.0959 -0.0133
 5350SOL    HW127683   3.978   1.721   8.803  2.2846  1.3035  1.7703
 5350SOL    HW227684   3.855   1.724   8.877 -0.4452  1.5359  1.1070
 5351SOL     OW27685   1.173   4.213   4.259  0.0171 -0.3825 -0.4035
 5351SOL    HW127686   1.258   4.174   4.280  1.2944  1.5965 -1.9833
 5351SOL    HW227687   1.126   4.133   4.233  0.7327 -1.8227  2.6638
 5352SOL     OW27688   0.823   1.610   4.733  0.5026 -0.2672  0.1837
 5352SOL    HW127689   0.760   1.682   4.738  0.9174  0.2022 -1.1715
 5352SOL    HW227690   0.763   1.538   4.716 -0.1421  0.1787  0.5658
 5353SOL     OW27691   3.517   3.553   5.948  0.1088  0.1420 -0.2961
 5353SOL    HW127692   3.534   3.641   5.915 -1.5717 -0.1611 -1.9621
 5353SOL    HW227693   3.468   3.522   5.872  0.8442  0.6275 -0.9744
 5354SOL     OW27694   2.180   1.180  11.870 -0.1904  0.2984 -0.4233
 5354SOL    HW127695   2.201   1.123  11.796  1.9733  0.2984  0.1968
 5354SOL    HW227696   2.166   1.112  11.936 -0.3837  2.6648  2.0087
 5355SOL     OW27697   2.103   4.042  16.613  0.0033 -0.0545 -0.2362
 5355SOL    HW127698   2.045   4.046  16.537 -0.7485  0.3828  0.3564
 5355SOL    HW227699   2.101   4.136  16.631  0.7152  0.3478 -2.1448
 5356SOL     OW27700   1.272   1.420  12.649 -0.0420  0.2985 -0.3947
 5356SOL    HW127701   1.205   1.485  12.666 -2.5703 -2.1462 -1.0946
 5356SOL    HW227702   1.349   1.476  12.635  0.4257 -0.4880 -1.0044
 5357SOL     OW27703   1.930   0.542   2.727 -0.3952  0.1865  0.1541
 5357SOL    HW127704   1.934   0.618   2.669 -2.1173 -1.0894 -1.6483
 5357SOL    HW227705   1.915   0.470   2.666 -0.9408  0.8727 -0.5214
 5358SOL     OW27706   2.532   3.697   4.063 -0.1046 -0.1979 -0.2722
 5358SOL    HW127707   2.502   3.607   4.078  0.9986 -0.5086  0.0940
 5358SOL    HW227708   2.476   3.745   4.125  1.4132  0.8888  0.2671
 5359SOL     OW27709   1.765   3.643   7.475  0.1693 -0.0593  0.3048
 5359SOL    HW127710   1.673   3.653   7.449 -0.4005 -0.9571  2.0219
 5359SOL    HW227711   1.768   3.706   7.547  0.8606 -0.4319  0.5949
 5360SOL     OW27712   3.707   0.332   6.381  0.0409  0.0023  0.1073
 5360SOL    HW127713   3.630   0.388   6.397 -0.7330 -0.5007 -1.8197
 5360SOL    HW227714   3.694   0.265   6.448 -1.3856  0.2901  0.1386
 5361SOL     OW27715   1.493   3.509   5.011 -0.0016  0.2374  0.4198
 5361SOL    HW127716   1.579   3.537   5.044 -0.4752 -1.1535  2.8571
 5361SOL    HW227717   1.477   3.575   4.944  1.6343 -0.4368 -0.6414
 5362SOL     OW27718   0.071   2.887   9.639  0.8681  0.4960  0.3240
 5362SOL    HW127719   0.095   2.973   9.673  1.8861  0.5784 -0.6159
 5362SOL    HW227720   0.155   2.847   9.614  1.8406  1.1814  2.5372
 5363SOL     OW27721   0.141   4.060   4.247  0.1978 -0.1154  0.6762
 5363SOL    HW127722   0.211   4.100   4.300  0.4405  1.7870 -1.1102
 5363SOL    HW227723   0.088   4.139   4.236 -0.2447 -0.1324  2.7252
 5364SOL     OW27724   1.903   2.916   4.242  0.4611 -0.7362 -0.8754
 5364SOL    HW127725   1.909   2.862   4.321  1.3835 -2.1824 -1.9525
 5364SOL    HW227726   1.986   2.894   4.199  2.0837  0.8262  1.4347
 5365SOL     OW27727   1.402   3.565   7.008  0.3347 -0.5941 -0.7144
 5365SOL    HW127728   1.369   3.641   6.960  3.6557 -0.3573 -2.6765
 5365SOL    HW227729   1.399   3.604   7.096 -0.1571  0.6001 -1.2552
 5366SOL     OW27730   3.925   0.968  10.080  0.1710 -0.2422  0.2166
 5366SOL    HW127731   3.926   0.876  10.107 -0.9503 -0.6403 -1.0678
 5366SOL    HW227732   3.922   0.961   9.984  2.3613  1.4738  0.0109
 5367SOL     OW27733   0.451   0.312  15.314 -0.3361 -0.3207  0.1424
 5367SOL    HW127734   0.498   0.230  15.327 -1.9834 -1.3544 -0.4562
 5367SOL    HW227735   0.524   0.374  15.309 -0.0206 -0.7490 -0.6725
 5368SOL     OW27736   3.248   0.758   5.529  0.1481 -0.1716 -0.1249
 5368SOL    HW127737   3.223   0.667   5.544 -1.7090  0.7133  2.1998
 5368SOL    HW227738   3.173   0.783   5.474  1.6583 -0.0438 -2.1172
 5369SOL     OW27739   0.824   4.590  15.612 -0.1149 -0.1307 -0.3505
 5369SOL    HW127740   0.877   4.541  15.674  0.1805 -0.2405 -0.6901
 5369SOL    HW227741   0.752   4.527  15.603  2.2549 -2.8399 -0.1622
 5370SOL     OW27742   1.009   1.403   8.816 -0.3400  0.4631  1.2116
 5370SOL    HW127743   1.004   1.350   8.737  0.9432  0.4646  1.1322
 5370SOL    HW227744   1.100   1.429   8.804 -0.2485 -0.5097 -0.1180
 5371SOL     OW27745   0.564   3.307   3.731 -0.0142 -0.1346  0.2891
 5371SOL    HW127746   0.495   3.345   3.785 -0.9270  2.2289 -2.5555
 5371SOL    HW227747   0.506   3.272   3.663 -1.0641  1.3342  0.4202
 5372SOL     OW27748   3.053   3.921   1.187 -0.2821 -0.0592  0.0565
 5372SOL    HW127749   2.977   3.961   1.145 -1.8338 -1.1989  1.7444
 5372SOL    HW227750   3.043   3.957   1.275  1.1966  1.4555 -0.4118
 5373SOL     OW27751   0.028   0.742   1.647 -0.1941  0.3640  0.1739
 5373SOL    HW127752   0.015   0.785   1.732 -2.4391 -1.5648  0.8187
 5373SOL    HW227753   4.683   0.757   1.602  0.1513  1.0783 -0.2122
 5374SOL     OW27754   1.344   3.751   1.897 -0.8345 -0.6076  0.1423
 5374SOL    HW127755   1.361   3.750   1.803  2.7101  1.1145  0.7325
 5374SOL    HW227756   1.330   3.660   1.923 -0.0946 -0.0598  2.5580
 5375SOL     OW27757   1.550   3.733   2.507  0.1165 -0.1151 -0.2059
 5375SOL    HW127758   1.633   3.770   2.479 -1.6995  3.2939 -1.0905
 5375SOL    HW227759   1.511   3.812   2.544 -0.3135  0.7275 -2.5004
 5376SOL     OW27760   0.272   1.312   1.881  0.1872  0.2626 -0.2845
 5376SOL    HW127761   0.255   1.220   1.900 -0.8439  0.5928  0.4126
 5376SOL    HW227762   0.190   1.343   1.843 -0.7907 -0.3776  1.2965
 5377SOL     OW27763   2.805   4.025  15.536  0.3680  0.4151  0.2090
 5377SOL    HW127764   2.747   4.100  15.522 -0.0684 -0.0293 -0.3521
 5377SOL    HW227765   2.792   4.005  15.629  1.3220 -0.6220  0.1206
 5378SOL     OW27766   2.421   3.002   3.698  0.2772 -0.1946  0.3912
 5378SOL    HW127767   2.501   3.049   3.677 -0.3149  0.3874 -0.5994
 5378SOL    HW227768   2.362   3.059   3.647  1.0318 -0.7539 -1.1089
 5379SOL     OW27769   1.816   1.464   9.928  0.0867 -0.4058 -0.1891
 5379SOL    HW127770   1.746   1.427   9.874 -1.0802  1.4474  0.0164
 5379SOL    HW227771   1.838   1.394   9.989  0.5696 -0.0581  0.0272
 5380SOL     OW27772   2.574   3.398   6.269  0.3119 -0.1471 -0.3155
 5380SOL    HW127773   2.661   3.401   6.228  1.3340 -0.7042  1.8537
 5380SOL    HW227774   2.518   3.408   6.192  0.0345 -1.9655 -0.3508
 5381SOL     OW27775   4.368   1.801   7.464 -0.2754 -0.0651 -0.2298
 5381SOL    HW127776   4.399   1.886   7.433  4.6472 -1.6206  0.3082
 5381SOL    HW227777   4.366   1.825   7.556 -1.2469 -1.0653  0.0078
 5382SOL     OW27778   4.679   1.500   1.923  0.4597  0.1827  0.2786
 5382SOL    HW127779   4.591   1.527   1.893 -0.0490 -1.8435 -0.0533
 5382SOL    HW227780   4.720   1.451   1.852 -1.3544  0.7261 -1.1497
 5383SOL     OW27781   0.249   3.357   4.624 -0.2510  0.3447 -0.1157
 5383SOL    HW127782   0.276   3.411   4.550  0.6898  1.3475  0.9532
 5383SOL    HW227783   0.163   3.396   4.640  0.0137  0.8636  0.0419
 5384SOL     OW27784   0.101   2.213   1.000  0.1647 -0.2829  0.4459
 5384SOL    HW127785   0.147   2.132   0.977 -1.2811 -2.2493  4.3596
 5384SOL    HW227786   0.028   2.210   0.938  0.1551  0.2776  0.4301
 5385SOL     OW27787   3.100   1.420  16.195  0.1658  0.0976  0.0240
 5385SOL    HW127788   3.049   1.344  16.220  0.4756 -0.2191 -0.3091
 5385SOL    HW227789   3.183   1.394  16.234  0.4733  2.0145  0.6490
 5386SOL     OW27790   0.436   2.070   6.942 -0.2311  0.0093 -0.2691
 5386SOL    HW127791   0.352   2.097   6.979  0.6394  1.3183  0.7835
 5386SOL    HW227792   0.410   2.008   6.874  2.9928  1.3680 -2.7484
 5387SOL     OW27793   1.628   1.551   8.281  0.2694 -0.0233  0.3263
 5387SOL    HW127794   1.617   1.464   8.320 -2.4258  0.4177  0.5689
 5387SOL    HW227795   1.681   1.586   8.353  0.8247  1.6650 -0.8865
 5388SOL     OW27796   1.487   3.978   8.659  0.1477  0.2268  0.2437
 5388SOL    HW127797   1.567   4.023   8.688 -0.0787 -0.6434  2.2383
 5388SOL    HW227798   1.440   4.050   8.619  0.0360  1.3330  2.3898
 5389SOL     OW27799   1.928   0.429   5.009  0.3429  0.3346  0.9608
 5389SOL    HW127800   1.901   0.434   5.101 -6.2166 -1.2413 -0.8384
 5389SOL    HW227801   1.982   0.351   5.012 -0.9830 -0.5630  1.5952
 5390SOL     OW27802   0.121   2.540  14.621 -0.0733 -0.4016  0.5430
 5390SOL    HW127803   0.138   2.596  14.697 -1.0813  2.2507 -1.2143
 5390SOL    HW227804   0.205   2.495  14.607  0.2277  0.3770 -0.1573
 5391SOL     OW27805   1.386   4.267   8.016 -0.4978  0.1242  0.7225
 5391SOL    HW127806   1.291   4.262   8.002 -0.4805  1.8016 -0.0225
 5391SOL    HW227807   1.424   4.288   7.930  3.1476  0.4249  2.4272
 5392SOL     OW27808   2.611   3.617   2.073 -0.0148  0.1345  0.1828
 5392SOL    HW127809   2.659   3.691   2.109  2.9394 -2.3146  1.3211
 5392SOL    HW227810   2.546   3.654   2.014  0.8570  0.1158 -0.7852
 5393SOL     OW27811   0.608   1.608   8.155 -0.1618  0.1275 -0.0022
 5393SOL    HW127812   0.512   1.607   8.148 -0.3082 -0.4058  2.0002
 5393SOL    HW227813   0.632   1.541   8.218 -0.4021 -0.0467 -0.0975
 5394SOL     OW27814   3.980   0.976  15.337 -0.1834  0.3335 -0.0102
 5394SOL    HW127815   3.966   1.069  15.353 -0.8819  0.6281 -2.3803
 5394SOL    HW227816   4.000   0.940  15.423  1.0721 -0.2974 -0.5656
 5395SOL     OW27817   4.001   3.136  15.590  0.0119 -0.2036 -0.1946
 5395SOL    HW127818   3.905   3.137  15.594 -0.0002 -2.2265 -0.2778
 5395SOL    HW227819   4.000   3.221  15.545  3.1063 -0.9933 -1.6861
 5396SOL     OW27820   2.651   2.745   4.528  0.3953  0.5630  0.1658
 5396SOL    HW127821   2.644   2.737   4.623 -0.9759 -1.7890 -0.1133
 5396SOL    HW227822   2.676   2.657   4.497 -2.2665  0.9105 -2.9717
 5397SOL     OW27823   0.657   3.991   7.153  0.2407 -0.3449 -0.2695
 5397SOL    HW127824   0.684   3.902   7.127  0.3614 -0.0348 -1.2112
 5397SOL    HW227825   0.697   3.995   7.239  1.4204 -2.3777 -0.7136
 5398SOL     OW27826   2.774   3.445   0.907 -0.3653  0.2933  0.4201
 5398SOL    HW127827   2.831   3.519   0.928  0.0293  0.3521 -0.8610
 5398SOL    HW227828   2.825   3.377   0.952 -0.5185 -0.2862 -0.2802
 5399SOL     OW27829   4.004   2.262   7.045  0.2512  0.7009 -0.1108
 5399SOL    HW127830   4.032   2.236   6.957  0.1296 -0.6383  0.2373
 5399SOL    HW227831   3.929   2.319   7.029 -0.0613 -0.0310 -1.2998
 5400SOL     OW27832   2.245   3.900  16.795 -0.0613 -0.2870 -0.2866
 5400SOL    HW127833   2.316   3.963  16.808 -0.3497 -0.1000  0.3946
 5400SOL    HW227834   2.200   3.943  16.722  0.6001  0.9903  0.0523
 5401SOL     OW27835   4.548   0.854   6.569  0.2210 -0.3332 -0.4502
 5401SOL    HW127836   4.566   0.934   6.520 -1.0527 -0.1419 -0.6079
 5401SOL    HW227837   4.454   0.851   6.589  0.2165  1.2950 -0.2521
 5402SOL     OW27838   4.234   3.384   2.656 -0.0684 -0.2914 -0.4645
 5402SOL    HW127839   4.258   3.295   2.683  0.2575  0.2713  1.1546
 5402SOL    HW227840   4.161   3.404   2.715  0.4692  0.6414 -0.1214
 5403SOL     OW27841   2.295   4.700   8.089 -0.1507 -0.0692  0.2289
 5403SOL    HW127842   2.319   4.609   8.108 -0.7643  0.1864  2.2556
 5403SOL    HW227843   2.333   4.716   8.003 -0.9758 -1.5218 -0.4137
 5404SOL     OW27844   2.996   4.591   2.107 -0.5769  0.2410  0.2927
 5404SOL    HW127845   2.960   4.613   2.193 -1.8003  0.9257 -0.3959
 5404SOL    HW227846   3.037   4.672   2.076 -1.7362  0.8835  0.4441
 5405SOL     OW27847   1.267   0.078  14.692 -0.7891  0.7756  0.1831
 5405SOL    HW127848   1.179   0.062  14.658 -0.5880 -0.3304  0.1954
 5405SOL    HW227849   1.310   4.732  14.674  1.5138  1.9510  0.1883
 5406SOL     OW27850   1.427   2.406   3.866  0.0927 -0.1070  0.2598
 5406SOL    HW127851   1.368   2.336   3.894 -0.2664 -0.2270 -0.7894
 5406SOL    HW227852   1.379   2.488   3.880 -1.3836 -0.9792  0.2416
 5407SOL     OW27853   3.682   4.066   7.425  0.1894 -0.1533 -0.3950
 5407SOL    HW127854   3.719   4.116   7.353  0.1460 -1.2448 -1.1687
 5407SOL    HW227855   3.750   4.076   7.491 -0.0472  1.7793 -0.4364
 5408SOL     OW27856   1.889   0.356   2.553 -0.5100 -0.4171 -0.4762
 5408SOL    HW127857   1.838   0.356   2.472 -1.7803 -1.4652  0.3195
 5408SOL    HW227858   1.979   0.362   2.521  0.2396  1.0746  1.8489
 5409SOL     OW27859   2.316   3.922   3.399  0.0144 -0.3827 -0.3264
 5409SOL    HW127860   2.343   3.978   3.326  1.5130 -1.2800 -0.4630
 5409SOL    HW227861   2.321   3.983   3.472  2.0971 -2.3742  1.1613
 5410SOL     OW27862   1.235   2.831   2.903  0.2803  0.1538  0.2187
 5410SOL    HW127863   1.174   2.895   2.940  1.9214  2.1803 -0.5894
 5410SOL    HW227864   1.171   2.797   2.840  1.7869  0.6643 -1.6220
 5411SOL     OW27865   3.855   3.867   5.986 -0.0332  0.1901 -0.9719
 5411SOL    HW127866   3.902   3.884   5.905 -0.8012  0.6248 -1.3252
 5411SOL    HW227867   3.776   3.827   5.949  0.3211 -0.4259 -1.0571
 5412SOL     OW27868   3.921   3.587  17.142  0.3260 -0.3242  0.0522
 5412SOL    HW127869   3.884   3.499  17.145 -1.3191  0.4493  1.9699
 5412SOL    HW227870   3.931   3.605  17.048 -0.1817  0.9137  0.2308
 5413SOL     OW27871   0.450   4.693  14.156  0.4007  0.1519  0.1398
 5413SOL    HW127872   0.510   4.621  14.173 -1.2786 -1.2255  0.2283
 5413SOL    HW227873   0.479   4.731  14.073  0.8505 -1.7746 -0.5983
 5414SOL     OW27874   2.680   4.677   3.433 -0.2373 -0.4192  0.7391
 5414SOL    HW127875   2.621   4.706   3.364  0.5436 -1.7600 -0.4735
 5414SOL    HW227876   2.706   0.022   3.474  1.6084 -1.1164  0.9971
 5415SOL     OW27877   0.522   1.570   5.394  0.3335 -0.0542 -0.6985
 5415SOL    HW127878   0.606   1.616   5.391  2.0230 -2.9813  1.0409
 5415SOL    HW227879   0.538   1.495   5.337 -1.1115 -0.3315 -0.7324
 5416SOL     OW27880   1.464   2.308   8.863 -0.3274 -0.1245  0.6304
 5416SOL    HW127881   1.478   2.215   8.848  0.6411 -0.0504  1.0832
 5416SOL    HW227882   1.523   2.356   8.805 -0.7401  0.4456  0.6845
 5417SOL     OW27883   3.399   0.670   1.331  0.2806 -0.5191  0.5675
 5417SOL    HW127884   3.440   0.584   1.343 -0.6886 -0.9951  0.4604
 5417SOL    HW227885   3.367   0.662   1.241  0.6633  0.5276  0.3339
 5418SOL     OW27886   1.712   1.208   2.344 -0.2795 -0.1986  0.1451
 5418SOL    HW127887   1.735   1.226   2.253  0.0700 -2.3631 -0.1913
 5418SOL    HW227888   1.737   1.116   2.350 -0.4088 -0.0081  3.9577
 5419SOL     OW27889   3.600   0.608  12.144  0.4037 -0.4944  0.5715
 5419SOL    HW127890   3.601   0.523  12.189  0.7133 -0.5539  0.4534
 5419SOL    HW227891   3.526   0.630  12.200 -0.2309 -0.8920 -0.1184
 5420SOL     OW27892   1.114   2.320   0.659 -0.3654  0.3997  0.5286
 5420SOL    HW127893   1.073   2.371   0.729 -3.6039 -2.7631  0.9462
 5420SOL    HW227894   1.198   2.291   0.694  0.1992 -0.5188 -1.5704
 5421SOL     OW27895   2.655   0.334  15.156  0.1622  0.3196  0.1284
 5421SOL    HW127896   2.644   0.371  15.243  0.3972  1.8219 -0.4778
 5421SOL    HW227897   2.569   0.293  15.153 -0.3685  1.4870 -1.2356
 5422SOL     OW27898   4.127   3.640  16.126 -0.0226  0.5285 -0.1556
 5422SOL    HW127899   4.096   3.715  16.074 -1.6544  0.9497  1.4085
 5422SOL    HW227900   4.169   3.579  16.065 -2.3906  0.0516 -1.3326
 5423SOL     OW27901   2.676   3.385   2.335 -0.0985 -0.1565 -0.0333
 5423SOL    HW127902   2.769   3.375   2.316 -0.1088 -1.3130  0.5025
 5423SOL    HW227903   2.634   3.447   2.275  1.5734  0.9655 -0.0637
 5424SOL     OW27904   2.276   4.312   7.445 -0.4340  0.1321 -0.0839
 5424SOL    HW127905   2.282   4.379   7.376  2.3188  0.0703  0.0700
 5424SOL    HW227906   2.191   4.272   7.429 -0.8966  0.8930  0.4945
 5425SOL     OW27907   1.277   3.356   7.175 -0.1468  0.1897  0.0879
 5425SOL    HW127908   1.280   3.266   7.143  1.6327  0.3521 -0.2116
 5425SOL    HW227909   1.332   3.408   7.116 -0.8992  1.1900  0.2696
 5426SOL     OW27910   0.001   4.434   5.654  0.0499 -0.3469 -0.1653
 5426SOL    HW127911   4.667   4.469   5.601  0.5968  0.3265 -0.4587
 5426SOL    HW227912   4.733   4.483   5.737  2.2777  1.0893 -0.8567
 5427SOL     OW27913   0.283   1.805  15.730  0.6924 -0.4398 -0.8934
 5427SOL    HW127914   0.259   1.884  15.681  1.3761 -0.3933 -1.1488
 5427SOL    HW227915   0.231   1.821  15.808 -1.7780 -2.9277 -2.0298
 5428SOL     OW27916   4.460   0.618   1.707 -0.3320  0.2212  0.0736
 5428SOL    HW127917   4.438   0.578   1.622 -0.4210 -0.4474  0.4102
 5428SOL    HW227918   4.491   0.700   1.669 -1.9407  0.3355 -1.0209
 5429SOL     OW27919   4.334   2.082   7.443 -0.2411 -0.0560 -0.3360
 5429SOL    HW127920   4.266   2.098   7.377  1.4656  1.4657 -1.7276
 5429SOL    HW227921   4.319   2.153   7.505  1.2956 -0.4708  0.5172
 5430SOL     OW27922   0.800   3.961   0.282 -0.5418  0.0182  0.2006
 5430SOL    HW127923   0.845   4.045   0.290 -3.0434  1.3360  0.6072
 5430SOL    HW227924   0.820   3.942   0.191 -1.3596  0.5142 -0.0743
 5431SOL     OW27925   0.913   1.734  13.168  0.0006 -0.0912  0.2881
 5431SOL    HW127926   1.004   1.756  13.188 -0.2573  0.2416  1.1048
 5431SOL    HW227927   0.893   1.813  13.117  3.0724 -1.0044 -2.3080
 5432SOL     OW27928   1.750   0.734   2.033 -0.3131 -0.0384  0.2514
 5432SOL    HW127929   1.735   0.660   1.975 -0.1581  0.6212 -0.6348
 5432SOL    HW227930   1.790   0.801   1.977  0.3612 -1.0309 -0.4571
 5433SOL     OW27931   2.816   1.229   3.071 -0.0926 -0.0767 -0.0717
 5433SOL    HW127932   2.722   1.244   3.084 -0.2756 -0.7270 -0.5951
 5433SOL    HW227933   2.828   1.143   3.110  0.5071 -0.3130 -0.7770
 5434SOL     OW27934   2.841   2.792  15.286  0.0006 -0.0376  0.4452
 5434SOL    HW127935   2.817   2.787  15.378 -1.2413  0.5162  0.1435
 5434SOL    HW227936   2.858   2.886  15.275 -1.1338  0.3531  2.0947
 5435SOL     OW27937   1.195   2.853   6.904  0.2994  0.3366  0.2872
 5435SOL    HW127938   1.164   2.912   6.835  0.2952  0.7772  0.6696
 5435SOL    HW227939   1.196   2.768   6.859  0.2402  0.4248  0.1178
 5436SOL     OW27940   0.050   3.042  10.476  0.2283  0.0206  0.2898
 5436SOL    HW127941   0.084   3.040  10.565 -0.9783 -1.0995  0.7384
 5436SOL    HW227942   0.127   3.019  10.425 -0.0618 -1.1136  0.3501
 5437SOL     OW27943   4.719   3.559  12.424  0.5162 -0.2671  0.2573
 5437SOL    HW127944   4.667   3.530  12.350 -0.4878  2.2220 -0.0227
 5437SOL    HW227945   0.015   3.472  12.446  1.3701  0.2442  0.9900
 5438SOL     OW27946   0.275   2.739   5.208 -0.1529  1.0644  0.1833
 5438SOL    HW127947   0.242   2.670   5.265 -2.0987  1.0111 -0.9943
 5438SOL    HW227948   0.338   2.782   5.266  0.5977 -3.4659  2.6698
 5439SOL     OW27949   4.089   2.051  16.311 -0.5784  0.1541 -0.1920
 5439SOL    HW127950   4.039   2.120  16.356  1.7064  1.5856  0.1517
 5439SOL    HW227951   4.117   2.094  16.230  0.0224  0.3492  0.1153
 5440SOL     OW27952   2.410   0.201   1.700  0.2854  0.6577  0.2338
 5440SOL    HW127953   2.423   0.238   1.612 -1.1978 -0.3885 -0.4168
 5440SOL    HW227954   2.487   0.144   1.702 -0.4345 -0.2008  2.9514
 5441SOL     OW27955   1.570   1.706  16.585 -0.3509  0.5784 -0.1854
 5441SOL    HW127956   1.482   1.743  16.572 -0.8871 -0.2201  1.1899
 5441SOL    HW227957   1.623   1.765  16.531  0.7168  0.5219  0.8052
 5442SOL     OW27958   0.410   4.299  17.371 -0.9314 -0.1908  0.6750
 5442SOL    HW127959   0.421   4.222  17.427  0.9375  0.2257  0.8851
 5442SOL    HW227960   0.388   4.258  17.287  0.4638  1.9181 -0.7000
 5443SOL     OW27961   3.244   1.214   1.593  0.0472 -0.1503  0.4651
 5443SOL    HW127962   3.282   1.219   1.505 -0.8461 -1.5593  0.0138
 5443SOL    HW227963   3.259   1.125   1.625  2.4869  0.3666  0.7592
 5444SOL     OW27964   1.106   4.324  11.285 -0.5272 -0.4787  0.2668
 5444SOL    HW127965   1.167   4.376  11.232 -0.2772 -0.1396  0.8761
 5444SOL    HW227966   1.082   4.388  11.352  0.9042 -1.0845  1.3649
 5445SOL     OW27967   3.225   2.232   5.223 -0.5018 -0.1892 -0.0681
 5445SOL    HW127968   3.221   2.272   5.309 -0.7396  2.9574 -1.5430
 5445SOL    HW227969   3.304   2.279   5.199 -1.0677  0.6836 -0.2174
 5446SOL     OW27970   3.936   2.365   6.232 -0.4773 -0.2451 -0.0501
 5446SOL    HW127971   3.906   2.274   6.234 -1.4806  0.1842  4.4653
 5446SOL    HW227972   3.879   2.401   6.164 -1.1192 -3.5906 -1.2885
 5447SOL     OW27973   1.215   2.625   9.188 -0.8247  0.0672 -0.4426
 5447SOL    HW127974   1.227   2.535   9.158 -3.1070 -0.9629  1.6990
 5447SOL    HW227975   1.178   2.659   9.107  1.9586 -0.9763 -2.1660
 5448SOL     OW27976   4.407   3.176  17.667  0.1378 -0.2969  0.4954
 5448SOL    HW127977   4.446   3.214  17.746  0.2071  1.2617 -0.2720
 5448SOL    HW227978   4.317   3.205  17.684  0.0022  0.9143 -2.3762
 5449SOL     OW27979   4.529   0.805   1.548  0.2283  0.1475  0.1182
 5449SOL    HW127980   4.499   0.895   1.558  1.5767  0.7078 -0.9133
 5449SOL    HW227981   4.468   0.777   1.480 -0.9429  0.9931  0.8203
 5450SOL     OW27982   2.220   2.074   8.288  0.3122  0.0867  0.2730
 5450SOL    HW127983   2.279   2.116   8.350  1.5423 -0.2377 -0.6652
 5450SOL    HW227984   2.212   2.137   8.216 -1.8092 -1.0400 -0.4716
 5451SOL     OW27985   2.884   2.283   7.917  0.0283 -0.6542 -0.2701
 5451SOL    HW127986   2.795   2.297   7.948 -0.3594  0.1475 -1.7556
 5451SOL    HW227987   2.926   2.366   7.941  0.1306 -0.3456 -1.5203
 5452SOL     OW27988   0.741   3.422   7.802 -0.1713 -0.5366 -0.0925
 5452SOL    HW127989   0.737   3.360   7.730  1.7087 -1.4745  0.5889
 5452SOL    HW227990   0.666   3.479   7.785 -0.2921 -1.2492 -1.9512
 5453SOL     OW27991   4.627   3.794   9.278  0.3301  0.1825  0.6436
 5453SOL    HW127992   4.691   3.769   9.212 -1.2751 -0.3727 -0.7227
 5453SOL    HW227993   4.590   3.873   9.239 -0.6172 -0.7263 -0.3020
 5454SOL     OW27994   4.302   0.299   9.490  0.2679 -0.7556  0.5954
 5454SOL    HW127995   4.331   0.361   9.558 -2.7695  0.7815  0.5186
 5454SOL    HW227996   4.273   0.357   9.420 -0.5523 -1.3111  0.4808
 5455SOL     OW27997   1.738   3.586   5.143 -0.6481 -0.0709  0.5877
 5455SOL    HW127998   1.814   3.531   5.123  0.7426  1.2571  2.2419
 5455SOL    HW227999   1.787   3.664   5.169 -0.9120  0.8483 -1.6885
 5456SOL     OW28000   2.163   4.345  10.577 -0.3793 -0.0739  0.1046
 5456SOL    HW128001   2.092   4.370  10.517 -0.2145 -0.3685 -0.2135
 5456SOL    HW228002   2.104   4.336  10.652 -1.2993 -1.1879 -0.7431
 5457SOL     OW28003   0.867   2.570   3.725  0.7709 -0.4081 -0.3108
 5457SOL    HW128004   0.896   2.494   3.675  0.7197 -0.7509  0.1764
 5457SOL    HW228005   0.818   2.526   3.795  0.1340  1.4790  0.4290
 5458SOL     OW28006   0.475   2.399  16.992 -0.2751 -0.4387  0.2671
 5458SOL    HW128007   0.494   2.306  16.988 -0.6953 -0.3832 -2.4484
 5458SOL    HW228008   0.431   2.400  17.078 -1.4494  0.0336 -0.3430
 5459SOL     OW28009   3.396   0.184  15.108  0.3693  0.2737  0.1396
 5459SOL    HW128010   3.338   0.219  15.041  0.6935  2.2506  0.8668
 5459SOL    HW228011   3.414   0.265  15.157  0.0089 -0.5587  1.6679
 5460SOL     OW28012   2.968   1.614   4.947 -0.1879  0.2243  0.2550
 5460SOL    HW128013   3.022   1.538   4.971  1.0351  1.1131  0.2988
 5460SOL    HW228014   2.914   1.620   5.025 -1.9585 -1.9757 -0.7891
 5461SOL     OW28015   0.847   3.560   4.605  0.4083  0.7139 -0.1722
 5461SOL    HW128016   0.835   3.491   4.670 -1.7765  0.3930 -0.8973
 5461SOL    HW228017   0.819   3.643   4.643 -0.0561  0.1516  0.7227
 5462SOL     OW28018   2.126   0.963   2.234 -0.6622  0.6627  0.1041
 5462SOL    HW128019   2.057   1.004   2.183 -2.3185 -0.1647  1.6673
 5462SOL    HW228020   2.077   0.881   2.242  1.2045 -0.4971 -0.4158
 5463SOL     OW28021   2.219   1.752   7.497 -0.0764  0.9498 -0.8017
 5463SOL    HW128022   2.228   1.714   7.410 -0.0433 -0.6310 -0.0999
 5463SOL    HW228023   2.282   1.824   7.508 -0.0250  1.1193 -2.1861
 5464SOL     OW28024   2.897   2.071  13.105  0.5985 -0.7879 -0.2626
 5464SOL    HW128025   2.843   2.039  13.178 -0.2338 -2.7752 -1.7581
 5464SOL    HW228026   2.954   1.996  13.092  1.1839 -0.6302  1.3658
 5465SOL     OW28027   2.250   3.598   9.976 -0.3672  0.1177  0.2353
 5465SOL    HW128028   2.277   3.563  10.062  1.2316  3.9928  1.3047
 5465SOL    HW228029   2.217   3.685   9.997  0.9071  0.8509 -0.8314
 5466SOL     OW28030   0.757   3.732  12.699 -0.1207 -0.2025  0.9678
 5466SOL    HW128031   0.683   3.778  12.659  0.0047 -1.2673 -0.4761
 5466SOL    HW228032   0.823   3.801  12.700 -0.6759  0.3257  0.5049
 5467SOL     OW28033   1.645   1.011   4.715 -0.1092 -0.2732  0.0324
 5467SOL    HW128034   1.723   1.060   4.742 -0.8500  0.5130  0.8050
 5467SOL    HW228035   1.586   1.087   4.722  0.4392  0.1102  0.5461
 5468SOL     OW28036   2.883   1.530   1.802  0.0339  0.2483 -0.3329
 5468SOL    HW128037   2.815   1.503   1.740  1.7253 -1.6279 -1.3517
 5468SOL    HW228038   2.954   1.495   1.748  0.3298 -0.2213  0.3614
 5469SOL     OW28039   2.853   0.736  14.473  0.2217 -0.3433  0.1347
 5469SOL    HW128040   2.762   0.762  14.486  0.3508  0.1093  0.1263
 5469SOL    HW228041   2.901   0.817  14.489  1.4390 -1.7596  3.8783
 5470SOL     OW28042   2.445   3.845   6.929  0.3883 -0.5436 -0.3627
 5470SOL    HW128043   2.445   3.773   6.865 -0.5816 -0.0122 -0.9533
 5470SOL    HW228044   2.515   3.815   6.988  0.9340 -1.4133 -1.4436
 5471SOL     OW28045   3.499   0.049   9.182 -0.5554  0.3268 -0.2162
 5471SOL    HW128046   3.494   0.028   9.088 -0.2670  2.1700 -0.6415
 5471SOL    HW228047   3.435   4.723   9.213 -0.6702  1.3415  1.5841
 5472SOL     OW28048   3.023   2.451   2.050 -0.1092  0.1372  0.2148
 5472SOL    HW128049   2.965   2.489   1.984  0.9141  1.3317 -0.0113
 5472SOL    HW228050   2.985   2.366   2.071 -0.8644  0.5477  0.4812
 5473SOL     OW28051   3.715   3.399   3.269 -0.1883  0.0143  0.2435
 5473SOL    HW128052   3.718   3.494   3.275 -0.8325  0.0284  0.3514
 5473SOL    HW228053   3.777   3.384   3.197  0.3058  2.2549  0.2082
 5474SOL     OW28054   2.039   4.335  11.518 -0.5346  0.4540  0.1374
 5474SOL    HW128055   1.957   4.299  11.483 -0.3690  1.0063 -0.8370
 5474SOL    HW228056   2.017   4.357  11.608  2.1359  1.7041  0.4763
 5475SOL     OW28057   3.811   4.508   7.206  0.1283 -0.3548  0.5415
 5475SOL    HW128058   3.861   4.574   7.254 -2.3604  0.5060  1.9353
 5475SOL    HW228059   3.892   4.473   7.169 -0.0772 -1.0552  0.7546
 5476SOL     OW28060   3.720   2.468   3.628 -0.6758  0.1908 -0.3502
 5476SOL    HW128061   3.786   2.438   3.689  0.9663  0.9404 -1.7465
 5476SOL    HW228062   3.699   2.548   3.676  1.7417  1.1952 -0.9344
 5477SOL     OW28063   2.642   0.042   1.682 -0.3223 -0.1562 -0.0755
 5477SOL    HW128064   2.709   4.729   1.728  0.6363  1.7583  0.6218
 5477SOL    HW228065   2.655   4.730   1.601  1.1065  0.2827 -0.1152
 5478SOL     OW28066   0.181   1.939   1.006 -0.1248 -0.6849  0.3915
 5478SOL    HW128067   0.186   1.854   0.961  0.4734 -0.2558 -0.3625
 5478SOL    HW228068   0.105   1.924   1.062 -2.1533 -1.8572 -2.7062
 5479SOL     OW28069   0.306   3.234   4.848 -0.1431 -0.2317 -0.1630
 5479SOL    HW128070   0.380   3.284   4.883 -0.7322  0.1719  0.5039
 5479SOL    HW228071   0.315   3.258   4.756 -0.0116  2.7938  0.6232
 5480SOL     OW28072   0.964   2.264   3.324 -0.4481  0.1898  0.0198
 5480SOL    HW128073   0.894   2.318   3.287 -0.5412  0.5276  0.6866
 5480SOL    HW228074   0.968   2.193   3.260 -0.9654  0.7175 -0.6025
 5481SOL     OW28075   3.631   4.081  15.882 -0.2708 -0.5824  0.1009
 5481SOL    HW128076   3.686   4.101  15.805  1.2014 -1.2798  0.9647
 5481SOL    HW228077   3.681   4.114  15.957 -1.1385 -0.8551  0.7809
 5482SOL     OW28078   2.077   4.114  12.087  0.5505 -0.2127 -0.2741
 5482SOL    HW128079   2.062   4.163  12.006 -1.1274  0.1224  0.2301
 5482SOL    HW228080   2.094   4.031  12.042  0.5013 -0.3404 -0.0595
 5483SOL     OW28081   3.085   2.869   2.907  0.0906  0.1427 -0.1840
 5483SOL    HW128082   3.157   2.930   2.891  0.3481 -0.8462 -2.7777
 5483SOL    HW228083   3.041   2.869   2.822 -0.6108  1.5009  0.1699
 5484SOL     OW28084   3.746   3.827  10.535  0.0549 -0.0285 -0.6681
 5484SOL    HW128085   3.661   3.838  10.577 -0.4391 -2.6718 -0.9513
 5484SOL    HW228086   3.771   3.745  10.578 -1.3955  0.5138  1.2435
 5485SOL     OW28087   0.959   2.135   1.088 -0.1099 -0.6723 -0.2518
 5485SOL    HW128088   0.891   2.106   1.027 -1.1517  0.5466  0.3383
 5485SOL    HW228089   0.928   2.223   1.111  1.5724 -0.0835 -0.2263
 5486SOL     OW28090   2.927   1.219   3.736  0.2130  0.2666  0.0037
 5486SOL    HW128091   2.893   1.303   3.706 -0.4793  0.5447  1.5809
 5486SOL    HW228092   3.016   1.254   3.743 -0.0763  0.5113  2.3000
 5487SOL     OW28093   1.747   0.186   7.439  0.4635  0.5834 -0.4793
 5487SOL    HW128094   1.695   0.248   7.489  2.4796  1.9571 -0.0863
 5487SOL    HW228095   1.823   0.244   7.433  1.0876 -0.0731  1.1225
 5488SOL     OW28096   1.915   4.534   4.920 -0.0060 -0.1254  0.3277
 5488SOL    HW128097   1.857   4.458   4.910 -1.4847  1.3190 -2.0971
 5488SOL    HW228098   1.965   4.500   4.995  0.6667  2.2122  0.9432
 5489SOL     OW28099   2.431   3.458   1.271  0.0932 -0.3175  0.1197
 5489SOL    HW128100   2.391   3.526   1.325 -0.5063  0.3965 -1.2240
 5489SOL    HW228101   2.500   3.507   1.226  1.3875 -0.7874  1.6121
 5490SOL     OW28102   1.338   3.704   7.961  0.3560 -0.3390  0.4676
 5490SOL    HW128103   1.246   3.679   7.951  1.1110 -2.6670 -0.7018
 5490SOL    HW228104   1.335   3.797   7.983 -1.7440 -0.7415  1.9348
 5491SOL     OW28105   2.470   2.840   7.206 -0.1618 -0.2516  0.3379
 5491SOL    HW128106   2.560   2.809   7.198 -0.0029  0.4784 -0.7218
 5491SOL    HW228107   2.428   2.757   7.184  1.4186 -0.9858  0.0951
 5492SOL     OW28108   4.224   0.884  13.536  0.6459 -0.0612  0.1944
 5492SOL    HW128109   4.218   0.804  13.588  2.1192  1.7151  3.0823
 5492SOL    HW228110   4.267   0.845  13.460  1.1804  1.1534 -0.1316
 5493SOL     OW28111   0.027   3.658  14.281 -0.0790  0.0992 -0.1385
 5493SOL    HW128112   0.033   3.586  14.218  0.1029  0.2573 -0.2991
 5493SOL    HW228113   0.117   3.675  14.308  0.5704 -2.7225 -0.5010
 5494SOL     OW28114   1.174   3.336   4.196 -0.2367 -0.4647 -0.6609
 5494SOL    HW128115   1.227   3.305   4.124  1.2389  1.5927 -0.4738
 5494SOL    HW228116   1.087   3.313   4.165  0.0313 -1.2331 -0.8304
 5495SOL     OW28117   1.512   2.575   4.822  0.4298  0.2303 -0.0752
 5495SOL    HW128118   1.523   2.516   4.897  1.8074  2.7245  1.6771
 5495SOL    HW228119   1.425   2.604   4.846 -0.2502 -2.1443  0.3300
 5496SOL     OW28120   0.761   4.689  17.196  0.1746  0.0407 -0.4802
 5496SOL    HW128121   0.754   4.647  17.111 -3.4897 -1.1893  0.4340
 5496SOL    HW228122   0.695   4.642  17.248  0.8130  0.1457  0.4356
 5497SOL     OW28123   4.003   4.722   2.790 -0.2823 -0.0961  0.0679
 5497SOL    HW128124   3.997   0.079   2.772 -0.0467 -0.3884 -1.5326
 5497SOL    HW228125   3.969   4.706   2.878  1.1945  2.0849  1.0414
 5498SOL     OW28126   0.961   2.526  15.762 -0.3304  0.0401 -0.2801
 5498SOL    HW128127   1.046   2.486  15.743  1.1952  2.4077  1.6338
 5498SOL    HW228128   0.910   2.448  15.785  1.5386 -1.2967 -0.6062
 5499SOL     OW28129   2.313   0.363   2.922 -0.2034 -0.2154 -0.1652
 5499SOL    HW128130   2.259   0.441   2.915 -0.9300 -0.6018  1.2258
 5499SOL    HW228131   2.404   0.392   2.926 -0.3900  0.5806 -2.1349
 5500SOL     OW28132   1.694   1.546   4.745  0.3490 -0.6295  0.4682
 5500SOL    HW128133   1.635   1.567   4.673 -1.5985 -1.0391  1.9451
 5500SOL    HW228134   1.762   1.610   4.722 -0.2876 -0.3804 -0.7382
 5501SOL     OW28135   2.935   4.575   4.484  0.1694 -0.6705  0.8385
 5501SOL    HW128136   2.849   4.598   4.517 -0.7148 -2.7753  0.0046
 5501SOL    HW228137   2.940   4.638   4.412  0.0414  0.2478  1.6399
 5502SOL     OW28138   0.155   1.677   2.553 -0.0266  0.2855 -0.6175
 5502SOL    HW128139   0.237   1.678   2.503  1.4878  0.2454  1.8806
 5502SOL    HW228140   0.086   1.640   2.498  0.2977 -1.1440 -0.0545
 5503SOL     OW28141   1.330   1.050  16.621 -0.3291 -0.7404 -0.2844
 5503SOL    HW128142   1.417   1.023  16.650  0.2267 -0.5704 -1.7700
 5503SOL    HW228143   1.295   0.965  16.592  0.1916 -0.7114 -1.0051
 5504SOL     OW28144   4.288   4.547   1.736  0.7869  0.2302 -0.4327
 5504SOL    HW128145   4.301   4.611   1.805 -1.1913 -1.5808  1.6165
 5504SOL    HW228146   4.224   4.595   1.685  2.2595  2.4712 -0.1841
 5505SOL     OW28147   0.406   0.905  11.416  0.2337  0.1026  0.2318
 5505SOL    HW128148   0.364   0.972  11.471  0.3291  0.2358  0.1429
 5505SOL    HW228149   0.395   0.833  11.479 -0.2892  1.1479  1.3441
 5506SOL     OW28150   0.088   3.051   9.050 -0.6049  0.0059 -0.0641
 5506SOL    HW128151   0.122   3.020   9.134 -0.9463  0.0696  0.0988
 5506SOL    HW228152   4.734   3.023   9.059 -0.8581  1.5114  2.1691
 5507SOL     OW28153   4.340   0.523  15.595 -0.5295  0.5295 -0.4769
 5507SOL    HW128154   4.253   0.509  15.558 -0.4424 -2.0149  0.2156
 5507SOL    HW228155   4.384   0.484  15.519 -0.5987  0.2664 -0.3839
 5508SOL     OW28156   2.975   0.372   4.346 -0.0451  0.3605 -0.2526
 5508SOL    HW128157   2.968   0.455   4.299 -0.3679  1.1023  1.1246
 5508SOL    HW228158   3.002   0.305   4.282  0.9673 -0.8132  1.4205
 5509SOL     OW28159   3.956   0.326   5.195  0.2528 -0.0850  0.2940
 5509SOL    HW128160   3.883   0.385   5.178  1.3153  0.8224 -1.0848
 5509SOL    HW228161   4.003   0.333   5.111 -0.4618  0.7639 -0.0357
 5510SOL     OW28162   3.396   0.971  12.237  0.1299  0.2293 -0.0494
 5510SOL    HW128163   3.453   0.994  12.310  0.7338 -1.7479  0.1172
 5510SOL    HW228164   3.444   1.018  12.168  0.1383  0.0427 -0.1719
 5511SOL     OW28165   4.590   1.634   1.240  0.1037  0.0068 -0.4473
 5511SOL    HW128166   4.508   1.632   1.289  0.0184  2.7043 -0.5174
 5511SOL    HW228167   4.604   1.559   1.182  1.3672  0.0778 -0.2501
 5512SOL     OW28168   2.451   2.158   8.379  0.0846 -0.1158  0.1318
 5512SOL    HW128169   2.475   2.100   8.451  1.8658  0.0542 -0.3265
 5512SOL    HW228170   2.492   2.112   8.306  1.1717  2.8394 -1.1371
 5513SOL     OW28171   1.480   1.231   6.488 -0.0508  0.3252 -0.0046
 5513SOL    HW128172   1.394   1.209   6.524 -0.1952 -0.0825 -0.6098
 5513SOL    HW228173   1.507   1.298   6.551 -0.7100 -0.7272  1.3968
 5514SOL     OW28174   2.830   4.586  16.349 -0.5804 -0.0810 -0.1495
 5514SOL    HW128175   2.869   4.549  16.270 -1.2938 -1.4941  0.1666
 5514SOL    HW228176   2.906   4.640  16.371  0.2533 -1.4189  0.2635
 5515SOL     OW28177   0.053   3.326   8.716 -0.4054  0.1397  0.0120
 5515SOL    HW128178   0.066   3.420   8.707  1.6521 -0.0869  0.6378
 5515SOL    HW228179   4.731   3.323   8.791 -0.6738 -0.2134 -0.2155
 5516SOL     OW28180   2.590   2.696   7.653 -0.0062 -0.6564  0.1895
 5516SOL    HW128181   2.645   2.738   7.587 -0.8629 -0.1316 -0.1883
 5516SOL    HW228182   2.642   2.625   7.691 -0.5209 -0.7832  0.6617
 5517SOL     OW28183   1.427   3.489   7.825  0.0720  0.3986 -0.4495
 5517SOL    HW128184   1.483   3.528   7.757  1.4174 -1.1068 -0.2217
 5517SOL    HW228185   1.393   3.567   7.867 -0.2622 -0.5885  1.1295
 5518SOL     OW28186   1.305   3.147   9.399 -0.2244 -0.7375 -0.1304
 5518SOL    HW128187   1.330   3.133   9.308 -0.3816 -0.3235 -0.2353
 5518SOL    HW228188   1.328   3.063   9.441  1.1551 -1.8137 -3.0197
 5519SOL     OW28189   3.981   3.395   1.108  0.4871 -0.2065 -0.2234
 5519SOL    HW128190   4.043   3.360   1.172  0.7587 -0.8567 -0.8346
 5519SOL    HW228191   3.895   3.389   1.149  1.2245  2.9116  1.6915
 5520SOL     OW28192   1.114   3.250   5.900  0.6209 -0.6106 -0.8553
 5520SOL    HW128193   1.028   3.278   5.871 -0.2924 -2.7393 -0.2062
 5520SOL    HW228194   1.165   3.330   5.916  0.2772 -1.0754  2.5645
 5521SOL     OW28195   3.321   3.120   7.537  0.9939  0.0847 -0.0983
 5521SOL    HW128196   3.288   3.104   7.449  1.1913 -2.1658  0.2309
 5521SOL    HW228197   3.239   3.094   7.580  0.4356  0.2772 -1.0336
 5522SOL     OW28198   2.197   1.300   4.357  0.3654  0.0012 -0.0880
 5522SOL    HW128199   2.230   1.211   4.342 -1.2218 -0.4404 -0.9792
 5522SOL    HW228200   2.103   1.293   4.342  0.5103  0.9540 -1.4384
 5523SOL     OW28201   0.726   2.313   1.906  0.3250  0.8609  0.1116
 5523SOL    HW128202   0.812   2.271   1.915 -0.1070  0.6114  2.9686
 5523SOL    HW228203   0.731   2.399   1.948  2.8530  0.7900 -0.0224
 5524SOL     OW28204   2.036   1.921   4.918 -0.2072  0.1569 -0.5092
 5524SOL    HW128205   2.097   1.995   4.910 -0.7655  0.6780  0.0916
 5524SOL    HW228206   1.992   1.931   4.834 -1.4169  0.2525  0.1396
 5525SOL     OW28207   2.550   1.948   3.569  0.3332 -0.2057 -0.0734
 5525SOL    HW128208   2.644   1.960   3.572  0.3152  0.1203 -0.8353
 5525SOL    HW228209   2.525   2.011   3.637  2.6266 -1.0579  1.5145
 5526SOL     OW28210   4.627   3.514  16.692 -0.0739 -0.1903 -0.2459
 5526SOL    HW128211   4.701   3.455  16.707 -0.4426 -0.8554 -0.9836
 5526SOL    HW228212   4.591   3.512  16.781 -1.3493 -2.2647 -0.7893
 5527SOL     OW28213   1.750   2.169   1.281  0.0366  0.2961  0.4798
 5527SOL    HW128214   1.687   2.225   1.326 -0.5718 -0.1580  0.1920
 5527SOL    HW228215   1.702   2.157   1.200  1.3993 -1.3143 -0.0941
 5528SOL     OW28216   0.604   3.536   6.870 -0.1089 -0.2206  0.2053
 5528SOL    HW128217   0.657   3.467   6.910 -1.9700 -0.4533  2.2472
 5528SOL    HW228218   0.521   3.505   6.906 -0.2338  2.3173  2.0852
 5529SOL     OW28219   1.679   1.283   8.362 -0.1850  0.4685 -0.2825
 5529SOL    HW128220   1.707   1.248   8.446  0.5355  0.9748 -0.3052
 5529SOL    HW228221   1.728   1.227   8.301  2.5149 -0.2457  2.5189
 5530SOL     OW28222   1.422   2.720   7.031 -0.0059 -0.1809  0.1959
 5530SOL    HW128223   1.502   2.734   7.082 -1.0949  1.6914  1.3903
 5530SOL    HW228224   1.422   2.795   6.972  0.5942 -0.7252 -0.5019
 5531SOL     OW28225   2.220   2.107  11.205 -0.0465  0.4880  0.2556
 5531SOL    HW128226   2.236   2.133  11.114  2.5782 -0.8358  0.3428
 5531SOL    HW228227   2.310   2.096  11.234  0.1230 -1.0944 -0.8274
 5532SOL     OW28228   3.367   1.373   7.160  0.4409 -0.4001  0.2225
 5532SOL    HW128229   3.349   1.423   7.239 -0.1033 -0.4539  0.1348
 5532SOL    HW228230   3.350   1.282   7.184 -2.0336 -0.5324 -1.9136
 5533SOL     OW28231   1.865   3.128   5.326 -0.4123 -0.4888  0.1513
 5533SOL    HW128232   1.928   3.200   5.320  1.1343 -1.8097  0.9571
 5533SOL    HW228233   1.799   3.147   5.258  0.0842 -1.3907 -0.5673
 5534SOL     OW28234   2.895   1.043  14.623  0.1920  0.5169 -0.1456
 5534SOL    HW128235   2.895   1.032  14.528  1.9941  0.2848 -0.1138
 5534SOL    HW228236   2.800   1.056  14.631 -0.1155 -0.0735 -2.9095
 5535SOL     OW28237   0.585   0.773   6.078  0.4655  0.0071 -0.0177
 5535SOL    HW128238   0.611   0.821   6.156 -0.6581 -0.7603  0.8217
 5535SOL    HW228239   0.563   0.840   6.013 -1.2024  0.3137  0.8745
 5536SOL     OW28240   4.643   1.759   7.703 -0.2002  0.0473  0.4340
 5536SOL    HW128241   4.693   1.748   7.784 -1.2748 -0.7537  0.9870
 5536SOL    HW228242   4.559   1.787   7.740 -1.0519  0.3586 -1.7138
 5537SOL     OW28243   4.409   0.030   5.777 -0.1844  0.1334 -0.5353
 5537SOL    HW128244   4.326   0.074   5.757 -0.4453  1.4196  3.3523
 5537SOL    HW228245   4.371   4.686   5.810 -1.8383  0.6758 -1.0536
 5538SOL     OW28246   1.952   3.135   6.317  0.0331 -0.4116  0.2192
 5538SOL    HW128247   2.046   3.120   6.316  0.2242  0.7613  1.0384
 5538SOL    HW228248   1.929   3.115   6.407 -2.7522  3.4618  0.3633
 5539SOL     OW28249   4.090   3.096  13.009  0.1438 -0.1007 -0.5018
 5539SOL    HW128250   4.030   3.092  12.935 -0.0343 -2.1513 -0.2470
 5539SOL    HW228251   4.019   3.115  13.070 -0.1631 -2.0541 -0.2460
 5540SOL     OW28252   4.070   2.613   6.325  0.2016  1.0635  0.5331
 5540SOL    HW128253   4.022   2.530   6.327 -1.6287  2.0972 -0.8184
 5540SOL    HW228254   3.991   2.662   6.305 -0.5117  0.3552  1.5686
 5541SOL     OW28255   2.801   1.138  17.282 -0.1565 -0.3098 -0.4628
 5541SOL    HW128256   2.893   1.113  17.278 -0.5863 -2.0305  0.4958
 5541SOL    HW228257   2.762   1.082  17.349 -0.0196 -0.5929 -0.6199
 5542SOL     OW28258   4.001   3.992   1.455  0.1027  0.2418  0.5721
 5542SOL    HW128259   4.093   4.005   1.432 -0.7660 -2.5219 -4.4727
 5542SOL    HW228260   3.964   4.069   1.411 -1.4295  0.0750  1.5531
 5543SOL     OW28261   0.920   2.802   7.157 -0.5534  0.4715 -0.3212
 5543SOL    HW128262   0.975   2.733   7.195 -0.2049  1.2252  0.5408
 5543SOL    HW228263   0.847   2.743   7.136 -0.3931  0.3232 -0.4601
 5544SOL     OW28264   0.290   2.723   6.265  0.1462  0.0228  0.1783
 5544SOL    HW128265   0.210   2.704   6.314  0.3978  0.7910  0.8936
 5544SOL    HW228266   0.350   2.755   6.332 -0.6989 -2.3241  2.0751
 5545SOL     OW28267   0.326   3.604   9.592  0.6711  0.1131 -0.3930
 5545SOL    HW128268   0.411   3.577   9.626 -0.1396 -2.1086 -0.0896
 5545SOL    HW228269   0.351   3.661   9.520  2.8230  0.2788  0.4834
 5546SOL     OW28270   3.909   0.541   3.044  0.1207 -0.2594 -0.1466
 5546SOL    HW128271   3.974   0.503   3.103  0.1720  1.2394  0.7622
 5546SOL    HW228272   3.866   0.467   2.999  2.2403 -1.8913  0.5187
 5547SOL     OW28273   3.336   3.905   1.845 -0.1777  0.0658  0.0173
 5547SOL    HW128274   3.337   3.985   1.792  0.7509  1.3359  1.9599
 5547SOL    HW228275   3.245   3.879   1.841 -0.2991  0.2951  1.3337
 5548SOL     OW28276   0.888   0.915   4.112 -0.1891 -0.2202 -0.1851
 5548SOL    HW128277   0.912   0.978   4.044 -1.0679  0.5294  0.1996
 5548SOL    HW228278   0.795   0.899   4.095 -0.2921 -1.8135  1.8701
 5549SOL     OW28279   2.166   2.779  11.808 -0.4559 -0.0478  0.2245
 5549SOL    HW128280   2.111   2.725  11.751 -0.1094 -0.3175  0.1450
 5549SOL    HW228281   2.093   2.784  11.870 -0.1620 -0.7387  0.6316
 5550SOL     OW28282   3.799   4.576   6.078  0.1867  0.5443 -0.2117
 5550SOL    HW128283   3.749   4.634   6.020 -0.1954  1.4293  1.0231
 5550SOL    HW228284   3.773   4.492   6.040  1.7768 -0.2536  0.4654
 5551SOL     OW28285   2.584   0.669  11.193  0.5028 -0.5250 -0.0880
 5551SOL    HW128286   2.509   0.664  11.254  0.1597 -0.4292 -0.5014
 5551SOL    HW228287   2.568   0.751  11.146  0.6423  0.8224  2.2253
 5552SOL     OW28288   2.889   2.416  11.176 -0.2995 -0.0131 -0.4212
 5552SOL    HW128289   2.949   2.356  11.220  0.4757 -0.7277 -2.4707
 5552SOL    HW228290   2.822   2.356  11.142 -1.3082 -0.2365  1.9556
 5553SOL     OW28291   2.000   0.872  13.381 -0.2673  0.4117  0.5173
 5553SOL    HW128292   1.915   0.869  13.426 -0.9274 -1.3136 -0.8275
 5553SOL    HW228293   1.972   0.817  13.308 -3.9286  1.2606  1.2698
 5554SOL     OW28294   4.191   4.119   2.029  0.6201 -0.7046 -0.0299
 5554SOL    HW128295   4.128   4.183   2.062  0.1443 -1.0706 -0.2376
 5554SOL    HW228296   4.130   4.065   1.980  0.6042 -2.6418  2.1066
 5555SOL     OW28297   1.627   3.739   2.137  0.4303  0.1663  0.1939
 5555SOL    HW128298   1.621   3.666   2.075  0.4983 -0.5639  1.0306
 5555SOL    HW228299   1.545   3.739   2.186  0.3425 -0.6466  0.0556
 5556SOL     OW28300   0.716   1.948   7.200  0.2248 -0.4922  0.3014
 5556SOL    HW128301   0.699   1.933   7.107  0.8409 -0.6960  0.2142
 5556SOL    HW228302   0.765   1.869   7.226  0.3472 -0.6831 -0.4950
 5557SOL     OW28303   1.376   0.301  12.717 -0.0646  0.1081  0.3237
 5557SOL    HW128304   1.425   0.357  12.776  1.1738  0.1815 -0.7619
 5557SOL    HW228305   1.303   0.268  12.770 -0.3698  0.7704  0.3086
 5558SOL     OW28306   0.963   1.254  15.533  0.6277 -0.2132  0.1597
 5558SOL    HW128307   0.881   1.228  15.492  0.4581  0.6570 -0.0358
 5558SOL    HW228308   0.941   1.313  15.605  0.7087 -0.0274  0.0322
 5559SOL     OW28309   3.959   4.014  10.268  0.1889 -0.5442 -0.0247
 5559SOL    HW128310   3.864   4.027  10.272  0.2511  0.9379 -3.3550
 5559SOL    HW228311   3.965   3.996  10.174 -0.6957 -0.1970 -0.1483
 5560SOL     OW28312   3.868   1.045  15.085 -0.2186  0.1219 -0.7383
 5560SOL    HW128313   3.872   1.139  15.104 -4.6733  0.1457  0.0304
 5560SOL    HW228314   3.898   1.010  15.169  3.2588 -0.7445 -2.3691
 5561SOL     OW28315   1.237   3.622   8.911 -0.7913  0.7374  0.5266
 5561SOL    HW128316   1.245   3.607   8.817  0.0050  1.9819  0.3922
 5561SOL    HW228317   1.233   3.718   8.913 -1.0395  0.7595 -1.1812
 5562SOL     OW28318   4.568   1.631   4.060  0.2020 -0.2529 -0.2580
 5562SOL    HW128319   4.523   1.561   4.106  0.6764  0.9756  2.0529
 5562SOL    HW228320   4.633   1.659   4.125 -0.5765  2.5975 -0.6903
 5563SOL     OW28321   1.298   0.070   7.522  0.3474  0.4889  0.2100
 5563SOL    HW128322   1.328   0.072   7.613  1.4825  1.8893 -0.2028
 5563SOL    HW228323   1.274   4.715   7.515 -0.5038  0.7522 -0.3335
 5564SOL     OW28324   3.325   1.957   6.988  0.0895 -0.1550  0.1196
 5564SOL    HW128325   3.402   2.013   6.980 -0.2748  0.0591 -2.1869
 5564SOL    HW228326   3.342   1.902   6.912  1.2831  1.9666 -1.1568
 5565SOL     OW28327   1.213   3.518   8.251  0.3132 -0.1768 -0.1229
 5565SOL    HW128328   1.298   3.505   8.207  0.0026  2.3737 -1.4910
 5565SOL    HW228329   1.229   3.459   8.325  0.1178 -0.2425 -0.1343
 5566SOL     OW28330   1.069   3.333  15.461  0.8271 -0.1464  0.2775
 5566SOL    HW128331   0.991   3.285  15.489  0.3944  0.5678  0.2967
 5566SOL    HW228332   1.125   3.256  15.455 -1.2336 -1.6376  0.1985
 5567SOL     OW28333   3.163   4.001   4.132 -0.2868  0.1216 -0.1634
 5567SOL    HW128334   3.255   3.989   4.108 -0.4451 -2.4707  0.5868
 5567SOL    HW228335   3.167   4.097   4.131 -0.7338  0.1208 -1.7764
 5568SOL     OW28336   2.350   2.913   2.148 -0.0514  0.7019 -0.0261
 5568SOL    HW128337   2.373   2.993   2.195  1.7361  0.5597 -0.6577
 5568SOL    HW228338   2.257   2.935   2.135  0.5257  3.0238 -0.1361
 5569SOL     OW28339   3.829   3.436   0.119 -0.2558  0.2281 -0.3773
 5569SOL    HW128340   3.822   3.531   0.126  0.7680  0.3863 -1.5518
 5569SOL    HW228341   3.765   3.414   0.051 -0.3138 -3.1004  0.7394
 5570SOL     OW28342   3.967   0.982   6.586 -0.6216 -0.7331 -0.1224
 5570SOL    HW128343   3.940   0.983   6.678 -3.7486 -1.0776 -1.0443
 5570SOL    HW228344   3.947   1.073   6.563 -0.4188 -0.4049  1.0143
 5571SOL     OW28345   2.357   2.301   8.968 -0.2613  0.4663  0.2158
 5571SOL    HW128346   2.407   2.308   9.050  0.2198 -0.2180 -0.0138
 5571SOL    HW228347   2.385   2.372   8.911  0.8713 -1.1671 -1.2789
 5572SOL     OW28348   1.625   1.667   3.527 -0.3722 -0.5696 -0.2332
 5572SOL    HW128349   1.566   1.695   3.598  0.7839  1.6626 -0.1597
 5572SOL    HW228350   1.618   1.753   3.486  0.5598  0.1240  1.0855
 5573SOL     OW28351   4.097   2.944   2.434 -0.7659  0.1439  0.4538
 5573SOL    HW128352   4.021   2.998   2.456  0.1821  1.7196 -0.1198
 5573SOL    HW228353   4.052   2.860   2.432 -1.0969  0.3340 -0.1177
 5574SOL     OW28354   1.542   0.336   1.853 -0.0901  0.1318 -0.5078
 5574SOL    HW128355   1.584   0.257   1.888 -2.3887 -0.5589  0.6493
 5574SOL    HW228356   1.616   0.396   1.843 -0.8346  1.0130 -0.7592
 5575SOL     OW28357   1.444   1.896   5.266  0.3380  0.1027 -0.3228
 5575SOL    HW128358   1.501   1.970   5.285 -0.2145  1.1959 -3.0159
 5575SOL    HW228359   1.415   1.900   5.358  2.9267 -0.1031  0.5107
 5576SOL     OW28360   2.004   1.108   3.777  0.2448  0.0205  0.1940
 5576SOL    HW128361   2.014   1.104   3.872  1.7883  1.0141  0.0672
 5576SOL    HW228362   2.094   1.120   3.749  1.6541 -4.7832  2.6062
 5577SOL     OW28363   2.914   1.390   0.135 -0.3185  0.0381 -0.2225
 5577SOL    HW128364   3.006   1.413   0.122 -0.1425 -1.0454 -0.9425
 5577SOL    HW228365   2.891   1.352   0.051 -0.1585 -2.6621  0.9432
 5578SOL     OW28366   0.245   0.136  13.163  0.3109  0.4158  0.3032
 5578SOL    HW128367   0.242   0.172  13.251 -0.8352 -0.0360  0.4591
 5578SOL    HW228368   0.338   0.144  13.145 -0.0100 -0.7392 -1.8524
 5579SOL     OW28369   4.272   0.851  15.244 -0.0353 -0.2580  0.1550
 5579SOL    HW128370   4.227   0.933  15.225  3.5896  1.3120 -1.6934
 5579SOL    HW228371   4.239   0.846  15.333  0.1533 -0.4373  0.2135
 5580SOL     OW28372   2.328   3.050   4.145 -0.4812  0.3872 -0.4064
 5580SOL    HW128373   2.362   2.980   4.090 -4.1147 -0.4201 -1.6038
 5580SOL    HW228374   2.304   3.110   4.075 -3.1100  0.7086  0.7995
 5581SOL     OW28375   3.050   0.053   9.501  0.1537 -0.1587  0.0971
 5581SOL    HW128376   3.088   0.071   9.587 -1.3523 -0.9384  0.9200
 5581SOL    HW228377   3.074   0.132   9.453  0.4955  1.1651  2.4754
 5582SOL     OW28378   4.352   2.455   4.225  0.2199  0.6350 -0.3547
 5582SOL    HW128379   4.310   2.375   4.196 -1.5771  1.5805 -0.3300
 5582SOL    HW228380   4.399   2.432   4.305 -0.8912  0.6822  0.3095
 5583SOL     OW28381   2.621   0.449  15.927  0.0527 -0.5904  0.5851
 5583SOL    HW128382   2.543   0.407  15.890 -0.2872  1.9851 -1.6240
 5583SOL    HW228383   2.626   0.524  15.867  0.0988 -0.5327  0.6605
 5584SOL     OW28384   2.718   2.132   6.072 -0.4898 -0.1249  0.2934
 5584SOL    HW128385   2.673   2.050   6.054 -0.6324 -0.4594  2.1571
 5584SOL    HW228386   2.785   2.106   6.136  2.1690  1.1873 -1.9583
 5585SOL     OW28387   4.700   4.291   5.099  0.5202  0.7051  0.5479
 5585SOL    HW128388   4.712   4.260   5.009 -0.5866  0.7870  0.3699
 5585SOL    HW228389   4.653   4.372   5.080 -0.8171 -0.2561 -0.2736
 5586SOL     OW28390   2.480   1.563   2.594 -0.1081 -0.3058  0.3219
 5586SOL    HW128391   2.408   1.584   2.654 -0.9513 -1.1095 -0.4116
 5586SOL    HW228392   2.415   1.538   2.529  0.0803 -1.9120  0.7423
 5587SOL     OW28393   0.888   1.978   4.145  0.0069 -0.5751  0.1167
 5587SOL    HW128394   0.834   2.050   4.177  0.8738 -0.1226  0.5651
 5587SOL    HW228395   0.906   1.938   4.230  1.4272 -0.7001 -0.2364
 5588SOL     OW28396   4.625   3.313   4.042 -1.2203  0.3497 -0.0559
 5588SOL    HW128397   4.696   3.352   4.094 -0.4286  1.1013 -1.6581
 5588SOL    HW228398   4.589   3.262   4.114 -1.7723 -0.7659 -1.1404
 5589SOL     OW28399   3.974   3.194   1.727 -0.0500  0.6056  0.2921
 5589SOL    HW128400   3.956   3.222   1.637 -1.1302 -0.8101  0.0769
 5589SOL    HW228401   4.044   3.137   1.696 -0.4184  0.7981 -0.9150
 5590SOL     OW28402   1.036   4.555  15.183 -0.3756  0.0711 -0.4080
 5590SOL    HW128403   1.116   4.561  15.131 -1.0247  2.9624 -1.0306
 5590SOL    HW228404   1.066   4.501  15.256 -2.2671  1.8047  1.6145
 5591SOL     OW28405   1.124   1.816   5.480  0.0367 -0.2962  0.5119
 5591SOL    HW128406   1.146   1.788   5.569  0.9667 -0.8119  0.1153
 5591SOL    HW228407   1.188   1.884   5.459  0.4265 -0.4904  1.0552
 5592SOL     OW28408   0.622   1.417   6.201 -0.4467  0.2101  0.2714
 5592SOL    HW128409   0.550   1.354   6.194  0.7564 -1.0857 -0.3070
 5592SOL    HW228410   0.605   1.460   6.284  0.1551  1.9427 -0.5048
 5593SOL     OW28411   2.698   0.101   4.307  0.4331  0.0962  0.1628
 5593SOL    HW128412   2.791   0.090   4.329 -0.2227  0.9017  3.2924
 5593SOL    HW228413   2.656   0.037   4.364 -1.4461 -0.4078 -1.7907
 5594SOL     OW28414   0.504   1.884   7.574  0.3295 -0.0691  0.0724
 5594SOL    HW128415   0.590   1.915   7.544  1.3432 -2.9729 -0.0420
 5594SOL    HW228416   0.495   1.933   7.656 -2.5713 -1.1567  0.3926
 5595SOL     OW28417   3.748   3.577   8.871 -0.5532 -0.2586  0.2482
 5595SOL    HW128418   3.724   3.492   8.835  0.2897 -0.7141  0.7638
 5595SOL    HW228419   3.666   3.626   8.862  0.2093  1.0014  0.0853
 5596SOL     OW28420   2.775   3.041   4.601  0.3580  0.9955  0.3025
 5596SOL    HW128421   2.818   3.124   4.621 -0.4342  1.3669  0.4601
 5596SOL    HW228422   2.835   2.994   4.543 -0.2923 -2.3650  2.4143
 5597SOL     OW28423   0.391   0.459   8.155  0.0987 -0.8274  0.0041
 5597SOL    HW128424   0.436   0.443   8.238  2.1097  1.4513 -0.6715
 5597SOL    HW228425   0.439   0.399   8.099  0.2442 -0.3373 -0.3987
 5598SOL     OW28426   3.440   2.190   6.120 -0.9700  0.3787 -0.2774
 5598SOL    HW128427   3.491   2.265   6.150 -3.2211  2.4745 -1.7061
 5598SOL    HW228428   3.413   2.160   6.207  0.2975  1.3471  0.4443
 5599SOL     OW28429   3.556   4.493   4.426  0.0259 -0.1569 -0.3123
 5599SOL    HW128430   3.623   4.531   4.370 -0.5978  4.3922  2.0125
 5599SOL    HW228431   3.571   4.543   4.506 -0.7593 -0.1457 -0.1746
 5600SOL     OW28432   4.198   4.447  11.494  0.0854  0.2120  0.0739
 5600SOL    HW128433   4.170   4.464  11.405  0.9421  0.2993 -0.1795
 5600SOL    HW228434   4.112   4.432  11.533  0.4118  2.1679  1.5791
 5601SOL     OW28435   4.697   0.647  11.968 -0.1350 -0.6109  0.3127
 5601SOL    HW128436   4.610   0.608  11.961  0.0045 -0.6632 -1.0116
 5601SOL    HW228437   4.696   0.664  12.063  2.4768  0.9390  0.0476
 5602SOL     OW28438   1.516   4.453   4.761 -0.2054 -0.2151  0.5025
 5602SOL    HW128439   1.437   4.444   4.708 -0.3339 -1.5715  0.9122
 5602SOL    HW228440   1.557   4.525   4.714  0.9663  1.2312  3.7365
 5603SOL     OW28441   3.591   3.473   0.777 -0.5185 -0.5431  0.1691
 5603SOL    HW128442   3.555   3.384   0.787  1.2685 -1.3330 -0.3608
 5603SOL    HW228443   3.675   3.453   0.819  0.2626  0.7274 -0.7929
 5604SOL     OW28444   2.227   0.461   7.105  0.2336  0.2100 -0.1712
 5604SOL    HW128445   2.209   0.536   7.048 -2.1979  1.1058  1.7528
 5604SOL    HW228446   2.234   0.493   7.195  3.4693 -0.4311 -0.1984
 5605SOL     OW28447   2.684   1.011  14.802 -0.8733 -0.0874  0.7106
 5605SOL    HW128448   2.621   1.041  14.737  0.7467 -0.1263 -0.8859
 5605SOL    HW228449   2.689   1.082  14.866 -0.0777 -0.3105  0.9001
 5606SOL     OW28450   0.963   1.403   6.913 -0.4635  0.4540  0.5045
 5606SOL    HW128451   0.896   1.369   6.973 -1.8210 -0.4035 -1.4989
 5606SOL    HW228452   0.931   1.493   6.912 -1.9748 -0.1085 -2.2990
 5607SOL     OW28453   1.237   2.291   1.864 -0.3153  0.0499  0.1724
 5607SOL    HW128454   1.263   2.382   1.875 -0.2047  0.0381  0.0200
 5607SOL    HW228455   1.320   2.247   1.884  1.3250  3.9492  1.7832
 5608SOL     OW28456   2.295   1.388   7.900 -0.3440  0.2597  1.0106
 5608SOL    HW128457   2.352   1.459   7.926  1.6718 -0.3977 -1.5329
 5608SOL    HW228458   2.292   1.324   7.971 -0.8837 -0.2318  0.5527
 5609SOL     OW28459   1.719   4.710   1.756 -0.7779  0.3244  0.3605
 5609SOL    HW128460   1.744   4.626   1.796 -0.2243  0.2851 -0.0702
 5609SOL    HW228461   1.730   4.697   1.662  0.2262  1.1322  0.3643
 5610SOL     OW28462   3.208   4.416  16.038  0.0334 -0.2505  0.0647
 5610SOL    HW128463   3.121   4.379  16.023 -0.5342  2.7698 -3.8089
 5610SOL    HW228464   3.263   4.337  16.039 -1.0017 -1.0030 -2.4968
 5611SOL     OW28465   0.492   4.353   7.072 -0.1469  0.1481  0.3309
 5611SOL    HW128466   0.527   4.405   7.144 -0.0960 -1.5592  1.5211
 5611SOL    HW228467   0.421   4.309   7.117  0.9877 -2.3494 -0.3357
 5612SOL     OW28468   4.127   0.145   8.432 -0.2053  0.2143 -0.3479
 5612SOL    HW128469   4.073   0.220   8.453 -0.0663  0.7220 -1.8112
 5612SOL    HW228470   4.102   0.091   8.507 -2.7349  0.5621 -0.9462
 5613SOL     OW28471   1.674   0.118   1.998 -0.2517 -0.2826 -0.9297
 5613SOL    HW128472   1.686   0.049   1.932 -0.1104  0.1505 -1.3561
 5613SOL    HW228473   1.755   0.108   2.047 -0.8066  1.1133  0.2889
 5614SOL     OW28474   3.042   1.542   3.254 -0.0790 -0.0545  0.2328
 5614SOL    HW128475   2.958   1.553   3.211  0.9690  1.6322 -1.3677
 5614SOL    HW228476   3.090   1.549   3.172  0.8513 -1.4814  0.6517
 5615SOL     OW28477   0.057   0.503   5.328  0.2408 -0.0092  0.1013
 5615SOL    HW128478   0.034   0.592   5.354  1.3295  0.6701 -1.2535
 5615SOL    HW228479   0.140   0.510   5.280 -0.9326  0.3005 -1.8778
 5616SOL     OW28480   1.771   1.167   2.614 -0.1206  0.4002  0.2012
 5616SOL    HW128481   1.735   1.209   2.536 -1.0704 -0.1311  0.3501
 5616SOL    HW228482   1.767   1.078   2.579  0.2379  0.0762  0.9916
 5617SOL     OW28483   3.905   2.392   0.765  0.8261  0.3973  0.2624
 5617SOL    HW128484   3.900   2.442   0.846 -0.1977 -0.1364  0.5137
 5617SOL    HW228485   3.865   2.460   0.710 -2.0776 -1.5637 -0.0711
 5618SOL     OW28486   4.613   2.542  12.690 -0.2912  0.2419 -0.7962
 5618SOL    HW128487   4.558   2.482  12.639 -1.5554  0.0796  0.7754
 5618SOL    HW228488   4.597   2.620  12.638 -0.8218 -0.2019 -1.2987
 5619SOL     OW28489   3.527   1.928   8.977  0.2435 -0.4501  0.3123
 5619SOL    HW128490   3.536   1.973   8.893  0.4227  1.0213  1.1062
 5619SOL    HW228491   3.516   1.838   8.946  1.5398 -0.9704  1.3191
 5620SOL     OW28492   3.690   2.466  14.618  0.2514  1.1261 -0.1531
 5620SOL    HW128493   3.729   2.533  14.674  1.1102  0.2742  0.2634
 5620SOL    HW228494   3.714   2.490  14.528 -2.0852  2.1494 -0.5180
 5621SOL     OW28495   1.467   2.082   8.436  0.0749  0.6633 -0.0537
 5621SOL    HW128496   1.424   2.032   8.367 -0.3892  0.7402  0.1791
 5621SOL    HW228497   1.504   2.011   8.487 -0.2278  0.5481  0.0057
 5622SOL     OW28498   2.281   2.102   7.118  0.2861  0.1423 -0.1716
 5622SOL    HW128499   2.335   2.036   7.162 -2.3706 -2.3227 -0.5985
 5622SOL    HW228500   2.195   2.060   7.126  0.1796  0.4460  0.3142
 5623SOL     OW28501   4.687   4.262   4.665 -0.4537 -0.2155  0.3854
 5623SOL    HW128502   4.695   4.305   4.580  1.2315 -1.8819 -0.3113
 5623SOL    HW228503   4.713   4.176   4.632  1.0387  1.2369 -2.1670
 5624SOL     OW28504   1.235   3.025   8.736  0.2386  0.0607  0.6280
 5624SOL    HW128505   1.325   3.054   8.751  0.7496 -1.1102 -0.1724
 5624SOL    HW228506   1.240   2.930   8.731  2.1069  0.1458  0.9288
 5625SOL     OW28507   0.572   1.149   9.387  0.0373 -0.8624 -0.0462
 5625SOL    HW128508   0.659   1.151   9.349  0.0884  2.0655  0.2224
 5625SOL    HW228509   0.564   1.054   9.400 -1.0483 -0.7500  0.1333
 5626SOL     OW28510   4.384   0.065   8.023 -0.2286  1.1160 -0.2566
 5626SOL    HW128511   4.325   0.047   8.096  1.4043 -2.1128  0.2245
 5626SOL    HW228512   4.465   0.086   8.068 -0.2482  0.2540  0.1798
 5627SOL     OW28513   2.024   3.633   7.406 -0.0731 -0.1752  0.0478
 5627SOL    HW128514   2.040   3.638   7.312 -0.0026 -1.0618  0.0105
 5627SOL    HW228515   1.933   3.659   7.416  0.5831  2.0142  0.3141
 5628SOL     OW28516   1.888   3.705   4.735  0.1182  0.3647  0.4868
 5628SOL    HW128517   1.932   3.654   4.803  0.2930  0.0718  0.1597
 5628SOL    HW228518   1.823   3.648   4.694  0.9108  0.7339 -1.3017
 5629SOL     OW28519   0.949   1.553   4.046  0.3058  0.3882 -0.0749
 5629SOL    HW128520   0.974   1.631   4.096 -0.4563  0.1238  0.7191
 5629SOL    HW228521   0.995   1.483   4.091 -1.7265 -0.5557  0.5257
 5630SOL     OW28522   3.804   3.494   9.116 -0.2769 -0.0008  0.0537
 5630SOL    HW128523   3.789   3.499   9.021  1.9005  3.0477 -0.1363
 5630SOL    HW228524   3.735   3.557   9.139  1.0553  1.3019  0.4384
 5631SOL     OW28525   0.446   4.287   9.708  0.0619  0.3549  0.2016
 5631SOL    HW128526   0.532   4.258   9.678  0.0390 -1.8748  2.2882
 5631SOL    HW228527   0.419   4.221   9.773  1.0528  0.2112  0.4641
 5632SOL     OW28528   1.716   1.517  10.329  0.3381  0.3440 -0.3378
 5632SOL    HW128529   1.700   1.522  10.234  1.3343  0.1286 -0.5237
 5632SOL    HW228530   1.784   1.585  10.331  0.6087  0.0007  1.8648
 5633SOL     OW28531   1.654   0.298   7.677 -0.0703  0.1047  0.1193
 5633SOL    HW128532   1.716   0.362   7.712  0.6492  0.1518 -1.2668
 5633SOL    HW228533   1.674   0.219   7.727  0.1195  0.8894  1.2804
 5634SOL     OW28534   4.223   2.182   1.504 -0.2961 -0.6763  0.2917
 5634SOL    HW128535   4.129   2.178   1.488 -0.1509  0.2807 -0.8170
 5634SOL    HW228536   4.238   2.271   1.537  0.5028 -0.8142  0.3146
 5635SOL     OW28537   0.179   3.245   3.048 -0.1587  0.3180 -0.2613
 5635SOL    HW128538   0.152   3.172   3.104  3.1194 -1.0970 -0.5175
 5635SOL    HW228539   0.091   3.270   3.021  0.0670 -0.0191 -1.2939
 5636SOL     OW28540   2.372   1.283  15.100  0.1465 -0.1780 -0.0583
 5636SOL    HW128541   2.322   1.336  15.038  0.7325  1.5999  0.9780
 5636SOL    HW228542   2.407   1.346  15.163  1.8232  0.3181 -1.4692
 5637SOL     OW28543   2.915   3.337   4.018 -0.5208 -0.0140 -0.2728
 5637SOL    HW128544   2.826   3.374   4.019 -0.5181  0.0026 -1.7605
 5637SOL    HW228545   2.943   3.354   4.108  0.1838  0.2092 -0.5435
 5638SOL     OW28546   2.037   3.053  15.041  0.2166  0.6061 -0.8545
 5638SOL    HW128547   2.047   3.140  15.003  4.4796  0.1340 -0.8089
 5638SOL    HW228548   2.104   3.059  15.110 -1.1380 -1.7395  0.6580
 5639SOL     OW28549   2.537   1.263   2.427  0.6403  0.1347  0.4669
 5639SOL    HW128550   2.508   1.321   2.357 -0.7611 -1.0887  0.0528
 5639SOL    HW228551   2.462   1.207   2.445  0.8279 -0.8025 -1.7025
 5640SOL     OW28552   1.393   0.527  16.250 -0.0187 -0.0107  0.2901
 5640SOL    HW128553   1.345   0.453  16.212 -0.2354 -0.1911  0.9256
 5640SOL    HW228554   1.474   0.515  16.200 -0.6991 -0.9225 -0.5874
 5641SOL     OW28555   2.238   4.018   6.475 -0.1781  0.0297  0.6951
 5641SOL    HW128556   2.326   4.013   6.437 -0.4249 -1.3310  0.2999
 5641SOL    HW228557   2.206   4.105   6.452  1.0211 -0.1767 -1.7669
 5642SOL     OW28558   4.524   0.761   7.990 -0.2783  0.2173  0.6486
 5642SOL    HW128559   4.443   0.798   8.025  0.9945  1.6211  2.0992
 5642SOL    HW228560   4.588   0.820   8.030 -0.6604  1.3169 -0.3580
 5643SOL     OW28561   2.152   2.443   2.159 -0.2401  0.2805 -0.4026
 5643SOL    HW128562   2.090   2.399   2.217 -0.5930  1.2368 -0.0563
 5643SOL    HW228563   2.187   2.361   2.123 -1.4017  0.0854 -1.0842
 5644SOL     OW28564   3.535   3.092  16.172 -0.3537  0.0666 -0.0144
 5644SOL    HW128565   3.490   3.162  16.125 -0.8560 -0.1787  0.0922
 5644SOL    HW228566   3.499   3.009  16.139  1.6998 -1.2606  1.0602
 5645SOL     OW28567   3.537   2.362   7.411 -0.1287 -0.5837  0.1638
 5645SOL    HW128568   3.615   2.417   7.413 -0.9242  0.5864 -1.7716
 5645SOL    HW228569   3.486   2.401   7.482 -1.5223  0.7843 -1.5898
 5646SOL     OW28570   0.439   2.702   1.487 -0.0853  0.7484  1.0860
 5646SOL    HW128571   0.375   2.747   1.542  0.6004  2.7546  0.2560
 5646SOL    HW228572   0.399   2.617   1.471  1.2361  0.0567  1.4771
 5647SOL     OW28573   2.773   4.240   1.239  0.1126 -0.4447  0.1759
 5647SOL    HW128574   2.762   4.166   1.299  0.8253  1.7018  2.9724
 5647SOL    HW228575   2.827   4.204   1.169  0.5566 -2.2466  1.4397
 5648SOL     OW28576   4.674   4.013   4.041  0.3721  0.2038  0.4443
 5648SOL    HW128577   4.604   3.970   4.091  1.6115  0.3763  2.3172
 5648SOL    HW228578   4.731   4.050   4.108 -1.0996 -0.6565  2.1803
 5649SOL     OW28579   4.059   0.232   8.788 -0.0868 -0.4268 -0.0838
 5649SOL    HW128580   4.017   0.283   8.857 -0.7128  0.1448 -0.8850
 5649SOL    HW228581   3.999   0.236   8.713  0.9718 -1.1625 -0.9635
 5650SOL     OW28582   3.446   2.480  10.707  0.1881 -0.7435 -0.1399
 5650SOL    HW128583   3.420   2.569  10.732  0.8094 -0.8441  0.8827
 5650SOL    HW228584   3.526   2.454  10.753 -0.4920  0.5503  1.8037
 5651SOL     OW28585   3.847   0.946   0.513 -1.0439 -0.1542 -0.0247
 5651SOL    HW128586   3.760   0.965   0.478  0.1139  0.0849 -2.8477
 5651SOL    HW228587   3.869   0.867   0.464  0.5004  1.1902 -1.5128
 5652SOL     OW28588   3.988   2.698  14.410 -0.1259  0.0035  0.7681
 5652SOL    HW128589   3.950   2.752  14.480  0.2780 -0.6084  1.4506
 5652SOL    HW228590   4.055   2.757  14.374 -0.4004 -0.2301 -0.1310
 5653SOL     OW28591   0.198   3.993   4.888 -0.0691 -0.8183 -0.1206
 5653SOL    HW128592   0.287   3.997   4.923  0.4351  0.2948 -1.5046
 5653SOL    HW228593   0.182   4.087   4.875 -2.5865 -1.2706 -0.2482
 5654SOL     OW28594   2.556   1.099   3.782  0.1528 -0.2984  0.0325
 5654SOL    HW128595   2.642   1.065   3.757  0.0159 -2.8388  2.9387
 5654SOL    HW228596   2.525   1.113   3.692  2.2915  1.4559 -0.4475
 5655SOL     OW28597   1.439   1.908   2.002  0.3440 -0.1530  0.3073
 5655SOL    HW128598   1.431   1.976   2.069  1.1327  0.5791 -0.3367
 5655SOL    HW228599   1.519   1.867   2.034  0.7466 -0.3335 -0.9030
 5656SOL     OW28600   4.714   3.703  13.529 -0.4377  0.0251 -0.3012
 5656SOL    HW128601   4.726   3.614  13.496 -1.8371 -0.3380  0.1465
 5656SOL    HW228602   0.011   3.695  13.618  2.1562  0.6874 -1.2693
 5657SOL     OW28603   4.486   1.908   9.450  1.0529  0.2196  0.4960
 5657SOL    HW128604   4.545   1.939   9.519  0.4411  2.9617 -0.2238
 5657SOL    HW228605   4.503   1.981   9.390  0.8882 -1.4890 -1.6211
 5658SOL     OW28606   2.338   4.153  12.201  0.3069 -0.0994  0.0724
 5658SOL    HW128607   2.300   4.072  12.232 -0.4961  0.0037 -0.6358
 5658SOL    HW228608   2.254   4.194  12.180 -0.4276 -0.6287  2.0305
 5659SOL     OW28609   2.507   1.737   7.039  0.5060 -0.8888  0.3938
 5659SOL    HW128610   2.532   1.787   6.961 -0.8777 -0.3241  0.3028
 5659SOL    HW228611   2.577   1.673   7.050 -0.5555 -2.3195 -1.0769
 5660SOL     OW28612   2.472   4.168  15.646 -0.1625  0.2857 -0.1981
 5660SOL    HW128613   2.518   4.211  15.718  0.5159 -1.0465  0.1544
 5660SOL    HW228614   2.398   4.138  15.699  0.9829 -1.2362  0.5325
 5661SOL     OW28615   0.796   0.722   7.494  0.3116 -0.1723  0.0080
 5661SOL    HW128616   0.736   0.686   7.428  0.2282 -1.1175  0.6066
 5661SOL    HW228617   0.871   0.668   7.472  0.1132  0.0740 -1.2622
 5662SOL     OW28618   0.584   4.485   5.207 -0.1371 -0.3985 -0.0537
 5662SOL    HW128619   0.615   4.521   5.290  1.0247 -0.8589 -0.2804
 5662SOL    HW228620   0.492   4.510   5.201  0.3320  0.8696 -1.8339
 5663SOL     OW28621   0.310   1.064   2.430 -0.3439 -0.3926 -0.0640
 5663SOL    HW128622   0.284   0.974   2.414 -0.3079 -0.6966  1.6451
 5663SOL    HW228623   0.270   1.087   2.514  1.5693  0.0268  0.7413
 5664SOL     OW28624   3.461   0.527   5.833 -0.1615 -0.2679 -0.4287
 5664SOL    HW128625   3.452   0.580   5.755 -0.9680  0.5327  0.2165
 5664SOL    HW228626   3.375   0.541   5.873 -0.8190  0.1305 -2.0171
 5665SOL     OW28627   0.389   3.081   2.889 -0.6330  0.0452 -0.0304
 5665SOL    HW128628   0.341   3.014   2.841  1.1408 -1.6043  0.5367
 5665SOL    HW228629   0.333   3.095   2.966 -1.2879  0.9062 -0.6523
 5666SOL     OW28630   3.511   1.133   3.859  0.2957  0.0952  0.3272
 5666SOL    HW128631   3.426   1.158   3.821 -0.3348  0.2217  1.8358
 5666SOL    HW228632   3.485   1.098   3.944  1.4611  0.2537  0.7491
 5667SOL     OW28633   3.078   1.451   1.638  0.2554 -0.1231  0.0370
 5667SOL    HW128634   3.140   1.380   1.651  3.5552  2.7414  0.0872
 5667SOL    HW228635   3.077   1.453   1.542 -0.4889  3.5374  0.1182
 5668SOL     OW28636   0.072   1.782   4.864  0.0022  0.2362 -0.4337
 5668SOL    HW128637   0.068   1.714   4.931  1.0147  0.8724  0.2637
 5668SOL    HW228638   0.100   1.718   4.798  0.5736  1.1836 -1.1003
 5669SOL     OW28639   2.829   2.481   4.140  0.1342 -0.0827 -0.8432
 5669SOL    HW128640   2.804   2.408   4.197  0.3933 -0.3793 -1.1109
 5669SOL    HW228641   2.813   2.545   4.210 -1.8927 -0.8750 -0.5803
 5670SOL     OW28642   0.427   2.423  12.262  0.2011  0.1696  0.1118
 5670SOL    HW128643   0.416   2.329  12.255  0.8959  0.2831 -2.4879
 5670SOL    HW228644   0.443   2.429  12.356 -0.5931 -2.0949  0.3959
 5671SOL     OW28645   0.897   3.989   6.534  0.2002  0.0836 -0.2602
 5671SOL    HW128646   0.818   3.966   6.485  0.7301 -0.2588 -0.9609
 5671SOL    HW228647   0.863   4.057   6.592 -0.8148 -0.7368  0.1129
 5672SOL     OW28648   2.797   3.280  12.416 -0.4464  0.5661  0.4020
 5672SOL    HW128649   2.817   3.241  12.501 -0.1932  1.7326  0.8816
 5672SOL    HW228650   2.762   3.202  12.373 -0.0755  0.6242 -0.0147
 5673SOL     OW28651   0.187   4.690   4.746  0.6665  0.1778 -0.1852
 5673SOL    HW128652   0.269   4.736   4.725 -0.4584  1.7904 -1.0121
 5673SOL    HW228653   0.176   4.647   4.661 -0.1640  0.2442 -0.1101
 5674SOL     OW28654   1.048   2.630   5.347 -0.2136  0.1828 -0.0323
 5674SOL    HW128655   1.037   2.547   5.393 -0.1929  0.8234  1.1261
 5674SOL    HW228656   1.125   2.654   5.398 -1.1694 -1.4055  2.1183
 5675SOL     OW28657   0.584   3.352  11.517 -0.2368 -0.2706 -0.2520
 5675SOL    HW128658   0.669   3.351  11.559  1.0347  2.0309 -2.7842
 5675SOL    HW228659   0.536   3.298  11.580 -1.0627 -1.4781 -1.8883
 5676SOL     OW28660   0.308   3.612  10.784  0.2144 -0.6646 -0.4723
 5676SOL    HW128661   0.389   3.646  10.821  0.0126 -0.1406 -0.5070
 5676SOL    HW228662   0.270   3.599  10.871  1.7784 -0.5186  0.2158
 5677SOL     OW28663   1.066   2.319  11.662  0.3871  0.9336 -0.0666
 5677SOL    HW128664   1.151   2.356  11.637  0.8345  1.0553  1.5984
 5677SOL    HW228665   1.090   2.241  11.713 -0.6669  0.4142 -0.3722
 5678SOL     OW28666   4.237   0.116  10.598 -0.5765 -0.0852  0.2088
 5678SOL    HW128667   4.190   0.067  10.531 -0.2032 -1.1235  0.7108
 5678SOL    HW228668   4.325   0.105  10.562  0.6923  0.4571  3.1303
 5679SOL     OW28669   2.176   1.678   7.906 -0.3581  0.3729  0.3992
 5679SOL    HW128670   2.131   1.759   7.932  0.6938  0.5482  1.6573
 5679SOL    HW228671   2.258   1.685   7.955  1.0906  0.5376 -2.0381
 5680SOL     OW28672   2.000   1.941   7.500 -0.0453 -0.0361 -0.3828
 5680SOL    HW128673   2.087   1.912   7.472  0.0309  0.5277 -0.7466
 5680SOL    HW228674   2.017   1.982   7.585 -1.6607  0.7707 -0.4482
 5681SOL     OW28675   4.306   3.852   5.953 -0.5264 -0.0520  0.6785
 5681SOL    HW128676   4.246   3.778   5.956 -0.6493 -0.0071 -0.7736
 5681SOL    HW228677   4.261   3.913   6.011  2.2292  0.9514  1.7741
 5682SOL     OW28678   3.181   2.457  11.304  0.2781 -0.1132  0.4187
 5682SOL    HW128679   3.196   2.550  11.321  0.4255  0.0808 -0.8177
 5682SOL    HW228680   3.191   2.427  11.394 -0.8515  0.8989  0.8825
 5683SOL     OW28681   0.731   0.313   6.959 -0.1040  0.4670 -0.1487
 5683SOL    HW128682   0.781   0.242   6.999  0.2662  1.3719  0.9884
 5683SOL    HW228683   0.689   0.260   6.892  1.9787 -1.7475  0.3121
 5684SOL     OW28684   3.034   4.314  11.157 -0.4509  0.4112  0.0761
 5684SOL    HW128685   2.962   4.364  11.195  0.4116  0.8852  1.0782
 5684SOL    HW228686   3.062   4.249  11.221  0.2910 -0.8384 -1.5199
 5685SOL     OW28687   1.063   1.388   1.084 -0.2814  0.6944  0.4224
 5685SOL    HW128688   1.045   1.476   1.052  0.1813  0.5157 -0.3382
 5685SOL    HW228689   1.002   1.327   1.044  2.3945 -0.9511 -1.1914
 5686SOL     OW28690   2.864   2.031  10.436 -0.0015  0.8056  0.2506
 5686SOL    HW128691   2.874   2.087  10.359 -1.5601  1.0829  0.2496
 5686SOL    HW228692   2.776   2.067  10.451  0.3022  1.8676 -0.5739
 5687SOL     OW28693   0.940   4.323   5.964 -0.5683 -0.3728 -0.4923
 5687SOL    HW128694   0.847   4.298   5.971 -0.9008  0.8265 -0.6276
 5687SOL    HW228695   0.942   4.402   6.017  0.3821 -1.2413  0.7725
 5688SOL     OW28696   0.202   3.448   7.829  0.1960  0.2439  0.4547
 5688SOL    HW128697   0.157   3.487   7.904 -0.3555  0.2780  0.1089
 5688SOL    HW228698   0.130   3.460   7.768 -1.8783 -1.2982  2.5953
 5689SOL     OW28699   3.069   1.866  12.336  0.2780 -1.1642 -0.3511
 5689SOL    HW128700   3.120   1.821  12.403 -1.8142 -2.7668  0.1632
 5689SOL    HW228701   3.061   1.798  12.269  0.5684 -0.8864 -0.6681
 5690SOL     OW28702   4.434   3.890   4.125 -0.0946  0.2304  0.0282
 5690SOL    HW128703   4.361   3.852   4.077  0.7422 -1.1836 -0.1324
 5690SOL    HW228704   4.477   3.818   4.171 -0.1702  0.2187  0.0802
 5691SOL     OW28705   0.849   2.841  12.737  0.0569 -0.1185  0.8273
 5691SOL    HW128706   0.894   2.777  12.681 -2.3517 -2.5131  1.6057
 5691SOL    HW228707   0.930   2.887  12.757  0.7716  0.2482 -2.7774
 5692SOL     OW28708   3.756   0.760   9.701 -0.3368  0.1043 -0.7007
 5692SOL    HW128709   3.806   0.682   9.676  1.8191  1.2596  0.0416
 5692SOL    HW228710   3.675   0.714   9.725  1.6765 -2.5942  0.8879
 5693SOL     OW28711   3.243   2.395  11.560  0.9963  0.2178 -0.2503
 5693SOL    HW128712   3.307   2.325  11.544  0.2100 -0.7268  0.6923
 5693SOL    HW228713   3.188   2.337  11.612  0.2773  0.7295 -0.4500
 5694SOL     OW28714   4.084   0.592   4.153  0.4323 -0.9550  0.6083
 5694SOL    HW128715   4.012   0.651   4.131  0.7132 -1.2056 -1.0413
 5694SOL    HW228716   4.151   0.625   4.093 -0.6396 -0.5223 -0.3699
 5695SOL     OW28717   1.240   0.230  16.789 -0.6758 -0.0213  0.8836
 5695SOL    HW128718   1.235   0.205  16.697  1.0685  0.1898  0.7410
 5695SOL    HW228719   1.245   0.326  16.790 -0.1443 -0.0173 -3.2711
 5696SOL     OW28720   1.443   0.540   5.410 -0.3961 -0.7938  0.1348
 5696SOL    HW128721   1.362   0.493   5.429 -1.6102  0.7695 -1.2843
 5696SOL    HW228722   1.478   0.492   5.335 -0.2754 -1.1690  0.4269
 5697SOL     OW28723   0.558   1.192  13.015  0.1362  0.1670 -0.3050
 5697SOL    HW128724   0.612   1.169  12.939  0.6993  2.3467 -0.5589
 5697SOL    HW228725   0.584   1.283  13.026 -0.6888  0.4966 -1.0962
 5698SOL     OW28726   4.381   4.667   0.031 -0.0234 -0.2276 -0.6205
 5698SOL    HW128727   4.444   4.641  17.712 -0.0866 -1.1933 -0.3077
 5698SOL    HW228728   4.389   4.597   0.096 -2.3541 -0.6391 -0.8006
 5699SOL     OW28729   3.202   1.400   2.631 -0.2023  0.3926 -0.1319
 5699SOL    HW128730   3.195   1.424   2.539 -0.8902 -0.2702 -0.2583
 5699SOL    HW228731   3.205   1.483   2.679  1.0349 -0.1653  0.7474
 5700SOL     OW28732   2.088   2.827  10.873  0.3084  0.3189  0.5235
 5700SOL    HW128733   2.129   2.765  10.934 -0.0862  0.2883  0.7573
 5700SOL    HW228734   2.152   2.816  10.803 -2.0866  0.6278 -1.7164
 5701SOL     OW28735   2.719   2.016  14.369  0.2532  0.2947 -0.6968
 5701SOL    HW128736   2.639   2.020  14.316 -0.2979  0.8196  0.1763
 5701SOL    HW228737   2.717   1.932  14.415 -3.2811 -1.4348 -3.9064
 5702SOL     OW28738   1.127   2.740   8.906 -0.4827 -0.1717  0.6660
 5702SOL    HW128739   1.032   2.735   8.918 -0.8102 -0.5079 -2.1353
 5702SOL    HW228740   1.116   2.744   8.811 -0.7457  2.7851  0.8134
 5703SOL     OW28741   3.450   1.228  10.065 -0.5587 -0.1048 -0.0171
 5703SOL    HW128742   3.476   1.150  10.015  1.9628  0.5193  0.3521
 5703SOL    HW228743   3.388   1.256   9.997 -0.9487  0.2811  0.5017
 5704SOL     OW28744   3.876   0.803   3.297 -0.0042  0.3741 -0.1825
 5704SOL    HW128745   3.863   0.713   3.324  1.7300  1.3504  3.8454
 5704SOL    HW228746   3.924   0.797   3.214 -0.5011 -0.3963 -0.4118
 5705SOL     OW28747   4.000   4.242   2.938 -0.4047  0.1941 -0.7389
 5705SOL    HW128748   4.028   4.280   2.855  1.4284 -1.9261 -1.0876
 5705SOL    HW228749   4.020   4.317   2.995  1.7282 -0.6681 -0.3520
 5706SOL     OW28750   3.827   3.147   8.183  0.0653 -0.6225 -0.1950
 5706SOL    HW128751   3.882   3.212   8.140  2.7084 -3.4215 -1.0723
 5706SOL    HW228752   3.794   3.097   8.108 -1.5621  0.1252  0.0014
 5707SOL     OW28753   2.935   1.463   3.002  0.0944 -0.4177 -0.5502
 5707SOL    HW128754   2.866   1.396   3.007  0.6242 -1.0308 -1.4507
 5707SOL    HW228755   2.883   1.538   2.973 -2.1077 -1.3665  0.9472
 5708SOL     OW28756   4.394   0.812  14.571 -0.1303 -0.0504 -0.2835
 5708SOL    HW128757   4.474   0.838  14.617  0.0343  1.0183 -1.1671
 5708SOL    HW228758   4.352   0.756  14.637 -1.7197  1.9879  0.4135
 5709SOL     OW28759   2.679   1.596  15.477  0.0410  0.2681  0.3367
 5709SOL    HW128760   2.646   1.685  15.467 -0.5813  0.1921  1.7376
 5709SOL    HW228761   2.628   1.566  15.552  1.0018  1.4054  1.4202
 5710SOL     OW28762   2.591   3.698  13.245  0.3861  0.5629  0.0300
 5710SOL    HW128763   2.669   3.708  13.191  0.6800 -1.8608 -0.0326
 5710SOL    HW228764   2.619   3.630  13.307  0.9068  0.3220 -0.4697
 5711SOL     OW28765   2.475   3.493   3.175  0.2385  0.4581 -0.0559
 5711SOL    HW128766   2.463   3.505   3.081 -0.5577  2.7530  0.3314
 5711SOL    HW228767   2.508   3.581   3.190 -0.3908  0.7425 -0.3342
 5712SOL     OW28768   1.732   0.988   3.861  0.3360 -0.5261 -0.4267
 5712SOL    HW128769   1.807   1.045   3.876 -1.8123  1.8583  1.2893
 5712SOL    HW228770   1.689   1.035   3.789 -2.9973 -1.7815  0.7218
 5713SOL     OW28771   2.085   0.496   2.296 -0.7051  0.6772  0.2498
 5713SOL    HW128772   2.114   0.416   2.339  1.2388  1.3911  0.2608
 5713SOL    HW228773   2.125   0.490   2.209 -0.0163  0.1706  0.5989
 5714SOL     OW28774   4.457   3.068   3.281 -0.5827 -0.2363  0.4514
 5714SOL    HW128775   4.384   3.067   3.342 -0.7968 -0.4566  0.1916
 5714SOL    HW228776   4.530   3.088   3.340 -1.2340  0.5915  0.9662
 5715SOL     OW28777   0.768   3.458   4.890  0.6659  0.4653 -0.1392
 5715SOL    HW128778   0.855   3.457   4.931  0.1982  1.8312  0.9028
 5715SOL    HW228779   0.714   3.442   4.968 -0.6197 -0.0841 -1.1544
 5716SOL     OW28780   3.931   4.355   6.471 -0.1040 -0.3767 -0.6620
 5716SOL    HW128781   3.846   4.399   6.469  0.0278 -0.1124 -0.4235
 5716SOL    HW228782   3.961   4.406   6.546  0.4300 -1.7789  0.0812
 5717SOL     OW28783   0.209   1.586  10.775  0.1394  0.1458  0.1763
 5717SOL    HW128784   0.127   1.547  10.744  0.2825 -1.0246  1.2458
 5717SOL    HW228785   0.236   1.616  10.688 -0.1114 -0.0336  0.0339
 5718SOL     OW28786   2.012   4.560   8.934 -0.3606  0.4400 -1.1350
 5718SOL    HW128787   2.041   4.530   8.848  2.0429 -2.1232  0.5883
 5718SOL    HW228788   2.064   4.506   8.993 -0.1081  2.2666  0.3074
 5719SOL     OW28789   1.626   0.481  13.369 -0.6396 -0.2364  0.3003
 5719SOL    HW128790   1.651   0.572  13.387  3.6339 -1.8624  2.4324
 5719SOL    HW228791   1.570   0.456  13.442  1.2228  1.6712  2.3823
 5720SOL     OW28792   2.977   3.494   1.959 -0.1574 -0.3032 -0.4875
 5720SOL    HW128793   2.900   3.438   1.970  0.5234 -1.1773 -0.1491
 5720SOL    HW228794   2.948   3.575   2.001 -2.3006 -1.3164 -0.0260
 5721SOL     OW28795   1.087   3.089   1.676 -0.4465 -0.3992  0.1462
 5721SOL    HW128796   1.056   3.143   1.748  0.7127  0.7635 -0.2389
 5721SOL    HW228797   1.177   3.120   1.664 -0.6188  0.0342  0.0034
 5722SOL     OW28798   2.535   2.313   1.170 -0.8139  0.4184 -0.4079
 5722SOL    HW128799   2.536   2.310   1.075  1.5499  1.4881 -0.4457
 5722SOL    HW228800   2.565   2.403   1.184  0.1184  0.0319  0.1028
 5723SOL     OW28801   0.488   1.802   3.110 -0.3654 -0.4865  0.1737
 5723SOL    HW128802   0.420   1.801   3.042 -1.3644 -1.9523  1.1851
 5723SOL    HW228803   0.562   1.811   3.050 -1.1577  1.6571 -0.4568
 5724SOL     OW28804   3.426   3.431   5.693  0.2473 -0.4449 -0.0261
 5724SOL    HW128805   3.508   3.454   5.648 -1.1174  0.8973 -1.8504
 5724SOL    HW228806   3.371   3.411   5.617 -1.9306 -0.5323  1.5774
 5725SOL     OW28807   1.427   3.984   9.493 -0.3978 -0.3612 -0.1022
 5725SOL    HW128808   1.446   3.975   9.587  1.3422  0.2463 -0.4181
 5725SOL    HW228809   1.455   4.074   9.480 -1.9479 -0.0433 -1.2384
 5726SOL     OW28810   3.600   3.575   5.245  0.3973  0.1371 -0.1177
 5726SOL    HW128811   3.664   3.550   5.311 -0.4390  2.9049  1.7841
 5726SOL    HW228812   3.622   3.668   5.234  0.2672 -0.0078 -1.6093
 5727SOL     OW28813   2.550   4.296   3.630  0.5933  0.3900  0.1341
 5727SOL    HW128814   2.604   4.366   3.665 -0.2512 -0.0520  2.3128
 5727SOL    HW228815   2.581   4.222   3.681 -0.6809 -0.8184 -0.8560
 5728SOL     OW28816   2.806   0.978  11.865 -0.3873  0.1778  0.4027
 5728SOL    HW128817   2.730   0.990  11.923 -0.7629  1.3383 -0.3189
 5728SOL    HW228818   2.863   1.050  11.893  0.4909  1.0128 -3.5213
 5729SOL     OW28819   1.836   2.563   6.693 -0.1318 -0.4906  0.2433
 5729SOL    HW128820   1.907   2.565   6.757 -0.5216  0.0460  0.6493
 5729SOL    HW228821   1.856   2.641   6.641 -1.4655 -0.4649 -0.2291
 5730SOL     OW28822   4.731   0.100   2.559 -0.3493 -0.3652  0.5700
 5730SOL    HW128823   4.697   0.058   2.638 -1.9016  2.0021  1.1379
 5730SOL    HW228824   0.075   0.141   2.588  0.4743 -2.1694  0.8015
 5731SOL     OW28825   3.292   4.232   2.222 -0.4522  0.0912 -0.1371
 5731SOL    HW128826   3.267   4.305   2.166  2.5907 -0.3439 -2.0595
 5731SOL    HW228827   3.355   4.270   2.284  2.0922 -2.3704 -1.1976
 5732SOL     OW28828   2.277   1.676  11.831  0.7889  0.1384  0.0920
 5732SOL    HW128829   2.221   1.626  11.889 -0.4594 -0.0330 -1.2581
 5732SOL    HW228830   2.214   1.728  11.780 -0.0708 -1.1300 -0.1409
 5733SOL     OW28831   4.168   4.013   2.968  0.0958  0.4408 -0.4020
 5733SOL    HW128832   4.119   4.095   2.960  0.1012  0.2855 -1.9772
 5733SOL    HW228833   4.221   4.011   2.888  0.7786 -0.7809  0.0807
 5734SOL     OW28834   4.050   1.249   7.008  0.8274 -0.3109 -0.2386
 5734SOL    HW128835   3.955   1.261   7.009  0.8616  0.1791 -2.8982
 5734SOL    HW228836   4.063   1.184   7.078 -2.5690 -1.0474 -0.3150
 5735SOL     OW28837   3.544   0.792   6.396 -0.0187 -0.1984 -0.1788
 5735SOL    HW128838   3.631   0.791   6.358  0.0270 -0.2030 -0.0759
 5735SOL    HW228839   3.539   0.883   6.423 -0.4327 -0.8459  1.9535
 5736SOL     OW28840   0.182   3.514   5.170 -0.3035 -0.2821 -0.0084
 5736SOL    HW128841   0.242   3.456   5.217  0.2496  2.5884  2.8389
 5736SOL    HW228842   0.112   3.511   5.235  0.2214 -1.7113  0.4839
 5737SOL     OW28843   3.102   4.665   7.505 -0.0836  0.6504  0.4610
 5737SOL    HW128844   3.008   4.673   7.520 -0.5177 -0.7804 -1.4389
 5737SOL    HW228845   3.129   0.014   7.473 -0.4122  0.3351 -0.6675
 5738SOL     OW28846   2.642   3.570   1.162 -0.0936  0.2513 -0.5352
 5738SOL    HW128847   2.694   3.602   1.089 -0.6365  0.7584 -0.6975
 5738SOL    HW228848   2.685   3.488   1.187  0.7868  0.8114 -0.2330
 5739SOL     OW28849   2.744   3.824   1.860 -0.3206 -0.1915  0.3115
 5739SOL    HW128850   2.757   3.765   1.786 -1.7297  0.0397 -0.1251
 5739SOL    HW228851   2.654   3.802   1.882 -0.6839 -0.0170 -1.0056
 5740SOL     OW28852   4.153   3.376   0.771  0.1139 -0.1084 -0.3697
 5740SOL    HW128853   4.153   3.356   0.678  1.9518  0.1425 -0.4260
 5740SOL    HW228854   4.067   3.419   0.774  0.0424 -0.2914  0.1692
 5741SOL     OW28855   4.096   0.539  11.472  0.0701 -0.0994  0.1371
 5741SOL    HW128856   4.038   0.615  11.462 -0.9664 -1.1272 -1.4969
 5741SOL    HW228857   4.124   0.521  11.382  0.5536  1.4679 -0.0304
 5742SOL     OW28858   0.548   1.674   4.536 -0.3857  0.5857  0.1121
 5742SOL    HW128859   0.615   1.697   4.471  1.2367  0.6763  1.8273
 5742SOL    HW228860   0.573   1.725   4.613  1.0733 -1.1076  0.7556
 5743SOL     OW28861   0.740   2.554   9.497  0.2845  0.4871  0.0867
 5743SOL    HW128862   0.761   2.487   9.562  0.4224 -0.0488 -0.5197
 5743SOL    HW228863   0.814   2.615   9.507 -0.8991  1.9449  0.0553
 5744SOL     OW28864   3.730   1.872   4.771 -0.1460  0.5177  0.2297
 5744SOL    HW128865   3.822   1.852   4.789 -0.1050 -0.5258 -1.1370
 5744SOL    HW228866   3.734   1.850   4.678 -0.3582 -1.3452  0.6465
 5745SOL     OW28867   4.676   3.749   9.785 -0.8405  0.4720  0.2376
 5745SOL    HW128868   4.645   3.732   9.874 -0.8600 -0.5804  0.0241
 5745SOL    HW228869   4.673   3.661   9.749 -2.2744 -0.4267  2.5812
 5746SOL     OW28870   0.800   4.594  10.579  0.0646  0.2245  0.2612
 5746SOL    HW128871   0.856   4.540  10.636 -0.7092  1.4080  2.1597
 5746SOL    HW228872   0.727   4.533  10.565  0.5814 -0.5107  0.7502
 5747SOL     OW28873   4.536   3.947   2.347 -0.5019  0.0116 -0.1063
 5747SOL    HW128874   4.467   3.907   2.399 -0.8689  2.2509  1.1069
 5747SOL    HW228875   4.491   3.982   2.270 -3.3240  0.3836  1.7111
 5748SOL     OW28876   3.495   0.514   6.394  0.1964 -0.3834 -0.3343
 5748SOL    HW128877   3.511   0.604   6.423  1.7145 -1.1596  1.1792
 5748SOL    HW228878   3.522   0.524   6.302  1.3294 -0.1255  0.0244
 5749SOL     OW28879   2.818   4.490   4.731 -0.5622 -0.2724  0.2842
 5749SOL    HW128880   2.883   4.547   4.690 -0.5692 -0.4275  0.0620
 5749SOL    HW228881   2.886   4.427   4.754 -0.5741 -0.6334 -0.6840
 5750SOL     OW28882   0.162   3.331   8.225  0.0386 -0.5185 -0.8324
 5750SOL    HW128883   0.247   3.364   8.255 -0.8110  0.4185  0.5682
 5750SOL    HW228884   0.121   3.315   8.310  1.0736 -0.8697 -0.3996
 5751SOL     OW28885   2.770   0.866   7.938 -0.2072  0.1667  0.2153
 5751SOL    HW128886   2.776   0.955   7.904  2.0766 -0.1169 -0.1752
 5751SOL    HW228887   2.841   0.832   7.883 -0.8770  0.9070 -1.1160
 5752SOL     OW28888   1.480   4.389   5.707 -0.4730  0.0166 -0.3062
 5752SOL    HW128889   1.409   4.419   5.649 -1.0400 -0.7992 -0.0390
 5752SOL    HW228890   1.438   4.346   5.781 -0.6876  0.2808 -0.2696
 5753SOL     OW28891   4.203   1.500   6.999 -0.0804 -0.6135  0.1328
 5753SOL    HW128892   4.263   1.472   7.068  0.0488  0.4770  0.4572
 5753SOL    HW228893   4.150   1.421   6.985 -0.4513 -0.2820 -0.3373
 5754SOL     OW28894   0.244   2.460  16.732 -0.1445  0.1756  0.4434
 5754SOL    HW128895   0.331   2.490  16.756 -0.3776  0.3671  1.0574
 5754SOL    HW228896   0.235   2.367  16.754  1.7812 -0.1302 -0.1251
 5755SOL     OW28897   3.517   0.175   4.555  0.0189 -0.3319  0.3915
 5755SOL    HW128898   3.476   0.158   4.470 -1.4893  1.5320  0.7224
 5755SOL    HW228899   3.466   0.248   4.591  1.8532  1.3342 -0.4407
 5756SOL     OW28900   2.781   3.090   2.858 -0.8053  0.1816 -0.5130
 5756SOL    HW128901   2.724   3.015   2.843 -0.5555 -0.2505  0.7291
 5756SOL    HW228902   2.804   3.126   2.772 -0.9797 -1.4117 -1.2290
 5757SOL     OW28903   3.954   2.165   3.124 -0.0339 -0.3437 -0.5563
 5757SOL    HW128904   3.917   2.245   3.087 -0.6090 -0.8478 -1.0627
 5757SOL    HW228905   3.874   2.118   3.150  0.4730 -0.4833  0.7787
 5758SOL     OW28906   3.509   1.222  17.378 -0.1465 -0.0550 -0.7107
 5758SOL    HW128907   3.435   1.250  17.434 -1.9532 -2.7907 -1.7452
 5758SOL    HW228908   3.500   1.135  17.417  0.1359  0.1311 -0.2259
 5759SOL     OW28909   2.655   0.505   9.097  0.7211  0.1134  0.1793
 5759SOL    HW128910   2.730   0.529   9.152  1.1129  0.0475 -0.3220
 5759SOL    HW228911   2.619   0.594   9.089  1.8668  0.4273 -1.4626
 5760SOL     OW28912   2.355   0.814   8.702 -0.1222  0.2813  0.0478
 5760SOL    HW128913   2.334   0.748   8.768  2.3411  1.2299  1.7846
 5760SOL    HW228914   2.412   0.863   8.761  0.3329  1.0149 -0.9944
 5761SOL     OW28915   0.166   1.334   2.258  0.3911  0.3204 -0.4466
 5761SOL    HW128916   0.113   1.410   2.237 -0.3160 -1.3562 -4.7388
 5761SOL    HW228917   0.114   1.289   2.325 -1.2691  1.7592 -0.7835
 5762SOL     OW28918   0.150   1.915   0.636  0.6768  0.8014  0.3060
 5762SOL    HW128919   0.072   1.969   0.639 -0.6096 -1.1479  2.1930
 5762SOL    HW228920   0.128   1.865   0.715 -0.0917 -2.3682 -1.8815
 5763SOL     OW28921   4.048   0.718   6.495  0.1183 -0.2252 -0.0208
 5763SOL    HW128922   3.961   0.684   6.473  0.3311 -1.1131  0.5018
 5763SOL    HW228923   4.028   0.790   6.554 -0.6627 -0.5221  0.0726
 5764SOL     OW28924   0.381   0.785   6.498  0.1829  0.0230  0.3109
 5764SOL    HW128925   0.321   0.722   6.459 -0.3424  0.6308  0.1367
 5764SOL    HW228926   0.462   0.744   6.468 -0.2711 -1.2198  0.7920
 5765SOL     OW28927   2.497   2.183  13.158 -0.2691  0.3885 -0.1751
 5765SOL    HW128928   2.565   2.215  13.218 -0.5556  0.5093  0.0864
 5765SOL    HW228929   2.435   2.254  13.173  0.1112  0.3566  1.5949
 5766SOL     OW28930   0.253   0.392   5.561  0.0889  0.3697 -0.3927
 5766SOL    HW128931   0.195   0.317   5.559 -0.6829  0.9076  2.6532
 5766SOL    HW228932   0.267   0.405   5.655  0.6346  1.3125 -0.5962
 5767SOL     OW28933   3.161   1.523  10.571  0.0799  0.0570 -0.4526
 5767SOL    HW128934   3.175   1.478  10.655 -0.5977 -0.1786 -0.4604
 5767SOL    HW228935   3.237   1.580  10.567 -0.2857  0.6002  0.3109
 5768SOL     OW28936   2.414   2.817   3.394 -0.1757  0.1494  0.0231
 5768SOL    HW128937   2.373   2.876   3.331  0.4855 -0.0972 -0.6384
 5768SOL    HW228938   2.503   2.815   3.361 -0.0230  2.3368  0.3234
 5769SOL     OW28939   2.642   3.214   3.176  0.4619  0.3274  0.2192
 5769SOL    HW128940   2.561   3.252   3.211 -0.0628  1.2319 -1.9768
 5769SOL    HW228941   2.624   3.226   3.082  2.9375  3.6408  0.1576
 5770SOL     OW28942   2.773   2.801   2.854 -0.1081 -0.4842 -0.1237
 5770SOL    HW128943   2.731   2.842   2.929 -2.0896  0.1761 -1.5866
 5770SOL    HW228944   2.844   2.750   2.892 -0.9705 -0.9987  0.7784
 5771SOL     OW28945   4.625   2.500   1.965  0.0651 -0.3462 -0.2432
 5771SOL    HW128946   4.668   2.500   1.879 -0.6187  0.6373 -0.5887
 5771SOL    HW228947   4.676   2.431   2.006  0.3309 -0.6365 -1.0685
 5772SOL     OW28948   4.200   4.583  14.391 -0.4343 -0.3214 -0.1751
 5772SOL    HW128949   4.191   4.662  14.339  2.9475  1.2576  1.6315
 5772SOL    HW228950   4.296   4.578  14.381 -0.1072  1.5597  2.0439
 5773SOL     OW28951   0.485   0.488  11.429  0.2592  0.1847 -0.6115
 5773SOL    HW128952   0.469   0.570  11.476 -0.2541  0.4232 -1.2033
 5773SOL    HW228953   0.511   0.432  11.502 -0.7468  0.5174  0.0019
 5774SOL     OW28954   2.035   3.810   5.885  0.2884 -0.6857  0.4381
 5774SOL    HW128955   2.071   3.721   5.885  2.8954  0.3804 -0.0230
 5774SOL    HW228956   1.940   3.798   5.883  0.0244  1.0894  2.8502
 5775SOL     OW28957   3.354   3.017   1.562 -0.1329 -0.2013 -0.0208
 5775SOL    HW128958   3.341   2.971   1.480  0.2313  0.4909 -0.4668
 5775SOL    HW228959   3.364   3.105   1.525  2.1396 -1.4208 -2.2304
 5776SOL     OW28960   1.504   2.307   9.127  0.2556 -0.0352  0.4588
 5776SOL    HW128961   1.492   2.351   9.044 -0.5964  0.9356  1.0967
 5776SOL    HW228962   1.429   2.247   9.132  0.2531  0.0189  1.1285
 5777SOL     OW28963   3.656   2.991   2.461 -0.5190 -0.2262 -0.1113
 5777SOL    HW128964   3.670   2.965   2.370 -1.1944 -0.4792 -0.1473
 5777SOL    HW228965   3.620   2.916   2.508  0.9447 -0.0889  1.2547
 5778SOL     OW28966   3.674   4.670  11.489  0.4818  0.0340 -0.0013
 5778SOL    HW128967   3.585   4.670  11.456 -0.3685 -0.6376  2.2793
 5778SOL    HW228968   3.651   4.684  11.581  0.7426  0.2722  0.0264
 5779SOL     OW28969   2.850   2.501  13.769 -0.2514  0.1174  0.0303
 5779SOL    HW128970   2.755   2.509  13.758 -0.0264  1.6097 -0.7681
 5779SOL    HW228971   2.857   2.583  13.817 -0.6672  0.5925 -0.7178
 5780SOL     OW28972   1.413   0.036  11.299 -0.4291  0.2852  0.5026
 5780SOL    HW128973   1.388   0.006  11.387  1.3723 -0.1224  0.8870
 5780SOL    HW228974   1.329   0.066  11.266 -1.2368 -3.1777 -0.5512
 5781SOL     OW28975   2.612   1.000  15.659  0.6766  0.4210  0.0712
 5781SOL    HW128976   2.625   1.090  15.629 -0.1252  0.9590  1.3248
 5781SOL    HW228977   2.534   0.965  15.616  0.6230  0.5351  0.0763
 5782SOL     OW28978   2.016   1.110   3.475 -0.2153 -0.3276 -0.5248
 5782SOL    HW128979   1.991   1.181   3.416 -3.0146 -1.0082 -0.1477
 5782SOL    HW228980   2.060   1.151   3.549 -0.7004 -0.2833 -0.2643
 5783SOL     OW28981   3.344   3.540  11.885 -0.0246  0.0708  0.3655
 5783SOL    HW128982   3.253   3.562  11.870 -0.5738 -0.7406  2.5229
 5783SOL    HW228983   3.383   3.590  11.813 -2.4002 -1.4042 -1.9130
 5784SOL     OW28984   3.654   0.345  14.252  0.2365 -0.3235  0.5197
 5784SOL    HW128985   3.680   0.383  14.336 -2.1497 -0.4415  1.3103
 5784SOL    HW228986   3.680   0.413  14.190 -0.4519  0.8073  1.4814
 5785SOL     OW28987   2.574   1.142   4.038 -0.4505  0.0969  0.0196
 5785SOL    HW128988   2.589   1.138   3.944  2.0117  1.2180  0.3711
 5785SOL    HW228989   2.494   1.195   4.036 -0.2505  0.5423  3.2293
 5786SOL     OW28990   3.471   2.790   1.774 -0.1224 -0.6158  0.0847
 5786SOL    HW128991   3.399   2.842   1.738  1.3499  1.2837 -0.1253
 5786SOL    HW228992   3.440   2.707   1.738 -0.9282 -1.1866  2.0984
 5787SOL     OW28993   1.594   1.221  14.963 -0.2518 -0.2267 -0.0310
 5787SOL    HW128994   1.549   1.297  14.925 -0.8209  0.0173  1.1517
 5787SOL    HW228995   1.564   1.215  15.053  1.9725  0.0644  0.7488
 5788SOL     OW28996   0.860   1.946   8.170 -0.3506  0.2815 -0.2142
 5788SOL    HW128997   0.808   1.914   8.097  0.2278 -0.3165 -0.3613
 5788SOL    HW228998   0.946   1.905   8.158 -1.9283 -2.8591 -0.6286
 5789SOL     OW28999   0.418   4.327   3.021 -0.4505 -0.7860  0.0343
 5789SOL    HW129000   0.430   4.410   3.066  0.3301 -0.3836 -0.9175
 5789SOL    HW229001   0.438   4.264   3.091  1.0979 -2.3814 -1.8254
 5790SOL     OW29002   2.627   4.384  16.094  0.2875 -0.4219  0.0269
 5790SOL    HW129003   2.596   4.467  16.130  0.6645 -0.6873  0.9473
 5790SOL    HW229004   2.681   4.422  16.024  1.0873  0.3600  1.0856
 5791SOL     OW29005   2.436   2.336   4.321  0.5624 -0.4752 -0.6211
 5791SOL    HW129006   2.439   2.245   4.293 -1.1841 -0.5813 -0.4871
 5791SOL    HW229007   2.358   2.368   4.276  0.7016 -0.9963 -1.2254
 5792SOL     OW29008   2.367   3.673  13.148 -0.9315 -0.2191 -0.1296
 5792SOL    HW129009   2.458   3.683  13.174 -1.4391  2.6241  0.5692
 5792SOL    HW229010   2.329   3.710  13.228 -2.1464 -0.3952 -0.6170
 5793SOL     OW29011   2.917   2.651   3.957 -0.3502 -0.7505 -0.2674
 5793SOL    HW129012   2.891   2.623   3.869 -2.2003  2.5582 -0.7817
 5793SOL    HW229013   2.881   2.583   4.014  1.6481 -0.9005  0.8134
 5794SOL     OW29014   2.307   3.808   2.118  0.1988  0.1193 -0.0563
 5794SOL    HW129015   2.220   3.786   2.086 -0.4867  2.3541  0.3233
 5794SOL    HW229016   2.289   3.859   2.197  1.8444  0.7578 -0.0868
 5795SOL     OW29017   0.765   1.570   0.373  0.6050 -0.2696 -0.5384
 5795SOL    HW129018   0.815   1.559   0.292 -0.2582 -1.0477 -0.9711
 5795SOL    HW229019   0.675   1.560   0.340  0.6198 -1.2451 -0.2841
 5796SOL     OW29020   0.533   3.836   1.752 -0.3223  0.0837 -0.4347
 5796SOL    HW129021   0.440   3.835   1.771  0.0164 -2.1075  1.1742
 5796SOL    HW229022   0.536   3.783   1.672 -1.1653  0.4850 -0.7282
 5797SOL     OW29023   2.612   2.307  17.003  0.3284  0.0224 -0.6084
 5797SOL    HW129024   2.667   2.375  16.964 -1.2261  1.3734 -0.4805
 5797SOL    HW229025   2.527   2.328  16.965  0.6889  0.5331 -1.1295
 5798SOL     OW29026   4.073   3.273   5.028 -0.2154  0.2430  0.0600
 5798SOL    HW129027   4.081   3.303   5.118  0.8236  1.6530 -0.4930
 5798SOL    HW229028   4.090   3.353   4.978  0.1081  0.0947 -0.0634
 5799SOL     OW29029   0.124   2.933   7.100  0.3728 -0.2570 -0.0109
 5799SOL    HW129030   0.098   3.002   7.161 -1.9588 -0.4502 -0.7796
 5799SOL    HW229031   0.207   2.906   7.138  0.9608  2.6934  0.8102
 5800SOL     OW29032   0.957   0.767   8.426  0.0143  0.8449 -0.1232
 5800SOL    HW129033   0.922   0.738   8.341  1.3232  1.6588 -0.9438
 5800SOL    HW229034   1.052   0.779   8.416 -0.0408  1.8067  0.5503
 5801SOL     OW29035   3.344   0.218   3.900  0.5449  0.3458  0.9721
 5801SOL    HW129036   3.398   0.256   3.831  1.9009 -3.4417 -0.0246
 5801SOL    HW229037   3.260   0.254   3.871 -0.4942 -1.9460  1.1259
 5802SOL     OW29038   3.612   3.826  13.086  1.0213  0.2289 -0.3165
 5802SOL    HW129039   3.558   3.753  13.056  0.9147 -0.6349  1.9682
 5802SOL    HW229040   3.692   3.800  13.040  1.5315  1.2777 -0.0355
 5803SOL     OW29041   3.914   0.983   5.463  0.5159 -0.5454 -0.5980
 5803SOL    HW129042   3.923   1.026   5.378  0.7967 -2.4712 -1.5401
 5803SOL    HW229043   3.999   1.011   5.498  0.1831 -0.1202 -0.1379
 5804SOL     OW29044   1.498   1.264   7.834  0.8408 -0.5529 -0.2022
 5804SOL    HW129045   1.450   1.237   7.912  0.0186  0.4879 -0.3489
 5804SOL    HW229046   1.574   1.297   7.882 -0.0931  0.3097  0.6845
 5805SOL     OW29047   3.336   3.776   8.550  0.5538 -0.2094 -0.5158
 5805SOL    HW129048   3.267   3.717   8.518 -0.4990  1.4014 -1.1994
 5805SOL    HW229049   3.308   3.856   8.506  1.9280  0.6779  0.2586
 5806SOL     OW29050   2.419   4.606   8.742 -0.5815  0.4270  0.3993
 5806SOL    HW129051   2.484   4.560   8.689  0.4822 -0.9944  2.9462
 5806SOL    HW229052   2.474   4.628   8.816  0.2894 -0.2487 -0.0526
 5807SOL     OW29053   4.039   3.332   0.524 -0.9326  0.2248 -0.2904
 5807SOL    HW129054   4.049   3.405   0.463 -0.8214 -0.2244 -0.8149
 5807SOL    HW229055   3.945   3.325   0.539 -0.8681 -0.2624 -0.1260
 5808SOL     OW29056   3.887   4.035  10.656  0.2595  0.1160  0.3869
 5808SOL    HW129057   3.857   3.963  10.600  0.2864 -0.3465  0.9683
 5808SOL    HW229058   3.823   4.033  10.726  0.3402 -3.4835  0.3950
 5809SOL     OW29059   3.857   0.172   8.199 -0.1776  0.6841 -0.3670
 5809SOL    HW129060   3.862   0.080   8.172 -0.3626  0.4169  0.5120
 5809SOL    HW229061   3.806   0.178   8.280  0.1156  0.7293 -0.1839
 5810SOL     OW29062   1.900   4.732  15.314 -0.2440 -0.4863 -0.3501
 5810SOL    HW129063   1.961   4.671  15.272 -1.3001 -0.9397 -1.2420
 5810SOL    HW229064   1.952   0.071  15.340 -3.5237  1.2001  1.1639
 5811SOL     OW29065   1.026   0.924   2.752  0.4624 -0.2650  0.3280
 5811SOL    HW129066   1.067   0.929   2.666 -0.3680  1.8042  0.0734
 5811SOL    HW229067   1.071   0.989   2.806 -0.0729 -0.7120  1.3088
 5812SOL     OW29068   2.986   0.135  16.008 -0.2962  0.0033 -0.5899
 5812SOL    HW129069   3.066   0.087  15.986 -0.4628 -0.1411 -0.8773
 5812SOL    HW229070   2.992   0.132  16.103  2.3221 -2.0966 -0.8095
 5813SOL     OW29071   3.949   1.426   8.694 -0.1143  0.2161  0.2427
 5813SOL    HW129072   3.977   1.335   8.683 -0.9993 -0.1874  1.2635
 5813SOL    HW229073   3.970   1.453   8.605 -0.9616 -0.9880 -0.3227
 5814SOL     OW29074   3.253   2.474  17.484 -0.3206  0.3541  0.7950
 5814SOL    HW129075   3.209   2.545  17.437 -0.1188 -0.0299  0.0278
 5814SOL    HW229076   3.203   2.407  17.437  1.6780 -0.4681 -0.1499
 5815SOL     OW29077   2.221   0.462  11.311 -0.2525 -0.5836  0.6294
 5815SOL    HW129078   2.266   0.543  11.335 -0.3446 -0.5534  0.6973
 5815SOL    HW229079   2.129   0.489  11.309 -0.0220  0.1751  0.2141
 5816SOL     OW29080   3.479   1.721   1.893  0.4592 -0.1515  0.0234
 5816SOL    HW129081   3.514   1.639   1.927  0.9358 -0.8774 -2.2237
 5816SOL    HW229082   3.513   1.729   1.804  1.7414  0.8531  0.6137
 5817SOL     OW29083   1.408   4.327   5.266 -0.1452 -0.3781 -0.3620
 5817SOL    HW129084   1.412   4.368   5.179  0.2061 -1.7618 -0.9923
 5817SOL    HW229085   1.329   4.273   5.259 -0.3516 -0.2636  1.0488
 5818SOL     OW29086   3.554   0.064   2.485  0.1273 -1.3307  0.4544
 5818SOL    HW129087   3.458   0.068   2.482  0.1549 -0.9922  0.0072
 5818SOL    HW229088   3.565   0.083   2.391 -2.3244 -0.1662  0.4042
 5819SOL     OW29089   4.551   4.459  16.445  0.9033 -0.4564 -0.3704
 5819SOL    HW129090   4.542   4.553  16.428  0.9418 -0.0963  1.5658
 5819SOL    HW229091   4.636   4.449  16.402  0.4127 -2.5427 -0.8316
 5820SOL     OW29092   2.520   3.838  12.219  0.3574 -0.3318  0.0407
 5820SOL    HW129093   2.492   3.747  12.214 -3.8196  1.1934 -4.3196
 5820SOL    HW229094   2.432   3.875  12.225 -0.0465 -1.1673 -0.7014
 5821SOL     OW29095   1.673   1.851   7.555 -0.5188  0.0446 -0.2247
 5821SOL    HW129096   1.677   1.821   7.646  0.1054 -0.1846 -0.3270
 5821SOL    HW229097   1.763   1.879   7.539 -0.1945 -2.1799 -2.1468
 5822SOL     OW29098   2.535   2.740   2.242  0.0682 -0.8526 -0.2203
 5822SOL    HW129099   2.470   2.803   2.210 -0.2465 -1.5533 -0.9635
 5822SOL    HW229100   2.508   2.709   2.328  1.7755  0.4046  0.7838
 5823SOL     OW29101   4.085   4.375   8.897 -0.0758 -0.7896 -0.5699
 5823SOL    HW129102   4.155   4.398   8.957 -1.7427  1.5868  0.4659
 5823SOL    HW229103   4.024   4.347   8.965 -0.7235  1.1387 -0.3578
 5824SOL     OW29104   3.476   0.519   2.903 -0.7370 -0.4849 -0.5052
 5824SOL    HW129105   3.483   0.589   2.968  0.6839  1.5910 -2.8957
 5824SOL    HW229106   3.494   0.439   2.951  1.4742 -0.1095 -0.7451
 5825SOL     OW29107   4.364   4.279   7.814 -0.8256 -0.0526  0.0261
 5825SOL    HW129108   4.368   4.340   7.888 -0.4264 -0.4952  0.3640
 5825SOL    HW229109   4.348   4.335   7.738  2.2020 -0.3746 -0.8326
 5826SOL     OW29110   3.300   2.828  14.050 -0.5709 -0.6838  0.4236
 5826SOL    HW129111   3.250   2.787  14.120  1.9811 -1.9436  1.4844
 5826SOL    HW229112   3.232   2.845  13.985 -1.9049 -0.5066  1.8587
 5827SOL     OW29113   1.953   2.222  12.087 -0.1972 -0.2693 -0.0547
 5827SOL    HW129114   1.968   2.239  11.994  0.5413 -1.5038 -0.1568
 5827SOL    HW229115   2.046   2.223  12.108 -0.7264  4.3878  2.0123
 5828SOL     OW29116   0.010   2.065   4.031  0.0824 -0.1192  0.0033
 5828SOL    HW129117   4.713   1.976   4.028 -2.1741  0.8024 -1.0347
 5828SOL    HW229118   0.072   2.072   3.957  1.0845 -2.8893  0.5745
 5829SOL     OW29119   2.510   2.320   2.653  0.1384 -0.2331 -0.2515
 5829SOL    HW129120   2.501   2.280   2.740 -0.1380 -1.4573 -0.8359
 5829SOL    HW229121   2.590   2.277   2.623 -0.7420 -1.0606 -1.4249
 5830SOL     OW29122   0.955   3.365  11.066 -0.2099 -0.3700 -0.2852
 5830SOL    HW129123   0.964   3.297  10.999  0.3076 -1.1108  0.5268
 5830SOL    HW229124   0.902   3.432  11.024 -1.3111 -0.2593  1.2628
 5831SOL     OW29125   3.353   1.100  10.619  0.1786 -0.5057 -0.1593
 5831SOL    HW129126   3.421   1.156  10.581  0.0387 -1.4101 -1.7778
 5831SOL    HW229127   3.306   1.086  10.536  0.1899  1.0887 -0.4502
 5832SOL     OW29128   2.191   1.001  12.066 -0.1643  0.1790  0.9228
 5832SOL    HW129129   2.138   1.022  12.143 -1.3882 -2.3768  0.7740
 5832SOL    HW229130   2.263   0.956  12.110 -1.1169 -0.0961  2.1939
 5833SOL     OW29131   1.957   1.240   9.578 -0.0339 -0.5955  0.0281
 5833SOL    HW129132   1.990   1.288   9.654 -0.0400 -2.3291  1.1254
 5833SOL    HW229133   2.036   1.187   9.565  0.4672  0.1010  0.1523
 5834SOL     OW29134   2.167   3.904   5.464 -0.1342 -0.7193 -0.3887
 5834SOL    HW129135   2.189   3.949   5.383 -0.3087 -0.8583 -0.5134
 5834SOL    HW229136   2.257   3.916   5.495 -0.3091 -2.2391  0.7587
 5835SOL     OW29137   2.400   3.849  12.913 -0.4212 -0.1663  0.5864
 5835SOL    HW129138   2.304   3.852  12.904 -0.7832 -3.7678  3.4920
 5835SOL    HW229139   2.405   3.790  12.988  0.2763 -1.1813 -0.2737
 5836SOL     OW29140   0.683   1.237   7.797 -0.3553  0.3250  0.1497
 5836SOL    HW129141   0.641   1.322   7.813  0.7100  1.2230 -1.8741
 5836SOL    HW229142   0.776   1.259   7.790  0.2032 -1.6382  1.3051
 5837SOL     OW29143   2.377   3.797   7.415 -0.5717 -0.2570 -0.0298
 5837SOL    HW129144   2.425   3.759   7.342 -0.0669 -0.0687  0.2056
 5837SOL    HW229145   2.308   3.852   7.377 -0.4665 -0.4568 -0.5080
 5838SOL     OW29146   3.822   1.671   7.527  0.0228  0.1181  0.5305
 5838SOL    HW129147   3.751   1.611   7.551 -0.8450 -0.2100 -2.7602
 5838SOL    HW229148   3.775   1.730   7.467  1.8374  1.4194  0.3955
 5839SOL     OW29149   2.094   2.580   7.153 -0.4443  0.1858 -0.2454
 5839SOL    HW129150   2.180   2.540   7.139 -1.2792 -1.5829 -0.3134
 5839SOL    HW229151   2.052   2.511   7.205  1.3995 -0.8566 -0.1237
 5840SOL     OW29152   1.282   3.723   3.754 -0.2142  0.0483 -0.3350
 5840SOL    HW129153   1.277   3.646   3.697  1.6551 -0.2226 -0.1637
 5840SOL    HW229154   1.238   3.683   3.829 -0.5327 -0.7397 -0.9429
 5841SOL     OW29155   0.827   3.706   5.375  0.0515  0.0235  0.1350
 5841SOL    HW129156   0.868   3.694   5.461  0.6047 -2.3125 -0.4564
 5841SOL    HW229157   0.752   3.647   5.380 -0.8942  1.3415  1.3747
 5842SOL     OW29158   0.168   3.773   4.243  0.2363 -0.4029  0.2267
 5842SOL    HW129159   0.141   3.864   4.230  2.2579  0.4893  2.2089
 5842SOL    HW229160   0.255   3.792   4.278 -0.9624 -1.1232  3.6492
 5843SOL     OW29161   0.351   4.357   3.654 -0.3728 -0.6408  0.1810
 5843SOL    HW129162   0.330   4.407   3.575 -0.7271 -0.8791  0.1251
 5843SOL    HW229163   0.426   4.414   3.672 -1.8445  2.5225 -3.8744
 5844SOL     OW29164   2.643   1.403   5.767 -0.1215 -0.0543  0.3292
 5844SOL    HW129165   2.612   1.479   5.717 -1.0739 -1.6042 -1.4323
 5844SOL    HW229166   2.642   1.434   5.857  0.8424  0.3033  0.2101
 5845SOL     OW29167   2.129   4.298   2.503  0.3422  0.0801 -0.6052
 5845SOL    HW129168   2.049   4.290   2.451 -0.0790 -0.1848  0.0879
 5845SOL    HW229169   2.100   4.262   2.586 -1.2636  1.8314 -0.4084
 5846SOL     OW29170   0.773   0.881   9.687 -0.6346  0.0219  0.0151
 5846SOL    HW129171   0.781   0.796   9.729  0.8827  0.2100  0.1078
 5846SOL    HW229172   0.857   0.891   9.643 -1.4936  1.2539 -1.3775
 5847SOL     OW29173   2.062   1.051   6.353  0.1055  0.0942  0.3399
 5847SOL    HW129174   2.041   0.966   6.392 -0.3890  0.2561  0.4332
 5847SOL    HW229175   2.151   1.052   6.387  0.4813  0.5795 -0.6651
 5848SOL     OW29176   1.871   2.252   5.146  0.0330 -0.1686  0.0062
 5848SOL    HW129177   1.866   2.284   5.056  2.7809  1.2736  0.3851
 5848SOL    HW229178   1.779   2.223   5.143  0.3996 -1.5412  1.8814
 5849SOL     OW29179   3.463   3.352   1.326  0.0593  0.3530  0.2250
 5849SOL    HW129180   3.418   3.357   1.410  1.1170  1.5320  0.7183
 5849SOL    HW229181   3.455   3.442   1.295  0.0593  0.0803 -0.5653
 5850SOL     OW29182   3.252   2.637   7.505  0.3711 -0.8978 -0.1800
 5850SOL    HW129183   3.296   2.601   7.582  1.0698  0.4092  0.0400
 5850SOL    HW229184   3.171   2.663   7.550  0.8187  0.6803 -0.2854
 5851SOL     OW29185   3.193   3.335  17.658  0.0810  0.7243  0.2192
 5851SOL    HW129186   3.140   3.403  17.617  2.5352  1.6966 -1.2893
 5851SOL    HW229187   3.163   3.256  17.613 -1.1907  0.1237  2.1061
 5852SOL     OW29188   3.893   4.599   8.213  0.1828  0.1215  0.1799
 5852SOL    HW129189   3.896   4.577   8.307 -0.5094  1.1779  0.4447
 5852SOL    HW229190   3.977   4.570   8.178 -0.4642 -2.2989  0.5633
 5853SOL     OW29191   1.535   2.959   5.377 -0.1139  0.2045  0.0093
 5853SOL    HW129192   1.587   3.027   5.420  0.5831  0.0822 -0.6482
 5853SOL    HW229193   1.541   2.994   5.288 -1.0017  0.7870  0.1829
 5854SOL     OW29194   1.220   3.452   9.131  0.3184  0.3059 -0.1348
 5854SOL    HW129195   1.247   3.520   9.070 -1.5679  0.8929 -0.2834
 5854SOL    HW229196   1.147   3.414   9.083 -0.9638  0.4375  1.7241
 5855SOL     OW29197   3.895   2.669   0.081  0.0165 -0.6707 -0.5788
 5855SOL    HW129198   3.961   2.695   0.016  0.1629 -0.8025 -0.4837
 5855SOL    HW229199   3.847   2.594   0.047 -1.3079 -0.6476  1.2303
 5856SOL     OW29200   0.108   2.215  13.012 -0.3533 -0.5432 -0.2919
 5856SOL    HW129201   0.100   2.120  13.014 -0.4970 -0.4976  1.1287
 5856SOL    HW229202   0.199   2.225  13.042 -0.3771  1.6343 -0.9397
 5857SOL     OW29203   1.982   2.817   8.336  0.0836 -0.7391  0.1084
 5857SOL    HW129204   2.003   2.887   8.398 -1.1818 -0.2440 -0.0291
 5857SOL    HW229205   2.016   2.867   8.262 -0.4533  0.6005  0.7658
 5858SOL     OW29206   1.330   1.460  15.702  0.1289  0.6921  0.2726
 5858SOL    HW129207   1.419   1.492  15.684  0.8396 -1.9560 -0.8091
 5858SOL    HW229208   1.327   1.477  15.796  0.2495  0.2294  0.3592
 5859SOL     OW29209   4.122   0.924   4.259 -0.6741 -0.1765 -0.2158
 5859SOL    HW129210   4.073   0.851   4.297  0.4170 -0.5767  0.4167
 5859SOL    HW229211   4.103   0.912   4.166  1.4449 -1.5124 -0.4508
 5860SOL     OW29212   4.729   3.892   6.855  0.0363 -0.5447  0.6787
 5860SOL    HW129213   4.649   3.928   6.816 -0.3687 -3.1558 -0.9079
 5860SOL    HW229214   0.021   3.961   6.915 -1.3272  0.5962  0.0413
 5861SOL     OW29215   0.600   1.057   2.020 -0.2782 -0.1012 -0.0400
 5861SOL    HW129216   0.669   1.114   2.054  0.9664 -1.3320 -0.5031
 5861SOL    HW229217   0.531   1.081   2.082 -0.2465 -0.7262  0.2319
 5862SOL     OW29218   3.440   3.155   6.819  0.3101 -0.0469 -0.3743
 5862SOL    HW129219   3.530   3.124   6.828 -0.0516 -0.2961  2.4791
 5862SOL    HW229220   3.449   3.241   6.861 -1.1503  0.2287 -0.6166
 5863SOL     OW29221   3.165   1.705   5.208 -0.3417  0.3573 -0.2746
 5863SOL    HW129222   3.075   1.739   5.203 -0.9281 -0.7919  2.1504
 5863SOL    HW229223   3.222   1.776   5.178 -1.7139  1.4300 -0.3522
 5864SOL     OW29224   1.236   2.017   5.082  0.1497  0.4820 -0.2756
 5864SOL    HW129225   1.302   1.973   5.136 -0.7126 -0.8630 -0.3124
 5864SOL    HW229226   1.160   1.959   5.095 -0.8871  1.6052 -1.2884
 5865SOL     OW29227   0.367   4.439   2.510  0.1106 -0.2080 -0.3091
 5865SOL    HW129228   0.391   4.425   2.418  0.9291 -1.5323  0.1090
 5865SOL    HW229229   0.311   4.362   2.524  1.2972 -1.3435 -1.7776
 5866SOL     OW29230   0.026   0.164   2.046  0.2409  0.2274  0.1203
 5866SOL    HW129231   0.055   0.122   1.964  0.2026 -1.8257  1.1396
 5866SOL    HW229232   0.108   0.206   2.072  0.1227 -0.2628  1.3145
 5867SOL     OW29233   1.373   2.337   8.423  0.1356 -0.0184 -0.0187
 5867SOL    HW129234   1.441   2.271   8.433  1.9048  1.3152 -3.4904
 5867SOL    HW229235   1.303   2.293   8.472  1.1847  1.1220  2.5330
 5868SOL     OW29236   2.236   4.390   9.030  0.3170 -0.0146 -0.3747
 5868SOL    HW129237   2.260   4.399   8.937 -2.8890 -1.6284 -1.3552
 5868SOL    HW229238   2.294   4.319   9.058 -1.1218 -0.7733  0.6781
 5869SOL     OW29239   1.018   4.007   8.179  0.4609  0.1234  0.3404
 5869SOL    HW129240   0.924   4.020   8.173  0.3109 -2.1410 -2.3909
 5869SOL    HW229241   1.023   3.914   8.154  1.5725  0.5974 -1.1957
 5870SOL     OW29242   4.124   2.970  10.074 -0.2082 -0.3803 -0.3638
 5870SOL    HW129243   4.152   3.060  10.055 -3.1011  0.4346 -0.6677
 5870SOL    HW229244   4.214   2.942  10.095 -0.1073 -0.4566 -0.8862
 5871SOL     OW29245   3.592   4.090   2.327 -0.2936 -0.0028  0.3163
 5871SOL    HW129246   3.564   4.063   2.240 -0.2280  0.5737  0.1191
 5871SOL    HW229247   3.582   4.010   2.379 -0.5571 -0.5775 -0.6180
 5872SOL     OW29248   0.691   0.209   9.109  0.2558  0.0148  0.1965
 5872SOL    HW129249   0.763   0.242   9.055  0.2521  0.2759  0.3494
 5872SOL    HW229250   0.733   0.202   9.194 -1.1058 -1.0474  0.7830
 5873SOL     OW29251   2.099   3.745  12.165  0.6442 -0.0799 -0.5556
 5873SOL    HW129252   2.007   3.718  12.167  0.9084 -0.8762  0.6543
 5873SOL    HW229253   2.115   3.796  12.086 -1.1713 -0.3120 -1.0769
 5874SOL     OW29254   3.372   3.836   4.082 -0.3131  0.4527  0.0036
 5874SOL    HW129255   3.301   3.772   4.088  0.4662 -0.5574 -1.6999
 5874SOL    HW229256   3.404   3.830   3.992 -1.1853 -0.0519 -0.2742
 5875SOL     OW29257   4.193   2.859  14.292 -0.0706  0.6635  0.2138
 5875SOL    HW129258   4.275   2.836  14.336  0.2218  0.5308 -0.3966
 5875SOL    HW229259   4.176   2.952  14.303 -0.2214  0.3115  2.9000
 5876SOL     OW29260   2.127   2.952   5.219  0.2243  0.2643  0.0463
 5876SOL    HW129261   2.166   2.996   5.295 -1.9075  0.7118  0.8852
 5876SOL    HW229262   2.144   3.018   5.153  0.7282 -1.0196 -1.1089
 5877SOL     OW29263   0.388   1.315  11.553 -0.2833  0.3161  0.3023
 5877SOL    HW129264   0.469   1.284  11.513  0.3733  0.3710  1.5987
 5877SOL    HW229265   0.361   1.389  11.499 -0.0931  0.4853  0.4405
 5878SOL     OW29266   1.869   1.607   8.587  0.1388  0.0444 -0.4405
 5878SOL    HW129267   1.783   1.565   8.587 -0.1110  0.5589 -0.3693
 5878SOL    HW229268   1.896   1.599   8.496 -1.4446  0.6027 -0.9457
 5879SOL     OW29269   2.654   3.996   2.791 -0.2590 -0.6042  0.5276
 5879SOL    HW129270   2.644   4.042   2.708  0.1640  1.3649  1.5597
 5879SOL    HW229271   2.586   4.042   2.841  3.1100  3.4415  1.2990
 5880SOL     OW29272   3.185   0.616   8.802  0.2193 -0.1992  0.7191
 5880SOL    HW129273   3.155   0.591   8.889  1.3610 -0.2616  1.1021
 5880SOL    HW229274   3.278   0.633   8.818 -0.2386  2.3027  0.7728
 5881SOL     OW29275   1.889   0.010   9.106 -0.4370 -0.0754  0.5693
 5881SOL    HW129276   1.949   4.712   9.040 -0.0911 -1.1932  1.4920
 5881SOL    HW229277   1.950   0.051   9.167 -2.6125  1.8691  1.4094
 5882SOL     OW29278   2.275   4.708  10.356 -0.0452  0.2455 -0.3271
 5882SOL    HW129279   2.249   4.700  10.448  0.2237  1.1467 -0.1704
 5882SOL    HW229280   2.346   0.034  10.365  2.0064 -2.4310  2.5023
 5883SOL     OW29281   3.204   4.395   4.875 -0.5721  0.4553  0.0527
 5883SOL    HW129282   3.264   4.326   4.847  1.4310  2.2967 -0.2322
 5883SOL    HW229283   3.244   4.459   4.815 -3.6408  1.7919 -0.5545
 5884SOL     OW29284   3.788   1.158  10.488  0.1447 -0.2188  0.0574
 5884SOL    HW129285   3.713   1.216  10.503 -0.1605 -0.6395  0.1700
 5884SOL    HW229286   3.814   1.177  10.399 -0.4185 -2.0684 -0.5030
 5885SOL     OW29287   4.599   1.931   8.942 -0.5097  0.0835  0.3185
 5885SOL    HW129288   4.595   2.026   8.936 -0.9465  0.0004 -0.7445
 5885SOL    HW229289   4.651   1.919   8.863 -0.8563  1.2485 -0.0899
 5886SOL     OW29290   0.434   1.075   8.771 -0.1352 -0.3324 -0.0987
 5886SOL    HW129291   0.506   1.015   8.791  0.6643  0.0667 -1.7782
 5886SOL    HW229292   0.396   1.084   8.859  0.4226  0.7496  0.0371
 5887SOL     OW29293   1.288   3.469   1.804  0.8748  0.3556 -0.6186
 5887SOL    HW129294   1.274   3.417   1.884 -0.6737 -0.9695 -1.7555
 5887SOL    HW229295   1.379   3.445   1.789  1.3901  1.3464  0.8695
 5888SOL     OW29296   3.859   0.098   3.996 -0.6894 -0.0809 -0.3721
 5888SOL    HW129297   3.817   0.163   3.939  1.9564  0.8809 -1.2156
 5888SOL    HW229298   3.921   0.153   4.045 -0.9820  0.8004 -0.9840
 5889SOL     OW29299   2.690   2.328  13.948  0.2054  0.3364 -0.3544
 5889SOL    HW129300   2.682   2.390  13.875 -0.6355 -0.8861 -1.3025
 5889SOL    HW229301   2.785   2.316  13.959 -0.2998 -1.6418  1.7870
 5890SOL     OW29302   1.356   4.051   9.174  0.2323  0.3082  0.4133
 5890SOL    HW129303   1.426   4.006   9.126 -0.5328 -2.1425  1.5806
 5890SOL    HW229304   1.386   4.142   9.178 -0.5577  0.6848 -1.9177
 5891SOL     OW29305   1.013   1.341   4.230  0.2863  0.0552 -0.1709
 5891SOL    HW129306   1.095   1.386   4.246 -0.1051  0.1626  1.4670
 5891SOL    HW229307   1.038   1.250   4.246 -2.3368 -0.8591 -1.1799
 5892SOL     OW29308   3.875   2.614   3.002 -0.0345  0.1597  0.0864
 5892SOL    HW129309   3.938   2.684   2.983  0.1689 -0.6073 -2.0602
 5892SOL    HW229310   3.927   2.538   2.976 -1.4979 -0.8097  0.0327
 5893SOL     OW29311   4.679   1.309   4.152  0.6059  0.4607 -0.2753
 5893SOL    HW129312   4.643   1.296   4.065  3.2243 -2.7780 -0.8777
 5893SOL    HW229313   4.604   1.335   4.205  0.6671  1.9707 -0.9510
 5894SOL     OW29314   3.460   4.248  13.488  0.3567 -0.5321  0.1917
 5894SOL    HW129315   3.553   4.270  13.499  0.2742  0.2133 -0.5602
 5894SOL    HW229316   3.458   4.232  13.394 -2.8275  2.5982 -0.2523
 5895SOL     OW29317   0.590   1.177  11.432  0.1980  0.4053  0.0993
 5895SOL    HW129318   0.677   1.175  11.472  0.3361 -1.3021 -0.2799
 5895SOL    HW229319   0.611   1.132  11.349 -1.7620  0.5367 -0.4641
 5896SOL     OW29320   2.617   3.417   3.900 -0.1884  0.1937 -0.1384
 5896SOL    HW129321   2.650   3.415   3.810 -2.0754  0.7226 -0.8386
 5896SOL    HW229322   2.526   3.443   3.885 -0.7509 -0.2155  2.5257
 5897SOL     OW29323   1.398   0.992   6.634  0.2869  0.6499  0.5883
 5897SOL    HW129324   1.451   1.055   6.682  1.0444 -1.4186  2.4388
 5897SOL    HW229325   1.360   0.930   6.696 -1.0405  0.9835  0.1229
 5898SOL     OW29326   1.794   1.558  14.708  0.6395 -0.0007  0.5406
 5898SOL    HW129327   1.840   1.482  14.673  0.6835 -1.5042  3.8205
 5898SOL    HW229328   1.708   1.552  14.667  0.6118 -1.0439  0.7448
 5899SOL     OW29329   0.815   4.639   5.103 -0.0532 -0.1882 -0.0455
 5899SOL    HW129330   0.788   4.728   5.080  1.4146 -0.3646 -2.4033
 5899SOL    HW229331   0.848   4.645   5.192 -0.3061  1.2523 -0.0465
 5900SOL     OW29332   2.365   2.398   5.256  0.1461 -0.1167  0.1018
 5900SOL    HW129333   2.389   2.362   5.171 -1.2763 -2.2977  0.6015
 5900SOL    HW229334   2.270   2.383   5.260 -0.1243  2.0172  1.8888
 5901SOL     OW29335   3.853   1.807   3.886  0.6019  0.4766 -0.1837
 5901SOL    HW129336   3.788   1.764   3.942  1.5490  0.8064  1.1800
 5901SOL    HW229337   3.804   1.829   3.807 -0.7273  1.6620  0.9607
 5902SOL     OW29338   4.728   2.777   6.911  0.3495  0.5329  0.1599
 5902SOL    HW129339   0.050   2.827   6.966 -1.2062  0.0778  2.2627
 5902SOL    HW229340   4.737   2.691   6.953  1.2361  0.8225  0.5600
 5903SOL     OW29341   4.198   3.432   5.270 -0.5452  0.2669 -0.0118
 5903SOL    HW129342   4.265   3.497   5.290  0.2677 -0.9805  1.3736
 5903SOL    HW229343   4.249   3.351   5.278 -0.5173  0.2740 -0.1151
 5904SOL     OW29344   2.974   2.220  11.423 -0.0095 -0.3648  0.0452
 5904SOL    HW129345   3.047   2.166  11.393 -1.2810 -1.0166 -1.8347
 5904SOL    HW229346   3.011   2.265  11.500  2.1801 -2.8883  0.4628
 5905SOL     OW29347   1.470   2.863   4.472 -0.3052  0.2624  0.1969
 5905SOL    HW129348   1.456   2.777   4.514 -0.0992 -0.2562 -0.8016
 5905SOL    HW229349   1.382   2.871   4.437 -0.3835  1.6713  0.7209
 5906SOL     OW29350   3.657   1.673   5.890 -0.4443 -0.3801 -0.3021
 5906SOL    HW129351   3.601   1.668   5.813 -0.2843 -1.4883 -0.3388
 5906SOL    HW229352   3.739   1.705   5.852 -0.7321 -0.6633 -1.1689
 5907SOL     OW29353   4.294   1.492   3.080 -0.5625  0.1343 -0.3453
 5907SOL    HW129354   4.357   1.458   3.143 -1.9336  0.0694  0.9662
 5907SOL    HW229355   4.329   1.576   3.053 -0.4982  0.2572  0.1259
 5908SOL     OW29356   2.305   1.256   8.890 -1.3534  0.0177 -0.7343
 5908SOL    HW129357   2.215   1.224   8.903 -1.6258  0.9356 -0.3606
 5908SOL    HW229358   2.283   1.306   8.811 -0.2938 -1.7999 -2.1901
 5909SOL     OW29359   3.715   4.642   7.772  0.6071 -0.3929  0.1831
 5909SOL    HW129360   3.803   4.659   7.808 -0.0673 -0.7449  1.9992
 5909SOL    HW229361   3.732   4.641   7.678  2.5724 -0.9960  0.5327
 5910SOL     OW29362   2.186   1.648   8.445 -0.0153 -0.0046  0.1265
 5910SOL    HW129363   2.100   1.615   8.418  0.0681 -0.3135  0.2381
 5910SOL    HW229364   2.163   1.705   8.518  0.7903 -2.5930  2.4086
 5911SOL     OW29365   4.178   0.629  11.722 -0.5721 -0.3404  0.1796
 5911SOL    HW129366   4.267   0.667  11.721 -0.5879 -0.1824  3.4988
 5911SOL    HW229367   4.156   0.624  11.629  1.1081 -0.6537 -0.2104
 5912SOL     OW29368   3.822   2.529  16.487 -0.3346 -0.0893 -0.1017
 5912SOL    HW129369   3.773   2.486  16.417 -0.4547 -0.9069  0.4923
 5912SOL    HW229370   3.880   2.590  16.441 -0.0743 -2.5020 -2.9626
 5913SOL     OW29371   1.252   0.782  14.750 -0.4433  0.0230  0.0399
 5913SOL    HW129372   1.207   0.813  14.672  0.5502  0.6021 -0.3006
 5913SOL    HW229373   1.315   0.725  14.706  0.4836  1.4448 -0.4835
 5914SOL     OW29374   3.912   4.291   4.735 -0.2784  0.3930  0.0224
 5914SOL    HW129375   3.870   4.358   4.680  0.4175 -0.1689 -1.1696
 5914SOL    HW229376   3.839   4.232   4.757 -0.1375 -1.1225 -3.6405
 5915SOL     OW29377   3.686   3.256   2.560  0.3032 -0.0877  0.3373
 5915SOL    HW129378   3.768   3.290   2.527  0.4814 -0.4467  0.4052
 5915SOL    HW229379   3.683   3.169   2.520 -1.5636 -0.4185  1.1648
 5916SOL     OW29380   1.854   2.905   3.524 -0.0242  0.5477  0.2891
 5916SOL    HW129381   1.765   2.878   3.503  0.0712 -0.1438  0.7509
 5916SOL    HW229382   1.907   2.826   3.510  0.3995  0.5709  1.7021
 5917SOL     OW29383   3.264   1.528   3.481  0.1120 -0.1124  0.0882
 5917SOL    HW129384   3.312   1.594   3.432 -0.1200 -0.0013  0.0127
 5917SOL    HW229385   3.192   1.511   3.420 -0.8823  1.3279  0.8615
 5918SOL     OW29386   2.057   2.627   4.671 -0.1703 -0.3297  0.6859
 5918SOL    HW129387   2.030   2.711   4.707 -0.0310  0.5202 -1.2149
 5918SOL    HW229388   1.979   2.573   4.687 -1.1193  1.5909  2.4849
 5919SOL     OW29389   1.631   2.320  11.905 -0.1892 -0.0385 -0.2985
 5919SOL    HW129390   1.716   2.302  11.866  1.1928  1.6940  1.9031
 5919SOL    HW229391   1.603   2.369  11.827 -0.2365 -0.9358 -0.8439
 5920SOL     OW29392   3.931   4.058   6.920 -0.0130 -0.9630 -0.1854
 5920SOL    HW129393   4.003   4.077   6.860 -0.1139  0.1762  0.0659
 5920SOL    HW229394   3.917   3.964   6.907  2.5507 -1.1078 -1.9396
 5921SOL     OW29395   4.491   1.448   9.262 -0.1689  0.3281  0.3564
 5921SOL    HW129396   4.503   1.526   9.316  2.0047  0.1986  0.0599
 5921SOL    HW229397   4.410   1.412   9.298  0.0870  2.1281  2.7570
 5922SOL     OW29398   2.534   0.740  10.722  0.3938  0.1276  0.2581
 5922SOL    HW129399   2.620   0.771  10.750 -0.1832  1.0544  0.9943
 5922SOL    HW229400   2.493   0.826  10.732 -1.5604 -1.0598  2.3287
 5923SOL     OW29401   2.007   2.860   4.759  0.0658  0.4820  0.0776
 5923SOL    HW129402   1.970   2.948   4.760 -2.2289 -0.4984  0.0347
 5923SOL    HW229403   2.055   2.859   4.842  1.8308  0.4346 -0.9374
 5924SOL     OW29404   1.919   2.261   4.598  0.4109 -0.0058  0.5989
 5924SOL    HW129405   1.857   2.268   4.526 -0.5312  0.3282  1.4441
 5924SOL    HW229406   2.004   2.258   4.554 -0.3801 -0.3711 -0.8997
 5925SOL     OW29407   2.889   4.630   5.742  0.4182 -0.0858  0.3932
 5925SOL    HW129408   2.816   4.595   5.793 -1.6276  0.4694 -2.1648
 5925SOL    HW229409   2.924   4.558   5.690 -1.5522 -0.6254 -0.1724
 5926SOL     OW29410   4.733   2.551   4.150  0.1847  0.2159 -0.0114
 5926SOL    HW129411   4.707   2.478   4.207  0.3793  1.3676  1.5331
 5926SOL    HW229412   4.668   2.616   4.178  0.7083  1.2317 -1.1769
 5927SOL     OW29413   2.507   0.911   9.675  0.2866 -0.1553  0.3274
 5927SOL    HW129414   2.413   0.892   9.667  0.4829 -1.2401  0.5035
 5927SOL    HW229415   2.503   1.006   9.670  3.0981 -0.1395 -1.5263
 5928SOL     OW29416   1.130   2.991  11.049  0.2404 -0.5983  0.1925
 5928SOL    HW129417   1.046   3.032  11.066 -0.0187 -1.4530  0.9654
 5928SOL    HW229418   1.171   3.018  11.131  1.0636  1.2813 -0.8326
 5929SOL     OW29419   0.088   3.556   2.976  0.1626 -0.2208 -0.3106
 5929SOL    HW129420   0.142   3.573   3.053 -1.3219 -1.9868  1.1171
 5929SOL    HW229421   0.052   3.642   2.958  1.1437  0.0249 -1.0915
 5930SOL     OW29422   4.628   4.591   7.760  0.4233 -0.4437 -0.2648
 5930SOL    HW129423   4.616   4.685   7.744  1.6221 -0.2646 -0.1644
 5930SOL    HW229424   4.563   4.581   7.830 -0.7977  0.5342 -1.2601
 5931SOL     OW29425   4.296   2.855   9.141  0.1665 -0.4925  0.3776
 5931SOL    HW129426   4.274   2.877   9.232 -2.3560  0.2768 -0.4124
 5931SOL    HW229427   4.218   2.811   9.107 -1.4412 -0.2878  3.7756
 5932SOL     OW29428   2.378   4.067   6.155 -0.0264  0.0979 -0.3006
 5932SOL    HW129429   2.430   4.056   6.235  1.0404  0.7255 -0.8995
 5932SOL    HW229430   2.402   4.150   6.113  2.2948 -0.2537  0.3203
 5933SOL     OW29431   1.876   1.938   4.348  0.0412 -0.0247  0.7240
 5933SOL    HW129432   1.916   1.911   4.430 -0.8211 -1.0693  0.8017
 5933SOL    HW229433   1.933   2.010   4.322 -0.4118 -0.3218 -1.1719
 5934SOL     OW29434   0.432   0.511  10.955  0.0565  0.0651  0.7151
 5934SOL    HW129435   0.451   0.462  11.035  0.4324  1.5795  1.5503
 5934SOL    HW229436   0.365   0.572  10.983 -0.4541  0.1306 -0.6515
 5935SOL     OW29437   0.747   3.007   9.458  0.0907  0.3589 -0.7302
 5935SOL    HW129438   0.780   2.918   9.472  2.3965  1.0951 -1.5003
 5935SOL    HW229439   0.715   3.002   9.368 -1.4114 -0.5072 -0.1562
 5936SOL     OW29440   3.458   1.219   8.905  0.1468  0.3756 -0.0522
 5936SOL    HW129441   3.539   1.243   8.860  0.5019  0.7126  0.7522
 5936SOL    HW229442   3.389   1.268   8.860  0.5336 -1.2265 -2.3988
 5937SOL     OW29443   0.697   2.810   1.565 -0.9094  0.4465 -0.1271
 5937SOL    HW129444   0.630   2.763   1.515 -0.3295  0.0203 -0.5044
 5937SOL    HW229445   0.770   2.788   1.507  0.0608 -1.3402  1.7467
 5938SOL     OW29446   4.420   1.779   7.850 -0.6363 -0.2644 -0.1565
 5938SOL    HW129447   4.349   1.830   7.811 -1.1332  0.3871  1.5873
 5938SOL    HW229448   4.454   1.838   7.917 -1.8754 -2.1790  2.1478
 5939SOL     OW29449   0.131   2.841   5.003 -0.2811  0.0713  0.2138
 5939SOL    HW129450   0.157   2.824   5.094 -0.3857 -1.6783 -0.0765
 5939SOL    HW229451   0.104   2.749   4.994  0.5510 -0.4093  2.4919
 5940SOL     OW29452   1.179   3.475   4.787  0.1993  0.0433  0.5112
 5940SOL    HW129453   1.249   3.523   4.832  1.6832 -0.9593 -0.6993
 5940SOL    HW229454   1.110   3.489   4.851 -0.7852  0.4304 -0.6412
 5941SOL     OW29455   3.652   3.909   8.212  0.1684 -0.3311  0.5478
 5941SOL    HW129456   3.744   3.906   8.187  0.0491 -1.3977  0.2612
 5941SOL    HW229457   3.632   3.818   8.192  1.8157 -0.5203 -0.1597
 5942SOL     OW29458   2.135   2.382  13.393 -0.6197 -1.0471  0.0291
 5942SOL    HW129459   2.132   2.331  13.474 -0.6905 -1.3463 -0.1646
 5942SOL    HW229460   2.062   2.441  13.412  0.4019  0.4748 -0.7282
 5943SOL     OW29461   2.228   0.938  11.343  0.3354  0.0798  0.0365
 5943SOL    HW129462   2.152   0.888  11.373  0.5411 -2.3995 -3.6067
 5943SOL    HW229463   2.199   0.989  11.267 -0.4220  2.7271  2.0786
 5944SOL     OW29464   3.548   1.048  13.980 -0.1407 -0.8618 -0.7961
 5944SOL    HW129465   3.617   1.009  14.034 -1.6112 -1.5143  0.6062
 5944SOL    HW229466   3.515   1.114  14.041  1.1415 -1.1740  0.2381
 5945SOL     OW29467   1.680   1.417   2.908 -0.2157 -0.0590  0.6152
 5945SOL    HW129468   1.619   1.343   2.900 -1.1750  0.6565  1.2196
 5945SOL    HW229469   1.666   1.475   2.833 -1.3674  1.8223  2.2923
 5946SOL     OW29470   4.230   2.229   4.131 -0.0087  0.1331 -0.0726
 5946SOL    HW129471   4.187   2.145   4.141 -3.6564  1.8084 -1.5740
 5946SOL    HW229472   4.316   2.191   4.111 -1.3248 -2.3877 -0.9423
 5947SOL     OW29473   3.480   2.532  16.735  0.8251  0.3236  0.1385
 5947SOL    HW129474   3.406   2.472  16.728  1.9388 -0.6273 -3.8432
 5947SOL    HW229475   3.502   2.532  16.641  1.4337 -2.4732  0.2746
 5948SOL     OW29476   3.196   1.274   5.847  0.7242  0.2303 -0.0534
 5948SOL    HW129477   3.101   1.268   5.844  0.8543 -1.2123 -1.2539
 5948SOL    HW229478   3.223   1.209   5.783  1.3800  0.9126 -0.4710
 5949SOL     OW29479   0.622   1.117   4.304 -0.3502 -0.0460  0.0884
 5949SOL    HW129480   0.643   1.023   4.302  0.1234  0.1117 -1.9496
 5949SOL    HW229481   0.546   1.121   4.247  0.1275 -1.3292 -0.6428
 5950SOL     OW29482   1.007   0.476  17.411 -0.1975 -0.7397  0.0737
 5950SOL    HW129483   0.994   0.442  17.500  2.6176  1.0319  1.1984
 5950SOL    HW229484   1.086   0.425  17.395  0.5210  0.8877 -1.5531
 5951SOL     OW29485   2.822   0.101   2.004  0.3305 -0.5734  0.0150
 5951SOL    HW129486   2.861   0.139   2.083 -0.2477 -0.8559  0.4343
 5951SOL    HW229487   2.781   0.176   1.962 -0.9774 -0.8735  0.7581
 5952SOL     OW29488   1.502   1.108   3.085  0.6872 -0.0007  0.0761
 5952SOL    HW129489   1.502   1.140   2.994 -0.5168  0.7558  0.3315
 5952SOL    HW229490   1.595   1.106   3.105  0.3403 -2.9909  1.3151
 5953SOL     OW29491   0.023   4.338   6.397 -0.1549 -0.8441 -0.0766
 5953SOL    HW129492   4.729   4.248   6.393 -2.0726 -0.1421 -0.5375
 5953SOL    HW229493   0.104   4.322   6.446 -1.2490  0.4440  2.1408
 5954SOL     OW29494   3.798   3.575  16.876 -0.1431  0.4380  0.5621
 5954SOL    HW129495   3.877   3.560  16.823  0.6960  0.9003  1.6859
 5954SOL    HW229496   3.729   3.582  16.810 -0.7838  1.3064  1.3380
 5955SOL     OW29497   2.016   1.477   7.842 -0.2927  0.1786 -0.1473
 5955SOL    HW129498   2.094   1.522   7.873  0.1641 -0.4210 -0.4283
 5955SOL    HW229499   1.984   1.545   7.782  1.6029  1.3886  0.2227
 5956SOL     OW29500   4.314   0.754  13.321 -0.5689 -0.9885  0.3253
 5956SOL    HW129501   4.365   0.688  13.275 -2.0033 -0.5505 -1.9064
 5956SOL    HW229502   4.333   0.839  13.279  0.1048 -1.0765  0.4542
 5957SOL     OW29503   2.431   3.847   5.935 -0.3763  0.2754 -0.2266
 5957SOL    HW129504   2.526   3.842   5.924 -0.6362 -1.6911 -1.6336
 5957SOL    HW229505   2.426   3.939   5.959 -1.9190 -0.8677  3.8785
 5958SOL     OW29506   2.513   4.118  17.196 -0.1714 -0.2442  0.2762
 5958SOL    HW129507   2.587   4.167  17.160 -0.1884 -0.4904 -0.0941
 5958SOL    HW229508   2.511   4.054  17.124 -2.0881 -0.5060  0.5588
 5959SOL     OW29509   3.501   2.974  14.876 -0.2031  0.3566 -0.3142
 5959SOL    HW129510   3.509   2.925  14.959 -3.2772  2.1906  1.0495
 5959SOL    HW229511   3.504   3.064  14.907  0.0107  0.2113  0.0907
 5960SOL     OW29512   3.420   1.230   2.695 -0.3105 -0.2212 -0.4482
 5960SOL    HW129513   3.395   1.138   2.700  0.4793 -0.4442 -0.5878
 5960SOL    HW229514   3.335   1.273   2.679 -0.2425 -0.3173 -1.0621
 5961SOL     OW29515   1.967   4.384   3.865  0.3429  0.1505  0.5157
 5961SOL    HW129516   1.907   4.326   3.818  1.4907  0.4223 -1.2403
 5961SOL    HW229517   2.004   4.328   3.934  1.3207  2.4455  1.8387
 5962SOL     OW29518   2.188   2.897   3.836 -0.3094  0.9535 -0.6479
 5962SOL    HW129519   2.274   2.934   3.816  1.1607 -1.9916  0.1377
 5962SOL    HW229520   2.170   2.845   3.758  1.1578 -0.4911 -0.0318
 5963SOL     OW29521   4.111   0.365  12.356 -0.1373  0.3774 -0.4552
 5963SOL    HW129522   4.083   0.276  12.379  2.9850 -0.2022  1.1372
 5963SOL    HW229523   4.034   0.403  12.313 -1.9566 -1.9412  0.7371
 5964SOL     OW29524   1.064   0.436   9.370 -0.2483  0.5331  0.6952
 5964SOL    HW129525   0.998   0.389   9.420 -1.4964  1.9007  0.3182
 5964SOL    HW229526   1.047   0.528   9.392 -0.6620  0.5937  0.1248
 5965SOL     OW29527   0.404   3.100   7.134 -0.3518  0.5698 -0.0971
 5965SOL    HW129528   0.409   3.158   7.058  1.4150  0.3769 -0.1247
 5965SOL    HW229529   0.420   3.014   7.096  1.1096 -0.4085  2.7421
 5966SOL     OW29530   3.364   3.326  14.840  0.8831  0.2660  0.1384
 5966SOL    HW129531   3.269   3.313  14.851  0.8464  0.7980  0.4021
 5966SOL    HW229532   3.387   3.341  14.931  0.6541 -1.7403  0.5452
 5967SOL     OW29533   2.015   2.002   6.149 -0.1754  0.1915  0.3539
 5967SOL    HW129534   1.983   2.046   6.228  1.2999 -0.3245  1.2352
 5967SOL    HW229535   1.999   1.909   6.165  0.3604  0.3001  1.5119
 5968SOL     OW29536   3.421   0.712   0.544 -0.4823  0.0025  0.4308
 5968SOL    HW129537   3.335   0.693   0.506 -0.7523  1.3218  0.3739
 5968SOL    HW229538   3.411   0.659   0.623 -0.3013 -0.4051  0.1782
 5969SOL     OW29539   0.728   4.126   4.786  0.1127  0.1944  0.0058
 5969SOL    HW129540   0.718   4.047   4.839 -0.7418  0.4283  0.1840
 5969SOL    HW229541   0.696   4.195   4.844 -2.4951 -0.6124 -0.5007
 5970SOL     OW29542   2.569   1.842   1.372  0.5267 -0.0204  0.6180
 5970SOL    HW129543   2.547   1.930   1.341 -0.6879 -0.3985  0.4236
 5970SOL    HW229544   2.489   1.800   1.339  0.2412  0.7484  0.3284
 5971SOL     OW29545   1.561   1.523  14.606  0.7327  0.4200  0.3089
 5971SOL    HW129546   1.566   1.442  14.555 -0.6162 -0.7461  2.0367
 5971SOL    HW229547   1.500   1.574  14.553 -1.1945  1.4426  3.5386
 5972SOL     OW29548   1.986   2.306   3.080  0.0760  0.3075  0.4077
 5972SOL    HW129549   2.043   2.251   3.027  0.6892  0.7118  0.6504
 5972SOL    HW229550   1.912   2.309   3.020 -1.6588 -0.8223  2.4829
 5973SOL     OW29551   4.201   2.166   2.633 -0.0507  0.0473  0.5276
 5973SOL    HW129552   4.127   2.198   2.582 -0.4738 -1.7601 -0.0084
 5973SOL    HW229553   4.166   2.177   2.721 -1.0151  0.6179  0.0605
 5974SOL     OW29554   0.636   2.920   8.868  0.6131  0.3374  0.1404
 5974SOL    HW129555   0.699   2.946   8.802  1.3943 -1.5302  0.1454
 5974SOL    HW229556   0.644   2.987   8.936 -0.1546  1.3665 -0.7778
 5975SOL     OW29557   2.585   2.468   3.538  0.0723  0.2407  0.0631
 5975SOL    HW129558   2.544   2.520   3.606 -0.0087  1.3960 -0.8726
 5975SOL    HW229559   2.630   2.404   3.593 -0.3395  1.5985  1.9597
 5976SOL     OW29560   0.319   1.658   8.168 -0.6090 -0.0911  0.6760
 5976SOL    HW129561   0.261   1.734   8.174 -1.3986 -0.6495  0.1958
 5976SOL    HW229562   0.250   1.596   8.190 -2.5115  1.1583 -1.6938
 5977SOL     OW29563   0.798   2.424   9.261 -0.1054 -0.7876 -0.6044
 5977SOL    HW129564   0.744   2.448   9.336  1.8938 -1.1667  0.9536
 5977SOL    HW229565   0.726   2.410   9.199 -1.6192  0.1893  0.9418
 5978SOL     OW29566   3.876   1.705   7.868  0.0352 -0.2021 -0.8670
 5978SOL    HW129567   3.953   1.671   7.823  1.6836  0.7236  1.2724
 5978SOL    HW229568   3.918   1.705   7.954  1.7676  0.3122 -1.7124
 5979SOL     OW29569   4.655   1.915   4.652 -0.4095 -0.0492 -0.0982
 5979SOL    HW129570   4.571   1.950   4.683  0.3581  0.3379  1.5567
 5979SOL    HW229571   4.701   1.900   4.735 -0.6108  3.9267  0.7494
 5980SOL     OW29572   3.401   0.963   7.694  0.2942  0.2667 -0.1049
 5980SOL    HW129573   3.418   1.033   7.632  0.5534  0.5576  0.2906
 5980SOL    HW229574   3.361   0.893   7.642  0.0579 -0.1621  0.6469
 5981SOL     OW29575   1.608   3.272  14.202 -0.0374  0.1520 -0.3588
 5981SOL    HW129576   1.662   3.294  14.277  1.1554 -1.8179 -0.6568
 5981SOL    HW229577   1.577   3.362  14.189  1.2714  0.7594  0.8391
 5982SOL     OW29578   0.490   3.702   8.663 -0.2880  0.7531  0.1873
 5982SOL    HW129579   0.509   3.611   8.640 -1.7990  0.7467 -1.0564
 5982SOL    HW229580   0.398   3.703   8.635 -0.0208 -0.5882 -0.7384
 5983SOL     OW29581   2.509   1.002  15.920  0.7730 -0.5341 -0.1571
 5983SOL    HW129582   2.563   0.978  15.844  0.9259 -0.6193 -0.0221
 5983SOL    HW229583   2.465   1.079  15.885 -1.8067 -2.3759 -0.9923
 5984SOL     OW29584   2.441   0.146  16.720 -0.3721  0.0790  0.6398
 5984SOL    HW129585   2.365   0.144  16.662 -1.1531  0.4693  1.6549
 5984SOL    HW229586   2.519   0.129  16.667 -0.4034 -0.5107  0.7747
 5985SOL     OW29587   3.876   1.315   9.460  0.3647  0.3607 -0.2407
 5985SOL    HW129588   3.932   1.282   9.530  0.0251  0.4131  0.0577
 5985SOL    HW229589   3.893   1.409   9.466 -0.8704  0.4971  1.0316
 5986SOL     OW29590   2.256   1.352  12.290 -0.0286  0.6925 -0.1579
 5986SOL    HW129591   2.274   1.308  12.374  2.9105  0.0432 -1.1338
 5986SOL    HW229592   2.173   1.319  12.258 -0.4230  0.7899  0.7442
 5987SOL     OW29593   3.479   1.772  12.162  0.0987 -0.3979 -0.0094
 5987SOL    HW129594   3.574   1.781  12.167  0.1402 -0.9326  0.0972
 5987SOL    HW229595   3.476   1.739  12.072  2.4144  0.7419 -0.5029
 5988SOL     OW29596   2.322   2.576  10.913  0.0323  0.2857 -0.2158
 5988SOL    HW129597   2.390   2.512  10.890 -1.9791 -1.8647 -0.1274
 5988SOL    HW229598   2.268   2.527  10.975 -0.2918  0.6102 -0.2471
 5989SOL     OW29599   1.275   4.558  15.064  0.4063  0.2617  0.3391
 5989SOL    HW129600   1.359   4.569  15.109  1.4067  0.7911 -1.6567
 5989SOL    HW229601   1.306   4.590  14.979 -0.2556  1.7532  0.6627
 5990SOL     OW29602   4.602   2.125  10.127  0.0402  0.0935 -0.1613
 5990SOL    HW129603   4.559   2.197  10.173  3.0328  0.4220  2.1786
 5990SOL    HW229604   4.663   2.170  10.069 -0.1518 -0.7640 -1.0273
 5991SOL     OW29605   4.131   4.090  10.501  0.1815  0.7269  0.3747
 5991SOL    HW129606   4.068   4.081  10.573 -0.6533 -1.6192 -0.6512
 5991SOL    HW229607   4.065   4.104  10.433  1.4911  0.9080 -0.8618
 5992SOL     OW29608   0.313   1.451  15.980  0.4850 -0.1631 -0.2273
 5992SOL    HW129609   0.269   1.533  15.959  1.4297  0.2674 -0.5225
 5992SOL    HW229610   0.400   1.466  15.944 -0.6135  2.4934 -1.7630
 5993SOL     OW29611   0.583   3.345   1.684 -0.2207  0.1670  0.3830
 5993SOL    HW129612   0.539   3.320   1.604 -0.7902 -0.8745  1.0280
 5993SOL    HW229613   0.646   3.274   1.698 -0.0722  0.3332  0.5773
 5994SOL     OW29614   3.428   1.136   3.404 -0.6379  0.1856  0.5727
 5994SOL    HW129615   3.407   1.185   3.325 -0.5755  0.4883  0.7431
 5994SOL    HW229616   3.416   1.198   3.476 -3.5804  1.4512 -1.0263
 5995SOL     OW29617   2.344   0.352  11.045  0.4181 -0.3532  0.2498
 5995SOL    HW129618   2.284   0.384  11.113 -0.1932 -1.4453  0.2186
 5995SOL    HW229619   2.399   0.430  11.048  0.4337 -0.2946 -1.5838
 5996SOL     OW29620   0.066   1.720   0.841 -0.3852  0.0359 -0.8622
 5996SOL    HW129621   0.049   1.644   0.786 -1.6778 -1.2532  1.2794
 5996SOL    HW229622   4.725   1.719   0.896 -0.1896  0.8117 -0.5683
 5997SOL     OW29623   0.407   4.150  13.374 -0.1128  0.3082  0.1869
 5997SOL    HW129624   0.419   4.245  13.376  2.1516  0.0084  0.8523
 5997SOL    HW229625   0.495   4.116  13.390  0.0297  0.1420 -0.9110
 5998SOL     OW29626   0.579   3.631   2.953 -0.1918  0.7574 -0.3154
 5998SOL    HW129627   0.508   3.567   2.948 -0.1690  0.6374  0.9095
 5998SOL    HW229628   0.638   3.598   3.020 -0.1491 -0.9387 -1.1914
 5999SOL     OW29629   3.761   3.659   8.554  0.3303 -0.4294 -0.2077
 5999SOL    HW129630   3.729   3.592   8.492 -1.0998  0.3924 -0.3673
 5999SOL    HW229631   3.685   3.660   8.613 -0.1016 -1.5001 -0.7470
 6000SOL     OW29632   4.086   1.403  14.341  0.0889 -0.1893 -0.1666
 6000SOL    HW129633   3.995   1.376  14.355 -0.5820  2.4010  0.4700
 6000SOL    HW229634   4.072   1.464  14.269 -0.5864 -0.6214 -0.3998
 6001SOL     OW29635   2.739   2.255  12.232  0.6509 -0.7396  0.1722
 6001SOL    HW129636   2.773   2.300  12.154  1.6935 -2.5340 -0.4167
 6001SOL    HW229637   2.823   2.224  12.267  0.5684 -0.7595  0.3487
 6002SOL     OW29638   1.000   3.760   4.412 -0.1583 -0.5334 -0.1585
 6002SOL    HW129639   1.074   3.763   4.473  1.6661  1.1867 -2.4576
 6002SOL    HW229640   0.932   3.713   4.459  0.7129 -0.4401  1.2055
 6003SOL     OW29641   4.115   2.854   3.848 -0.0636 -0.3556 -0.0325
 6003SOL    HW129642   4.040   2.905   3.877 -0.0569 -0.2873 -0.1378
 6003SOL    HW229643   4.083   2.767   3.871  0.1405 -0.6183 -0.7316
 6004SOL     OW29644   3.929   2.488   5.362 -0.3706 -0.7225  0.3869
 6004SOL    HW129645   4.009   2.453   5.403  0.3365 -1.5808 -1.7366
 6004SOL    HW229646   3.978   2.558   5.320 -0.9399  0.4549  1.6754
 6005SOL     OW29647   4.342   0.523   5.551 -0.1251 -0.1913 -0.0943
 6005SOL    HW129648   4.289   0.512   5.472  0.1866  3.2115 -0.7660
 6005SOL    HW229649   4.273   0.528   5.616 -0.9371 -2.3873 -0.7704
 6006SOL     OW29650   2.786   3.592   4.505 -0.7383 -0.1313 -0.1796
 6006SOL    HW129651   2.775   3.620   4.596  0.1453  0.6113 -0.2980
 6006SOL    HW229652   2.702   3.550   4.493 -0.7091 -0.6216  1.3303
 6007SOL     OW29653   0.091   1.487  16.238 -0.8457 -0.8811  0.7704
 6007SOL    HW129654   0.046   1.526  16.163 -0.8127 -0.3382  1.0332
 6007SOL    HW229655   0.021   1.433  16.276 -1.5444 -0.5714 -0.0846
 6008SOL     OW29656   4.642   0.826  15.045 -0.2621  0.0367  0.4988
 6008SOL    HW129657   4.680   0.739  15.039 -0.5718  0.0496 -1.6651
 6008SOL    HW229658   4.666   0.871  14.964 -0.7168  0.3528  0.5350
 6009SOL     OW29659   1.895   1.478   6.115 -0.4200 -0.1160  0.2411
 6009SOL    HW129660   1.919   1.437   6.198 -1.0163  1.5181  1.2333
 6009SOL    HW229661   1.863   1.406   6.061 -0.4989 -0.5937  0.9327
 6010SOL     OW29662   2.022   3.874   4.516 -0.1686 -0.0286 -0.6407
 6010SOL    HW129663   1.968   3.828   4.580 -0.3786 -0.6568 -1.2748
 6010SOL    HW229664   1.969   3.954   4.520 -2.9833 -1.8668 -1.0957
 6011SOL     OW29665   1.614   3.043  15.394  0.5916 -0.0571  0.3920
 6011SOL    HW129666   1.698   3.052  15.351  0.8841 -0.3270  0.9092
 6011SOL    HW229667   1.614   2.947  15.388  1.0686 -0.0255 -0.0443
 6012SOL     OW29668   2.885   0.995  16.439  0.0174  0.7738  0.0920
 6012SOL    HW129669   2.821   0.963  16.504  0.1296 -1.0105 -0.6727
 6012SOL    HW229670   2.854   0.945  16.364 -1.7370  1.1955  0.5357
 6013SOL     OW29671   3.833   2.051   1.993  0.0907  0.5322  0.0863
 6013SOL    HW129672   3.748   2.095   1.998 -0.7383 -0.8879 -1.5004
 6013SOL    HW229673   3.804   1.967   2.028  0.8480 -0.3711 -1.4525
 6014SOL     OW29674   0.921   0.628   6.700 -0.8075 -0.3935 -0.1171
 6014SOL    HW129675   0.836   0.669   6.715  0.6573  0.9318  4.5766
 6014SOL    HW229676   0.963   0.668   6.776  0.0757  0.1868 -0.9028
 6015SOL     OW29677   3.342   1.945   8.384 -0.0076 -0.3875  0.6265
 6015SOL    HW129678   3.249   1.933   8.401 -0.3542  1.0123 -0.2597
 6015SOL    HW229679   3.338   2.040   8.369 -1.7428 -0.9757 -2.5558
 6016SOL     OW29680   1.439   4.576   3.938  0.1489  0.3409 -0.1023
 6016SOL    HW129681   1.457   4.490   3.900 -0.7480 -0.1993  0.6866
 6016SOL    HW229682   1.374   4.615   3.880  1.3450 -2.9602 -3.7318
 6017SOL     OW29683   0.390   2.279  10.394  1.0018 -0.0840  0.4501
 6017SOL    HW129684   0.384   2.183  10.395  1.6666 -0.1231  2.0889
 6017SOL    HW229685   0.407   2.294  10.487  0.1475 -0.3593  0.6518
 6018SOL     OW29686   4.148   0.876   4.703  0.0348 -0.3043  0.6032
 6018SOL    HW129687   4.224   0.870   4.645 -0.7283 -1.4410 -0.2872
 6018SOL    HW229688   4.146   0.970   4.722 -1.0266  0.2220 -2.1314
 6019SOL     OW29689   4.381   3.573   5.803  0.5560  0.4212  0.0588
 6019SOL    HW129690   4.396   3.538   5.891  0.4906 -1.2803 -0.6163
 6019SOL    HW229691   4.286   3.579   5.812  0.6584  1.2753  0.5669
 6020SOL     OW29692   0.101   0.862   5.115 -0.4688  0.1501  0.5428
 6020SOL    HW129693   0.048   0.842   5.038 -1.1247  1.7532  0.5722
 6020SOL    HW229694   0.149   0.937   5.081  0.3438 -0.1483  1.0286
 6021SOL     OW29695   3.611   1.080   4.132 -0.2637 -0.1123 -0.2151
 6021SOL    HW129696   3.563   1.155   4.166  3.2652  1.0293  2.2611
 6021SOL    HW229697   3.692   1.089   4.182 -1.3293  0.3796  1.4125
 6022SOL     OW29698   0.564   3.910  15.800 -0.3887 -0.2537  0.6444
 6022SOL    HW129699   0.540   3.902  15.708 -0.6333 -0.7441  0.7510
 6022SOL    HW229700   0.639   3.851  15.811  0.6784  1.2877  1.5760
 6023SOL     OW29701   2.904   0.859   5.610  0.0200  0.1252 -0.5319
 6023SOL    HW129702   2.943   0.847   5.524 -3.2205 -1.6486 -1.7575
 6023SOL    HW229703   2.812   0.850   5.584  0.2183  0.6843 -1.4277
 6024SOL     OW29704   1.260   4.012   7.740 -0.0600 -0.0573 -0.8761
 6024SOL    HW129705   1.350   4.006   7.770 -0.1021 -1.1005 -0.9425
 6024SOL    HW229706   1.250   4.107   7.740 -1.2256 -0.1789 -0.7016
 6025SOL     OW29707   1.501   0.386  13.884  0.2064 -0.2634 -0.1199
 6025SOL    HW129708   1.418   0.339  13.880 -0.0198  0.2274 -1.2006
 6025SOL    HW229709   1.486   0.435  13.965 -0.6706 -1.4948  0.4752
 6026SOL     OW29710   3.789   1.187   2.117 -0.3752  0.4832  0.0432
 6026SOL    HW129711   3.835   1.224   2.192  0.4380 -2.5148  1.0458
 6026SOL    HW229712   3.697   1.205   2.134 -0.1853  0.7964  0.7292
 6027SOL     OW29713   2.338   0.116  12.518  0.1913 -0.7689  0.0648
 6027SOL    HW129714   2.307   0.190  12.467  2.3597  0.6838  0.8104
 6027SOL    HW229715   2.271   0.050  12.499  0.4734 -0.7461 -1.0098
 6028SOL     OW29716   3.784   1.829   4.517  0.2193 -0.2130 -0.0543
 6028SOL    HW129717   3.839   1.759   4.481  2.1147  0.9580  0.5818
 6028SOL    HW229718   3.704   1.816   4.466  0.2937  1.3912 -0.5762
 6029SOL     OW29719   2.481   0.934   6.629 -1.1532 -0.0257  0.1871
 6029SOL    HW129720   2.524   0.854   6.658 -2.3709 -1.0461 -0.8350
 6029SOL    HW229721   2.552   0.984   6.589  0.9646 -1.6275  1.9851
 6030SOL     OW29722   0.857   1.327   5.764  0.0045  0.3658  0.5020
 6030SOL    HW129723   0.938   1.363   5.799  0.0954 -0.1511  0.8224
 6030SOL    HW229724   0.790   1.383   5.803  0.5113  1.2984  0.0272
 6031SOL     OW29725   4.216   2.736   8.020  0.3308 -0.2138 -0.5320
 6031SOL    HW129726   4.256   2.746   8.106 -0.9209  3.2850 -0.3634
 6031SOL    HW229727   4.121   2.742   8.034  0.6105  0.9356  0.8561
 6032SOL     OW29728   1.118   4.153  13.999 -0.2429  0.2188 -0.5142
 6032SOL    HW129729   1.057   4.218  13.966 -3.1153 -1.2826  1.8287
 6032SOL    HW229730   1.199   4.204  14.000  1.2401 -2.1455  1.4998
 6033SOL     OW29731   2.212   4.530   0.931 -0.5455  0.5801 -0.4399
 6033SOL    HW129732   2.240   4.605   0.983  0.0913  1.6192 -2.3011
 6033SOL    HW229733   2.193   4.464   0.998  1.2540  1.6371  1.1076
 6034SOL     OW29734   0.274   2.476   4.049 -0.1890 -0.5130  0.6794
 6034SOL    HW129735   0.194   2.517   4.079 -1.1116 -1.3858 -0.5716
 6034SOL    HW229736   0.269   2.398   4.105 -1.2543 -0.0175  1.2698
 6035SOL     OW29737   4.677   2.087   6.590 -0.1005 -0.4974 -0.0175
 6035SOL    HW129738   0.006   2.152   6.611 -0.5045  0.1982 -0.8822
 6035SOL    HW229739   4.632   2.074   6.673 -0.7735 -0.3302 -0.3490
 6036SOL     OW29740   3.220   1.649   2.816 -0.5600 -0.1304 -0.3641
 6036SOL    HW129741   3.216   1.725   2.758  1.6454  1.7170  1.9465
 6036SOL    HW229742   3.213   1.688   2.903  2.0431 -0.7345  0.0979
 6037SOL     OW29743   2.042   1.598   5.111 -0.1706  0.4738  0.0817
 6037SOL    HW129744   1.988   1.566   5.184 -0.0846 -1.7019 -0.8267
 6037SOL    HW229745   1.970   1.622   5.053  0.7048 -0.3743 -1.3432
 6038SOL     OW29746   0.099   2.164   2.230 -0.0137  0.1131 -0.1419
 6038SOL    HW129747   0.100   2.218   2.309 -0.4961  1.5620 -1.1371
 6038SOL    HW229748   0.104   2.078   2.271 -0.4443  0.0081 -0.3157
 6039SOL     OW29749   2.447   4.105   6.849  0.1769 -0.2890  0.4590
 6039SOL    HW129750   2.410   4.065   6.927  1.8022 -0.5728  1.0916
 6039SOL    HW229751   2.476   4.026   6.804 -0.6127  0.4015 -1.2722
 6040SOL     OW29752   4.366   4.137  10.057  0.0027  0.2581 -0.0055
 6040SOL    HW129753   4.335   4.070  10.118 -0.4190  0.7942  0.3722
 6040SOL    HW229754   4.323   4.217  10.088 -0.5777 -0.0585 -0.0043
 6041SOL     OW29755   1.898   4.594   8.392  0.6306  0.0653  0.0266
 6041SOL    HW129756   1.936   4.680   8.373 -0.7391  0.8028  0.5946
 6041SOL    HW229757   1.976   4.539   8.398  2.4419  2.3408 -2.4230
 6042SOL     OW29758   0.409   2.986   6.811  0.3008  0.2360  0.9075
 6042SOL    HW129759   0.415   2.982   6.716  0.8599  0.6492  0.9270
 6042SOL    HW229760   0.374   3.075   6.816 -0.3056  0.0960 -0.7190
 6043SOL     OW29761   4.522   2.756  12.545  0.3439  0.0040  0.3859
 6043SOL    HW129762   4.593   2.809  12.508 -1.5695  0.7775 -2.2071
 6043SOL    HW229763   4.459   2.826  12.560 -0.2233 -0.2165 -0.9603
 6044SOL     OW29764   1.719   0.578   6.380  0.2733 -0.5064  0.0087
 6044SOL    HW129765   1.694   0.668   6.361 -1.5667 -0.5386  2.3191
 6044SOL    HW229766   1.750   0.571   6.471  2.2705  1.3496 -0.5289
 6045SOL     OW29767   1.725   1.744   0.606 -0.0188  0.2221 -0.2771
 6045SOL    HW129768   1.704   1.767   0.697  0.8324  0.6684 -0.1979
 6045SOL    HW229769   1.778   1.820   0.582 -2.0709  1.5748 -0.5344
 6046SOL     OW29770   2.365   2.692   6.565 -0.5904 -0.4263  0.4702
 6046SOL    HW129771   2.333   2.782   6.556 -2.3555 -1.0960  0.0523
 6046SOL    HW229772   2.353   2.655   6.478 -0.9548 -0.3561  0.4925
 6047SOL     OW29773   0.681   3.354   1.353 -0.0162  0.2715 -0.1183
 6047SOL    HW129774   0.750   3.299   1.390 -2.0860 -0.0281  3.2518
 6047SOL    HW229775   0.604   3.305   1.381  0.7596 -1.2290 -0.6088
 6048SOL     OW29776   2.412   2.915   6.301 -0.1098  0.0611 -0.2221
 6048SOL    HW129777   2.423   2.820   6.291 -1.4220 -0.1365  0.2949
 6048SOL    HW229778   2.474   2.939   6.232 -1.4630 -0.6119 -1.6858
 6049SOL     OW29779   3.427   2.210  11.439 -0.0245  0.1242  0.4412
 6049SOL    HW129780   3.505   2.196  11.493 -0.1452  1.5661  0.9949
 6049SOL    HW229781   3.473   2.240  11.361  0.2836 -1.3159  0.0810
 6050SOL     OW29782   0.324   0.357   9.749  0.5726  0.6453 -0.2259
 6050SOL    HW129783   0.230   0.346   9.766  0.5263  0.1680 -0.7902
 6050SOL    HW229784   0.324   0.452   9.761  2.3017  0.5295  0.7560
 6051SOL     OW29785   0.093   1.927  12.785  0.1196  0.3614 -0.0565
 6051SOL    HW129786   0.001   1.902  12.793 -0.1325  0.4727 -2.3983
 6051SOL    HW229787   0.076   2.013  12.744 -0.4637  0.7858  1.0824
 6052SOL     OW29788   0.185   0.708  10.473  0.5317 -0.1323  0.3818
 6052SOL    HW129789   0.182   0.647  10.546  0.2073  1.8847  2.0470
 6052SOL    HW229790   0.245   0.771  10.511  0.4556 -0.6185  1.3048
 6053SOL     OW29791   3.765   3.799   6.525 -0.1618  0.0636 -0.1225
 6053SOL    HW129792   3.783   3.706   6.538 -3.2528 -0.4349  0.6952
 6053SOL    HW229793   3.707   3.791   6.448  0.3477  0.6706 -0.5632
 6054SOL     OW29794   3.233   3.977   8.395 -0.0201  0.3671 -0.1284
 6054SOL    HW129795   3.259   4.048   8.453  0.2604  0.0369  0.1533
 6054SOL    HW229796   3.227   4.010   8.305  1.1002 -2.1873 -1.1273
 6055SOL     OW29797   1.177   0.073   0.423 -0.3110  0.4076  0.1330
 6055SOL    HW129798   1.098   0.054   0.374 -0.6740  2.1568  0.0425
 6055SOL    HW229799   1.168   0.168   0.420  0.4320  0.4138 -1.9365
 6056SOL     OW29800   3.203   1.259   7.994  0.2116 -0.2366  0.2109
 6056SOL    HW129801   3.226   1.336   8.045  0.3496  0.0888 -0.3374
 6056SOL    HW229802   3.111   1.250   8.018 -0.3484  1.1505 -1.4220
 6057SOL     OW29803   1.202   2.722   9.458 -0.0910  0.1892 -0.0476
 6057SOL    HW129804   1.224   2.717   9.365 -0.4732  2.1008 -0.2439
 6057SOL    HW229805   1.205   2.632   9.490 -0.2449 -0.5824 -2.2432
 6058SOL     OW29806   0.090   4.353   6.916  0.4061 -0.6832  0.4825
 6058SOL    HW129807   0.093   4.268   6.871  1.7985 -0.7117  0.6240
 6058SOL    HW229808   0.183   4.372   6.904 -0.7364  2.3461 -3.6917
 6059SOL     OW29809   0.307   4.278   5.894  0.7925  0.4913  0.3347
 6059SOL    HW129810   0.355   4.205   5.855 -4.0560 -2.0733 -0.7525
 6059SOL    HW229811   0.349   4.352   5.850  0.2204 -1.2357 -3.0702
 6060SOL     OW29812   1.924   1.673   7.178  0.2351 -0.2307  0.1962
 6060SOL    HW129813   1.952   1.591   7.218  0.2825 -0.7276 -0.8700
 6060SOL    HW229814   1.861   1.696   7.246 -0.2871  2.5045 -1.1998
 6061SOL     OW29815   1.876   0.135   2.186  0.5735 -0.0384 -0.1544
 6061SOL    HW129816   1.838   0.213   2.227  2.2133  0.2849  0.7409
 6061SOL    HW229817   1.967   0.162   2.199  0.7818  0.0776 -1.8010
 6062SOL     OW29818   0.186   1.726   3.417 -0.7668 -0.0087  0.3872
 6062SOL    HW129819   0.228   1.758   3.497 -1.6360  0.8708  0.4889
 6062SOL    HW229820   0.224   1.779   3.347  1.9222 -1.9255  0.3666
 6063SOL     OW29821   4.646   1.484   5.591 -0.1813  0.7419  0.2814
 6063SOL    HW129822   4.587   1.558   5.605  1.2646  2.0091 -0.2733
 6063SOL    HW229823   4.614   1.445   5.510 -0.0467  2.2670 -0.5121
 6064SOL     OW29824   2.992   1.319   1.156 -0.1974  0.4821  0.2210
 6064SOL    HW129825   2.910   1.290   1.116 -0.7274 -0.1668  1.7766
 6064SOL    HW229826   3.055   1.298   1.087  0.0756 -0.6591  0.8274
 6065SOL     OW29827   1.898   4.669   0.534 -0.3606  0.4184  0.5537
 6065SOL    HW129828   1.909   4.577   0.561 -0.7291 -0.2467 -1.5523
 6065SOL    HW229829   1.856   4.670   0.448  1.2297  1.4116 -0.1879
 6066SOL     OW29830   3.785   0.874   1.502  0.0188 -0.4702  0.2180
 6066SOL    HW129831   3.764   0.958   1.461 -1.0476 -0.1834  1.3810
 6066SOL    HW229832   3.855   0.897   1.564  0.2708  0.0592 -0.2651
 6067SOL     OW29833   4.239   1.696  15.445 -0.1264  0.0756  0.0785
 6067SOL    HW129834   4.154   1.653  15.437  0.1947 -1.0057  2.4964
 6067SOL    HW229835   4.296   1.627  15.478 -0.4289 -0.4945 -0.5971
 6068SOL     OW29836   3.966   2.864   5.564 -0.0988 -0.3321  0.8982
 6068SOL    HW129837   3.916   2.839   5.487  1.0809  1.0119 -0.3127
 6068SOL    HW229838   3.937   2.804   5.633  1.9348 -0.2244  1.8582
 6069SOL     OW29839   2.266   2.929   8.517 -0.0511  0.4090  0.4049
 6069SOL    HW129840   2.274   3.003   8.578  0.2837  0.5169  0.2305
 6069SOL    HW229841   2.295   2.972   8.436 -2.2318 -0.0677 -0.6349
 6070SOL     OW29842   2.911   4.398   5.231  0.1291 -0.1715  1.0561
 6070SOL    HW129843   3.001   4.386   5.201 -0.6262 -2.7493 -0.2079
 6070SOL    HW229844   2.857   4.365   5.159  1.4013 -1.5759  0.7492
 6071SOL     OW29845   1.966   3.530  15.050 -0.0246  0.4300 -0.7244
 6071SOL    HW129846   1.992   3.613  15.090 -0.1723  1.2406 -2.3138
 6071SOL    HW229847   1.896   3.563  14.993 -1.8361 -0.4587  0.9810
 6072SOL     OW29848   0.206   0.714  14.241  0.9278 -0.9023  0.5483
 6072SOL    HW129849   0.132   0.739  14.295 -0.3800 -0.8198 -1.2540
 6072SOL    HW229850   0.168   0.699  14.154  0.3101 -1.2946  0.8930
 6073SOL     OW29851   4.566   2.860   5.859  0.0031 -0.2257  0.1798
 6073SOL    HW129852   4.580   2.765   5.859 -2.3709 -0.5806  0.0367
 6073SOL    HW229853   4.627   2.884   5.788 -1.2925  0.4583 -0.7000
 6074SOL     OW29854   0.486   3.312   9.351  0.5785 -0.3378  0.5944
 6074SOL    HW129855   0.457   3.221   9.342  0.2615 -0.2350  0.5467
 6074SOL    HW229856   0.432   3.322   9.429  1.8968 -1.3663  1.6281
 6075SOL     OW29857   3.550   1.781   8.395  0.0279 -0.3258  0.6276
 6075SOL    HW129858   3.468   1.830   8.396  1.5087  2.1241  1.3477
 6075SOL    HW229859   3.616   1.851   8.390  0.1677 -0.7894 -3.9891
 6076SOL     OW29860   4.351   0.728  16.631 -0.8227 -0.5491 -0.1238
 6076SOL    HW129861   4.356   0.756  16.539  0.1983  0.0851  0.1163
 6076SOL    HW229862   4.441   0.707  16.656 -0.9066 -0.7780 -0.0104
 6077SOL     OW29863   3.799   2.611   0.314  0.2771  0.1356  0.0847
 6077SOL    HW129864   3.847   2.626   0.232 -0.9188 -0.1708 -0.6727
 6077SOL    HW229865   3.719   2.661   0.298 -0.8492 -2.1910 -1.5465
 6078SOL     OW29866   0.948   0.023   0.305  0.3070  0.1892 -0.1530
 6078SOL    HW129867   0.962   4.669   0.281 -2.3281  0.3750 -2.4626
 6078SOL    HW229868   0.857   0.031   0.275  0.8142 -1.5875 -2.2135
 6079SOL     OW29869   0.401   0.128   5.364 -0.0578  0.0240 -0.2465
 6079SOL    HW129870   0.315   0.155   5.395  0.4683  1.3393  0.0528
 6079SOL    HW229871   0.402   0.140   5.269  0.7823 -0.5706 -0.3127
 6080SOL     OW29872   2.237   1.026  11.670  0.1423  0.3229 -0.1004
 6080SOL    HW129873   2.275   1.091  11.611 -1.8688  3.1142  1.6329
 6080SOL    HW229874   2.154   1.013  11.624  0.7040 -2.2946 -0.3528
 6081SOL     OW29875   1.561   0.702   7.668  0.4667 -0.5906  0.6658
 6081SOL    HW129876   1.466   0.711   7.660  0.6726  1.6186  0.7301
 6081SOL    HW229877   1.568   0.607   7.675 -0.0855 -0.5709  1.3940
 6082SOL     OW29878   1.239   2.873   2.453 -0.8321 -0.4159 -0.2863
 6082SOL    HW129879   1.193   2.956   2.452 -0.6464 -0.3102  0.2498
 6082SOL    HW229880   1.327   2.909   2.466 -1.0856  0.2845 -0.5361
 6083SOL     OW29881   3.237   0.629   2.712 -0.5092  0.2061  0.3370
 6083SOL    HW129882   3.300   0.559   2.731 -0.3998  0.0666 -0.5180
 6083SOL    HW229883   3.245   0.678   2.793  0.6006  1.5056 -0.5435
 6084SOL     OW29884   1.441   2.248   4.617  0.8560 -0.6440  0.1265
 6084SOL    HW129885   1.534   2.226   4.615  1.4411  1.9572 -1.2540
 6084SOL    HW229886   1.430   2.279   4.527  0.2160 -2.3973 -0.3962
 6085SOL     OW29887   3.049   1.981   5.050  0.3698 -0.2139 -0.2811
 6085SOL    HW129888   3.141   1.955   5.045  0.0714 -1.3592  0.1203
 6085SOL    HW229889   3.064   2.075   5.063  0.4961 -0.0013 -1.9636
 6086SOL     OW29890   3.611   0.239   0.617  0.2554 -0.2834 -0.3630
 6086SOL    HW129891   3.692   0.286   0.635  0.7575 -1.0335 -0.6761
 6086SOL    HW229892   3.576   0.301   0.553  2.2929  0.8784 -0.3362
 6087SOL     OW29893   3.847   2.586   4.023  0.2355 -0.0752  0.0400
 6087SOL    HW129894   3.857   2.642   4.100 -2.1211  1.2912 -0.6665
 6087SOL    HW229895   3.879   2.505   4.063  2.1267  0.1838 -0.9300
 6088SOL     OW29896   4.297   0.491  12.186  0.1177 -0.0395 -0.2701
 6088SOL    HW129897   4.355   0.416  12.171 -2.2797 -2.0589  0.5709
 6088SOL    HW229898   4.214   0.451  12.213  1.2960 -1.0051  1.9159
 6089SOL     OW29899   2.955   0.745   7.386 -0.6167 -0.5733  0.4303
 6089SOL    HW129900   2.956   0.810   7.456 -1.0779 -2.2171  1.9657
 6089SOL    HW229901   3.049   0.751   7.368 -0.5817 -2.2252  0.0373
 6090SOL     OW29902   2.827   0.555   9.316 -0.3650  0.0986  0.1387
 6090SOL    HW129903   2.853   0.492   9.383 -0.0315 -0.6128 -0.6495
 6090SOL    HW229904   2.898   0.619   9.318  0.6096 -0.8929 -2.4763
 6091SOL     OW29905   2.033   4.677   7.961 -0.8041  0.2097  0.3978
 6091SOL    HW129906   2.003   4.601   8.010  1.4361  0.9712  2.9000
 6091SOL    HW229907   2.113   4.700   8.008 -0.7750  0.3099  0.2985
 6092SOL     OW29908   2.243   4.512  13.188  0.0021 -0.3499 -0.2938
 6092SOL    HW129909   2.261   4.445  13.123 -1.7718 -0.4008 -0.7108
 6092SOL    HW229910   2.327   4.548  13.217 -0.1782  1.0943 -1.5592
 6093SOL     OW29911   0.335   1.252   8.614  1.0398  0.0624 -0.4190
 6093SOL    HW129912   0.372   1.178   8.662 -0.4008 -0.8804 -0.7453
 6093SOL    HW229913   0.315   1.298   8.695  0.1302  3.1474 -2.3968
 6094SOL     OW29914   2.602   3.553  11.824 -0.1601 -0.2360  1.0080
 6094SOL    HW129915   2.512   3.540  11.854  0.0672 -1.0187  1.3417
 6094SOL    HW229916   2.577   3.550  11.732  1.3885  2.1060  0.5166
 6095SOL     OW29917   3.830   3.709  12.984  0.4095  0.2948 -0.2793
 6095SOL    HW129918   3.841   3.730  12.891 -2.0989 -1.9244 -1.0723
 6095SOL    HW229919   3.813   3.615  12.980  0.7857  0.2652 -1.1826
 6096SOL     OW29920   1.505   1.562   9.598 -0.1044  0.1936  0.0109
 6096SOL    HW129921   1.557   1.641   9.582 -0.8630  0.7156  0.1141
 6096SOL    HW229922   1.571   1.495   9.581 -1.0291 -1.2649  2.1011
 6097SOL     OW29923   2.466   3.789  17.162 -0.1972 -0.1499  0.5338
 6097SOL    HW129924   2.519   3.868  17.171 -0.2724 -0.0110 -0.2452
 6097SOL    HW229925   2.494   3.750  17.245  2.1642  3.2387  1.3433
 6098SOL     OW29926   1.201   0.365   5.984  0.2532  0.4650 -0.2189
 6098SOL    HW129927   1.191   0.269   5.988 -2.6055  0.7053 -1.9546
 6098SOL    HW229928   1.126   0.403   6.029 -0.4871 -0.1164 -0.9443
 6099SOL     OW29929   0.915   4.347  12.705  0.0201  0.3351  0.1735
 6099SOL    HW129930   0.973   4.342  12.629 -1.3122  1.1386 -0.8961
 6099SOL    HW229931   0.836   4.313  12.662  1.0377 -3.8567  1.7398
 6100SOL     OW29932   3.405   2.472   8.380  0.3225  0.1271  0.2790
 6100SOL    HW129933   3.491   2.443   8.409  0.4501  1.0543  0.8158
 6100SOL    HW229934   3.359   2.464   8.463 -1.9645 -3.3726 -1.3241
 6101SOL     OW29935   2.451   3.957   3.112  0.5321  0.2284  0.2953
 6101SOL    HW129936   2.444   4.002   3.027 -0.6130 -0.6981 -0.1027
 6101SOL    HW229937   2.359   3.931   3.115  0.0984  1.7037  0.0171
 6102SOL     OW29938   1.478   4.730   4.151  0.0880 -0.5591  0.6424
 6102SOL    HW129939   1.460   4.664   4.084 -0.8558  1.3553 -0.9843
 6102SOL    HW229940   1.515   0.068   4.106 -0.8936 -0.2561  0.3483
 6103SOL     OW29941   3.780   4.242   4.179  0.1849  0.0622 -0.2998
 6103SOL    HW129942   3.874   4.248   4.164  0.4665  2.2409  2.4106
 6103SOL    HW229943   3.769   4.250   4.273 -1.4449 -1.4426 -0.3502
 6104SOL     OW29944   3.743   4.654  13.284  0.0613 -0.3130  0.7426
 6104SOL    HW129945   3.792   4.659  13.203 -0.5043 -1.6755  0.3204
 6104SOL    HW229946   3.652   4.670  13.259  0.4467 -1.6087 -1.4540
 6105SOL     OW29947   1.790   4.507   9.256 -0.6594 -0.0646  0.1217
 6105SOL    HW129948   1.730   4.549   9.318 -1.0369 -0.0875 -0.2351
 6105SOL    HW229949   1.807   4.589   9.209 -1.0359  0.2697  0.5585
 6106SOL     OW29950   3.219   3.052   0.197 -0.1478  0.1161  0.1707
 6106SOL    HW129951   3.144   3.045   0.139 -1.9432 -1.2645  2.6408
 6106SOL    HW229952   3.175   3.110   0.259 -0.9340  0.2072 -0.4881
 6107SOL     OW29953   0.169   1.374   8.822  0.0608  0.3517  0.6862
 6107SOL    HW129954   0.086   1.383   8.775  0.3010  1.9147  0.5586
 6107SOL    HW229955   0.151   1.430   8.898  0.2173  0.5876  0.5456
 6108SOL     OW29956   2.855   3.550   9.496 -0.6905  0.3020  0.1018
 6108SOL    HW129957   2.938   3.599   9.497 -0.3842 -0.2827  2.2419
 6108SOL    HW229958   2.882   3.476   9.442 -1.0547 -0.5495  1.0989
 6109SOL     OW29959   2.484   4.608   6.921  0.1021  0.0194  0.5898
 6109SOL    HW129960   2.413   4.579   6.864 -0.2164 -0.5690  1.2793
 6109SOL    HW229961   2.516   4.524   6.954  0.3846  0.5871  1.7483
 6110SOL     OW29962   3.892   3.481  12.106  0.7245  0.0077  0.2403
 6110SOL    HW129963   3.829   3.525  12.163 -0.1813  1.3073 -1.7707
 6110SOL    HW229964   3.940   3.428  12.170  3.2384  1.0088 -0.8091
 6111SOL     OW29965   2.184   4.581   3.814 -0.3747  0.3925 -0.6472
 6111SOL    HW129966   2.212   4.559   3.725  0.1250  1.8035 -0.8440
 6111SOL    HW229967   2.095   4.554   3.793 -0.4361 -0.5914  0.8859
 6112SOL     OW29968   4.106   1.107   5.731 -0.3658  0.3951 -0.3732
 6112SOL    HW129969   4.094   1.052   5.808  0.5463 -1.1367 -1.3080
 6112SOL    HW229970   4.139   1.039   5.672  1.6522 -0.6774  2.0070
 6113SOL     OW29971   1.232   4.522   3.164  0.0584 -0.5416  0.0741
 6113SOL    HW129972   1.208   4.456   3.099 -3.2005  1.0772 -0.3722
 6113SOL    HW229973   1.155   4.517   3.221 -1.5266  2.4571 -1.8464
 6114SOL     OW29974   3.070   1.048   5.283 -0.0794 -0.1626 -0.6737
 6114SOL    HW129975   3.023   0.969   5.309 -0.0784 -0.3861 -1.3630
 6114SOL    HW229976   3.094   1.080   5.370 -0.4283  0.2060 -0.7126
 6115SOL     OW29977   1.500   3.062  14.876 -0.6849  0.6081 -0.8249
 6115SOL    HW129978   1.511   2.977  14.920 -1.1377 -0.4771 -2.8287
 6115SOL    HW229979   1.532   3.127  14.938 -0.3990 -0.6687  0.3763
 6116SOL     OW29980   2.726   0.187   4.995 -0.7723  0.2735 -0.1307
 6116SOL    HW129981   2.693   0.104   4.961 -3.0304  0.1159  2.3995
 6116SOL    HW229982   2.645   0.238   4.985 -1.0494 -0.5366 -1.9505
 6117SOL     OW29983   4.709   4.120   1.634 -0.3991  0.0711  0.6207
 6117SOL    HW129984   4.708   4.026   1.652  1.9078 -0.1324 -0.2213
 6117SOL    HW229985   4.616   4.137   1.643 -0.0625  2.5987 -0.5316
 6118SOL     OW29986   3.741   1.833  12.242 -0.3986  0.0857  0.1144
 6118SOL    HW129987   3.721   1.857  12.333  1.3500  0.4155  0.4196
 6118SOL    HW229988   3.829   1.795  12.248 -0.4159 -0.6026 -4.2877
 6119SOL     OW29989   4.177   1.770  14.532 -0.0494 -0.3318  0.5716
 6119SOL    HW129990   4.197   1.677  14.546 -1.7379 -0.9128 -0.8556
 6119SOL    HW229991   4.216   1.787  14.447 -0.7226  1.8584  0.7094
 6120SOL     OW29992   3.431   0.350   1.727 -0.3102 -0.0069 -0.6449
 6120SOL    HW129993   3.478   0.300   1.660  1.0439 -0.9590  1.0428
 6120SOL    HW229994   3.495   0.407   1.769 -0.8405  0.8233 -0.9678
 6121SOL     OW29995   0.833   3.499   3.938 -0.3233 -0.2033  0.3020
 6121SOL    HW129996   0.866   3.518   4.025  1.2409 -0.0297 -0.3238
 6121SOL    HW229997   0.823   3.587   3.900 -1.3893 -0.2874  0.4010
 6122SOL     OW29998   1.779   3.012   5.866 -0.7063 -0.4645 -0.3337
 6122SOL    HW129999   1.778   3.041   5.775 -2.0056  1.4064  0.2660
 6122SOL    HW230000   1.688   3.036   5.883 -0.1432  0.5190  1.3068
 6123SOL     OW30001   1.016   0.312   5.145 -0.1952  0.0233 -0.1438
 6123SOL    HW130002   0.956   0.239   5.127 -2.0119  0.8002  2.7393
 6123SOL    HW230003   1.074   0.267   5.206  0.4405 -0.6786 -1.2791
 6124SOL     OW30004   0.143   3.842   7.717  0.1843  0.0234  0.1967
 6124SOL    HW130005   0.121   3.795   7.637 -0.7282  0.4302  0.2095
 6124SOL    HW230006   0.199   3.913   7.688  0.8320 -0.0644  1.2388
 6125SOL     OW30007   0.131   3.211   8.000  0.0841  0.2286  0.0878
 6125SOL    HW130008   0.128   3.261   8.081  2.8555  0.7205 -0.1306
 6125SOL    HW230009   0.221   3.228   7.973  0.0490  1.1212  0.5391
 6126SOL     OW30010   0.477   2.118   1.707  0.0520 -0.4188 -0.1860
 6126SOL    HW130011   0.485   2.192   1.767 -1.2825 -1.4094  1.1964
 6126SOL    HW230012   0.542   2.141   1.640  1.7267  1.2644  2.0161
 6127SOL     OW30013   1.775   1.203   8.615  0.5654 -0.5330 -0.6028
 6127SOL    HW130014   1.788   1.134   8.680 -1.5718  0.2809  0.6868
 6127SOL    HW230015   1.683   1.224   8.629  1.1679  1.8370 -0.2839
 6128SOL     OW30016   1.447   0.582   4.745  0.4502  0.6138 -0.4523
 6128SOL    HW130017   1.432   0.672   4.774  1.3302  0.6108  0.0043
 6128SOL    HW230018   1.518   0.599   4.684  0.6611 -4.2209 -1.5519
 6129SOL     OW30019   0.476   0.126  11.158 -0.1169  0.0225 -0.4279
 6129SOL    HW130020   0.424   0.121  11.238 -0.2236 -0.4861 -0.5281
 6129SOL    HW230021   0.473   0.221  11.145  1.0349 -0.0070 -0.8965
 6130SOL     OW30022   3.361   4.580   3.882 -0.0826  0.7984  0.0394
 6130SOL    HW130023   3.402   4.653   3.837  2.1013 -0.8962 -0.7109
 6130SOL    HW230024   3.396   4.500   3.842 -0.8101  0.7211 -0.4516
 6131SOL     OW30025   2.596   0.729   8.331  0.6363 -0.3886  0.0642
 6131SOL    HW130026   2.578   0.681   8.412  1.6256 -0.5372  0.1884
 6131SOL    HW230027   2.691   0.718   8.327  0.4793 -1.6931 -0.1286
 6132SOL     OW30028   0.968   4.400  16.822  0.6595 -0.2034  0.4013
 6132SOL    HW130029   0.977   4.305  16.834  0.9279  0.0315  2.0413
 6132SOL    HW230030   1.044   4.434  16.869  0.3510 -1.8582  2.1112
 6133SOL     OW30031   3.491   2.160   1.743  0.0888 -0.0204  0.2424
 6133SOL    HW130032   3.553   2.095   1.708 -2.0397 -2.3010  0.6778
 6133SOL    HW230033   3.418   2.118   1.788  1.4380 -1.5832  0.9955
 6134SOL     OW30034   3.849   2.998  10.053  0.3565 -0.1354 -0.0288
 6134SOL    HW130035   3.843   3.085  10.012 -0.5454  0.2631  0.9604
 6134SOL    HW230036   3.942   2.978  10.061  0.2074 -0.9233 -0.2871
 6135SOL     OW30037   3.993   2.290  10.134  0.1899  0.2997  0.5665
 6135SOL    HW130038   4.042   2.313  10.055 -0.6649 -0.5538 -0.2035
 6135SOL    HW230039   4.006   2.365  10.192  1.1709 -0.5779  1.4875
 6136SOL     OW30040   1.560   0.339  15.519 -1.1569 -0.6049  0.1940
 6136SOL    HW130041   1.540   0.265  15.461 -0.6735  0.6925 -1.6025
 6136SOL    HW230042   1.475   0.372  15.548 -0.0433  0.7661  1.8487
 6137SOL     OW30043   0.455   1.355  11.807  0.3165 -0.0615  0.0545
 6137SOL    HW130044   0.429   1.342  11.716 -1.2686  0.8964  0.3677
 6137SOL    HW230045   0.548   1.356  11.784  0.4937  0.6803  0.8107
 6138SOL     OW30046   2.540   2.064   2.841  0.2400  0.0231 -0.1612
 6138SOL    HW130047   2.582   1.979   2.855 -1.8104 -0.7675  1.1305
 6138SOL    HW230048   2.564   2.117   2.916 -0.9230  1.8387 -1.0796
 6139SOL     OW30049   4.245   3.533  17.435 -0.0515 -0.1709  0.1874
 6139SOL    HW130050   4.167   3.479  17.426 -1.9040  2.1449  2.3103
 6139SOL    HW230051   4.324   3.479  17.426  0.4798  0.5003  0.8002
 6140SOL     OW30052   0.867   3.582   9.453  0.4623  0.0826 -0.0660
 6140SOL    HW130053   0.940   3.560   9.511  1.0660 -0.5970 -1.0977
 6140SOL    HW230054   0.916   3.644   9.399 -0.6577 -1.1044 -2.4569
 6141SOL     OW30055   4.433   2.087  16.255  0.3726  0.1209  0.0044
 6141SOL    HW130056   4.410   2.179  16.267  0.8636  0.4972 -1.8509
 6141SOL    HW230057   4.379   2.072  16.177 -1.8847 -0.0989  1.6238
 6142SOL     OW30058   1.186   0.565   8.770  0.2191  0.4610  0.0860
 6142SOL    HW130059   1.165   0.569   8.863 -3.0352  3.0092 -0.7292
 6142SOL    HW230060   1.102   0.587   8.729  0.0941  1.1086  0.6816
 6143SOL     OW30061   4.522   4.011   6.005  0.0896  0.3092 -0.6292
 6143SOL    HW130062   4.603   3.976   5.967 -0.0054  0.0501 -0.5902
 6143SOL    HW230063   4.456   3.947   5.977 -1.9044  2.1443 -0.0928
 6144SOL     OW30064   2.182   1.415  10.298  0.1301 -0.1613 -0.7054
 6144SOL    HW130065   2.154   1.409  10.389 -1.2277 -0.1252 -1.1123
 6144SOL    HW230066   2.158   1.505  10.278 -0.4897  0.6196  3.6095
 6145SOL     OW30067   3.509   2.704   2.048 -0.2311  0.2203 -0.4437
 6145SOL    HW130068   3.424   2.660   2.051 -0.3007  0.3575 -0.3894
 6145SOL    HW230069   3.502   2.750   1.964 -0.1875 -1.4113 -1.3352
 6146SOL     OW30070   4.055   1.705   8.079  0.0050  0.0324 -0.1813
 6146SOL    HW130071   4.104   1.638   8.126  1.0939  1.3558  0.5610
 6146SOL    HW230072   4.137   1.750   8.059  0.3191 -1.1935 -1.6475
 6147SOL     OW30073   2.231   1.178   9.626 -0.2563  0.1857  0.2643
 6147SOL    HW130074   2.212   1.097   9.672 -0.3274 -0.0105 -0.1111
 6147SOL    HW230075   2.324   1.183   9.649 -0.9178  2.2105  2.4393
 6148SOL     OW30076   3.354   0.031   0.588  0.1126  0.1641  0.6586
 6148SOL    HW130077   3.411   0.019   0.512  0.9322  0.6699  1.1954
 6148SOL    HW230078   3.420   0.051   0.654  2.5850  1.3727 -2.1452
 6149SOL     OW30079   3.740   1.296   4.864  0.4300  0.1388  0.1386
 6149SOL    HW130080   3.705   1.266   4.780 -1.5884  0.8359  0.7319
 6149SOL    HW230081   3.659   1.278   4.912  0.8550  0.5728  1.0228
 6150SOL     OW30082   4.560   1.408   9.716 -0.5140 -0.7243  0.3751
 6150SOL    HW130083   4.490   1.458   9.674  1.2034  0.9331 -0.5033
 6150SOL    HW230084   4.615   1.484   9.734 -1.3434  0.6501 -2.7149
 6151SOL     OW30085   2.618   1.193  14.981 -0.3787 -0.1797  0.0374
 6151SOL    HW130086   2.676   1.204  15.056 -1.0913 -0.3131  0.6065
 6151SOL    HW230087   2.528   1.214  15.005 -0.9860 -2.6413 -0.1288
 6152SOL     OW30088   3.791   1.059  13.779 -0.4232  0.0279 -0.0285
 6152SOL    HW130089   3.885   1.074  13.777 -0.8261  2.5005 -0.6873
 6152SOL    HW230090   3.778   1.151  13.804 -1.0343 -0.7209  2.4367
 6153SOL     OW30091   2.822   3.871   5.587 -0.4954  0.8153  0.2789
 6153SOL    HW130092   2.802   3.864   5.493 -0.4260 -1.3720  0.4337
 6153SOL    HW230093   2.798   3.962   5.604 -0.4588  1.0694 -0.9915
 6154SOL     OW30094   0.405   0.956   6.285 -0.0357  0.3172  0.2319
 6154SOL    HW130095   0.500   0.947   6.282 -0.1447 -0.1443 -1.4944
 6154SOL    HW230096   0.398   0.901   6.363 -0.7723 -0.7788 -0.6260
 6155SOL     OW30097   3.262   0.926   3.404  0.3666 -0.3599 -0.3448
 6155SOL    HW130098   3.301   0.993   3.347 -0.1834  0.6170  0.4290
 6155SOL    HW230099   3.259   0.966   3.491  1.3643  0.7191 -0.8125
 6156SOL     OW30100   3.534   3.563   4.375  0.2775  0.7248  0.0859
 6156SOL    HW130101   3.467   3.619   4.415 -3.1445 -1.8192 -2.0703
 6156SOL    HW230102   3.491   3.480   4.398  0.2382  1.1856  1.7085
 6157SOL     OW30103   3.025   1.828   8.578 -0.7184 -0.2040 -0.4868
 6157SOL    HW130104   2.931   1.844   8.587 -0.3864  2.0907 -0.9960
 6157SOL    HW230105   3.041   1.884   8.501  1.0302  1.1080  0.8386
 6158SOL     OW30106   2.021   1.303   8.501 -0.1269  0.4080  0.2741
 6158SOL    HW130107   1.937   1.276   8.537  1.1460 -0.4108  2.6439
 6158SOL    HW230108   2.081   1.304   8.576 -1.7429  1.0398  1.5727
 6159SOL     OW30109   1.174   3.660   3.990  0.0657  0.1485 -0.1171
 6159SOL    HW130110   1.214   3.617   4.065 -0.6104 -0.2403  0.0266
 6159SOL    HW230111   1.087   3.679   4.025  0.5787  2.1433  0.0652
 6160SOL     OW30112   4.265   3.632   7.742  0.0541 -0.0901  0.0026
 6160SOL    HW130113   4.207   3.661   7.812  0.3998  2.4529 -0.7516
 6160SOL    HW230114   4.256   3.712   7.690  0.2535 -0.1836 -0.1749
 6161SOL     OW30115   1.614   3.319   6.821 -0.2905  0.5085 -0.2052
 6161SOL    HW130116   1.635   3.356   6.735 -0.5291 -0.6611 -0.7673
 6161SOL    HW230117   1.589   3.404   6.857 -3.1105 -0.0284 -0.8789
 6162SOL     OW30118   4.251   3.716   4.017 -0.7023  0.0067 -0.3975
 6162SOL    HW130119   4.271   3.670   3.935  2.1870 -0.6742  0.6651
 6162SOL    HW230120   4.222   3.639   4.067  1.1071  0.4771  1.3934
 6163SOL     OW30121   0.025   0.984   7.748 -0.3854  0.2126 -0.9291
 6163SOL    HW130122   4.671   0.998   7.725 -0.9382  0.6430  1.5400
 6163SOL    HW230123   0.037   0.893   7.721 -2.9909 -0.9445  1.8915
 6164SOL     OW30124   4.673   0.623   3.437  0.4798  0.1699 -0.6457
 6164SOL    HW130125   4.726   0.550   3.468 -0.9217  0.3129  2.0895
 6164SOL    HW230126   0.011   0.672   3.404  2.3363 -2.9366 -1.0143
 6165SOL     OW30127   3.949   1.461   2.011 -0.0980  0.2440  0.0302
 6165SOL    HW130128   4.019   1.527   2.010  0.2083 -0.0613  1.3869
 6165SOL    HW230129   3.996   1.380   2.030 -0.9709 -0.1779  0.3918
 6166SOL     OW30130   3.481   0.520   9.293  0.0891 -0.0068  0.4874
 6166SOL    HW130131   3.574   0.513   9.270 -0.4058  0.1117 -1.4939
 6166SOL    HW230132   3.462   0.428   9.313 -1.9869  0.8364  2.3679
 6167SOL     OW30133   0.503   1.741   6.268 -0.4825 -0.0417  0.0677
 6167SOL    HW130134   0.549   1.740   6.184 -1.6045  0.4982 -0.5466
 6167SOL    HW230135   0.416   1.708   6.246 -0.4481  0.0647 -0.2376
 6168SOL     OW30136   4.209   2.797  14.014 -0.1060 -0.6111  0.6252
 6168SOL    HW130137   4.196   2.778  14.107  1.2584 -0.2955  0.8856
 6168SOL    HW230138   4.148   2.867  13.990  0.9329  0.8357  2.2025
 6169SOL     OW30139   0.294   1.180  16.001  0.9170  0.0982 -0.3074
 6169SOL    HW130140   0.334   1.175  15.914 -0.2190 -0.6804 -0.7939
 6169SOL    HW230141   0.287   1.275  16.003  2.3750  0.2068 -0.2907
 6170SOL     OW30142   4.002   3.159   3.693 -0.0512 -0.1655 -0.0917
 6170SOL    HW130143   3.928   3.141   3.635  0.9739  0.4208 -1.5675
 6170SOL    HW230144   4.076   3.197   3.646  0.6881 -3.3844 -1.5380
 6171SOL     OW30145   4.470   2.705   7.116  0.1810 -0.7618 -0.1206
 6171SOL    HW130146   4.375   2.707   7.107  0.3104 -0.1368 -1.3409
 6171SOL    HW230147   4.492   2.787   7.070 -1.8519 -0.3804 -0.4252
 6172SOL     OW30148   1.415   2.259   4.357 -0.4058  0.6361 -0.1044
 6172SOL    HW130149   1.324   2.256   4.326 -0.5369 -1.0792  0.4231
 6172SOL    HW230150   1.436   2.346   4.322 -1.6926  0.8526 -0.3651
 6173SOL     OW30151   3.047   1.932   7.269  0.4374 -0.9461  0.1169
 6173SOL    HW130152   3.038   1.854   7.214 -0.0465 -0.1941 -0.8540
 6173SOL    HW230153   3.112   1.908   7.336  0.7663  0.6711  0.3662
 6174SOL     OW30154   4.001   0.476   3.646 -0.4524 -0.0365 -0.2780
 6174SOL    HW130155   3.951   0.544   3.691 -0.5479  0.8657 -1.7362
 6174SOL    HW230156   4.076   0.523   3.610  0.2887 -1.2159 -0.2766
 6175SOL     OW30157   0.765   4.278   1.099  0.6281 -0.1409  1.0829
 6175SOL    HW130158   0.784   4.288   1.006 -3.2814  0.0750  0.3054
 6175SOL    HW230159   0.671   4.296   1.106  0.4738 -0.1223 -1.0879
 6176SOL     OW30160   1.225   1.204   6.628  0.0085  0.0807  0.1942
 6176SOL    HW130161   1.140   1.171   6.598  0.0040  1.6886 -1.6111
 6176SOL    HW230162   1.274   1.124   6.648 -0.8633 -0.4550  0.1912
 6177SOL     OW30163   2.707   0.275   1.827 -0.1566 -0.3287 -0.0296
 6177SOL    HW130164   2.778   0.315   1.777 -1.8770  1.4607 -1.0236
 6177SOL    HW230165   2.678   0.209   1.764 -1.3633  0.6045 -0.4331
 6178SOL     OW30166   0.679   3.645   9.187  0.0616  0.4975  0.1991
 6178SOL    HW130167   0.771   3.670   9.178 -0.2650  1.7891  0.4535
 6178SOL    HW230168   0.629   3.722   9.160  1.3227  0.2117 -2.8987
 6179SOL     OW30169   3.148   2.272   4.945  0.4196  0.7108 -0.0727
 6179SOL    HW130170   3.125   2.361   4.922 -5.6099 -0.6627  0.6379
 6179SOL    HW230171   3.175   2.288   5.036 -1.4790  0.4694  0.5355
 6180SOL     OW30172   3.442   3.940   6.140 -0.2892  0.6688  0.2556
 6180SOL    HW130173   3.427   4.032   6.118  0.1124  0.1700 -2.1944
 6180SOL    HW230174   3.398   3.933   6.224  0.6010 -1.1935  0.5727
 6181SOL     OW30175   3.539   0.576   6.893  0.3256  0.2950 -0.0725
 6181SOL    HW130176   3.610   0.545   6.836 -0.1602 -0.0297 -0.5018
 6181SOL    HW230177   3.463   0.567   6.835 -0.2254  1.8231  0.4166
 6182SOL     OW30178   0.637   4.367   8.672  0.5216  0.7018  0.4579
 6182SOL    HW130179   0.699   4.370   8.599  0.1690  0.0642  0.1342
 6182SOL    HW230180   0.702   4.356   8.741 -0.9693  1.9823  2.0490
 6183SOL     OW30181   3.959   2.223   1.419 -0.3559 -0.7549 -0.0241
 6183SOL    HW130182   3.922   2.184   1.341 -0.7433 -1.2614  0.4170
 6183SOL    HW230183   3.880   2.262   1.456  0.1273  2.3101 -2.2133
 6184SOL     OW30184   4.363   3.624   2.616  0.0340 -0.5833 -0.0099
 6184SOL    HW130185   4.318   3.547   2.650 -0.9673  1.4311  3.2498
 6184SOL    HW230186   4.446   3.583   2.594 -0.0607 -1.1927  0.7943
 6185SOL     OW30187   1.463   3.032   2.942 -0.0283 -0.2256  0.3027
 6185SOL    HW130188   1.524   2.993   3.004 -0.8927  0.2132  1.4465
 6185SOL    HW230189   1.394   2.965   2.943 -0.5951  0.3296 -1.8253
 6186SOL     OW30190   2.562   3.434   4.573 -0.1816 -0.5847  0.5480
 6186SOL    HW130191   2.566   3.341   4.596  0.1958 -0.6197  0.3353
 6186SOL    HW230192   2.470   3.440   4.547  0.0452 -1.2372 -0.3964
 6187SOL     OW30193   0.730   2.800   3.352  0.3350 -0.2159 -0.1127
 6187SOL    HW130194   0.705   2.789   3.444  1.5541 -0.6461  0.1683
 6187SOL    HW230195   0.674   2.737   3.309 -0.5494  1.1606 -0.9861
 6188SOL     OW30196   3.589   1.559   6.537  0.0139  0.4672  0.3550
 6188SOL    HW130197   3.497   1.534   6.547  0.2013 -0.6310 -0.6736
 6188SOL    HW230198   3.588   1.551   6.442  1.9173 -0.1671  0.3710
 6189SOL     OW30199   0.949   3.156  10.843 -0.1713 -0.0477 -0.1679
 6189SOL    HW130200   0.941   3.222  10.774 -1.8609  0.0597  0.1351
 6189SOL    HW230201   0.862   3.138  10.878  0.1721  0.0179  0.7070
 6190SOL     OW30202   3.731   4.515   2.772 -0.3596 -0.0399  0.0071
 6190SOL    HW130203   3.680   4.595   2.776 -2.8736 -1.6675  0.5402
 6190SOL    HW230204   3.763   4.521   2.682 -4.2706  1.5589 -1.2534
 6191SOL     OW30205   1.167   3.046  14.072 -0.0213 -0.7129  0.3780
 6191SOL    HW130206   1.144   2.965  14.117  0.5464 -2.1210 -1.8400
 6191SOL    HW230207   1.224   3.084  14.137 -0.4364  0.7934 -0.1358
 6192SOL     OW30208   0.533   3.602   4.743  0.5046 -0.4063 -0.0959
 6192SOL    HW130209   0.526   3.509   4.722 -2.9886 -0.2958  0.6088
 6192SOL    HW230210   0.592   3.642   4.679 -1.4935  2.4977 -0.1359
 6193SOL     OW30211   1.784   3.283   6.140  0.3110 -1.0915 -0.0780
 6193SOL    HW130212   1.840   3.234   6.200  0.1652 -0.1806  0.7971
 6193SOL    HW230213   1.696   3.259   6.166 -0.0715  0.7481  0.3347
 6194SOL     OW30214   1.972   1.039  16.503 -0.1463  0.0584  0.7978
 6194SOL    HW130215   1.994   1.125  16.540 -1.9897  2.0000 -2.5739
 6194SOL    HW230216   1.887   1.030  16.546 -1.4420  0.8664 -1.6092
 6195SOL     OW30217   2.774   2.881   7.492  0.3960 -0.3587  0.1103
 6195SOL    HW130218   2.690   2.927   7.485 -0.3916 -1.9883 -1.3087
 6195SOL    HW230219   2.823   2.925   7.423 -0.5854 -0.7981 -0.8740
 6196SOL     OW30220   3.032   0.974   7.538  0.1224  0.2365 -0.3174
 6196SOL    HW130221   3.047   0.955   7.630 -0.4519  0.1051 -0.2515
 6196SOL    HW230222   3.025   1.069   7.546 -2.1220  0.1013 -0.7339
 6197SOL     OW30223   0.638   4.510   3.774  0.2378  0.3261  0.1382
 6197SOL    HW130224   0.675   4.594   3.802  0.9276 -0.6086  2.0422
 6197SOL    HW230225   0.668   4.463   3.852  0.0168 -1.9476 -1.1503
 6198SOL     OW30226   1.236   1.229  15.521 -0.3527  0.5924  0.4560
 6198SOL    HW130227   1.143   1.216  15.540 -0.8190  1.0058 -1.5910
 6198SOL    HW230228   1.257   1.304  15.577  0.9661  0.8773 -0.4090
 6199SOL     OW30229   2.435   0.094   4.028  0.3042  0.0602  0.2102
 6199SOL    HW130230   2.368   0.063   3.967 -2.9373  1.4614  3.0519
 6199SOL    HW230231   2.381   0.124   4.101  0.1090 -0.9064  0.4695
 6200SOL     OW30232   0.899   0.898   8.062 -0.6617  0.5837  0.1288
 6200SOL    HW130233   0.926   0.880   7.972 -0.4791 -0.6198  0.4223
 6200SOL    HW230234   0.899   0.812   8.106  2.2940  1.7683  2.4098
 6201SOL     OW30235   3.899   0.859   0.774 -0.0302 -0.1192  0.5755
 6201SOL    HW130236   3.871   0.897   0.691  0.1973 -1.0554  0.0700
 6201SOL    HW230237   3.815   0.818   0.799  0.5919 -0.6728  1.7703
 6202SOL     OW30238   0.699   3.341   6.082 -0.1568  0.3111  0.4083
 6202SOL    HW130239   0.770   3.345   6.146  0.0302 -2.3241  0.3667
 6202SOL    HW230240   0.735   3.274   6.023  1.5802  1.9259 -0.3751
 6203SOL     OW30241   0.479   3.408  10.966  0.0557 -0.0786  0.2094
 6203SOL    HW130242   0.505   3.500  10.956  0.2388 -0.4278 -2.3814
 6203SOL    HW230243   0.500   3.394  11.058  0.2180 -1.0986  0.0126
 6204SOL     OW30244   4.256   1.811   5.751 -0.0109  0.1643  0.5600
 6204SOL    HW130245   4.222   1.897   5.777  0.8906 -0.1065  2.6465
 6204SOL    HW230246   4.248   1.775   5.839 -0.3862  0.4439  0.6416
 6205SOL     OW30247   2.177   2.556   8.738  0.0628 -0.3597  0.3550
 6205SOL    HW130248   2.144   2.553   8.648 -1.1956  1.3170  0.7690
 6205SOL    HW230249   2.249   2.619   8.730 -0.3315  0.2173  1.3718
 6206SOL     OW30250   1.935   2.413  11.349 -0.4787  0.0038 -0.2836
 6206SOL    HW130251   1.965   2.424  11.439 -1.4338  0.5380 -0.0283
 6206SOL    HW230252   1.941   2.317  11.342 -1.9436  0.0524 -2.0513
 6207SOL     OW30253   4.377   4.600  12.002 -0.1883 -0.3955  0.0599
 6207SOL    HW130254   4.436   4.667  11.968 -0.7499  0.8624  1.5878
 6207SOL    HW230255   4.434   4.523  11.994  4.1344  2.7204  0.9383
 6208SOL     OW30256   0.053   4.209   5.795 -0.2898 -0.4618 -0.4400
 6208SOL    HW130257   0.136   4.215   5.842 -1.6088 -2.1253  2.0909
 6208SOL    HW230258   0.034   4.297   5.762 -0.9027 -0.4321 -0.0159
 6209SOL     OW30259   3.342   3.128   4.733  0.0307 -0.5924  0.8833
 6209SOL    HW130260   3.336   3.035   4.709 -0.8378  0.5752 -3.4071
 6209SOL    HW230261   3.251   3.154   4.742 -0.0262 -0.7358  0.7253
 6210SOL     OW30262   2.842   0.623   4.975  0.2000 -0.6178 -0.5763
 6210SOL    HW130263   2.785   0.612   4.899 -0.0054  0.6260 -0.5988
 6210SOL    HW230264   2.864   0.530   4.972 -0.9422 -0.7792 -3.6050
 6211SOL     OW30265   2.549   2.354   4.010  0.6285 -0.8539  0.1399
 6211SOL    HW130266   2.567   2.427   3.951  1.0463 -0.0625  1.2564
 6211SOL    HW230267   2.568   2.403   4.090 -1.3927 -0.5740  0.4313
 6212SOL     OW30268   0.655   1.296  15.409  0.1579 -0.2990 -0.3053
 6212SOL    HW130269   0.581   1.355  15.393  0.3869  0.4652  1.5245
 6212SOL    HW230270   0.628   1.271  15.497  2.6656  0.1360  0.5641
 6213SOL     OW30271   0.531   3.898   9.196  0.0434  0.2049  0.1223
 6213SOL    HW130272   0.482   3.883   9.277 -0.1133 -0.0990 -0.0311
 6213SOL    HW230273   0.489   3.972   9.151  0.6636 -0.7265 -1.9798
 6214SOL     OW30274   1.539   1.017   8.916  0.2102  0.2702  0.0359
 6214SOL    HW130275   1.474   1.087   8.916  0.3404  0.3905  0.0106
 6214SOL    HW230276   1.589   1.051   8.842  1.2740 -1.9851 -0.2655
 6215SOL     OW30277   3.451   2.096   3.097  0.7341 -0.1734  0.0362
 6215SOL    HW130278   3.356   2.092   3.100  0.7600  1.2155  2.8984
 6215SOL    HW230279   3.485   2.008   3.116  2.5069  0.2446 -1.2587
 6216SOL     OW30280   4.077   3.881  11.585 -0.0630 -0.6336 -0.5072
 6216SOL    HW130281   4.042   3.946  11.524 -1.6210 -1.5483 -0.5712
 6216SOL    HW230282   4.154   3.931  11.614  0.2422 -0.3137 -1.8614
 6217SOL     OW30283   1.987   0.297   7.393 -0.3380 -0.3544  0.7245
 6217SOL    HW130284   1.997   0.298   7.488 -0.4040  0.8022  0.7224
 6217SOL    HW230285   2.076   0.267   7.375  0.6870  1.4255  2.7902
 6218SOL     OW30286   0.125   4.333   1.653  0.7787  0.1571  0.0222
 6218SOL    HW130287   0.083   4.413   1.683 -1.5358 -1.3551  0.7616
 6218SOL    HW230288   0.050   4.274   1.648  0.6040  0.3527  0.4306
 6219SOL     OW30289   2.223   2.460   6.689 -0.0952 -0.4363 -0.1299
 6219SOL    HW130290   2.239   2.554   6.676 -0.7551 -0.0752  1.5949
 6219SOL    HW230291   2.171   2.464   6.770  0.4019 -0.9046  0.2121
 6220SOL     OW30292   0.468   0.804   2.347 -0.1214  0.1022 -0.1320
 6220SOL    HW130293   0.426   0.718   2.359 -0.5980  0.2965 -0.4294
 6220SOL    HW230294   0.460   0.836   2.437  1.2214 -2.8128  1.0487
 6221SOL     OW30295   4.313   1.622   8.201  0.1059 -0.1923  0.0394
 6221SOL    HW130296   4.321   1.543   8.255  2.4278  0.2140  0.2978
 6221SOL    HW230297   4.408   1.636   8.203  0.4355 -2.4841  0.3999
 6222SOL     OW30298   3.700   4.292   8.438 -0.6146 -0.0514  0.4927
 6222SOL    HW130299   3.665   4.347   8.368  0.6346  0.7193  0.4761
 6222SOL    HW230300   3.649   4.213   8.419 -0.3040  0.1761 -1.2709
 6223SOL     OW30301   2.426   0.534   3.796  0.4438  0.1333  0.4118
 6223SOL    HW130302   2.469   0.509   3.714 -1.3286  1.7481 -1.0200
 6223SOL    HW230303   2.501   0.569   3.844  0.5339  2.5862 -1.4975
 6224SOL     OW30304   1.219   0.779   2.106 -0.3706  0.3061 -0.2880
 6224SOL    HW130305   1.187   0.715   2.171 -2.4820  0.7133 -0.9135
 6224SOL    HW230306   1.139   0.825   2.079 -0.1011  1.5037  0.9370
 6225SOL     OW30307   4.151   4.027   8.935  0.3550 -0.0783 -0.4457
 6225SOL    HW130308   4.178   4.100   8.991  1.4651 -0.4224 -0.5378
 6225SOL    HW230309   4.140   3.952   8.994  0.3371 -1.0350 -1.6716
 6226SOL     OW30310   3.229   4.395   7.993 -0.1858  0.3984  0.5834
 6226SOL    HW130311   3.198   4.336   8.062  0.2743  0.3215  0.7184
 6226SOL    HW230312   3.278   4.338   7.934 -4.1502 -0.5100 -1.8439
 6227SOL     OW30313   2.646   1.707   6.350  0.3134 -0.0348 -0.2909
 6227SOL    HW130314   2.633   1.796   6.316  0.2862  0.2733  0.5228
 6227SOL    HW230315   2.571   1.652   6.329  1.5268 -1.8907  0.2376
 6228SOL     OW30316   4.343   0.427   5.143 -0.2170  0.0635  0.5732
 6228SOL    HW130317   4.309   0.340   5.124 -0.5819  0.5751 -1.1331
 6228SOL    HW230318   4.281   0.457   5.211  0.9146 -0.0352  1.6410
 6229SOL     OW30319   4.422   4.238   9.477 -0.1672  0.5333 -0.0714
 6229SOL    HW130320   4.494   4.248   9.539  0.5794 -0.9001 -0.6999
 6229SOL    HW230321   4.371   4.158   9.489  2.2835 -0.5671  3.0618
 6230SOL     OW30322   1.144   2.853  11.688  0.7065 -0.2364  0.1515
 6230SOL    HW130323   1.116   2.896  11.769 -0.4390  0.0677 -0.4188
 6230SOL    HW230324   1.237   2.878  11.686  0.6637 -0.3131 -2.4472
 6231SOL     OW30325   0.841   0.224  14.536 -0.4326  0.5720 -0.2924
 6231SOL    HW130326   0.875   0.309  14.564  2.8038 -0.7647 -0.2028
 6231SOL    HW230327   0.755   0.236  14.575 -0.0984  2.0178 -0.0194
 6232SOL     OW30328   2.522   4.543  16.541 -0.0981  0.3494 -0.2915
 6232SOL    HW130329   2.569   4.613  16.586  2.5178 -1.3905 -0.2578
 6232SOL    HW230330   2.556   4.568  16.455 -0.2754 -0.8409 -0.7148
 6233SOL     OW30331   3.636   2.528  15.304  0.2409 -0.0707  0.1460
 6233SOL    HW130332   3.607   2.445  15.342 -1.7138  0.5604  0.0523
 6233SOL    HW230333   3.689   2.487  15.236  1.4754 -0.7492  1.5310
 6234SOL     OW30334   3.584   2.522  16.079 -0.5413 -0.5273 -0.2818
 6234SOL    HW130335   3.533   2.483  16.007  0.2915 -0.2022 -1.0376
 6234SOL    HW230336   3.545   2.609  16.083 -0.5466 -0.6752  2.4912
 6235SOL     OW30337   1.854   0.400   8.753 -0.3947  0.9320  0.1835
 6235SOL    HW130338   1.926   0.399   8.690 -1.2155 -1.4176 -0.6785
 6235SOL    HW230339   1.905   0.377   8.831  0.3096 -0.1965 -0.6137
 6236SOL     OW30340   4.439   2.963  16.203  0.0550  0.4014  0.1867
 6236SOL    HW130341   4.514   2.903  16.196  0.1942  0.4629  1.1643
 6236SOL    HW230342   4.462   3.033  16.142 -0.6974 -0.5420 -1.1773
 6237SOL     OW30343   0.316   1.994   8.929 -0.1052  0.4846 -0.7867
 6237SOL    HW130344   0.380   1.934   8.969 -2.5023 -0.7183  1.2564
 6237SOL    HW230345   0.237   1.943   8.945  1.0551 -0.8327  0.9218
 6238SOL     OW30346   0.189   0.552  12.907  0.6741 -0.2438  0.3734
 6238SOL    HW130347   0.162   0.470  12.948 -0.2055 -1.0771 -1.8784
 6238SOL    HW230348   0.180   0.608  12.984 -1.5822 -0.4248  0.2466
 6239SOL     OW30349   2.639   4.663   4.877 -0.3708  0.1604 -0.1448
 6239SOL    HW130350   2.600   4.602   4.940  2.5921 -3.1868 -1.4838
 6239SOL    HW230351   2.713   4.615   4.839  0.2989  0.8659  0.2785
 6240SOL     OW30352   4.482   3.607   6.291  0.0288  0.1025  0.3605
 6240SOL    HW130353   4.453   3.674   6.352 -2.0763 -0.5369  0.0486
 6240SOL    HW230354   4.564   3.649   6.265  0.1609 -0.4459 -0.1203
 6241SOL     OW30355   0.866   2.690   9.214  0.2981 -0.2367 -0.1272
 6241SOL    HW130356   0.876   2.709   9.307 -1.3935  1.0513 -0.2006
 6241SOL    HW230357   0.846   2.597   9.222 -3.6955  0.3772 -2.4865
 6242SOL     OW30358   3.667   3.870  17.239 -0.7494  0.0359 -0.2245
 6242SOL    HW130359   3.749   3.913  17.214 -0.4299  0.1558  1.0262
 6242SOL    HW230360   3.624   3.843  17.158  0.2137  0.4923 -0.8918
 6243SOL     OW30361   1.672   0.542  10.553  0.0195 -0.0188  0.4912
 6243SOL    HW130362   1.669   0.469  10.491 -0.8105 -0.4295  1.0271
 6243SOL    HW230363   1.589   0.525  10.596 -1.7572 -0.6890 -3.1949
 6244SOL     OW30364   0.257   2.879   4.165 -0.3158  0.4213 -0.0716
 6244SOL    HW130365   0.249   2.795   4.211  0.0086 -0.1504 -1.0482
 6244SOL    HW230366   0.198   2.933   4.217 -1.1573  2.1280 -2.8054
 6245SOL     OW30367   1.660   2.912   6.552 -0.0650 -0.2553 -0.2525
 6245SOL    HW130368   1.695   2.965   6.624 -0.6839 -0.5369  0.2597
 6245SOL    HW230369   1.622   2.981   6.497 -0.2943 -2.0409 -2.3346
 6246SOL     OW30370   1.675   4.351   0.349 -0.0748 -0.4640  1.0699
 6246SOL    HW130371   1.680   4.306   0.433 -1.2969  1.3532  2.1177
 6246SOL    HW230372   1.701   4.277   0.293  2.1544  0.3000  1.1106
 6247SOL     OW30373   0.117   3.429   4.138 -0.1205 -0.0297 -0.0451
 6247SOL    HW130374   0.158   3.486   4.073 -1.1694  0.0025 -0.6797
 6247SOL    HW230375   0.173   3.447   4.213  1.1971 -1.6818 -0.6253
 6248SOL     OW30376   3.794   2.447  16.222 -0.4985 -0.5546  0.7945
 6248SOL    HW130377   3.850   2.403  16.157  0.2293  2.8175 -0.8550
 6248SOL    HW230378   3.715   2.471  16.173 -0.1533 -0.7948  0.1066
 6249SOL     OW30379   1.877   2.746   6.469  0.7133 -0.7056  0.7785
 6249SOL    HW130380   1.943   2.814   6.455  1.5079 -1.9529 -1.5872
 6249SOL    HW230381   1.806   2.800   6.505 -2.0405 -2.5325 -1.9207
 6250SOL     OW30382   2.118   0.625   8.135 -0.1412  0.4734 -0.4060
 6250SOL    HW130383   2.165   0.556   8.089 -0.2762 -0.8206  1.4237
 6250SOL    HW230384   2.191   0.681   8.163 -0.6135  0.0305  1.7062
 6251SOL     OW30385   0.421   2.331   4.379  0.0066  0.5755  0.1634
 6251SOL    HW130386   0.477   2.362   4.450  1.8275 -0.3747 -0.8531
 6251SOL    HW230387   0.336   2.365   4.405 -0.8759 -1.2376 -0.3221
 6252SOL     OW30388   0.537   0.546   8.929  0.7530  0.3805 -0.0316
 6252SOL    HW130389   0.467   0.490   8.894 -0.8881  1.7203  1.1717
 6252SOL    HW230390   0.612   0.512   8.878 -0.2805 -0.2777 -1.1227
 6253SOL     OW30391   1.282   2.200   3.977 -0.5256  0.8975 -0.6602
 6253SOL    HW130392   1.242   2.200   4.064  2.0692  2.5030  0.5081
 6253SOL    HW230393   1.286   2.104   3.967  1.5245  1.1924 -2.7399
 6254SOL     OW30394   3.218   2.062   1.828 -0.3377 -0.2796  0.8404
 6254SOL    HW130395   3.189   2.079   1.918 -0.3623  0.6634  0.6518
 6254SOL    HW230396   3.214   1.966   1.822 -1.5884 -0.2046  0.6521
 6255SOL     OW30397   3.671   4.609   5.606 -0.1339  0.0428  0.0361
 6255SOL    HW130398   3.621   4.577   5.531 -0.1960  0.4193 -0.0811
 6255SOL    HW230399   3.641   4.700   5.609  0.6179  0.2497  1.1031
 6256SOL     OW30400   3.149   0.438   7.351  0.1808  0.3559 -0.1021
 6256SOL    HW130401   3.172   0.349   7.324 -2.7825 -0.9481  1.6428
 6256SOL    HW230402   3.067   0.461   7.307 -0.6057  0.5382  1.4666
 6257SOL     OW30403   0.645   3.582   7.214  0.2305  0.0295  0.4205
 6257SOL    HW130404   0.690   3.631   7.145 -0.3096 -2.3262 -1.6128
 6257SOL    HW230405   0.711   3.585   7.283  1.4349 -1.2858 -0.6880
 6258SOL     OW30406   1.410   0.212   7.246 -0.3442 -0.3796 -0.3112
 6258SOL    HW130407   1.427   0.132   7.196  0.6944  0.4594 -1.3114
 6258SOL    HW230408   1.380   0.173   7.329  0.9871  1.7200  1.1559
 6259SOL     OW30409   1.189   1.393   7.829 -0.4974  0.0215  0.5642
 6259SOL    HW130410   1.258   1.441   7.783 -2.5148  3.3016  0.9454
 6259SOL    HW230411   1.254   1.333   7.864  0.3086  0.7014  0.2417
 6260SOL     OW30412   4.268   1.773   7.140 -0.2418 -0.2595  0.2676
 6260SOL    HW130413   4.256   1.726   7.058  0.4980  1.4722 -0.8251
 6260SOL    HW230414   4.305   1.855   7.108  0.3482 -0.7595 -0.3281
 6261SOL     OW30415   1.093   3.738   8.164 -0.1949  0.2452  0.4635
 6261SOL    HW130416   1.143   3.663   8.196 -0.4119 -0.7232 -1.4179
 6261SOL    HW230417   1.005   3.702   8.152 -0.3141  0.6850 -0.0027
 6262SOL     OW30418   1.464   0.410  15.894  1.1414 -0.0711 -0.3738
 6262SOL    HW130419   1.406   0.390  15.967 -0.7458 -1.4553 -2.2517
 6262SOL    HW230420   1.531   0.463  15.937  2.3330 -0.9197 -1.1667
 6263SOL     OW30421   1.015   0.638   9.612  0.3500  0.2041 -0.2705
 6263SOL    HW130422   1.064   0.715   9.640 -0.1494 -0.1974  1.6937
 6263SOL    HW230423   1.061   0.576   9.669  0.6120 -1.0707 -1.8656
 6264SOL     OW30424   1.442   3.563   2.694  0.6461 -0.1256  0.1169
 6264SOL    HW130425   1.478   3.636   2.642  3.0729 -2.1251 -1.0105
 6264SOL    HW230426   1.497   3.486   2.682  1.6520  1.0596 -2.8283
 6265SOL     OW30427   1.135   1.626  15.231 -0.0846  0.0793 -0.2732
 6265SOL    HW130428   1.042   1.643  15.248  0.0956  1.8616 -1.0730
 6265SOL    HW230429   1.138   1.530  15.233  1.2921  0.1691  1.7129
 6266SOL     OW30430   2.411   2.140   4.534 -0.2256 -0.1747 -0.3311
 6266SOL    HW130431   2.491   2.094   4.509  0.4927  0.0381  1.5410
 6266SOL    HW230432   2.371   2.061   4.571 -1.0669  0.4966  0.1885
 6267SOL     OW30433   3.419   0.881   4.717 -0.3294  0.0975  0.0574
 6267SOL    HW130434   3.451   0.875   4.626 -1.6772  0.5811 -0.4472
 6267SOL    HW230435   3.424   0.976   4.732 -0.5797  0.0250  0.5780
 6268SOL     OW30436   1.686   0.297   6.399 -0.2077  0.7740 -0.0100
 6268SOL    HW130437   1.659   0.387   6.383  0.3059  0.6551 -1.4913
 6268SOL    HW230438   1.757   0.294   6.463  0.3326  0.0217 -0.6488
 6269SOL     OW30439   4.483   3.420  12.516  0.1418 -0.6564  0.1609
 6269SOL    HW130440   4.394   3.438  12.487  0.5467 -1.3392 -1.4997
 6269SOL    HW230441   4.526   3.502  12.492  0.6705 -1.8758 -3.0935
 6270SOL     OW30442   4.198   0.959   5.523  0.5425 -0.3675 -0.2342
 6270SOL    HW130443   4.282   1.001   5.541 -0.1399  0.5815  0.6927
 6270SOL    HW230444   4.230   0.883   5.474 -0.9852 -0.0819 -1.6901
 6271SOL     OW30445   0.225   0.542  13.748  0.1564  0.1369  0.0011
 6271SOL    HW130446   0.198   0.565  13.836  0.7892  0.6048  0.0759
 6271SOL    HW230447   0.229   0.631  13.712 -0.7303  0.7699  1.4589
 6272SOL     OW30448   2.170   0.294   2.519  0.4169  0.1816 -0.1528
 6272SOL    HW130449   2.169   0.200   2.501  0.1751  0.4322 -1.4324
 6272SOL    HW230450   2.206   0.293   2.608  0.9276 -0.7546 -0.3626
 6273SOL     OW30451   3.546   0.415   7.197 -0.2642  0.1063 -0.2428
 6273SOL    HW130452   3.566   0.401   7.105  1.0410  0.8827 -0.0726
 6273SOL    HW230453   3.464   0.465   7.199 -0.8635 -0.8741 -0.5757
 6274SOL     OW30454   2.839   2.044  17.668  0.1259 -0.3582  0.5336
 6274SOL    HW130455   2.905   1.991  17.624  1.4549  0.1031  1.9818
 6274SOL    HW230456   2.765   2.013  17.616  0.7167 -1.1610  0.1870
 6275SOL     OW30457   1.058   1.254   2.668  0.6327 -0.2171  0.2168
 6275SOL    HW130458   0.999   1.296   2.605 -0.6643 -1.7689  0.3924
 6275SOL    HW230459   1.024   1.284   2.753  0.8305 -0.0324  0.2310
 6276SOL     OW30460   3.714   3.760   9.290  0.1077  0.2015 -0.6458
 6276SOL    HW130461   3.755   3.845   9.270 -0.5350  0.8878  0.9531
 6276SOL    HW230462   3.629   3.766   9.247 -0.0315  0.8952 -0.2797
 6277SOL     OW30463   3.079   3.107   6.962  0.4357 -0.0075 -0.4002
 6277SOL    HW130464   3.126   3.172   6.909 -0.8790  2.5115  1.5438
 6277SOL    HW230465   3.014   3.166   6.999  1.6116  0.3346  1.1398
 6278SOL     OW30466   1.272   2.548  11.779 -0.4793 -0.2705 -0.5185
 6278SOL    HW130467   1.366   2.559  11.765 -0.2753  0.3434  1.2972
 6278SOL    HW230468   1.234   2.597  11.707  0.3599 -1.8939 -2.0602
 6279SOL     OW30469   3.948   2.541   7.857  0.2465 -0.1944 -0.1622
 6279SOL    HW130470   3.986   2.531   7.769 -1.0106 -1.0296 -0.6107
 6279SOL    HW230471   4.018   2.585   7.906  0.9932  0.1470 -1.5213
 6280SOL     OW30472   1.738   0.434   3.657  0.0509  0.0247  0.3542
 6280SOL    HW130473   1.651   0.432   3.617  0.0146  1.1371  0.4000
 6280SOL    HW230474   1.741   0.346   3.694  0.9368 -0.2502 -0.3448
 6281SOL     OW30475   4.175   0.026   2.391  0.0781 -0.1423  0.1099
 6281SOL    HW130476   4.153   4.687   2.445  1.3083 -0.6075 -0.0337
 6281SOL    HW230477   4.222   4.725   2.318 -0.0435 -0.0562 -0.0131
 6282SOL     OW30478   1.003   0.524   6.105  0.4829  0.4276  0.5073
 6282SOL    HW130479   0.948   0.579   6.049  0.6275 -1.1195 -1.1391
 6282SOL    HW230480   0.992   0.557   6.194 -2.4556  2.7868 -0.7111
 6283SOL     OW30481   1.930   4.489   2.885 -0.0855  0.3689  0.2119
 6283SOL    HW130482   1.882   4.408   2.904 -1.7302  1.0224 -1.1184
 6283SOL    HW230483   1.997   4.492   2.953 -0.5026 -1.1577  0.7058
 6284SOL     OW30484   1.096   2.818   4.656 -0.2477  0.0704  0.0108
 6284SOL    HW130485   1.005   2.815   4.627 -0.0196  1.6721 -0.8713
 6284SOL    HW230486   1.087   2.890   4.719 -1.4506  1.1972 -1.4592
 6285SOL     OW30487   3.145   2.758  11.322  0.5268  0.1098 -0.7039
 6285SOL    HW130488   3.208   2.806  11.376 -0.5108  2.8013 -1.8658
 6285SOL    HW230489   3.088   2.829  11.292 -0.0042 -0.3608 -0.7939
 6286SOL     OW30490   3.860   3.977   4.643 -0.0817 -0.5175 -0.3943
 6286SOL    HW130491   3.887   3.966   4.552  1.2327 -0.2897 -0.0270
 6286SOL    HW230492   3.767   3.970   4.622  0.4305 -0.3414 -2.7680
 6287SOL     OW30493   3.131   3.137   9.982  0.1684  0.1826 -0.9554
 6287SOL    HW130494   3.075   3.156  10.057  0.8595 -1.8682  0.0889
 6287SOL    HW230495   3.078   3.065   9.947  3.0847 -2.5920  0.2942
 6288SOL     OW30496   1.264   1.743  11.395 -0.5616 -0.3256  0.4531
 6288SOL    HW130497   1.337   1.781  11.347 -2.1942  0.7812 -1.1683
 6288SOL    HW230498   1.203   1.724  11.324 -1.2169 -0.4885  1.0514
 6289SOL     OW30499   4.663   1.781   6.949 -0.8403  0.1842 -0.0147
 6289SOL    HW130500   4.711   1.714   6.900 -1.4249  0.1700 -0.5737
 6289SOL    HW230501   4.590   1.724   6.973  2.0433 -2.9325  1.3054
 6290SOL     OW30502   1.081   1.702   5.725 -0.3987  0.5376 -0.4355
 6290SOL    HW130503   1.105   1.613   5.749  1.7680  0.8686 -1.3175
 6290SOL    HW230504   0.994   1.711   5.763 -0.7644  0.9949 -1.4021
 6291SOL     OW30505   4.072   3.616   7.970  0.6321 -0.1193 -0.8079
 6291SOL    HW130506   4.064   3.589   8.061  0.2099 -0.0368 -0.8187
 6291SOL    HW230507   4.026   3.545   7.926 -0.3396 -0.8025  1.3210
 6292SOL     OW30508   2.620   4.008   5.311  0.4256 -0.5458  0.6569
 6292SOL    HW130509   2.543   3.995   5.365 -1.1552  1.1876 -1.1997
 6292SOL    HW230510   2.586   3.984   5.225 -0.1675  3.0687 -0.0879
 6293SOL     OW30511   3.594   1.688   4.974  0.7838  0.2353 -0.0440
 6293SOL    HW130512   3.526   1.755   4.986 -1.8884 -2.5623  0.2524
 6293SOL    HW230513   3.665   1.734   4.929  0.4254  1.6001  0.7688
 6294SOL     OW30514   4.568   2.035   0.163 -0.0362 -0.2509 -0.5782
 6294SOL    HW130515   4.626   2.111   0.154 -1.0112  0.5688  0.1944
 6294SOL    HW230516   4.492   2.092   0.152 -0.3220  0.4020  4.8158
 6295SOL     OW30517   3.091   1.203   3.180 -0.0371  0.6163  0.0893
 6295SOL    HW130518   3.065   1.245   3.099  3.7922  2.0984 -0.3840
 6295SOL    HW230519   3.186   1.216   3.191 -0.4034  0.1412  3.9659
 6296SOL     OW30520   0.185   1.025   4.335  0.0046 -0.3615 -0.1914
 6296SOL    HW130521   0.208   0.936   4.307 -0.3077 -0.1297 -1.2213
 6296SOL    HW230522   0.155   1.060   4.251  1.3179  2.2401  0.4555
 6297SOL     OW30523   4.361   0.279   8.394 -0.1184 -0.2045  0.2377
 6297SOL    HW130524   4.355   0.317   8.482  1.5336  0.5149  0.0357
 6297SOL    HW230525   4.287   0.219   8.389 -0.2612  0.0922 -1.2321
 6298SOL     OW30526   3.608   1.063   1.687 -0.9016 -0.5201  0.8755
 6298SOL    HW130527   3.621   1.093   1.597  1.2896  0.0363  1.3929
 6298SOL    HW230528   3.689   1.094   1.727 -0.5375  1.3183 -1.2553
 6299SOL     OW30529   3.063   3.573   5.139 -0.0576  0.5181  0.4400
 6299SOL    HW130530   3.075   3.519   5.060  2.1171 -1.3020  2.0152
 6299SOL    HW230531   2.978   3.610   5.115 -0.7441 -0.3618  1.4946
 6300SOL     OW30532   1.151   2.520   4.551 -0.7936  0.0459 -0.1612
 6300SOL    HW130533   1.246   2.520   4.535 -0.4685  0.7624  1.7679
 6300SOL    HW230534   1.141   2.598   4.605 -1.8649  0.7988 -1.4685
 6301SOL     OW30535   2.559   4.451   7.960 -0.0308  0.0985 -0.5222
 6301SOL    HW130536   2.483   4.461   8.017 -0.7362  0.1732 -1.4904
 6301SOL    HW230537   2.575   4.544   7.940 -2.3686  0.1706 -1.9843
 6302SOL     OW30538   3.542   3.016   7.407  0.0474  0.0865 -0.2243
 6302SOL    HW130539   3.464   3.066   7.432  0.0669  0.2911 -0.5803
 6302SOL    HW230540   3.580   3.078   7.345  0.1722  0.0754 -0.1590
 6303SOL     OW30541   0.024   2.013   1.863  0.4992 -0.1754  0.7037
 6303SOL    HW130542   0.074   1.941   1.825  0.5142  0.6784 -0.8815
 6303SOL    HW230543   0.048   2.007   1.956  0.1278 -0.7553  0.7650
 6304SOL     OW30544   0.863   3.303   5.805 -0.6514 -0.1060  0.0036
 6304SOL    HW130545   0.775   3.295   5.767 -0.4151 -1.0054 -0.3626
 6304SOL    HW230546   0.849   3.381   5.859 -0.3752  1.3176 -1.9945
 6305SOL     OW30547   3.095   2.302   8.363 -0.5708  0.0178  0.0110
 6305SOL    HW130548   3.033   2.246   8.317  1.2568 -2.6663  0.8409
 6305SOL    HW230549   3.077   2.393   8.341 -1.2721 -0.0742  0.1800
 6306SOL     OW30550   0.758   0.901   1.878  0.0324 -0.2246 -0.5300
 6306SOL    HW130551   0.767   0.964   1.807  0.3447 -0.5616 -0.7884
 6306SOL    HW230552   0.691   0.938   1.936  1.7160 -1.7180  2.3757
 6307SOL     OW30553   4.357   0.108   8.650 -0.3790  0.5262  0.0213
 6307SOL    HW130554   4.443   0.097   8.609  0.7952  0.6509  2.4160
 6307SOL    HW230555   4.379   0.193   8.689 -2.0669  0.4627  1.1329
 6308SOL     OW30556   1.505   3.746   0.688  0.0246  0.0250 -0.2627
 6308SOL    HW130557   1.424   3.796   0.696  0.0550 -0.0418  0.4481
 6308SOL    HW230558   1.569   3.794   0.741 -2.7693  1.6140  1.6531
 6309SOL     OW30559   3.573   4.467   6.998 -0.8951  0.2073 -0.1591
 6309SOL    HW130560   3.623   4.388   6.976  0.7353  2.1297 -3.3430
 6309SOL    HW230561   3.644   4.518   7.035 -1.5142  1.4215 -0.6470
 6310SOL     OW30562   4.160   2.628   1.053 -0.5958  0.6221 -0.7520
 6310SOL    HW130563   4.254   2.613   1.063 -0.6960  0.3679 -0.2165
 6310SOL    HW230564   4.143   2.682   1.131 -2.0908  0.2139 -0.7915
 6311SOL     OW30565   1.896   4.276   4.732  0.2738  0.2174  0.0032
 6311SOL    HW130566   1.851   4.340   4.678  0.7053 -0.0631 -0.6811
 6311SOL    HW230567   1.853   4.301   4.814 -1.2965 -2.6080  0.0736
 6312SOL     OW30568   0.540   0.880   2.612 -0.6150 -0.1080  0.3556
 6312SOL    HW130569   0.599   0.950   2.641  0.0642 -0.8505  0.7740
 6312SOL    HW230570   0.568   0.804   2.663  2.6499  2.3934  2.3501
 6313SOL     OW30571   2.997   4.487   7.862  0.1451 -0.0043  0.1045
 6313SOL    HW130572   3.026   4.456   7.777  0.4675 -3.0438  1.3152
 6313SOL    HW230573   3.065   4.455   7.922 -0.3011 -2.8028 -0.9009
 6314SOL     OW30574   3.930   0.319   8.544  0.0074  0.0501  0.9359
 6314SOL    HW130575   3.836   0.321   8.559  0.1283  1.7752  1.4313
 6314SOL    HW230576   3.956   0.409   8.528 -1.3171  0.2039 -0.4437
 6315SOL     OW30577   2.139   0.283   5.326 -0.2280  0.2255  0.4259
 6315SOL    HW130578   2.109   0.198   5.294  0.6061  0.5672 -1.2519
 6315SOL    HW230579   2.075   0.351   5.303 -0.5034 -0.3179 -0.4319
 6316SOL     OW30580   3.419   0.359   1.088 -0.4031 -0.3554  0.2867
 6316SOL    HW130581   3.347   0.307   1.053  0.6060 -1.7867  0.3117
 6316SOL    HW230582   3.466   0.383   1.008 -0.5127  0.2582  0.4054
 6317SOL     OW30583   3.553   4.611   3.501 -0.0966 -0.4959  0.0196
 6317SOL    HW130584   3.477   4.613   3.443  0.4108 -0.5609 -0.6539
 6317SOL    HW230585   3.590   4.527   3.475  2.3446  1.4286 -2.7438
 6318SOL     OW30586   0.885   2.034   2.355 -0.0468  0.4213  1.3296
 6318SOL    HW130587   0.843   2.103   2.304 -0.4861 -1.2297 -0.5416
 6318SOL    HW230588   0.899   2.075   2.440 -0.1250 -1.4799  2.2504
 6319SOL     OW30589   0.666   1.732  13.968  0.2661 -0.2264 -0.0378
 6319SOL    HW130590   0.667   1.800  14.036 -3.1947  0.9023 -1.1241
 6319SOL    HW230591   0.583   1.729  13.922 -0.5134  0.9966  1.2868
 6320SOL     OW30592   3.188   3.049   9.665  0.2644  0.1573  0.4821
 6320SOL    HW130593   3.103   3.036   9.706  0.4029  0.8709  0.9815
 6320SOL    HW230594   3.201   3.143   9.657  1.1900  0.1912  2.5528
 6321SOL     OW30595   0.808   4.590  12.345  0.5427 -0.6079 -0.0769
 6321SOL    HW130596   0.862   4.629  12.413 -0.8005  0.1109  0.5696
 6321SOL    HW230597   0.736   4.561  12.400 -0.9714  1.9488 -0.6573
 6322SOL     OW30598   2.813   1.497  16.912  0.7267 -0.9077 -0.3154
 6322SOL    HW130599   2.738   1.495  16.852 -0.7914  0.4050  1.5234
 6322SOL    HW230600   2.798   1.420  16.966 -0.4517  0.9056  1.9920
 6323SOL     OW30601   1.015   1.850   5.061  0.0650  0.1758  0.3423
 6323SOL    HW130602   1.010   1.791   4.986  0.5133 -0.1947  0.6041
 6323SOL    HW230603   0.922   1.867   5.075 -0.2926  0.0725 -1.9249
 6324SOL     OW30604   1.540   3.372   1.731 -0.5616 -0.0379  0.0997
 6324SOL    HW130605   1.603   3.376   1.803 -0.2458 -0.0151 -0.1801
 6324SOL    HW230606   1.595   3.361   1.654 -2.2342 -0.8854 -0.9501
 6325SOL     OW30607   4.696   3.349   2.850  0.1795 -0.6211  0.9824
 6325SOL    HW130608   4.736   3.427   2.888 -0.9495  0.6857 -0.5444
 6325SOL    HW230609   4.642   3.322   2.925  0.1403 -1.3500  0.6934
 6326SOL     OW30610   4.435   2.669   5.675  0.1838 -0.2201 -0.4382
 6326SOL    HW130611   4.417   2.633   5.762  0.3505 -2.2499 -1.2482
 6326SOL    HW230612   4.369   2.737   5.663  0.7273  0.1521 -1.3333
 6327SOL     OW30613   1.614   3.225  17.148 -0.6298 -0.5017 -0.0725
 6327SOL    HW130614   1.692   3.222  17.093  1.5945 -1.1571  3.1753
 6327SOL    HW230615   1.574   3.305  17.114 -0.9331  0.4103  2.4478
 6328SOL     OW30616   1.344   3.951   8.069  0.1364  0.1168 -0.0100
 6328SOL    HW130617   1.354   4.041   8.100 -0.1359  0.6922 -1.5774
 6328SOL    HW230618   1.260   3.934   8.112  1.0891  0.9297  2.1656
 6329SOL     OW30619   2.046   0.287   7.656 -0.5487  0.1041  0.2686
 6329SOL    HW130620   1.967   0.261   7.704 -1.0485  0.3639 -0.4196
 6329SOL    HW230621   2.078   0.360   7.709  0.5521 -0.3617  0.2422
 6330SOL     OW30622   1.633   3.869   4.663  0.6301  0.1347 -0.1506
 6330SOL    HW130623   1.707   3.913   4.619 -0.6774  0.2527 -2.2417
 6330SOL    HW230624   1.690   3.811   4.714 -2.8199 -0.0951  3.4036
 6331SOL     OW30625   2.869   3.330   4.571  0.6996  0.0597 -0.5449
 6331SOL    HW130626   2.805   3.398   4.551 -0.7710 -1.5651 -1.4080
 6331SOL    HW230627   2.929   3.342   4.498  1.0489 -0.0379 -0.2730
 6332SOL     OW30628   4.710   2.026   1.569  0.2410 -0.2083 -0.0216
 6332SOL    HW130629   0.012   2.037   1.656 -1.0693 -3.5804  0.9729
 6332SOL    HW230630   0.057   2.013   1.525 -0.4163  1.3099 -1.7144
 6333SOL     OW30631   1.823   2.153   1.560 -0.0399  0.2408 -0.1719
 6333SOL    HW130632   1.734   2.131   1.590 -0.2131 -0.3007 -1.0984
 6333SOL    HW230633   1.809   2.167   1.467 -1.1023 -0.4507 -0.1123
 6334SOL     OW30634   2.725   3.779   2.993 -0.3637  0.4213 -0.2449
 6334SOL    HW130635   2.708   3.789   2.900  0.2166  0.0365 -0.3974
 6334SOL    HW230636   2.727   3.868   3.026 -2.6355  1.2168 -2.2408
 6335SOL     OW30637   1.140   1.556  17.742 -0.1701 -0.0645 -0.2409
 6335SOL    HW130638   1.204   1.615  17.703  1.8173 -2.4080 -0.5205
 6335SOL    HW230639   1.177   1.536   0.079 -0.2108  1.7641  0.2046
 6336SOL     OW30640   1.636   3.943  14.803 -0.3715  0.1989  0.5044
 6336SOL    HW130641   1.624   3.881  14.731  0.8755 -0.6352  1.0095
 6336SOL    HW230642   1.680   4.015  14.758 -0.5805 -2.6712 -4.3556
 6337SOL     OW30643   1.320   2.039   8.996 -0.5800 -0.5700 -0.0661
 6337SOL    HW130644   1.248   1.990   8.956 -0.9982 -0.9138  1.1102
 6337SOL    HW230645   1.391   1.990   8.955 -0.9182 -1.8184  0.8460
 6338SOL     OW30646   1.833   3.928   6.639  0.2101 -0.0737 -0.1812
 6338SOL    HW130647   1.862   3.931   6.548  1.1094 -2.0132  0.0512
 6338SOL    HW230648   1.923   3.920   6.670  0.3496  1.6244 -0.1053
 6339SOL     OW30649   4.171   0.463   1.653 -0.6569 -0.3205  0.2674
 6339SOL    HW130650   4.247   0.484   1.598 -1.8323  0.3406 -1.1000
 6339SOL    HW230651   4.101   0.470   1.588 -0.2175 -1.9252 -0.3989
 6340SOL     OW30652   0.504   3.408   2.372 -0.2989  0.2964  0.5976
 6340SOL    HW130653   0.440   3.349   2.331 -0.5927  0.9662  0.0737
 6340SOL    HW230654   0.530   3.460   2.296  1.2595 -1.4893 -0.0846
 6341SOL     OW30655   0.703   2.784  15.668  0.0605 -0.8046 -0.8333
 6341SOL    HW130656   0.732   2.843  15.738  0.1945 -1.5381 -0.2804
 6341SOL    HW230657   0.769   2.716  15.663 -0.1054 -1.0654  0.7789
 6342SOL     OW30658   4.718   1.073  11.100 -0.1152 -0.2177 -0.6820
 6342SOL    HW130659   4.724   0.981  11.124 -0.9149  0.2274  1.1884
 6342SOL    HW230660   0.035   1.119  11.163  0.1889  1.7022 -2.3211
 6343SOL     OW30661   0.875   1.649  15.292  0.7692 -0.1413  0.1584
 6343SOL    HW130662   0.780   1.646  15.279  0.6572 -1.6650  1.3403
 6343SOL    HW230663   0.881   1.700  15.373 -0.0396  0.1654  0.0272
 6344SOL     OW30664   1.219   1.851   7.828 -0.3549 -0.0630  0.1791
 6344SOL    HW130665   1.291   1.905   7.862  0.0137  0.5073 -1.5163
 6344SOL    HW230666   1.221   1.869   7.734  1.5332  0.4236  0.3046
 6345SOL     OW30667   4.157   1.733   6.000 -0.1257  0.0178  0.1292
 6345SOL    HW130668   4.101   1.668   5.957  0.9210 -2.0147  1.8540
 6345SOL    HW230669   4.220   1.690   6.058  0.8989  1.7229  0.2664
 6346SOL     OW30670   0.867   3.573   7.997 -0.3282  0.7278 -0.5387
 6346SOL    HW130671   0.804   3.521   7.947 -1.0336  1.6530 -0.5993
 6346SOL    HW230672   0.892   3.501   8.055  1.5726  2.6673  1.0760
 6347SOL     OW30673   0.092   3.203   5.010  0.2314 -0.0329  0.2137
 6347SOL    HW130674   0.163   3.187   4.947 -0.3543  0.2980 -0.5225
 6347SOL    HW230675   0.119   3.293   5.032  1.6983 -0.1726 -1.0171
 6348SOL     OW30676   2.980   4.439   6.485  0.6411 -0.0541 -0.1517
 6348SOL    HW130677   2.992   4.519   6.435 -3.0763  0.5040 -0.2041
 6348SOL    HW230678   2.935   4.477   6.561  0.9153 -0.5379  0.2534
 6349SOL     OW30679   2.554   4.475   7.328 -0.2488  0.0125  0.2992
 6349SOL    HW130680   2.487   4.476   7.259  0.4830  2.2825 -0.3640
 6349SOL    HW230681   2.610   4.545   7.296 -0.3119 -0.4439 -0.7984
 6350SOL     OW30682   0.649   2.971   6.422  0.0811  0.0138 -0.0454
 6350SOL    HW130683   0.670   2.880   6.400  1.1215  0.3989 -0.6527
 6350SOL    HW230684   0.595   2.960   6.500 -0.2866  2.0671 -0.0178
 6351SOL     OW30685   0.956   1.893   6.484 -0.5110  0.0835 -0.7332
 6351SOL    HW130686   1.045   1.857   6.487 -0.3110  0.6554  0.1684
 6351SOL    HW230687   0.915   1.838   6.417 -0.0209  1.7566 -2.3914
 6352SOL     OW30688   0.653   3.037  11.305  0.3394  0.0910 -0.4535
 6352SOL    HW130689   0.638   3.121  11.346 -1.9946 -0.3625 -0.3467
 6352SOL    HW230690   0.739   3.018  11.342 -0.0849  0.9102  0.9386
 6353SOL     OW30691   1.704   4.233   7.944 -0.5291 -0.1686  0.3048
 6353SOL    HW130692   1.712   4.254   8.037  2.9069 -0.8168  0.1776
 6353SOL    HW230693   1.740   4.144   7.945  0.1723  0.1247  1.2254
 6354SOL     OW30694   3.730   4.105  11.763  0.0419  0.5463 -0.5964
 6354SOL    HW130695   3.664   4.135  11.702  0.4412  0.4066 -1.1004
 6354SOL    HW230696   3.683   4.099  11.846 -0.8056 -0.7630 -1.1837
 6355SOL     OW30697   1.584   3.490  15.591 -0.1001 -0.2021  0.7462
 6355SOL    HW130698   1.593   3.493  15.496 -1.6768  0.6811  0.6236
 6355SOL    HW230699   1.532   3.411  15.605 -0.9786  0.6736  2.3772
 6356SOL     OW30700   4.109   1.394   8.916 -0.2357  0.3099  0.2457
 6356SOL    HW130701   4.142   1.353   8.836  1.1338  1.5564  0.1694
 6356SOL    HW230702   4.039   1.448   8.878  0.9915  1.7136 -0.0434
 6357SOL     OW30703   4.354   0.696   4.270 -0.6920  0.1264  0.0809
 6357SOL    HW130704   4.302   0.720   4.193  0.5102  0.5228 -0.6001
 6357SOL    HW230705   4.344   0.601   4.277 -3.7041  0.3759 -0.5827
 6358SOL     OW30706   0.897   0.642   8.178 -0.3299 -0.1155  0.2708
 6358SOL    HW130707   0.903   0.599   8.093  1.3076  0.1468  0.2593
 6358SOL    HW230708   0.811   0.616   8.212 -0.5217  0.1581 -0.0081
 6359SOL     OW30709   0.933   1.337  12.668 -0.0952  0.1178 -0.0767
 6359SOL    HW130710   0.999   1.271  12.690  0.2445 -0.0558 -1.6336
 6359SOL    HW230711   0.974   1.414  12.708  2.4042 -1.3003  0.1320
 6360SOL     OW30712   2.089   2.346   5.288  0.1658  0.4636 -0.4899
 6360SOL    HW130713   2.008   2.310   5.251  0.0892  0.5354 -0.3920
 6360SOL    HW230714   2.085   2.315   5.378  0.9983 -0.7980 -0.8896
 6361SOL     OW30715   3.587   0.563   2.649  0.0795  0.1223 -0.4971
 6361SOL    HW130716   3.546   0.484   2.613  1.9013 -0.4699 -1.3072
 6361SOL    HW230717   3.568   0.557   2.743  0.0025  2.7912 -0.3643
 6362SOL     OW30718   3.927   1.108   7.928  0.1272 -0.4747 -0.2353
 6362SOL    HW130719   3.860   1.089   7.993  0.5967  0.8780  0.6570
 6362SOL    HW230720   3.935   1.203   7.918  1.1405 -0.5550 -0.2634
 6363SOL     OW30721   3.682   2.223   1.065 -0.3798 -0.0231 -0.6394
 6363SOL    HW130722   3.659   2.203   0.974  0.3786 -1.7794 -0.4365
 6363SOL    HW230723   3.667   2.141   1.112  0.3908  0.7966  1.0353
 6364SOL     OW30724   1.552   4.283   2.151 -0.0864  0.3031  0.1600
 6364SOL    HW130725   1.532   4.298   2.243 -1.2473 -0.3079  0.0012
 6364SOL    HW230726   1.523   4.192   2.147 -2.6128  1.0495  1.5490
 6365SOL     OW30727   1.539   3.178  15.615 -0.1277  0.1114 -0.4517
 6365SOL    HW130728   1.634   3.172  15.628  0.2684  1.2940 -2.8846
 6365SOL    HW230729   1.532   3.114  15.544  0.9335 -0.5901  0.0694
 6366SOL     OW30730   2.410   3.380  12.717  0.7339  0.0334 -0.4933
 6366SOL    HW130731   2.406   3.469  12.680  1.8070 -0.1539 -1.0620
 6366SOL    HW230732   2.411   3.407  12.809 -0.7971 -0.0523 -0.4603
 6367SOL     OW30733   2.525   0.445   3.550 -0.2097  0.1831 -0.1653
 6367SOL    HW130734   2.494   0.468   3.462  0.8355 -1.6020 -1.0052
 6367SOL    HW230735   2.544   0.351   3.555 -0.5843  0.1339  0.2688
 6368SOL     OW30736   4.256   3.524   3.157  0.4072  0.5517  0.4978
 6368SOL    HW130737   4.176   3.500   3.204  0.6502  0.9175  1.0968
 6368SOL    HW230738   4.228   3.604   3.112 -0.7106 -0.0801  0.0641
 6369SOL     OW30739   0.749   3.337   7.002  0.0359 -0.5127 -0.0986
 6369SOL    HW130740   0.767   3.244   6.988  0.5562 -0.3972 -0.2222
 6369SOL    HW230741   0.719   3.334   7.093  0.7342 -0.3884  0.1349
 6370SOL     OW30742   2.840   0.920   4.677  0.6055 -0.2538 -0.8235
 6370SOL    HW130743   2.867   1.005   4.712  2.4085  0.0129 -2.8743
 6370SOL    HW230744   2.907   0.902   4.611  1.3296  0.3081 -0.2441
 6371SOL     OW30745   1.953   3.592   2.197  0.5470 -0.0246  0.3864
 6371SOL    HW130746   1.975   3.623   2.285  1.5460  0.2602  0.0391
 6371SOL    HW230747   1.874   3.541   2.214  0.0987  0.5882  0.0969
 6372SOL     OW30748   3.736   3.724  13.419 -0.0570  0.0103 -0.0457
 6372SOL    HW130749   3.650   3.686  13.398  0.6303 -2.2599  1.2669
 6372SOL    HW230750   3.732   3.808  13.373  1.3625 -0.0270 -0.2250
 6373SOL     OW30751   1.389   1.723   5.065  0.6896 -0.0159  0.4108
 6373SOL    HW130752   1.354   1.773   4.991 -1.0806 -0.8633  0.6859
 6373SOL    HW230753   1.408   1.792   5.129 -0.2964 -1.2882  2.0672
 6374SOL     OW30754   2.564   4.622  16.244 -0.2007  0.1290 -0.5616
 6374SOL    HW130755   2.553   4.717  16.241 -0.5279  0.1084  0.1908
 6374SOL    HW230756   2.658   4.616  16.263 -0.2952  1.7391  0.3942
 6375SOL     OW30757   1.162   3.594  12.491  0.0398 -0.1562  0.0815
 6375SOL    HW130758   1.207   3.532  12.548  0.5299 -1.8157 -2.0793
 6375SOL    HW230759   1.163   3.542  12.410  0.5639  0.7632 -0.5126
 6376SOL     OW30760   3.258   3.731   1.409 -0.1920  0.5889 -0.1269
 6376SOL    HW130761   3.296   3.683   1.483 -0.1542  0.9130  0.0671
 6376SOL    HW230762   3.304   3.694   1.333  1.0251  1.9908 -0.0876
 6377SOL     OW30763   1.848   1.916   1.064 -0.3016 -0.6513 -0.0373
 6377SOL    HW130764   1.875   1.910   1.156 -2.2725 -2.6323  0.4326
 6377SOL    HW230765   1.755   1.897   1.079 -0.3291 -0.3831  0.1360
 6378SOL     OW30766   2.193   1.340   3.487 -0.0527 -0.4442  0.1334
 6378SOL    HW130767   2.140   1.357   3.410 -0.3355  2.6365  0.9730
 6378SOL    HW230768   2.221   1.429   3.511  0.6746  0.1142 -2.8301
 6379SOL     OW30769   2.938   1.029  15.453 -0.3608  0.2011  0.2679
 6379SOL    HW130770   2.876   1.089  15.411  0.5070 -1.2137 -2.9896
 6379SOL    HW230771   2.882   0.992  15.521  0.7204 -0.6524  0.6947
 6380SOL     OW30772   3.390   1.701   3.118 -0.5487  0.0686  0.2057
 6380SOL    HW130773   3.440   1.741   3.046 -2.4232  1.9066 -0.0855
 6380SOL    HW230774   3.310   1.746   3.090 -1.5810 -2.0575 -0.2787
 6381SOL     OW30775   4.133   0.583   6.190 -0.1751 -0.0700 -0.1517
 6381SOL    HW130776   4.130   0.566   6.284  1.5917 -1.2594 -0.3186
 6381SOL    HW230777   4.227   0.573   6.182 -0.4329 -1.6585 -1.1243
 6382SOL     OW30778   1.520   1.947  10.052 -0.1419 -0.4419  0.0549
 6382SOL    HW130779   1.529   1.988   9.965  1.0991  0.2982  0.5249
 6382SOL    HW230780   1.583   1.875  10.052  0.5036  0.1173  3.0225
 6383SOL     OW30781   2.857   0.027   0.749  0.3992  0.1923  0.3279
 6383SOL    HW130782   2.805   0.099   0.714 -1.2172 -0.8936  0.5085
 6383SOL    HW230783   2.810   0.013   0.831  1.0403 -0.6143  0.5579
 6384SOL     OW30784   4.651   1.618  12.940 -0.4271  0.2955 -0.4814
 6384SOL    HW130785   4.711   1.580  12.875 -1.7059 -0.8953 -0.9571
 6384SOL    HW230786   4.626   1.694  12.888 -0.5834  0.4285 -0.2087
 6385SOL     OW30787   0.344   2.273  13.756  0.3995  0.1748  0.4462
 6385SOL    HW130788   0.319   2.313  13.839  2.2877 -0.0048  1.1072
 6385SOL    HW230789   0.272   2.290  13.696  1.9968  0.8149 -1.3009
 6386SOL     OW30790   2.540   3.388  15.965 -0.5255  0.2012 -0.3803
 6386SOL    HW130791   2.561   3.475  15.999 -2.4561  0.8810 -0.9243
 6386SOL    HW230792   2.587   3.379  15.883 -0.9474 -1.3627 -0.4368
 6387SOL     OW30793   4.028   3.015   8.611 -0.1014 -0.7199 -0.2194
 6387SOL    HW130794   3.948   3.061   8.586  0.9602  0.0738 -2.1525
 6387SOL    HW230795   3.996   2.985   8.696 -1.0542 -1.2252 -0.7665
 6388SOL     OW30796   0.629   1.384   6.648 -0.2634  0.6782  0.3197
 6388SOL    HW130797   0.594   1.469   6.622 -0.7483  1.2904  3.0468
 6388SOL    HW230798   0.564   1.354   6.711  1.2950  1.0067  2.0788
 6389SOL     OW30799   3.934   0.987   1.685  0.5033 -0.1447  0.6363
 6389SOL    HW130800   3.906   1.069   1.726 -0.8426  0.4398 -1.4479
 6389SOL    HW230801   4.012   0.969   1.737  0.3975 -0.5107  0.6719
 6390SOL     OW30802   4.620   0.090  13.427 -0.2709  0.0051 -0.3176
 6390SOL    HW130803   4.566   0.168  13.437  0.2530  0.4947 -1.2628
 6390SOL    HW230804   4.573   0.043  13.359 -0.0562 -1.1342  0.3284
 6391SOL     OW30805   3.128   2.074   3.273 -0.3130 -0.5610  0.1870
 6391SOL    HW130806   3.065   2.133   3.314  0.2512 -0.7493  1.3493
 6391SOL    HW230807   3.142   2.108   3.185 -1.5678 -0.5446 -0.0060
 6392SOL     OW30808   2.862   4.165   6.323  0.2678 -0.3664 -0.5937
 6392SOL    HW130809   2.837   4.257   6.323  4.1476  0.6776  1.0744
 6392SOL    HW230810   2.816   4.135   6.401  1.7909 -0.1839  0.3741
 6393SOL     OW30811   1.508   0.426   7.473 -0.2395 -0.4656 -0.6570
 6393SOL    HW130812   1.538   0.373   7.547 -0.5830 -0.7430 -0.7153
 6393SOL    HW230813   1.419   0.394   7.467  0.2201 -1.1867 -3.4596
 6394SOL     OW30814   2.054   2.137   4.272  0.2168  0.1527  0.0625
 6394SOL    HW130815   2.023   2.221   4.239  0.1061  0.1684  0.2075
 6394SOL    HW230816   2.118   2.162   4.338  0.8049  0.6743 -0.6954
 6395SOL     OW30817   3.289   1.293   3.783 -0.4847 -0.1501  0.6286
 6395SOL    HW130818   3.233   1.366   3.755  0.2748  1.9804  4.6616
 6395SOL    HW230819   3.370   1.310   3.735 -0.6817  1.4529  0.8634
 6396SOL     OW30820   2.062   2.659   4.235  0.1970  0.3731 -0.6441
 6396SOL    HW130821   2.114   2.581   4.216 -1.7223 -0.8566 -0.8387
 6396SOL    HW230822   2.084   2.706   4.155 -1.0403  2.3289  0.1550
 6397SOL     OW30823   3.052   4.101   2.303  0.3512 -0.3226  0.2384
 6397SOL    HW130824   3.013   4.188   2.309 -0.0756 -0.5837  1.1164
 6397SOL    HW230825   3.136   4.124   2.261 -0.5843  1.0049 -0.9324
 6398SOL     OW30826   2.040   0.234  11.908 -0.2611  0.2157 -0.1119
 6398SOL    HW130827   2.031   0.328  11.926 -0.9030  0.4469 -1.6247
 6398SOL    HW230828   1.946   0.216  11.902 -0.1272 -0.9968  1.5511
 6399SOL     OW30829   0.892   1.506   6.629  0.5474  0.4678  0.3868
 6399SOL    HW130830   0.923   1.455   6.704 -0.5255 -0.0884  0.4569
 6399SOL    HW230831   0.806   1.463   6.623  1.5152 -1.4819  0.3421
 6400SOL     OW30832   2.267   3.523  16.712  0.2943 -0.1615  0.4784
 6400SOL    HW130833   2.291   3.432  16.723  0.5484 -0.1943 -0.3400
 6400SOL    HW230834   2.289   3.565  16.796 -0.6458 -2.1151  1.6942
 6401SOL     OW30835   3.696   4.468   6.634 -0.4447 -0.3888 -0.4797
 6401SOL    HW130836   3.675   4.397   6.694 -0.0412 -0.8682 -0.9037
 6401SOL    HW230837   3.708   4.536   6.699 -2.4771 -2.4318  2.0342
 6402SOL     OW30838   1.845   3.582  15.967 -0.1496 -0.0525 -0.1644
 6402SOL    HW130839   1.921   3.558  16.020 -0.8981 -2.4154 -0.1579
 6402SOL    HW230840   1.839   3.677  15.978 -1.9448 -0.1211 -0.6283
 6403SOL     OW30841   0.184   1.025  15.325  0.0713 -0.3076 -0.1337
 6403SOL    HW130842   0.113   0.961  15.311  0.1359 -0.8775  2.0695
 6403SOL    HW230843   0.145   1.099  15.278 -2.6370 -1.1813  0.6933
 6404SOL     OW30844   2.116   0.217   4.583  0.1045  0.0317 -0.1869
 6404SOL    HW130845   2.192   0.160   4.593 -0.0680 -0.1302  0.2053
 6404SOL    HW230846   2.131   0.270   4.504  0.2025  1.4142  0.7559
 6405SOL     OW30847   0.605   4.038   5.271 -0.0044  0.3083 -0.0273
 6405SOL    HW130848   0.696   4.033   5.242 -0.6969 -0.5233 -2.1139
 6405SOL    HW230849   0.618   4.104   5.339  0.4531 -0.7757  0.9229
 6406SOL     OW30850   2.666   0.847   0.745  0.9547  0.1193 -0.0444
 6406SOL    HW130851   2.670   0.886   0.832  1.8318 -1.5163  0.6456
 6406SOL    HW230852   2.572   0.853   0.728  0.8996  1.6501  0.7654
 6407SOL     OW30853   3.758   0.022   6.282  0.5579 -0.4197  0.3053
 6407SOL    HW130854   3.715   4.711   6.352  1.5428 -0.2631  1.0223
 6407SOL    HW230855   3.770   4.697   6.211 -0.5475  0.5860 -0.7784
 6408SOL     OW30856   2.681   3.459   6.719  0.0779  0.5732  0.6946
 6408SOL    HW130857   2.762   3.429   6.678 -0.2714  0.6030 -0.0186
 6408SOL    HW230858   2.640   3.506   6.646 -1.8661  0.4557  1.6900
 6409SOL     OW30859   2.113   3.886   7.110 -0.0321  0.1030 -0.9068
 6409SOL    HW130860   2.099   3.792   7.124 -3.1501  0.7468  0.3756
 6409SOL    HW230861   2.118   3.920   7.199 -3.1403 -1.3816 -0.1669
 6410SOL     OW30862   3.877   0.750   2.820  0.3781 -0.2811 -0.4950
 6410SOL    HW130863   3.819   0.823   2.840  0.5864  0.3119 -1.9900
 6410SOL    HW230864   3.900   0.714   2.905  0.1020 -0.3818 -0.4622
 6411SOL     OW30865   4.651   0.427   0.920 -0.0325 -0.1365  0.5588
 6411SOL    HW130866   4.606   0.490   0.975  1.7801  1.4787  0.2039
 6411SOL    HW230867   4.577   0.371   0.897 -1.1549  1.1349  1.0984
 6412SOL     OW30868   3.840   2.124   0.838 -0.4309 -0.3831  0.2570
 6412SOL    HW130869   3.855   2.211   0.802  1.2274 -0.4784  0.7234
 6412SOL    HW230870   3.746   2.129   0.822  0.0019 -1.0711 -2.6719
 6413SOL     OW30871   3.579   2.356   0.566  0.0359 -0.3794 -0.2359
 6413SOL    HW130872   3.519   2.425   0.593 -0.6344 -0.2376 -2.0422
 6413SOL    HW230873   3.524   2.305   0.505  1.4419  0.5440 -2.2599
 6414SOL     OW30874   0.043   0.723   7.693  0.2471 -0.4132 -0.5963
 6414SOL    HW130875   0.101   0.698   7.621 -0.8179 -0.2732 -1.4975
 6414SOL    HW230876   4.723   0.647   7.688  2.6118 -2.1695 -1.3256
 6415SOL     OW30877   3.993   0.199   3.588 -0.2088  0.1265  0.2409
 6415SOL    HW130878   3.979   0.294   3.595 -4.0698 -0.4685  0.7284
 6415SOL    HW230879   3.920   0.178   3.647  1.0661 -0.7780  1.4907
 6416SOL     OW30880   1.419   3.243   3.123 -0.0337  0.0478 -0.0945
 6416SOL    HW130881   1.439   3.173   3.062 -1.6541 -1.1090  0.7052
 6416SOL    HW230882   1.462   3.212   3.203  1.0472 -0.6288 -0.9329
 6417SOL     OW30883   0.349   1.107   5.173  0.2370  0.7800 -0.2526
 6417SOL    HW130884   0.283   1.177   5.174 -1.6742 -1.0094 -2.2560
 6417SOL    HW230885   0.406   1.138   5.244  0.5164 -1.2263  0.3715
 6418SOL     OW30886   0.888   2.089   6.222 -0.2137  0.0985 -0.4659
 6418SOL    HW130887   0.963   2.085   6.282 -1.2686 -3.0019  0.6624
 6418SOL    HW230888   0.923   2.065   6.137  2.0996  2.4853 -0.1982
 6419SOL     OW30889   1.189   2.616   6.762  0.0127 -0.9072 -0.2451
 6419SOL    HW130890   1.257   2.661   6.711 -0.2423  1.5379  1.5900
 6419SOL    HW230891   1.175   2.545   6.699  2.4966  0.4506 -2.3140
 6420SOL     OW30892   2.755   3.717   8.773  0.1138  0.0847 -0.0598
 6420SOL    HW130893   2.697   3.663   8.719  1.4210 -0.6582 -0.7174
 6420SOL    HW230894   2.704   3.797   8.785  1.0935  0.8073 -0.6767
 6421SOL     OW30895   3.902   3.358   2.447  0.3767 -0.2487 -0.2063
 6421SOL    HW130896   3.904   3.291   2.378 -1.5017 -0.3447 -0.1717
 6421SOL    HW230897   3.978   3.411   2.423  1.2509 -1.8889 -1.1032
 6422SOL     OW30898   3.337   0.137   4.789  0.2933  0.2448 -0.1730
 6422SOL    HW130899   3.351   0.214   4.844  4.0008  1.6458 -3.0687
 6422SOL    HW230900   3.335   0.071   4.858 -0.8460  0.7041  0.2287
 6423SOL     OW30901   1.471   0.422   4.458  0.0925 -0.0073 -0.7681
 6423SOL    HW130902   1.565   0.431   4.474  0.0731  1.8886 -1.7118
 6423SOL    HW230903   1.462   0.338   4.413  0.2668 -0.3657 -0.1370
 6424SOL     OW30904   2.164   1.304  11.344  0.4916  0.5858 -0.2264
 6424SOL    HW130905   2.202   1.315  11.257  4.0959 -0.5669  1.2000
 6424SOL    HW230906   2.237   1.255  11.382  1.1319  1.0665 -0.8327
 6425SOL     OW30907   1.839   0.704   3.245  0.4651 -0.7344  0.2680
 6425SOL    HW130908   1.838   0.775   3.309 -0.3960  0.2478 -0.8365
 6425SOL    HW230909   1.762   0.715   3.190  1.1893 -1.3808 -0.8712
 6426SOL     OW30910   4.162   1.199   9.097 -0.2627  0.0012 -0.0625
 6426SOL    HW130911   4.187   1.137   9.029  1.5404 -0.7321  1.2640
 6426SOL    HW230912   4.145   1.280   9.049  2.5925  0.7802  0.1906
 6427SOL     OW30913   2.918   2.198   7.341  0.2067 -0.4812 -0.6346
 6427SOL    HW130914   2.895   2.181   7.250 -1.4140  0.0240 -0.3352
 6427SOL    HW230915   2.955   2.113   7.364  0.8931  0.5282  2.0222
 6428SOL     OW30916   2.650   3.677  16.074 -0.1176 -0.6896 -0.4239
 6428SOL    HW130917   2.671   3.678  15.981 -1.7685  0.1551 -0.7861
 6428SOL    HW230918   2.714   3.742  16.102 -0.3351  0.6707 -3.1266
 6429SOL     OW30919   0.105   2.144   4.421 -0.1769 -0.3571  0.0935
 6429SOL    HW130920   0.160   2.085   4.472  0.0601 -0.4424 -0.2656
 6429SOL    HW230921   0.168   2.166   4.353 -1.3492  1.2576 -0.4749
 6430SOL     OW30922   0.425   2.575   7.418  0.2584 -0.2686 -0.7491
 6430SOL    HW130923   0.404   2.502   7.476  1.4096  0.0312  0.0426
 6430SOL    HW230924   0.507   2.607   7.454  0.2265 -2.6014  1.4323
 6431SOL     OW30925   3.863   2.215   9.427 -0.5946  0.0287  0.1579
 6431SOL    HW130926   3.832   2.125   9.439  1.6726 -0.6062  1.1988
 6431SOL    HW230927   3.940   2.221   9.484  2.0082 -1.2021 -3.2554
 6432SOL     OW30928   2.548   2.087   1.692 -1.0203  0.0877  0.7032
 6432SOL    HW130929   2.595   2.113   1.613  0.9911  0.3544  1.9925
 6432SOL    HW230930   2.455   2.081   1.670 -1.5984  2.5773  2.4841
 6433SOL     OW30931   1.999   4.460   5.166 -1.2793 -0.0214  0.2939
 6433SOL    HW130932   1.972   4.528   5.228  0.9695 -0.8694  2.1843
 6433SOL    HW230933   1.965   4.389   5.221 -0.3198 -0.1722  0.7006
 6434SOL     OW30934   4.431   0.288   5.445  0.2416  0.1307  0.1869
 6434SOL    HW130935   4.393   0.368   5.482 -1.6045 -0.2063 -0.9927
 6434SOL    HW230936   4.519   0.293   5.483 -0.1622 -2.3875  1.4639
 6435SOL     OW30937   0.347   3.790   6.811 -0.0152  0.1839 -0.2708
 6435SOL    HW130938   0.380   3.868   6.854  2.0946 -0.4096 -0.7783
 6435SOL    HW230939   0.425   3.766   6.759 -0.5075 -2.2888  0.1126
 6436SOL     OW30940   3.133   3.073  14.656  0.5078 -0.5808 -0.0583
 6436SOL    HW130941   3.065   3.140  14.647  1.3009  0.5733  2.4238
 6436SOL    HW230942   3.109   3.041  14.743  0.7513  1.1724  0.6663
 6437SOL     OW30943   0.339   3.986  12.344  0.0140  0.3575 -0.0277
 6437SOL    HW130944   0.323   3.971  12.437  0.2212  2.1177  0.2795
 6437SOL    HW230945   0.293   3.905  12.320  0.7295 -0.9782  3.0417
 6438SOL     OW30946   0.667   0.974   6.944 -0.1171 -0.2993  0.7455
 6438SOL    HW130947   0.685   0.989   7.036  0.1722 -0.3181  0.6926
 6438SOL    HW230948   0.572   0.970   6.945 -0.1791  0.9631  0.2467
 6439SOL     OW30949   2.577   1.814   2.429 -0.4595 -0.6367  0.9219
 6439SOL    HW130950   2.530   1.753   2.486  0.5696 -0.6177  1.7951
 6439SOL    HW230951   2.567   1.892   2.484 -1.5181  0.2840 -0.5831
 6440SOL     OW30952   4.290   4.101   8.243  0.2073 -0.3079 -0.0459
 6440SOL    HW130953   4.303   4.033   8.309 -0.4940 -0.4670 -0.0682
 6440SOL    HW230954   4.379   4.119   8.212 -0.6185 -0.6040 -2.6083
 6441SOL     OW30955   2.896   0.111   5.210 -0.5325 -0.2864  0.1395
 6441SOL    HW130956   2.926   0.198   5.237 -0.1394 -0.9145  1.7496
 6441SOL    HW230957   2.830   0.133   5.144 -0.7893 -1.7267 -0.0825
 6442SOL     OW30958   1.471   4.705   7.146  0.1689 -0.1865  0.1203
 6442SOL    HW130959   1.535   4.640   7.119  1.0248  0.8832 -0.4227
 6442SOL    HW230960   1.412   4.653   7.200  1.3549 -0.7950  0.8218
 6443SOL     OW30961   2.770   2.092   8.610 -0.5940  0.1684  0.0564
 6443SOL    HW130962   2.745   2.170   8.660 -0.4918  0.7795 -0.8504
 6443SOL    HW230963   2.847   2.120   8.561 -1.1104  0.0516 -0.8098
 6444SOL     OW30964   2.251   0.036   1.075 -0.5220  0.0188 -0.4708
 6444SOL    HW130965   2.254   0.119   1.027 -0.0011  0.1698 -0.1791
 6444SOL    HW230966   2.169   0.041   1.125  0.4572  0.5680  1.1165
 6445SOL     OW30967   3.895   2.038   7.487 -0.1961 -0.3787  0.3124
 6445SOL    HW130968   3.969   1.987   7.456 -0.7516 -0.2564 -1.2267
 6445SOL    HW230969   3.819   2.041   7.427  0.2112 -1.7300 -0.2797
 6446SOL     OW30970   1.121   3.331   6.863  0.7801  0.1553  0.1776
 6446SOL    HW130971   1.127   3.277   6.942 -3.9578  0.7510  0.9445
 6446SOL    HW230972   1.071   3.407   6.892  1.0984  0.5000 -0.1797
 6447SOL     OW30973   3.735   0.565   4.412 -0.3154 -0.0846 -0.2524
 6447SOL    HW130974   3.692   0.492   4.367  0.8055 -0.1624 -1.1923
 6447SOL    HW230975   3.659   0.604   4.455 -0.3599 -1.2283  0.7140
 6448SOL     OW30976   2.407   1.459   2.230  0.1499 -0.1642 -0.0527
 6448SOL    HW130977   2.318   1.435   2.257  0.3939 -0.0198  0.8687
 6448SOL    HW230978   2.404   1.553   2.218  1.7059  0.1917  2.2924
 6449SOL     OW30979   2.372   3.808   2.690  0.7212  0.0153  0.3980
 6449SOL    HW130980   2.306   3.743   2.713 -0.1117  0.1336 -1.6055
 6449SOL    HW230981   2.328   3.893   2.691 -0.2731 -0.5201  1.2532
 6450SOL     OW30982   4.143   4.721   8.707 -0.1085 -0.0007 -1.1396
 6450SOL    HW130983   4.146   0.059   8.766 -1.7192  1.6910 -3.2264
 6450SOL    HW230984   4.230   0.007   8.676 -0.2451 -0.9747 -2.2367
 6451SOL     OW30985   3.531   4.195  11.608 -1.0460  1.0717 -0.7964
 6451SOL    HW130986   3.589   4.266  11.581 -0.0053 -0.1628 -1.7635
 6451SOL    HW230987   3.470   4.249  11.659 -0.7985 -0.5110  1.2084
 6452SOL     OW30988   3.837   4.178  15.206 -0.4268  0.7719  0.2119
 6452SOL    HW130989   3.868   4.269  15.203  2.1000  0.0402  3.5838
 6452SOL    HW230990   3.825   4.152  15.115 -2.5404  3.1385 -0.1892
 6453SOL     OW30991   1.387   1.965   1.746 -0.3891 -0.0931  0.6082
 6453SOL    HW130992   1.308   2.016   1.725 -0.4340  0.4120  2.0435
 6453SOL    HW230993   1.392   1.948   1.840 -0.6298 -1.7685  0.3248
 6454SOL     OW30994   0.579   2.871   2.405  0.5351 -0.6492 -0.1199
 6454SOL    HW130995   0.492   2.910   2.405  1.8049  2.1645  0.9383
 6454SOL    HW230996   0.624   2.954   2.416  1.6624 -1.1527 -0.9546
 6455SOL     OW30997   2.545   2.417  14.192 -0.2342  0.5654 -0.6785
 6455SOL    HW130998   2.513   2.327  14.186 -2.3209  1.2596  0.0344
 6455SOL    HW230999   2.591   2.422  14.108 -0.0464  0.3953 -0.5855
 6456SOL     OW31000   0.696   1.048   3.515 -0.2308 -0.0837 -0.1094
 6456SOL    HW131001   0.645   1.101   3.576  1.8840  0.5319  1.1546
 6456SOL    HW231002   0.765   1.013   3.571 -0.5642  1.2515  1.1415
 6457SOL     OW31003   4.145   0.605   8.787  0.0895 -0.4106  0.1285
 6457SOL    HW131004   4.062   0.594   8.834 -0.0325 -1.2448 -0.2934
 6457SOL    HW231005   4.197   0.659   8.848 -0.4631 -2.0813  2.0693
 6458SOL     OW31006   2.460   0.940  16.650 -0.2199  0.4277 -0.4069
 6458SOL    HW131007   2.376   0.900  16.627  0.3702 -1.7846  1.2779
 6458SOL    HW231008   2.439   1.023  16.691  0.9830  0.6831 -0.3051
 6459SOL     OW31009   2.201   2.206  14.372 -0.7190 -0.2926  0.1559
 6459SOL    HW131010   2.232   2.297  14.372  0.9393 -0.8377  1.1167
 6459SOL    HW231011   2.148   2.201  14.452 -3.2761  1.4432 -1.4677
 6460SOL     OW31012   0.706   4.068  11.680  0.4709 -0.0766  0.1620
 6460SOL    HW131013   0.723   4.103  11.592 -0.8616 -0.5165 -0.2702
 6460SOL    HW231014   0.797   4.068  11.708  0.0908 -1.2823  1.4213
 6461SOL     OW31015   4.151   2.854   1.853 -0.4173  1.0751  0.1140
 6461SOL    HW131016   4.105   2.834   1.771  1.0276 -1.0564 -0.1839
 6461SOL    HW231017   4.242   2.830   1.833 -0.9820 -0.8015 -0.2625
 6462SOL     OW31018   0.509   0.628   2.776 -0.6844 -0.4569  0.1603
 6462SOL    HW131019   0.529   0.586   2.860 -0.0977  0.0507  0.2753
 6462SOL    HW231020   0.449   0.561   2.743 -1.4462 -0.6951  2.0187
 6463SOL     OW31021   4.392   1.981   2.265 -0.1713  0.1936  0.1695
 6463SOL    HW131022   4.359   2.068   2.242  1.3356  0.6485 -0.2914
 6463SOL    HW231023   4.450   1.972   2.189  0.3601 -0.6572  0.6787
 6464SOL     OW31024   3.877   3.929   4.373  0.0203 -0.0793  0.1194
 6464SOL    HW131025   3.820   3.919   4.297  0.2513  0.2881 -0.1015
 6464SOL    HW231026   3.958   3.921   4.323 -0.8486 -0.0016 -1.2934
 6465SOL     OW31027   1.118   4.278   9.115 -0.0747 -0.3133  0.6477
 6465SOL    HW131028   1.084   4.355   9.069  1.5510  0.3443  0.5316
 6465SOL    HW231029   1.041   4.256   9.166 -1.4427  1.0328 -0.8275
 6466SOL     OW31030   0.538   4.613  11.075  0.0503  0.1177 -0.7542
 6466SOL    HW131031   0.525   4.703  11.104  0.5536 -0.4489  1.1863
 6466SOL    HW231032   0.631   4.615  11.049  0.5276 -0.8250  0.8923
 6467SOL     OW31033   0.912   3.582   4.211 -0.1179 -0.8618 -0.4639
 6467SOL    HW131034   0.971   3.650   4.243  0.2307 -1.7598  0.7943
 6467SOL    HW231035   0.895   3.525   4.286 -0.3987 -1.0284 -0.6528
 6468SOL     OW31036   4.405   4.251   6.415  1.0746  0.2097  0.1064
 6468SOL    HW131037   4.314   4.256   6.385  2.2267  1.6815 -3.1858
 6468SOL    HW231038   4.421   4.341   6.445 -0.5015  0.0764  1.3631
 6469SOL     OW31039   3.100   1.871  17.710 -0.5046  0.5804  0.4657
 6469SOL    HW131040   3.069   1.906   0.046  2.7655  0.1461  1.8538
 6469SOL    HW231041   3.112   1.955  17.666  1.1067  0.1723  0.1175
 6470SOL     OW31042   1.572   3.494   3.157 -0.3338  0.0459 -0.2819
 6470SOL    HW131043   1.517   3.536   3.224 -1.6521 -0.9873 -0.7006
 6470SOL    HW231044   1.521   3.414   3.143 -1.1540  0.3182  1.1389
 6471SOL     OW31045   2.725   3.785   6.786  0.7154 -0.4258  0.5318
 6471SOL    HW131046   2.794   3.851   6.787  0.7543 -0.4197 -1.2930
 6471SOL    HW231047   2.757   3.738   6.709 -1.2157 -0.5646 -0.1796
 6472SOL     OW31048   1.188   3.680  14.191 -0.0035  0.0964  0.1763
 6472SOL    HW131049   1.170   3.678  14.284 -0.2176  0.9867  0.1541
 6472SOL    HW231050   1.197   3.772  14.165  0.1384  0.1142  0.2879
 6473SOL     OW31051   0.502   4.442   6.467 -0.2853  0.0425 -0.0643
 6473SOL    HW131052   0.523   4.534   6.484 -0.5077  0.2545 -0.9211
 6473SOL    HW231053   0.589   4.405   6.478 -1.2567 -2.1429  0.1924
 6474SOL     OW31054   2.245   1.343   6.777  0.4494 -0.4957  0.3568
 6474SOL    HW131055   2.274   1.252   6.780 -2.8958 -1.6208 -0.2599
 6474SOL    HW231056   2.168   1.335   6.719 -0.9662  0.3784  2.1221
 6475SOL     OW31057   2.448   2.004  12.959  0.0200  0.1929 -0.3087
 6475SOL    HW131058   2.536   1.988  12.923  0.2419  1.5813 -0.3792
 6475SOL    HW231059   2.461   2.072  13.026 -1.1562  0.5946 -0.4907
 6476SOL     OW31060   4.702   1.751   7.431 -0.3189 -0.3108  0.0664
 6476SOL    HW131061   4.661   1.762   7.517  0.9314  0.2679  0.5957
 6476SOL    HW231062   4.722   1.841   7.406  0.8451 -0.8918 -1.0508
 6477SOL     OW31063   1.130   0.748   6.848 -0.0685 -0.0401 -0.3161
 6477SOL    HW131064   1.101   0.756   6.939 -0.5927  1.8726 -0.6610
 6477SOL    HW231065   1.225   0.744   6.860 -0.1599  0.3572  0.5257
 6478SOL     OW31066   2.333   4.126   2.396  0.1666 -0.5969  0.3248
 6478SOL    HW131067   2.271   4.199   2.393  1.5131  0.5289  0.0602
 6478SOL    HW231068   2.404   4.159   2.451  1.2390 -1.4531 -0.5552
 6479SOL     OW31069   1.887   1.943  13.274 -0.1199 -0.5871 -0.1450
 6479SOL    HW131070   1.794   1.961  13.284  0.0607  0.6929 -0.8111
 6479SOL    HW231071   1.927   2.028  13.291  1.1532 -1.0433 -0.7947
 6480SOL     OW31072   4.193   3.640  11.666  0.0630 -0.2677 -0.6119
 6480SOL    HW131073   4.128   3.708  11.650 -1.0039 -1.0847  0.3299
 6480SOL    HW231074   4.139   3.572  11.706 -0.4582  0.3128 -0.3208
 6481SOL     OW31075   4.444   1.112   5.576  0.2653 -0.0842  0.0399
 6481SOL    HW131076   4.460   1.149   5.663  0.5662 -1.8436  0.7290
 6481SOL    HW231077   4.533   1.084   5.558  0.2758 -1.2145  1.8177
 6482SOL     OW31078   1.502   0.430   3.481 -0.0263  0.3769  0.1914
 6482SOL    HW131079   1.488   0.445   3.387  0.9982 -1.2202 -0.2234
 6482SOL    HW231080   1.420   0.468   3.513 -1.2186 -1.2188 -0.9587
 6483SOL     OW31081   1.927   2.242  13.964  0.2958  0.2426  0.1900
 6483SOL    HW131082   2.005   2.291  13.988 -1.7666  2.3929  2.5061
 6483SOL    HW231083   1.891   2.209  14.047 -0.2700  1.6146  0.4880
 6484SOL     OW31084   3.365   0.560   3.977  0.0576  0.2367 -0.7321
 6484SOL    HW131085   3.321   0.486   4.020 -0.8356  1.8119  1.0559
 6484SOL    HW231086   3.299   0.626   3.996  0.5114  0.8937 -1.4694
 6485SOL     OW31087   1.931   2.764  15.830  0.2420 -0.1095  0.6553
 6485SOL    HW131088   1.936   2.820  15.752  0.0822  0.0692  0.7733
 6485SOL    HW231089   1.892   2.691  15.782  1.8739  1.1818 -2.7135
 6486SOL     OW31090   4.629   0.019   4.504 -0.3769  0.1494 -0.3580
 6486SOL    HW131091   4.685   0.091   4.532 -1.1858 -0.2690  2.4247
 6486SOL    HW231092   4.675   4.724   4.427 -1.9920 -0.2614 -1.1380
 6487SOL     OW31093   2.271   3.508   5.356 -0.3734 -0.5843 -0.0511
 6487SOL    HW131094   2.271   3.520   5.261  3.5340 -1.4673 -0.1764
 6487SOL    HW231095   2.254   3.596   5.390 -1.9686 -1.8649  2.4315
 6488SOL     OW31096   4.071   4.164   4.474  0.8134  0.5413  0.0121
 6488SOL    HW131097   4.022   4.123   4.545 -1.1431 -1.3401 -2.4445
 6488SOL    HW231098   4.088   4.091   4.415 -0.2700  1.8913 -1.9669
 6489SOL     OW31099   2.472   0.505  15.002 -0.5490 -0.3032 -0.1996
 6489SOL    HW131100   2.498   0.430  15.056  0.0178  0.6842  0.8945
 6489SOL    HW231101   2.555   0.551  14.993 -0.7848  0.2494  0.4173
 6490SOL     OW31102   2.095   1.586   2.955  0.1185 -0.1243  0.5970
 6490SOL    HW131103   2.047   1.603   2.875  1.7596 -1.5281 -0.6740
 6490SOL    HW231104   2.022   1.548   3.005  0.5236 -0.5938  0.8270
 6491SOL     OW31105   0.508   2.629   8.466  0.5084 -0.8329 -1.1459
 6491SOL    HW131106   0.457   2.637   8.546 -0.1939  2.2266 -1.9021
 6491SOL    HW231107   0.593   2.671   8.483 -1.2894  0.9958  3.2559
 6492SOL     OW31108   2.508   2.752  13.959 -0.2719  0.5070  0.3308
 6492SOL    HW131109   2.550   2.833  13.929  0.3450  0.2912  0.6160
 6492SOL    HW231110   2.452   2.736  13.883  2.7605 -1.3673 -1.4978
 6493SOL     OW31111   4.111   0.144   7.388 -0.2858 -0.3632 -0.4577
 6493SOL    HW131112   4.200   0.114   7.404 -0.1849 -0.9036 -2.0391
 6493SOL    HW231113   4.113   0.163   7.294 -3.1747 -0.7903 -0.6200
 6494SOL     OW31114   4.374   0.356   3.319  0.4874 -0.3037  0.3858
 6494SOL    HW131115   4.378   0.444   3.356 -0.7777 -0.2212  0.3359
 6494SOL    HW231116   4.376   0.305   3.400  0.6041  0.5231  0.9056
 6495SOL     OW31117   3.235   1.357   9.581  0.1826  0.0143  0.0582
 6495SOL    HW131118   3.290   1.287   9.546 -0.2357 -0.1509 -0.2855
 6495SOL    HW231119   3.229   1.410   9.501  0.0641  0.5145  0.3964
 6496SOL     OW31120   3.687   1.899   6.328 -0.4948 -0.1632 -0.0384
 6496SOL    HW131121   3.748   1.877   6.399  0.2676  0.7379 -0.4118
 6496SOL    HW231122   3.702   1.826   6.269 -0.4966  0.4813 -0.8311
 6497SOL     OW31123   1.799   1.280   3.644 -0.2151  0.4782 -0.2376
 6497SOL    HW131124   1.867   1.233   3.692 -0.8119 -1.8481 -1.6620
 6497SOL    HW231125   1.721   1.225   3.647  1.7203 -2.3272 -1.4382
 6498SOL     OW31126   2.289   2.740  12.610  0.2408  0.1027  0.7286
 6498SOL    HW131127   2.343   2.711  12.537  0.5817  1.4582  0.4462
 6498SOL    HW231128   2.277   2.835  12.600 -1.9307 -0.2051  0.2464
 6499SOL     OW31129   0.688   2.784  11.700  0.0749 -0.5057 -0.0940
 6499SOL    HW131130   0.776   2.760  11.670  0.8356 -1.2037  2.7542
 6499SOL    HW231131   0.661   2.705  11.745 -1.1445  0.7106  1.3126
 6500SOL     OW31132   0.980   2.915   8.653 -0.5299 -0.3236 -0.0793
 6500SOL    HW131133   0.915   2.985   8.649 -0.8123 -0.4374  2.3804
 6500SOL    HW231134   1.057   2.965   8.681 -1.3950  0.4314  0.9911
 6501SOL     OW31135   0.055   4.355   3.430 -0.2767 -0.6843 -0.2004
 6501SOL    HW131136   0.098   4.277   3.397 -2.1065 -0.9962 -1.8717
 6501SOL    HW231137   4.700   4.340   3.410 -0.3214 -1.8785  0.8877
 6502SOL     OW31138   2.293   0.787  15.835 -0.0738 -0.3151  0.0599
 6502SOL    HW131139   2.207   0.827  15.843 -0.0787  0.2765 -2.6794
 6502SOL    HW231140   2.325   0.810  15.922 -1.4644 -0.1194  0.5102
 6503SOL     OW31141   1.954   2.733   7.763 -0.1811 -0.6015 -0.2176
 6503SOL    HW131142   1.939   2.815   7.716  1.1708  0.4482  1.1767
 6503SOL    HW231143   2.004   2.688   7.695 -0.2756 -0.6348 -0.2654
 6504SOL     OW31144   3.324   4.301  13.741 -0.2371  0.1146  0.1379
 6504SOL    HW131145   3.322   4.268  13.652  2.0562  1.2543 -0.3377
 6504SOL    HW231146   3.403   4.260  13.775  0.2585  0.1991 -0.9120
 6505SOL     OW31147   1.821   0.597   5.514 -0.1982  0.6718  0.2701
 6505SOL    HW131148   1.734   0.634   5.528 -0.1186  1.1432 -0.4667
 6505SOL    HW231149   1.868   0.627   5.591  0.0576 -1.1241  0.8235
 6506SOL     OW31150   2.132   2.373   5.910 -0.1787 -0.1354  0.0362
 6506SOL    HW131151   2.222   2.347   5.933 -0.7362 -1.1876  1.0328
 6506SOL    HW231152   2.135   2.414   5.824  1.7035 -0.9920 -0.3080
 6507SOL     OW31153   1.612   1.208   1.208 -0.2229  0.2529 -0.3643
 6507SOL    HW131154   1.541   1.212   1.144 -0.6519 -1.7501 -0.0172
 6507SOL    HW231155   1.650   1.123   1.186 -1.5961 -0.4329 -0.0369
 6508SOL     OW31156   3.186   4.730   7.809 -0.0641 -0.1765  0.4931
 6508SOL    HW131157   3.189   0.085   7.782  0.1914  0.6318  3.3320
 6508SOL    HW231158   3.202   4.678   7.730  1.0106 -1.1927  1.3839
 6509SOL     OW31159   3.092   2.347   9.397 -0.4215 -0.2382  0.1240
 6509SOL    HW131160   3.131   2.323   9.313  0.7621 -0.0864  0.6445
 6509SOL    HW231161   3.101   2.442   9.399 -0.4784 -0.2572  1.3079
 6510SOL     OW31162   1.348   3.065  11.670 -0.1390  0.4504  0.1702
 6510SOL    HW131163   1.368   3.063  11.763 -0.9223 -1.0454  0.3025
 6510SOL    HW231164   1.259   3.098  11.660  0.1946  1.2775 -0.0481
 6511SOL     OW31165   2.650   0.067   0.487 -0.6990  0.9250 -0.5876
 6511SOL    HW131166   2.724   0.108   0.441  0.2768 -3.3986 -2.9041
 6511SOL    HW231167   2.648   0.129   0.560 -1.4330 -0.3301  0.4476
 6512SOL     OW31168   3.508   4.261   8.210  0.2416  0.2332 -0.3329
 6512SOL    HW131169   3.490   4.196   8.142  0.5511 -1.8035  1.5463
 6512SOL    HW231170   3.472   4.337   8.164  0.9768  0.0450 -1.2056
 6513SOL     OW31171   1.105   1.070   4.487  0.2984  0.3572 -0.1719
 6513SOL    HW131172   1.159   1.055   4.410 -1.3690  1.1879 -1.5008
 6513SOL    HW231173   1.171   1.040   4.549 -0.1150  0.6611  0.4261
 6514SOL     OW31174   1.480   3.509   4.000 -0.1074 -0.6394 -0.0109
 6514SOL    HW131175   1.433   3.425   3.999 -0.1264 -0.6120 -1.3642
 6514SOL    HW231176   1.415   3.573   3.971  0.3923 -0.4039 -0.6228
 6515SOL     OW31177   4.197   2.036   9.276 -0.5273 -0.2416  0.3273
 6515SOL    HW131178   4.118   1.983   9.279 -1.0603  0.5089 -0.5579
 6515SOL    HW231179   4.270   1.985   9.241  2.6224  3.7572  0.9928
 6516SOL     OW31180   2.612   1.228  17.535  0.1178 -0.1134 -0.1775
 6516SOL    HW131181   2.642   1.281  17.461  0.2189  0.7846  0.5092
 6516SOL    HW231182   2.689   1.239  17.590  1.3324  0.1087 -1.9337
 6517SOL     OW31183   0.149   4.021   8.675 -0.6938 -0.5741 -0.0664
 6517SOL    HW131184   0.145   4.024   8.580  1.7824  0.8446 -0.1184
 6517SOL    HW231185   0.189   4.105   8.697  0.8249 -1.4177  0.3899
 6518SOL     OW31186   2.243   1.979   3.139 -0.3219 -0.2707  0.2042
 6518SOL    HW131187   2.223   2.022   3.056 -0.8941 -0.0131  0.4711
 6518SOL    HW231188   2.268   1.890   3.113 -0.7607 -0.0599 -0.9362
 6519SOL     OW31189   3.180   1.402   3.030  0.3579  0.7195  0.4766
 6519SOL    HW131190   3.223   1.463   2.969  0.9399 -1.3633 -1.2103
 6519SOL    HW231191   3.088   1.413   3.007  0.0755 -1.1165  0.7338
 6520SOL     OW31192   1.682   3.533  15.313 -0.5019 -0.1990  0.2288
 6520SOL    HW131193   1.773   3.529  15.344  0.0343 -1.4104 -1.5300
 6520SOL    HW231194   1.664   3.446  15.278 -1.2313  0.3243 -0.7092
 6521SOL     OW31195   3.817   3.282   4.082 -0.1641 -0.1298 -0.3310
 6521SOL    HW131196   3.812   3.296   3.987 -1.0633  2.2266  0.0748
 6521SOL    HW231197   3.727   3.266   4.108  0.1592  1.0382  1.4614
 6522SOL     OW31198   2.446   4.130   0.415  0.0704  0.3862 -0.5142
 6522SOL    HW131199   2.448   4.217   0.376 -0.9090  0.4329 -0.4528
 6522SOL    HW231200   2.368   4.134   0.471  0.5644 -0.7582  0.2557
 6523SOL     OW31201   4.454   2.808  14.343 -0.1054 -0.8257 -0.3404
 6523SOL    HW131202   4.521   2.767  14.398 -1.5991 -1.0360  1.3223
 6523SOL    HW231203   4.460   2.755  14.263 -2.2209 -0.6382 -0.6217
 6524SOL     OW31204   1.602   2.413   7.110  0.5204 -0.3444  0.4939
 6524SOL    HW131205   1.531   2.465   7.073 -0.9201 -1.0526  2.2612
 6524SOL    HW231206   1.608   2.452   7.197 -2.1468 -1.9922  1.4120
 6525SOL     OW31207   1.902   3.908  14.246 -0.0426  0.1184 -0.3276
 6525SOL    HW131208   1.841   3.849  14.201 -1.3190  0.8869  0.3726
 6525SOL    HW231209   1.941   3.847  14.307  1.5728  1.3606 -0.1113
 6526SOL     OW31210   3.721   4.502   5.228  0.7440  0.0256  0.2494
 6526SOL    HW131211   3.799   4.467   5.272 -1.2044 -1.2266  2.7524
 6526SOL    HW231212   3.739   4.595   5.230  1.4244 -0.0787 -0.8282
 6527SOL     OW31213   3.725   1.417   3.558  0.3591 -1.1523 -0.0995
 6527SOL    HW131214   3.774   1.466   3.624 -0.6860 -2.0728  1.3598
 6527SOL    HW231215   3.776   1.336   3.556 -1.9012 -2.5508 -0.5084
 6528SOL     OW31216   4.160   0.663   7.226  0.1490  0.6658 -0.6641
 6528SOL    HW131217   4.175   0.642   7.133 -0.6228  2.1968 -1.1298
 6528SOL    HW231218   4.066   0.674   7.219  0.2069  0.6780 -1.4626
 6529SOL     OW31219   1.373   1.724  15.335  0.4896  0.4494 -0.5178
 6529SOL    HW131220   1.289   1.689  15.305 -0.8498  1.3288  2.2599
 6529SOL    HW231221   1.366   1.805  15.284  1.5855  0.3352 -0.8618
 6530SOL     OW31222   1.828   3.281   9.166  0.2229 -0.0789 -0.6411
 6530SOL    HW131223   1.758   3.216   9.169 -1.1167  1.3850 -0.1593
 6530SOL    HW231224   1.869   3.270   9.251  0.4228 -1.7768 -0.9508
 6531SOL     OW31225   3.627   3.130  14.459  0.4212 -0.2723 -0.2179
 6531SOL    HW131226   3.551   3.120  14.516  0.9785 -2.3619  0.1755
 6531SOL    HW231227   3.663   3.207  14.501  0.9885 -0.4200 -0.4345
 6532SOL     OW31228   2.407   3.557  12.242 -0.1301  0.4093  0.0054
 6532SOL    HW131229   2.425   3.469  12.274 -1.8352  0.3762  0.9073
 6532SOL    HW231230   2.396   3.597  12.328 -0.2170  1.4366 -0.4803
 6533SOL     OW31231   1.151   1.107   8.766 -0.1470  0.6373 -0.2802
 6533SOL    HW131232   1.189   1.021   8.783 -1.3315  0.0873 -0.4048
 6533SOL    HW231233   1.110   1.104   8.680  0.5406  0.5018 -0.6029
 6534SOL     OW31234   4.206   2.000   5.465  0.0266 -0.1790  0.6953
 6534SOL    HW131235   4.123   2.020   5.421  0.3142  1.1788  0.7671
 6534SOL    HW231236   4.179   1.910   5.483 -1.1290  0.0513  0.1002
 6535SOL     OW31237   3.333   3.670   6.283 -0.7654 -0.1589 -0.0409
 6535SOL    HW131238   3.411   3.614   6.288 -0.4141  0.4914  1.9595
 6535SOL    HW231239   3.275   3.608   6.239  0.8371 -1.8183  0.1992
 6536SOL     OW31240   1.258   2.768   5.731  0.2403  0.5198  0.4925
 6536SOL    HW131241   1.233   2.677   5.747  0.0656  0.1195 -1.9408
 6536SOL    HW231242   1.352   2.758   5.713 -0.0245 -0.1819 -0.5389
 6537SOL     OW31243   3.200   2.372   5.476  0.2915 -0.1274  0.6328
 6537SOL    HW131244   3.295   2.367   5.485  0.4790 -1.8595 -2.5439
 6537SOL    HW231245   3.183   2.337   5.563 -2.9936  1.5782  0.6980
 6538SOL     OW31246   4.490   0.127   4.853 -0.0937  0.0651  0.1620
 6538SOL    HW131247   4.582   0.116   4.874 -0.1144 -0.8771 -0.2188
 6538SOL    HW231248   4.448   0.158   4.933 -1.5886 -0.2178 -0.4971
 6539SOL     OW31249   2.599   1.148   6.496 -0.2222 -0.1221 -0.2143
 6539SOL    HW131250   2.541   1.215   6.461 -0.2075  0.1429  0.2622
 6539SOL    HW231251   2.623   1.110   6.412 -0.7073  1.1782 -0.9372
 6540SOL     OW31252   2.182   2.328   6.405 -0.0282 -0.0309 -0.8257
 6540SOL    HW131253   2.125   2.399   6.378  0.2750  0.8118  0.7262
 6540SOL    HW231254   2.208   2.372   6.486 -1.8572  0.5174 -0.5552
 6541SOL     OW31255   0.623   1.816   4.737 -0.2872 -0.8650 -0.2469
 6541SOL    HW131256   0.538   1.853   4.762  1.4532  2.7191  0.3442
 6541SOL    HW231257   0.656   1.891   4.688  0.4651 -1.4587 -0.6644
 6542SOL     OW31258   0.337   0.190  10.258  0.0656 -0.5266  0.0659
 6542SOL    HW131259   0.330   0.249  10.183 -2.5546 -0.6474  0.2233
 6542SOL    HW231260   0.391   0.245  10.315 -2.0802  1.4411  0.1833
 6543SOL     OW31261   1.641   1.767   2.079 -0.1600  0.2175 -0.4939
 6543SOL    HW131262   1.671   1.731   1.995  0.5028 -1.9045  0.6263
 6543SOL    HW231263   1.686   1.701   2.132 -0.2419  0.4639 -0.1253
 6544SOL     OW31264   4.023   2.804   2.835  0.2043  0.0426 -0.2063
 6544SOL    HW131265   4.029   2.836   2.924  0.0544 -1.7694  0.4647
 6544SOL    HW231266   4.036   2.886   2.788 -1.5054 -1.0835 -2.6392
 6545SOL     OW31267   1.448   0.098   9.900 -0.2961  0.0299  0.1311
 6545SOL    HW131268   1.356   0.082   9.919  0.0337 -1.7232  0.3072
 6545SOL    HW231269   1.454   0.191   9.881  0.8401 -0.0802 -0.0488
 6546SOL     OW31270   3.105   2.512   6.651  0.1472 -0.1812 -0.5746
 6546SOL    HW131271   3.086   2.428   6.609 -3.6822  0.8627 -0.9560
 6546SOL    HW231272   3.198   2.517   6.628 -0.1871 -1.9228 -2.3570
 6547SOL     OW31273   2.645   0.957   2.499  0.1805  0.1603 -0.6529
 6547SOL    HW131274   2.725   1.009   2.490  0.2294  0.5338  1.9606
 6547SOL    HW231275   2.575   1.007   2.456 -0.1761  0.5931  0.4316
 6548SOL     OW31276   2.376   0.001   7.703 -0.0125 -0.1014 -0.5094
 6548SOL    HW131277   2.281   0.006   7.705  0.0322  0.9506 -1.1906
 6548SOL    HW231278   2.389   4.646   7.683  1.3784  0.0962 -0.5640
 6549SOL     OW31279   4.291   4.488   7.314  0.2444  0.0413  0.3069
 6549SOL    HW131280   4.352   4.417   7.332  0.4260  0.2905  0.6764
 6549SOL    HW231281   4.207   4.451   7.343  0.1760 -0.4797 -0.5687
 6550SOL     OW31282   4.598   0.043  16.047  0.3508  0.2915  0.1632
 6550SOL    HW131283   4.544   0.089  15.982 -0.8643 -1.0405  0.2153
 6550SOL    HW231284   4.659   0.116  16.059  0.3134  0.0617  1.6932
 6551SOL     OW31285   0.493   4.069   2.141  0.7618  0.4847 -0.1651
 6551SOL    HW131286   0.514   4.147   2.091  1.6913  0.0346 -0.4751
 6551SOL    HW231287   0.533   4.092   2.224  0.6460 -1.2828  0.3838
 6552SOL     OW31288   0.266   0.592   6.347  0.2247 -0.2294 -0.2020
 6552SOL    HW131289   0.208   0.583   6.272 -0.1588  3.0683 -0.2861
 6552SOL    HW231290   0.330   0.523   6.328  0.5814  0.1794 -0.4885
 6553SOL     OW31291   3.347   1.141  10.307  0.1275 -0.2087  0.6956
 6553SOL    HW131292   3.383   1.168  10.222 -4.5058  0.3836 -1.0875
 6553SOL    HW231293   3.360   1.047  10.306 -0.7649 -0.3345  0.8907
 6554SOL     OW31294   0.640   0.778   7.743 -0.3347 -0.1515  0.1377
 6554SOL    HW131295   0.589   0.859   7.746 -0.4188 -0.2746  1.8640
 6554SOL    HW231296   0.720   0.798   7.693 -0.6238 -1.8411 -1.0237
 6555SOL     OW31297   4.668   1.268   8.368  0.2693  0.1486  0.7655
 6555SOL    HW131298   4.687   1.344   8.313  0.6179  0.7024  1.6554
 6555SOL    HW231299   0.018   1.228   8.367  0.4772  0.6063 -0.6290
 6556SOL     OW31300   3.922   4.682   9.410  0.3450  0.0336  0.0396
 6556SOL    HW131301   3.904   4.644   9.324  1.0657  0.6608 -0.3913
 6556SOL    HW231302   3.957   0.028   9.380  0.1945  0.9647  2.5301
 6557SOL     OW31303   2.059   2.261   7.524  0.1039 -0.1136  0.1665
 6557SOL    HW131304   2.119   2.207   7.575 -0.0640  0.7006  1.2168
 6557SOL    HW231305   2.125   2.318   7.485 -1.9014  1.5015 -0.8696
 6558SOL     OW31306   4.070   2.795   4.890  0.4003  0.9003  0.2396
 6558SOL    HW131307   4.085   2.787   4.984  0.1499 -2.3796 -0.0236
 6558SOL    HW231308   4.086   2.886   4.865  1.6355  0.3029 -1.1306
 6559SOL     OW31309   0.385   1.443  10.908 -0.0095  0.0412  0.5847
 6559SOL    HW131310   0.332   1.509  10.864  0.1451  0.2648  0.7372
 6559SOL    HW231311   0.460   1.490  10.944 -0.3989  0.6446  0.6125
 6560SOL     OW31312   2.111   3.583   4.022  0.5164 -0.4066 -0.3442
 6560SOL    HW131313   2.098   3.670   4.060 -1.5001 -0.3697 -1.1162
 6560SOL    HW231314   2.042   3.533   4.064 -1.4278  1.2460 -1.5689
 6561SOL     OW31315   3.352   1.694  15.396 -0.8204 -0.2282 -0.1771
 6561SOL    HW131316   3.338   1.617  15.452  0.6393  0.7790  1.5703
 6561SOL    HW231317   3.329   1.770  15.449  2.4561 -0.5902  1.7607
 6562SOL     OW31318   2.904   0.374   4.888 -0.2793  0.7147 -0.2336
 6562SOL    HW131319   2.847   0.300   4.909  0.3013 -0.2510 -2.0501
 6562SOL    HW231320   2.935   0.347   4.801  0.6253 -1.7496  0.8609
 6563SOL     OW31321   4.146   0.877   3.720  0.3842  0.4649 -0.2237
 6563SOL    HW131322   4.069   0.886   3.665  0.3242  1.0351 -0.0460
 6563SOL    HW231323   4.176   0.795   3.680 -0.5215  0.5520 -1.0583
 6564SOL     OW31324   2.166   1.522   4.201 -0.3816  0.5506  0.0741
 6564SOL    HW131325   2.250   1.529   4.157 -0.6052 -0.1834 -0.4696
 6564SOL    HW231326   2.195   1.472   4.276 -0.5779  2.6461  1.5571
 6565SOL     OW31327   0.213   1.619   5.988 -0.1143 -0.4638 -0.7038
 6565SOL    HW131328   0.163   1.672   5.926 -0.7837 -0.3264 -0.0474
 6565SOL    HW231329   0.142   1.577   6.036 -1.7225  2.8890 -0.1886
 6566SOL     OW31330   0.563   0.936   0.590  0.6483  0.2566  0.5711
 6566SOL    HW131331   0.475   0.972   0.604  1.1867  2.1824 -1.1220
 6566SOL    HW231332   0.565   0.968   0.500  1.6736  0.0306  0.5157
 6567SOL     OW31333   3.105   2.460   0.098  0.1545 -0.0041 -0.2384
 6567SOL    HW131334   3.086   2.472   0.005 -2.5750 -1.2151  0.1583
 6567SOL    HW231335   3.026   2.410   0.116 -2.3491  2.7297 -3.5438
 6568SOL     OW31336   0.197   2.674   4.360  0.3012 -0.1853  0.3606
 6568SOL    HW131337   0.156   2.588   4.369  0.5799 -0.3910 -0.3290
 6568SOL    HW231338   0.143   2.724   4.420  1.6593  1.8692 -0.1413
 6569SOL     OW31339   3.997   1.329   4.617 -0.6429  0.4648 -0.0462
 6569SOL    HW131340   4.065   1.336   4.685  0.6527 -2.9270 -1.0308
 6569SOL    HW231341   4.051   1.344   4.540  1.5635 -1.5369  1.1198
 6570SOL     OW31342   1.772   4.553   1.987 -0.2961  0.4274 -0.0763
 6570SOL    HW131343   1.842   4.539   1.924  0.0783 -0.8661  0.6228
 6570SOL    HW231344   1.762   4.462   2.014 -0.9640 -0.3172 -2.8607
 6571SOL     OW31345   1.130   3.172  13.034 -0.6917 -0.1728  0.0686
 6571SOL    HW131346   1.121   3.209  13.122 -0.0797 -1.0787  0.5053
 6571SOL    HW231347   1.053   3.210  12.991 -2.1713 -2.8979  0.3691
 6572SOL     OW31348   2.744   2.557  11.781  0.8990 -0.3334 -0.3320
 6572SOL    HW131349   2.794   2.579  11.860 -3.2747 -0.0141  2.1782
 6572SOL    HW231350   2.723   2.645  11.750  0.3453  0.1687  1.4160
 6573SOL     OW31351   0.090   3.711   2.632  0.0061 -0.4451  0.3011
 6573SOL    HW131352   0.085   3.670   2.546  0.6409  1.2333 -0.5358
 6573SOL    HW231353   0.171   3.679   2.671  0.7357  2.2778  1.0589
 6574SOL     OW31354   2.510   1.876   6.580  0.0683 -0.3890  0.1213
 6574SOL    HW131355   2.567   1.866   6.504 -0.7649  0.6830 -0.6460
 6574SOL    HW231356   2.455   1.943   6.540  2.4350  1.4962  0.0587
 6575SOL     OW31357   1.468   0.802   8.553  0.6186  0.0256 -0.0659
 6575SOL    HW131358   1.434   0.889   8.531  0.8295  0.0807 -0.1795
 6575SOL    HW231359   1.559   0.818   8.528  1.3177 -2.3415  0.9762
 6576SOL     OW31360   4.304   2.293   3.326  0.0390  0.1250 -0.1496
 6576SOL    HW131361   4.277   2.202   3.311 -1.5298  0.7394 -1.1470
 6576SOL    HW231362   4.219   2.328   3.353 -0.0683 -0.8833  0.7846
 6577SOL     OW31363   3.004   1.448   7.253  0.2551 -0.5340 -0.0907
 6577SOL    HW131364   3.046   1.366   7.228 -1.9444 -1.7493  0.2662
 6577SOL    HW231365   3.038   1.510   7.188 -1.7626 -0.3967 -1.0020
 6578SOL     OW31366   2.163   4.587   2.295 -0.3963 -0.1992  0.5742
 6578SOL    HW131367   2.074   4.564   2.321 -1.2348  1.0514 -1.2480
 6578SOL    HW231368   2.192   4.645   2.366  0.7930 -1.4240  1.0942
 6579SOL     OW31369   4.411   3.458  17.083 -0.2445 -0.3844  0.4589
 6579SOL    HW131370   4.408   3.433  17.176 -0.3805 -1.1204  0.2574
 6579SOL    HW231371   4.506   3.467  17.076 -0.4907  1.3803 -0.4054
 6580SOL     OW31372   2.486   1.915   7.229  0.6112 -0.5038 -0.5396
 6580SOL    HW131373   2.581   1.925   7.223  0.5040 -0.2403 -1.9143
 6580SOL    HW231374   2.480   1.857   7.153 -0.2324  0.8172 -1.4750
 6581SOL     OW31375   2.155   3.220   8.061  0.2857  0.2808  0.3666
 6581SOL    HW131376   2.203   3.247   8.139 -0.9134 -0.4514  1.3637
 6581SOL    HW231377   2.234   3.188   8.019  0.5305 -1.8463  2.4709
 6582SOL     OW31378   2.664   4.705   1.403 -0.0029 -0.0983 -0.3375
 6582SOL    HW131379   2.606   4.694   1.328 -0.8638  1.4811  0.0948
 6582SOL    HW231380   2.711   4.621   1.398 -0.8230 -0.5460 -0.4699
 6583SOL     OW31381   0.206   2.564   8.589  0.4186 -0.9175 -0.3392
 6583SOL    HW131382   0.117   2.598   8.598  1.6947  2.3759  0.2468
 6583SOL    HW231383   0.205   2.517   8.506  0.6936 -0.3126 -0.6929
 6584SOL     OW31384   1.192   2.344  11.161  0.2635 -0.2179  0.1682
 6584SOL    HW131385   1.126   2.412  11.148  0.4197 -0.1721 -0.4073
 6584SOL    HW231386   1.276   2.383  11.186 -0.5956  1.6560  0.0681
 6585SOL     OW31387   0.417   1.565   2.480 -0.4238 -0.4034 -0.0975
 6585SOL    HW131388   0.463   1.532   2.557  2.9100 -0.4716 -2.1384
 6585SOL    HW231389   0.433   1.491   2.421 -0.8331  1.0668 -2.0425
 6586SOL     OW31390   2.991   4.560   6.774 -0.7106  0.1751 -0.5834
 6586SOL    HW131391   2.997   4.654   6.756  0.4752 -0.1113 -1.6620
 6586SOL    HW231392   3.051   4.561   6.849 -2.1616 -1.0270  0.6023
 6587SOL     OW31393   3.430   2.648   7.292 -0.2879  0.4913  0.2807
 6587SOL    HW131394   3.371   2.576   7.274 -1.0700  0.9425  1.0352
 6587SOL    HW231395   3.373   2.674   7.364  0.5457 -2.3083  1.9549
 6588SOL     OW31396   3.603   1.481   4.323 -0.1906 -0.6371 -0.3411
 6588SOL    HW131397   3.571   1.403   4.278 -0.1587 -1.1361  0.4870
 6588SOL    HW231398   3.544   1.548   4.288 -0.2293 -1.3147 -1.5847
 6589SOL     OW31399   3.136   1.433   1.342  0.1662 -0.0995  0.0819
 6589SOL    HW131400   3.071   1.381   1.295  1.6642 -2.5938  0.7435
 6589SOL    HW231401   3.222   1.407   1.310 -0.9205 -2.2152 -1.0522
 6590SOL     OW31402   2.781   0.462  10.648  0.2724 -0.0965 -0.1088
 6590SOL    HW131403   2.865   0.487  10.687 -1.3840  2.3181  1.8787
 6590SOL    HW231404   2.747   0.411  10.722 -0.5253 -0.8306 -0.9929
 6591SOL     OW31405   1.016   0.062   7.476  0.3939  0.1104 -0.1826
 6591SOL    HW131406   0.994   0.030   7.563 -0.9047  0.8217 -0.2481
 6591SOL    HW231407   1.110   0.070   7.488  0.2729  0.1538  0.7069
 6592SOL     OW31408   0.787   4.730  11.195 -0.3546 -0.2006  0.0664
 6592SOL    HW131409   0.836   0.009  11.276 -0.9573  0.5542  0.2749
 6592SOL    HW231410   0.766   0.085  11.187 -2.6515 -0.6744  0.5462
 6593SOL     OW31411   1.295   1.159   7.665  0.4805 -0.3600  0.8847
 6593SOL    HW131412   1.347   1.220   7.717  2.1511 -0.4137 -0.7100
 6593SOL    HW231413   1.332   1.080   7.704  0.1311 -1.3955 -0.8581
 6594SOL     OW31414   2.839   2.186   8.280  0.0954 -0.1040  0.4004
 6594SOL    HW131415   2.789   2.145   8.209  0.4820 -2.1186  1.2745
 6594SOL    HW231416   2.791   2.266   8.301 -0.3370  0.2789 -2.0515
 6595SOL     OW31417   0.365   0.353   7.413 -0.4440 -0.1336 -0.2823
 6595SOL    HW131418   0.325   0.421   7.359  0.1524 -1.7102 -2.7155
 6595SOL    HW231419   0.458   0.375   7.415 -0.6463  0.5781  0.6951
 6596SOL     OW31420   4.054   2.150  17.699 -0.5702  0.0296 -0.2145
 6596SOL    HW131421   3.997   2.111  17.632  0.8698 -1.8808 -0.3319
 6596SOL    HW231422   4.094   2.219  17.647  1.5648  1.2338  3.0278
 6597SOL     OW31423   2.545   0.283   8.452  0.2945  0.7821 -0.2146
 6597SOL    HW131424   2.483   0.249   8.516 -0.1681  2.3645  0.1887
 6597SOL    HW231425   2.525   0.231   8.374  1.6202  0.7348 -0.5228
 6598SOL     OW31426   1.272   1.495   8.842  0.0472  0.0015  0.2438
 6598SOL    HW131427   1.327   1.547   8.901 -0.3887  0.3647  0.3288
 6598SOL    HW231428   1.255   1.559   8.773 -0.8930  0.6676  1.0854
 6599SOL     OW31429   2.999   3.979   3.196  0.2868 -0.4159 -0.1376
 6599SOL    HW131430   2.913   3.980   3.155  0.5140 -1.5766 -0.6526
 6599SOL    HW231431   2.982   3.977   3.290 -0.3245  0.4652 -0.2314
 6600SOL     OW31432   2.525   1.901   9.626  0.2857  0.6209  0.5427
 6600SOL    HW131433   2.594   1.961   9.597  1.4836  0.3664  2.8487
 6600SOL    HW231434   2.554   1.884   9.716  1.4171 -1.5383 -0.2421
 6601SOL     OW31435   3.962   4.095  13.403  0.3528  0.0067 -0.5469
 6601SOL    HW131436   3.999   4.007  13.390  0.4391 -0.1178  0.4774
 6601SOL    HW231437   4.013   4.111  13.483 -1.2825 -1.2323  0.7454
 6602SOL     OW31438   1.614   4.236   4.591  0.0010 -0.3083  0.1345
 6602SOL    HW131439   1.521   4.258   4.593  0.5785  2.0896  0.1625
 6602SOL    HW231440   1.644   4.327   4.595  0.0979 -0.3437  0.2151
 6603SOL     OW31441   2.746   1.885   7.195  0.2250  0.0203  0.0521
 6603SOL    HW131442   2.838   1.894   7.218  0.3964 -0.0890 -0.6173
 6603SOL    HW231443   2.720   1.817   7.258 -1.4589  0.1068 -0.5511
 6604SOL     OW31444   4.230   0.978   5.033  0.2926  0.0621 -0.5705
 6604SOL    HW131445   4.236   1.050   5.095  0.5293  0.8278 -1.4794
 6604SOL    HW231446   4.151   1.004   4.985 -0.2151 -1.0296 -0.3267
 6605SOL     OW31447   2.156   2.003   6.865  0.1074 -0.2006  0.5423
 6605SOL    HW131448   2.166   2.057   6.787  0.0210 -0.4898  0.3355
 6605SOL    HW231449   2.192   2.061   6.933  0.5419 -0.2319  0.3420
 6606SOL     OW31450   0.291   2.746   9.588  0.0586 -0.1969  0.2349
 6606SOL    HW131451   0.335   2.678   9.536  0.7674  0.0393  0.5181
 6606SOL    HW231452   0.366   2.804   9.604  1.4445 -1.8934 -0.0629
 6607SOL     OW31453   3.463   1.385  10.728  0.3106  0.3032  0.8630
 6607SOL    HW131454   3.506   1.437  10.796  0.3765  1.2179  0.1275
 6607SOL    HW231455   3.369   1.392  10.748  0.7394  1.3476  2.5172
 6608SOL     OW31456   0.015   2.233   5.180  0.3583 -0.4842 -0.2286
 6608SOL    HW131457   4.663   2.206   5.159  0.2724 -0.5314  0.1943
 6608SOL    HW231458   0.008   2.228   5.275 -0.3617 -1.3744 -0.3221
 6609SOL     OW31459   4.293   1.166   9.859  0.2374  0.0635  0.7093
 6609SOL    HW131460   4.298   1.191   9.767 -0.3590 -2.2127  0.0449
 6609SOL    HW231461   4.380   1.190   9.891  1.0383  0.8604 -2.0100
 6610SOL     OW31462   0.820   2.960  11.033  0.0801  0.3634  0.0671
 6610SOL    HW131463   0.731   2.949  11.067 -0.6935 -0.3117 -2.1784
 6610SOL    HW231464   0.813   2.890  10.968  1.6620 -1.4003  1.7958
 6611SOL     OW31465   4.735   4.165   2.343 -0.2259 -0.8025 -0.0964
 6611SOL    HW131466   4.663   4.108   2.370  0.7680 -2.0832 -0.1738
 6611SOL    HW231467   4.727   4.165   2.248  0.2001 -1.4561 -0.1312
 6612SOL     OW31468   3.742   3.708   1.943  0.2329  0.0666 -0.4991
 6612SOL    HW131469   3.741   3.622   1.986 -0.3297 -1.0119 -2.6579
 6612SOL    HW231470   3.654   3.712   1.907 -0.0268  0.2340  0.1593
 6613SOL     OW31471   4.402   3.712  12.719  0.1925  0.5456 -0.1730
 6613SOL    HW131472   4.367   3.623  12.727 -2.3908  1.6366  0.8900
 6613SOL    HW231473   4.369   3.745  12.635  1.0888  5.1919  1.2994
 6614SOL     OW31474   2.541   1.887   0.213  0.1388  0.5249  0.8176
 6614SOL    HW131475   2.460   1.841   0.191  1.5680 -1.3128 -0.6304
 6614SOL    HW231476   2.545   1.880   0.308  0.2692  1.6008  0.8905
 6615SOL     OW31477   1.216   2.795   5.075 -0.3838 -0.0904 -0.0829
 6615SOL    HW131478   1.125   2.784   5.101 -1.0769 -0.1632 -2.5325
 6615SOL    HW231479   1.265   2.781   5.156 -0.9934 -1.0565  0.1133
 6616SOL     OW31480   4.554   0.005   9.672  0.2978  0.3870 -0.4064
 6616SOL    HW131481   4.519   0.045   9.752  0.8603 -0.1937  0.1280
 6616SOL    HW231482   4.592   4.661   9.704 -1.3416  0.4859  1.7558
 6617SOL     OW31483   0.218   0.333   0.854  0.2506  0.2706  0.1539
 6617SOL    HW131484   0.167   0.400   0.898 -1.4702 -2.1695  1.9248
 6617SOL    HW231485   0.219   0.367   0.764  0.8608  0.0374  0.0758
 6618SOL     OW31486   0.514   2.566  15.732 -0.0224  0.1659 -0.4379
 6618SOL    HW131487   0.459   2.635  15.768 -0.3525 -1.1523  1.5508
 6618SOL    HW231488   0.572   2.633  15.696 -2.1445  4.0959  3.4760
 6619SOL     OW31489   3.392   2.374   3.543 -0.4179  0.4575  0.2505
 6619SOL    HW131490   3.411   2.355   3.451 -2.0991 -0.8028  0.1517
 6619SOL    HW231491   3.455   2.315   3.584  1.1622  3.1240  1.6817
 6620SOL     OW31492   0.340   0.869  15.831  0.5377  0.3878 -0.1358
 6620SOL    HW131493   0.335   0.943  15.891  2.2538  1.0061 -0.7656
 6620SOL    HW231494   0.409   0.814  15.869  1.9195  0.8965 -1.9059
 6621SOL     OW31495   3.029   4.080   1.396 -0.4470  0.3225  0.7573
 6621SOL    HW131496   3.090   4.142   1.356  1.1275 -2.2865 -0.8839
 6621SOL    HW231497   2.986   4.129   1.465 -2.2280 -0.9409  0.5514
 6622SOL     OW31498   0.765   2.089   7.604  0.1270  0.2924  0.7153
 6622SOL    HW131499   0.750   2.129   7.519  0.1291  1.9721  1.4998
 6622SOL    HW231500   0.729   2.150   7.668 -1.0375  2.2492 -1.8002
 6623SOL     OW31501   1.941   4.213  16.081 -0.2575  0.2277  0.4208
 6623SOL    HW131502   1.996   4.165  16.143 -1.9987  0.3015  2.0228
 6623SOL    HW231503   2.004   4.270  16.037 -0.4378 -0.8792 -1.2794
 6624SOL     OW31504   0.862   3.048   6.616 -0.4839  0.1249  0.0145
 6624SOL    HW131505   0.837   2.989   6.688  3.5109 -1.0518  0.4266
 6624SOL    HW231506   0.773   3.080   6.597 -1.3865 -1.4705  1.5067
 6625SOL     OW31507   0.621   2.062   3.038 -0.2695 -0.3267 -0.3456
 6625SOL    HW131508   0.662   2.013   2.966  0.1976  2.0821 -1.7256
 6625SOL    HW231509   0.665   2.016   3.109  0.3273  0.4594 -0.2129
 6626SOL     OW31510   2.069   2.937   3.050 -0.7027  0.2739 -0.1395
 6626SOL    HW131511   2.078   3.002   2.981 -0.6086 -0.6125 -0.9542
 6626SOL    HW231512   2.033   2.992   3.120 -2.0806 -1.8118  0.8025
 6627SOL     OW31513   2.539   3.559   2.928  0.1764  0.0761 -0.1471
 6627SOL    HW131514   2.588   3.633   2.965 -0.6517 -0.9323  2.9470
 6627SOL    HW231515   2.557   3.573   2.834 -0.9705  2.4979 -0.0141
 6628SOL     OW31516   3.243   3.545   6.723  0.6094  0.0816  0.6911
 6628SOL    HW131517   3.328   3.543   6.680 -0.0799 -1.0924 -0.5891
 6628SOL    HW231518   3.209   3.620   6.673 -0.0128  0.3063  1.4403
 6629SOL     OW31519   2.096   3.283   5.329 -0.3142  0.3408 -0.9369
 6629SOL    HW131520   2.080   3.344   5.257 -1.3889  1.6697  0.4245
 6629SOL    HW231521   2.164   3.330   5.378 -1.8310  2.0756 -0.4938
 6630SOL     OW31522   3.298   1.911   4.101 -0.1813 -0.1909  0.0578
 6630SOL    HW131523   3.371   1.960   4.138  0.2033 -1.0713  0.4579
 6630SOL    HW231524   3.227   1.918   4.165  0.5834  2.1201  0.6334
 6631SOL     OW31525   4.317   2.497  14.979 -0.2716 -0.2003 -0.1192
 6631SOL    HW131526   4.370   2.455  15.047 -1.2107 -0.3490  0.5155
 6631SOL    HW231527   4.343   2.582  15.016 -0.5488  0.0022 -0.3922
 6632SOL     OW31528   1.200   2.014  15.680  0.3363  0.2337 -0.0893
 6632SOL    HW131529   1.119   1.964  15.693  0.4214  0.0865 -0.1279
 6632SOL    HW231530   1.264   1.948  15.707 -1.2289 -1.1338  0.2844
 6633SOL     OW31531   3.811   3.170  11.633 -0.2266 -0.1837  0.3598
 6633SOL    HW131532   3.719   3.144  11.632 -0.5366  0.9560 -3.4434
 6633SOL    HW231533   3.820   3.247  11.576  0.4025 -0.2005  0.4345
 6634SOL     OW31534   4.586   2.953   9.073 -0.6116  0.1537 -0.3677
 6634SOL    HW131535   4.502   2.934   9.116 -0.3471 -1.9577 -0.7656
 6634SOL    HW231536   4.562   2.999   8.993 -0.1489  0.2768 -0.4377
 6635SOL     OW31537   2.303   1.927   4.672  0.7098  0.2401 -0.5477
 6635SOL    HW131538   2.354   1.845   4.672 -0.6936 -0.6334 -1.4451
 6635SOL    HW231539   2.222   1.898   4.631  1.8638 -0.9395 -2.0319
 6636SOL     OW31540   3.205   1.519   4.291  0.0481 -0.0511 -0.4011
 6636SOL    HW131541   3.280   1.539   4.234  0.2308 -0.1687 -0.2019
 6636SOL    HW231542   3.150   1.467   4.233  0.8542 -2.0584  0.6087
 6637SOL     OW31543   2.769   3.995   6.553 -0.0569 -0.0411 -0.0735
 6637SOL    HW131544   2.815   4.021   6.632 -1.3826  0.1417  0.6508
 6637SOL    HW231545   2.816   3.915   6.532 -1.7080 -1.1246  0.3921
 6638SOL     OW31546   3.484   3.227  11.761 -0.3490  0.4530  0.0190
 6638SOL    HW131547   3.390   3.236  11.773 -0.5145 -1.6707  0.4441
 6638SOL    HW231548   3.509   3.136  11.778  0.1214  0.5325 -0.2459
 6639SOL     OW31549   3.883   1.690   3.230  0.1657 -0.1851  0.3116
 6639SOL    HW131550   3.932   1.630   3.286 -0.4573  0.8197  1.9460
 6639SOL    HW231551   3.936   1.667   3.153 -1.1020  0.5482 -0.7915
 6640SOL     OW31552   3.811   0.154  11.407  0.5674 -0.1585  0.1138
 6640SOL    HW131553   3.759   0.080  11.438 -0.1014  0.1973 -0.1578
 6640SOL    HW231554   3.755   0.229  11.430 -2.1499 -2.0439 -0.3421
 6641SOL     OW31555   3.875   3.482  13.663 -0.2718  0.3468 -0.1204
 6641SOL    HW131556   3.944   3.476  13.597 -0.7113 -1.5689 -0.4297
 6641SOL    HW231557   3.865   3.574  13.685 -0.1134  0.7795 -1.8575
 6642SOL     OW31558   3.344   4.681   8.409  0.0574  0.7314 -0.0018
 6642SOL    HW131559   3.336   4.637   8.325  1.3755  1.9063 -0.7489
 6642SOL    HW231560   3.331   0.035   8.382  0.6637  0.4712 -1.1567
 6643SOL     OW31561   2.638   2.285   8.736 -0.0578  0.4425  0.2885
 6643SOL    HW131562   2.566   2.223   8.721  0.8662 -1.2351  2.7512
 6643SOL    HW231563   2.589   2.356   8.778  1.0217  1.3897 -0.0527
 6644SOL     OW31564   3.880   3.202  14.653 -0.2302 -0.6673 -0.9488
 6644SOL    HW131565   3.886   3.237  14.564 -0.8119 -1.4343 -1.2896
 6644SOL    HW231566   3.807   3.258  14.676  0.6668 -0.7136  1.9815
 6645SOL     OW31567   3.130   1.766   5.886  0.2700 -0.3985 -0.0669
 6645SOL    HW131568   3.084   1.751   5.803 -1.1850 -0.3999  0.7332
 6645SOL    HW231569   3.201   1.702   5.883  1.5816  1.0574  0.1016
 6646SOL     OW31570   3.762   1.717   9.954  0.1121  0.3384  0.6845
 6646SOL    HW131571   3.764   1.728  10.049  2.9826  1.3421  0.5322
 6646SOL    HW231572   3.693   1.652   9.951 -0.3788  0.8191  1.7524
 6647SOL     OW31573   4.015   2.892  14.912 -0.1397 -0.7854  0.1626
 6647SOL    HW131574   4.056   2.820  14.864  2.4592 -1.0291  2.7280
 6647SOL    HW231575   3.927   2.861  14.931 -0.2335  0.0913  1.1620
 6648SOL     OW31576   0.948   3.911   7.332  0.7573  0.2020  1.0184
 6648SOL    HW131577   0.969   3.955   7.250  0.1705 -0.7924  0.3237
 6648SOL    HW231578   1.028   3.913   7.384  1.6350 -0.1174 -0.3282
 6649SOL     OW31579   0.331   4.667   2.122  0.1595  0.0085  0.0434
 6649SOL    HW131580   0.352   4.702   2.209 -0.1115  1.1771 -0.3534
 6649SOL    HW231581   0.255   4.610   2.138  0.9008 -0.6123  1.3663
 6650SOL     OW31582   2.122   3.934   7.404 -0.0343  0.2625  0.0310
 6650SOL    HW131583   2.080   4.019   7.409 -0.7106 -0.1034  0.5529
 6650SOL    HW231584   2.118   3.899   7.493 -0.6723  1.0954  0.3274
 6651SOL     OW31585   1.212   0.513  16.729  0.1523 -0.6116 -0.6427
 6651SOL    HW131586   1.261   0.553  16.657 -0.1343 -3.0962 -2.2000
 6651SOL    HW231587   1.123   0.515  16.696  0.4156 -1.7754 -1.4364
 6652SOL     OW31588   0.997   1.185   1.266  0.0367 -0.4497  0.0408
 6652SOL    HW131589   1.031   1.220   1.348 -1.2547 -1.3525  0.9607
 6652SOL    HW231590   1.002   1.260   1.206 -1.1475 -0.2746  0.1534
 6653SOL     OW31591   1.907   3.737  12.568 -0.0803  0.8601 -0.6423
 6653SOL    HW131592   1.940   3.691  12.490  2.3747  0.1449  0.8110
 6653SOL    HW231593   1.959   3.697  12.638 -0.7444  0.8401 -0.1692
 6654SOL     OW31594   1.813   1.167  10.369  0.1919 -0.5758 -0.1907
 6654SOL    HW131595   1.818   1.199  10.459  0.6985  0.2897 -0.5266
 6654SOL    HW231596   1.836   1.076  10.389 -1.0584 -1.1799 -1.4930
 6655SOL     OW31597   2.816   0.811  16.268  0.3682  0.2360 -0.0891
 6655SOL    HW131598   2.788   0.733  16.317 -1.1726  0.4761 -0.6167
 6655SOL    HW231599   2.755   0.811  16.195  0.0219 -0.4157  0.1970
 6656SOL     OW31600   0.116   4.143   7.933  0.2260 -0.8345  0.1864
 6656SOL    HW131601   0.078   4.058   7.913 -0.1580 -0.6924  0.3108
 6656SOL    HW231602   0.206   4.127   7.903  0.5373 -0.7061  1.0437
 6657SOL     OW31603   1.186   2.602   3.075  0.0837  0.4156 -0.7601
 6657SOL    HW131604   1.194   2.691   3.039  1.8701  0.2538 -0.7490
 6657SOL    HW231605   1.091   2.596   3.088  0.2839 -0.3940  0.2723
 6658SOL     OW31606   3.552   4.094   6.816 -0.1410  0.0798  0.3528
 6658SOL    HW131607   3.581   4.108   6.726  2.8549 -2.4336  0.9543
 6658SOL    HW231608   3.456   4.099   6.810 -0.1694 -0.6769  0.1311
 6659SOL     OW31609   0.895   1.784   3.582 -0.2861  0.1328  0.1100
 6659SOL    HW131610   0.911   1.730   3.505 -1.8136 -3.3463  2.1906
 6659SOL    HW231611   0.799   1.784   3.576 -0.1839  2.3253 -1.4631
 6660SOL     OW31612   2.557   2.952  11.205  0.4239 -0.1953 -0.3999
 6660SOL    HW131613   2.559   3.041  11.170  0.6377 -0.8430 -2.0303
 6660SOL    HW231614   2.487   2.914  11.151  1.5802  1.3786 -2.9833
 6661SOL     OW31615   0.736   0.358   3.904  0.0662 -0.2131 -0.3800
 6661SOL    HW131616   0.818   0.408   3.908 -0.2849  0.1944  1.6623
 6661SOL    HW231617   0.747   0.309   3.822 -0.1044  0.5434 -0.8590
 6662SOL     OW31618   0.152   0.398   7.991  0.4693 -0.0520 -0.0980
 6662SOL    HW131619   0.183   0.452   8.064 -2.6603  1.3971  0.1380
 6662SOL    HW231620   0.058   0.406   8.008 -0.1487  0.4060 -3.8347
 6663SOL     OW31621   2.702   0.327   8.160 -0.1583 -0.4409  0.3645
 6663SOL    HW131622   2.768   0.396   8.161  0.2890 -0.8284 -1.3826
 6663SOL    HW231623   2.622   0.361   8.199  0.5296 -1.8819  3.0457
 6664SOL     OW31624   0.104   0.878   9.652  0.1208 -0.5905 -0.1389
 6664SOL    HW131625   0.122   0.915   9.738  2.6940 -0.8008 -0.5764
 6664SOL    HW231626   0.073   0.791   9.678 -2.2508 -0.0066 -1.0398
 6665SOL     OW31627   2.891   2.814   1.162  0.4437 -0.7991  0.5956
 6665SOL    HW131628   2.956   2.838   1.097 -0.9952 -0.0179 -0.5694
 6665SOL    HW231629   2.811   2.825   1.110  1.7680  1.2263 -0.9920
 6666SOL     OW31630   3.543   2.600   0.930 -0.5715  0.3875  0.2056
 6666SOL    HW131631   3.635   2.613   0.954 -0.3672 -0.2676 -0.2291
 6666SOL    HW231632   3.509   2.548   1.003 -1.6127  0.6898 -0.0651
 6667SOL     OW31633   3.738   1.933   3.202 -0.1220  0.2197  0.1115
 6667SOL    HW131634   3.783   1.851   3.222  0.9538  0.9215  0.5688
 6667SOL    HW231635   3.719   1.977   3.285  1.5648 -0.2090  0.7086
 6668SOL     OW31636   2.764   1.614   4.291 -0.1616 -0.8977  0.6561
 6668SOL    HW131637   2.782   1.581   4.378 -0.4470 -2.9097 -0.0616
 6668SOL    HW231638   2.825   1.566   4.234 -0.1231 -1.7989  1.4736
 6669SOL     OW31639   1.787   1.259   0.681 -0.6504  0.0172 -0.2637
 6669SOL    HW131640   1.807   1.242   0.773 -0.8219 -0.5575 -0.3343
 6669SOL    HW231641   1.788   1.355   0.679  1.2704  0.0472  1.9918
 6670SOL     OW31642   4.111   0.183   5.369 -0.2517  0.3908  0.3362
 6670SOL    HW131643   4.033   0.236   5.353  0.2624  0.8490 -0.6458
 6670SOL    HW231644   4.133   0.155   5.280  0.2723 -1.4839  1.0588
 6671SOL     OW31645   2.433   0.195   3.414  0.1118  0.4548  0.0362
 6671SOL    HW131646   2.338   0.193   3.399 -0.1721 -0.7339  1.9081
 6671SOL    HW231647   2.465   0.147   3.338  2.5979  0.1945  1.2647
 6672SOL     OW31648   2.356   4.339  17.039 -0.4173  0.0074 -0.2646
 6672SOL    HW131649   2.341   4.404  17.108  0.3145  0.1793 -0.2668
 6672SOL    HW231650   2.439   4.304  17.072 -1.2144 -1.3316  0.3015
 6673SOL     OW31651   3.422   3.769   7.760  0.3987  0.9585 -0.1526
 6673SOL    HW131652   3.339   3.722   7.755  0.4246  0.8740  0.1848
 6673SOL    HW231653   3.395   3.854   7.726 -2.9943  0.2073  0.6546
 6674SOL     OW31654   4.720   1.571  11.784 -0.9185 -0.6014 -0.5130
 6674SOL    HW131655   0.059   1.514  11.781 -0.6958 -0.1478 -3.4293
 6674SOL    HW231656   4.724   1.568  11.880 -0.7767 -1.8349 -0.5610
 6675SOL     OW31657   0.154   4.335   9.756 -0.4112 -0.3244 -0.3756
 6675SOL    HW131658   0.170   4.305   9.845 -1.4159  0.3255  0.0199
 6675SOL    HW231659   0.237   4.314   9.711  1.4052  1.0965  2.3219
 6676SOL     OW31660   3.527   3.658   8.686 -0.1770 -0.5794 -0.4569
 6676SOL    HW131661   3.498   3.706   8.764  0.7745  1.4628 -1.3584
 6676SOL    HW231662   3.466   3.693   8.621  0.5404  1.0474 -0.2741
 6677SOL     OW31663   1.697   0.295  12.318 -0.4121 -0.0776  0.3121
 6677SOL    HW131664   1.777   0.247  12.337 -0.5213 -0.1542  0.5752
 6677SOL    HW231665   1.677   0.355  12.390  3.9471  1.5379  0.1847
 6678SOL     OW31666   2.259   3.979   5.171  0.4331  0.2966 -0.9448
 6678SOL    HW131667   2.187   4.036   5.200 -0.1464 -1.4636  1.0080
 6678SOL    HW231668   2.253   4.009   5.080  0.1673 -0.8575 -1.3049
 6679SOL     OW31669   1.131   0.176   5.602 -0.1854  1.0388 -0.2881
 6679SOL    HW131670   1.109   0.156   5.511  0.8532 -0.8132 -0.1054
 6679SOL    HW231671   1.091   0.262   5.621  0.5139  1.4918 -0.8601
 6680SOL     OW31672   2.215   4.269   6.380 -0.4939  0.2391 -0.8828
 6680SOL    HW131673   2.293   4.323   6.370 -0.4414  0.2173 -0.6097
 6680SOL    HW231674   2.166   4.313   6.311  1.3966  1.5849 -1.3774
 6681SOL     OW31675   1.202   0.292   3.230  0.4972  0.3613  0.0799
 6681SOL    HW131676   1.237   0.206   3.206  2.6628  1.5341 -0.9844
 6681SOL    HW231677   1.138   0.266   3.296 -0.7787 -0.4759 -1.4992
 6682SOL     OW31678   4.091   2.165   1.945 -0.0366  0.3471 -0.4462
 6682SOL    HW131679   4.061   2.234   1.886 -1.5752 -0.7648 -0.9510
 6682SOL    HW231680   4.009   2.121   1.965 -0.6689  1.9828  0.4858
 6683SOL     OW31681   0.431   1.633   7.787  0.4339 -0.1584  0.2861
 6683SOL    HW131682   0.349   1.584   7.781  1.0891 -1.1589 -0.4095
 6683SOL    HW231683   0.447   1.661   7.697 -0.8152  0.6523  0.3172
 6684SOL     OW31684   1.723   4.107   1.876  0.3946  0.3625 -0.8715
 6684SOL    HW131685   1.630   4.086   1.887  0.8721 -1.4896 -0.3201
 6684SOL    HW231686   1.763   4.029   1.914  2.1662  1.6273 -0.1415
 6685SOL     OW31687   3.019   1.993   8.354 -0.1424  0.0232 -0.1261
 6685SOL    HW131688   3.036   1.944   8.273 -1.2857 -2.0999  0.9102
 6685SOL    HW231689   2.954   2.055   8.322 -0.4891  0.3398  1.1969
 6686SOL     OW31690   1.760   3.805   9.116  0.6845  0.1760 -0.3280
 6686SOL    HW131691   1.700   3.790   9.189 -0.5471  0.5280 -1.2646
 6686SOL    HW231692   1.769   3.717   9.080  0.0616 -1.0078  2.4344
 6687SOL     OW31693   3.370   3.929  14.857 -0.3480 -0.0716 -0.1986
 6687SOL    HW131694   3.448   3.977  14.886 -0.1625 -0.0677 -0.7122
 6687SOL    HW231695   3.307   4.001  14.858  0.6486  0.8384 -4.8454
 6688SOL     OW31696   0.330   3.458   4.392  0.1326 -0.0321  0.2281
 6688SOL    HW131697   0.386   3.382   4.404 -0.4801 -0.9124 -2.4177
 6688SOL    HW231698   0.393   3.530   4.400  0.0121  0.3350 -2.0886
 6689SOL     OW31699   3.732   4.659   4.249 -0.7653  0.2871  0.2589
 6689SOL    HW131700   3.704   4.607   4.173  0.9945 -1.3264  0.7258
 6689SOL    HW231701   3.676   4.736   4.240  0.1260  0.8372 -0.4923
 6690SOL     OW31702   2.666   0.686   4.317  0.4177  0.7796  0.1624
 6690SOL    HW131703   2.588   0.703   4.264 -0.0031  1.6987  1.0922
 6690SOL    HW231704   2.620   0.632   4.382  0.8576  1.7927  1.3020
 6691SOL     OW31705   3.203   2.944   1.772  0.2361  0.1726  0.0975
 6691SOL    HW131706   3.259   2.962   1.696  0.0068  0.3266 -0.0330
 6691SOL    HW231707   3.145   3.019   1.786 -0.2761  0.2776 -2.5514
 6692SOL     OW31708   0.448   2.506   0.919 -0.3667  0.4504 -0.1534
 6692SOL    HW131709   0.363   2.505   0.874  0.2895 -1.9305 -1.3565
 6692SOL    HW231710   0.513   2.476   0.856  1.1861 -1.2334  2.2792
 6693SOL     OW31711   0.508   2.879   1.274 -0.1427 -0.2867  0.3844
 6693SOL    HW131712   0.451   2.953   1.295  2.9149  1.7390  1.5763
 6693SOL    HW231713   0.480   2.812   1.337 -0.6502 -1.9882 -1.6408
 6694SOL     OW31714   3.503   1.095   5.565 -0.3528  0.1826 -0.3086
 6694SOL    HW131715   3.423   1.070   5.611 -1.5783  3.1635 -0.8492
 6694SOL    HW231716   3.555   1.118   5.642 -0.9589 -1.9001  0.7184
 6695SOL     OW31717   3.125   1.259  10.468  0.0543 -0.3047  0.0167
 6695SOL    HW131718   3.199   1.221  10.421 -0.0286  0.1768 -0.5116
 6695SOL    HW231719   3.161   1.342  10.498  0.0199 -0.1295 -0.4210
 6696SOL     OW31720   2.054   3.175   1.030 -0.2955 -0.1341 -0.1867
 6696SOL    HW131721   2.073   3.231   1.105 -2.9304 -0.8998  1.0666
 6696SOL    HW231722   1.961   3.152   1.026 -0.9582  2.5776 -0.2876
 6697SOL     OW31723   2.477   3.516  11.565 -0.4099  0.0310 -0.0716
 6697SOL    HW131724   2.453   3.468  11.486  1.4720  1.2174 -1.3696
 6697SOL    HW231725   2.531   3.586  11.528  0.0151 -1.6527 -2.6510
 6698SOL     OW31726   1.320   2.275  11.855  0.4975  0.4151 -0.1898
 6698SOL    HW131727   1.335   2.369  11.848 -0.4797  0.4961 -1.1144
 6698SOL    HW231728   1.410   2.248  11.839  0.6772  1.1236 -0.3570
 6699SOL     OW31729   3.447   0.692   9.007  0.4399 -0.6065 -0.0310
 6699SOL    HW131730   3.458   0.631   9.079  0.3507  0.6163  1.0336
 6699SOL    HW231731   3.498   0.766   9.043 -2.5224  2.0421 -1.2799
 6700SOL     OW31732   4.415   3.086   1.460 -0.1773 -0.4323 -0.2261
 6700SOL    HW131733   4.444   3.036   1.384 -2.7042 -3.2087  0.6366
 6700SOL    HW231734   4.486   3.076   1.524 -0.1618 -0.8592 -0.3085
 6701SOL     OW31735   2.822   4.565  13.869  0.4170 -0.3546 -0.6697
 6701SOL    HW131736   2.882   4.609  13.929 -1.1497  1.7256 -0.5982
 6701SOL    HW231737   2.748   4.567  13.930  0.4192 -2.9642 -0.5804
 6702SOL     OW31738   2.520   1.219   3.527  0.6074 -0.0518 -0.1338
 6702SOL    HW131739   2.488   1.309   3.527  0.1614 -0.2057  0.5268
 6702SOL    HW231740   2.593   1.226   3.466  0.0567  1.1445 -0.6628
 6703SOL     OW31741   2.549   4.221  13.789  0.1231 -0.1713  0.0100
 6703SOL    HW131742   2.508   4.280  13.852  0.4935  0.0169  0.0793
 6703SOL    HW231743   2.585   4.288  13.731  4.2735 -2.0234  0.4602
 6704SOL     OW31744   0.434   1.224   7.585 -0.0504  0.3139  0.2484
 6704SOL    HW131745   0.453   1.163   7.656  0.6821  0.8666  0.5353
 6704SOL    HW231746   0.345   1.199   7.562  0.4338 -1.0702 -0.1316
 6705SOL     OW31747   3.108   4.647  16.310  0.0855 -0.0277 -0.0003
 6705SOL    HW131748   3.137   4.657  16.220  0.2721 -0.3887  0.0168
 6705SOL    HW231749   3.188   4.616  16.353  0.3269 -2.8176 -2.4166
 6706SOL     OW31750   0.256   3.874   8.101  0.2161 -0.0377  0.6605
 6706SOL    HW131751   0.269   3.802   8.163 -1.6103 -0.0804  0.9972
 6706SOL    HW231752   0.166   3.896   8.127  0.5417 -0.5899  2.2843
 6707SOL     OW31753   1.646   3.871   4.323 -0.2209  0.9339  0.5327
 6707SOL    HW131754   1.601   3.792   4.292  1.0362 -0.3252  1.8664
 6707SOL    HW231755   1.737   3.842   4.314 -0.8887 -1.3338  1.0600
 6708SOL     OW31756   2.692   1.858   8.711 -0.1683 -0.4340  0.3212
 6708SOL    HW131757   2.616   1.861   8.654 -0.6318  2.1532  1.1012
 6708SOL    HW231758   2.750   1.913   8.659 -1.9540  3.0368  2.0510
 6709SOL     OW31759   4.151   1.037  16.508 -0.0382 -0.0326 -0.0454
 6709SOL    HW131760   4.162   1.009  16.599 -0.8302 -0.5379 -0.1093
 6709SOL    HW231761   4.083   1.102  16.524  0.0148 -0.2483  1.0727
 6710SOL     OW31762   2.884   4.294   1.675 -0.3444  0.5123  0.4842
 6710SOL    HW131763   2.831   4.214   1.676 -0.9699  0.9121 -0.5283
 6710SOL    HW231764   2.937   4.283   1.754  1.9337  2.0340 -0.8412
 6711SOL     OW31765   3.097   0.592   4.574 -0.0717 -0.0467  0.2619
 6711SOL    HW131766   3.018   0.640   4.547  1.5447  2.6050  0.2219
 6711SOL    HW231767   3.058   0.508   4.597 -0.0321 -0.1466 -0.0331
 6712SOL     OW31768   3.921   2.172  17.437  0.4973  0.0258  0.1913
 6712SOL    HW131769   3.865   2.230  17.488 -1.8645 -0.9844 -1.2603
 6712SOL    HW231770   3.990   2.236  17.423  1.6826 -1.3001 -0.0972
 6713SOL     OW31771   0.027   2.462   5.863 -0.1894  0.5851  0.7787
 6713SOL    HW131772   4.730   2.494   5.947  0.1317 -1.5091  1.7144
 6713SOL    HW231773   0.095   2.524   5.839  1.0674 -1.4900 -1.0733
 6714SOL     OW31774   4.353   3.466  16.565  0.1147 -0.5708 -0.1296
 6714SOL    HW131775   4.432   3.499  16.607 -0.0471 -1.4020  0.8432
 6714SOL    HW231776   4.351   3.512  16.481  1.6387  2.5429  1.5650
 6715SOL     OW31777   4.222   0.629   7.694 -0.1963 -0.1193 -0.6860
 6715SOL    HW131778   4.178   0.612   7.611  1.7951  0.2564 -1.8149
 6715SOL    HW231779   4.160   0.640   7.765 -0.6409  0.7168 -1.2119
 6716SOL     OW31780   0.563   3.141   6.243 -0.2677  0.0530  0.1874
 6716SOL    HW131781   0.591   3.232   6.250  1.9243 -0.5845 -0.3283
 6716SOL    HW231782   0.629   3.097   6.297  0.5833  0.7002 -0.3317
 6717SOL     OW31783   0.200   2.152   7.110  0.3255 -0.3040 -0.6537
 6717SOL    HW131784   0.137   2.216   7.142  3.2761  0.6403  3.2974
 6717SOL    HW231785   0.271   2.162   7.173 -0.0572 -1.8967  0.0269
 6718SOL     OW31786   4.275   1.913   1.313 -0.3763 -0.1934 -0.3954
 6718SOL    HW131787   4.266   1.890   1.405  0.6977 -0.9734 -0.4808
 6718SOL    HW231788   4.324   1.993   1.331  1.0984 -1.3872  0.8308
 6719SOL     OW31789   0.018   0.133   3.427  0.2040  0.2577 -0.0887
 6719SOL    HW131790   0.098   0.175   3.460  1.3988 -1.0828 -1.3403
 6719SOL    HW231791   0.023   0.136   3.332  0.0423 -0.6471 -0.1215
 6720SOL     OW31792   4.249   2.950   5.147 -0.6666 -0.4787 -0.2949
 6720SOL    HW131793   4.234   2.982   5.058  3.2031  1.5012 -0.2231
 6720SOL    HW231794   4.177   2.994   5.193  0.2262  1.2193 -0.5005
 6721SOL     OW31795   0.534   0.720   7.203 -0.4234  0.0194  0.3323
 6721SOL    HW131796   0.527   0.807   7.163 -0.3197 -0.8318 -1.5138
 6721SOL    HW231797   0.580   0.674   7.133  1.3388  1.1615  0.7592
 6722SOL     OW31798   2.127   4.167   7.997 -0.2192  0.2500  0.0628
 6722SOL    HW131799   2.072   4.138   8.069  0.5006 -2.8528 -0.6680
 6722SOL    HW231800   2.079   4.143   7.917 -1.0332 -0.5200  0.7863
 6723SOL     OW31801   2.772   3.915   4.478  0.0258  0.6330 -0.5136
 6723SOL    HW131802   2.736   3.994   4.518  1.0235  0.0234  1.5703
 6723SOL    HW231803   2.826   3.955   4.409 -0.4800  2.1235 -0.0278
 6724SOL     OW31804   2.545   1.171   8.484  0.2531 -0.6238  0.0755
 6724SOL    HW131805   2.587   1.256   8.477  0.4201 -0.9117 -2.4354
 6724SOL    HW231806   2.572   1.125   8.404 -2.1026  0.4001 -1.2970
 6725SOL     OW31807   4.364   2.342   8.444  0.1389  0.3907  0.0315
 6725SOL    HW131808   4.409   2.318   8.525  2.7529  0.7846 -1.3073
 6725SOL    HW231809   4.339   2.434   8.456  0.8154  0.3473  1.8624
 6726SOL     OW31810   3.573   4.665   4.648  0.4938 -0.1553  0.0448
 6726SOL    HW131811   3.527   0.012   4.648 -0.1192 -0.4902  0.6046
 6726SOL    HW231812   3.647   4.664   4.708 -1.0745  0.6400  2.0010
 6727SOL     OW31813   0.103   2.473  12.827  0.3222  0.0554 -0.4494
 6727SOL    HW131814   0.017   2.498  12.795  0.8168  2.5041  0.1378
 6727SOL    HW231815   0.121   2.533  12.900  2.0798  0.7656 -1.4610
 6728SOL     OW31816   3.070   4.121  15.697  0.1079  0.4801 -0.1934
 6728SOL    HW131817   3.138   4.064  15.732 -0.7004 -0.9948 -1.0206
 6728SOL    HW231818   3.045   4.064  15.624  0.0917 -0.9649  0.9392
 6729SOL     OW31819   3.190   2.875   9.297 -0.5234 -0.1394  0.1872
 6729SOL    HW131820   3.164   2.829   9.217 -1.5446 -0.9298  0.9717
 6729SOL    HW231821   3.197   2.964   9.262 -0.0398 -0.6120 -0.8973
 6730SOL     OW31822   0.442   2.957  10.848 -0.3402 -1.0801  0.0416
 6730SOL    HW131823   0.428   3.051  10.833  1.6457 -1.1707 -2.2212
 6730SOL    HW231824   0.354   2.935  10.817 -1.0589  1.4699  0.2105
 6731SOL     OW31825   1.963   0.926   5.163 -0.1301  0.5074  0.0184
 6731SOL    HW131826   1.884   0.902   5.114  0.5102 -0.1555 -0.6740
 6731SOL    HW231827   1.928   0.908   5.251  0.9888  0.1370  0.3822
 6732SOL     OW31828   2.746   3.666   1.604  0.5713  0.0937  0.0755
 6732SOL    HW131829   2.808   3.695   1.537 -1.7716  2.9306 -0.8703
 6732SOL    HW231830   2.665   3.698   1.565 -0.0209 -2.6579 -0.9057
 6733SOL     OW31831   0.175   4.060   8.363 -0.1968  0.1269  0.6016
 6733SOL    HW131832   0.085   4.086   8.344 -0.0202  0.1288 -0.2152
 6733SOL    HW231833   0.217   4.105   8.289 -0.6604  1.8474  1.3900
 6734SOL     OW31834   0.548   3.540  10.201 -0.7504  0.4095  0.1414
 6734SOL    HW131835   0.614   3.578  10.259 -0.3731 -0.7879  0.4957
 6734SOL    HW231836   0.530   3.614  10.142  2.1497  0.2419 -0.9416
 6735SOL     OW31837   0.065   0.972   5.963 -0.3782  0.0966 -0.1842
 6735SOL    HW131838   0.127   0.910   5.924 -1.6542 -1.5311  0.3920
 6735SOL    HW231839   0.070   0.948   6.055  0.5525  1.0346  0.0165
 6736SOL     OW31840   0.495   2.352   8.351 -0.1250  0.3531 -0.3751
 6736SOL    HW131841   0.589   2.343   8.338 -0.0907 -0.8373  0.7784
 6736SOL    HW231842   0.501   2.434   8.401  1.1715 -1.4960  2.4803
 6737SOL     OW31843   0.333   0.982   0.682  0.3353 -0.1267  0.1688
 6737SOL    HW131844   0.247   0.943   0.696  0.9004 -1.3386  0.3016
 6737SOL    HW231845   0.378   0.976   0.767  0.0743  0.7389  0.3665
 6738SOL     OW31846   0.617   2.197   6.482  0.1685  0.3171  0.0374
 6738SOL    HW131847   0.635   2.242   6.564 -2.5993 -2.3014  2.1055
 6738SOL    HW231848   0.667   2.118   6.503  0.1126  0.9011  2.3382
 6739SOL     OW31849   0.461   4.054  14.349  0.0668 -0.0394  0.0185
 6739SOL    HW131850   0.369   4.083  14.356 -0.3568 -0.8539 -2.2955
 6739SOL    HW231851   0.462   4.008  14.266 -0.7493 -0.6174  0.3268
 6740SOL     OW31852   4.483   2.190   1.016  0.1400  0.3873  0.1969
 6740SOL    HW131853   4.545   2.120   0.995 -0.9478 -0.4578 -0.2591
 6740SOL    HW231854   4.403   2.143   0.991  0.4843  0.5784 -1.2496
 6741SOL     OW31855   0.394   2.730  12.766  0.1350  0.3961 -1.0504
 6741SOL    HW131856   0.359   2.791  12.701  0.1857  1.1813 -0.3430
 6741SOL    HW231857   0.476   2.701  12.727  0.2918 -0.9468  0.2862
 6742SOL     OW31858   0.726   4.558   9.962 -0.9051 -0.8325 -0.8292
 6742SOL    HW131859   0.821   4.565   9.969 -0.8016 -2.5681 -0.3968
 6742SOL    HW231860   0.725   4.462   9.954  0.5292 -0.7624 -1.7316
 6743SOL     OW31861   0.278   2.909   7.474  0.1680  0.3759 -0.2170
 6743SOL    HW131862   0.265   2.827   7.427  1.7872 -0.4636  0.7819
 6743SOL    HW231863   0.186   2.926   7.496  0.4316  1.6913 -0.1304
 6744SOL     OW31864   0.558   4.178   5.778 -0.4154 -0.3394  0.0284
 6744SOL    HW131865   0.603   4.212   5.855 -1.3150  0.1024  0.3678
 6744SOL    HW231866   0.608   4.099   5.764 -1.2619 -1.0585  1.0345
 6745SOL     OW31867   4.273   1.258   9.587  0.2093  0.0507  0.0639
 6745SOL    HW131868   4.286   1.250   9.492  0.1393  0.0445  0.0550
 6745SOL    HW231869   4.198   1.316   9.581 -0.9857 -1.4184  0.7386
 6746SOL     OW31870   1.821   3.956   9.501  0.6391 -0.0666 -0.3955
 6746SOL    HW131871   1.896   3.909   9.465  1.6577  1.2338  0.0664
 6746SOL    HW231872   1.834   4.042   9.462 -0.3757  0.2818  0.0519
 6747SOL     OW31873   2.883   2.564   5.546 -0.1121 -0.5293 -0.1848
 6747SOL    HW131874   2.897   2.514   5.626 -0.6324  0.7018  0.6886
 6747SOL    HW231875   2.791   2.589   5.559  0.3438  0.7786  0.5211
 6748SOL     OW31876   0.686   1.600   5.079 -0.2426  0.1648 -0.3137
 6748SOL    HW131877   0.768   1.556   5.101 -0.6548  0.5469  1.9633
 6748SOL    HW231878   0.629   1.524   5.072  0.4259 -0.3909  0.2424
 6749SOL     OW31879   4.574   1.303   7.578 -0.2667 -0.4532 -0.0987
 6749SOL    HW131880   4.640   1.367   7.602 -1.1776  0.1868  0.6959
 6749SOL    HW231881   4.591   1.299   7.484 -0.3474  1.5365 -0.1969
 6750SOL     OW31882   1.845   2.254  11.595  0.1997  0.3472 -0.0316
 6750SOL    HW131883   1.920   2.306  11.623  0.1600  0.5698 -0.3456
 6750SOL    HW231884   1.890   2.179  11.555 -2.2337 -1.5399  0.7057
 6751SOL     OW31885   0.817   3.998   9.348  0.0501  0.0505  0.1515
 6751SOL    HW131886   0.890   3.935   9.353  0.6496  0.6394 -1.4860
 6751SOL    HW231887   0.758   3.938   9.303 -0.0417 -0.4899  0.9693
 6752SOL     OW31888   1.878   2.853   5.268  0.0445 -0.0600  0.5266
 6752SOL    HW131889   1.962   2.866   5.224 -0.3828  0.4822 -0.1211
 6752SOL    HW231890   1.865   2.938   5.309 -0.8085 -0.1683  0.4941
 6753SOL     OW31891   3.341   4.249   8.414  0.7049  0.5898  0.1950
 6753SOL    HW131892   3.410   4.258   8.348 -0.9290  0.2232 -1.5807
 6753SOL    HW231893   3.359   4.323   8.472  2.1470  0.6803 -0.3747
 6754SOL     OW31894   0.035   1.049   7.226  0.4631  0.0141  0.0206
 6754SOL    HW131895   0.059   1.135   7.262  0.5270 -0.2019  0.5005
 6754SOL    HW231896   4.719   1.025   7.301  0.0269 -0.1632 -0.3498
 6755SOL     OW31897   3.929   3.795   7.572  0.2943 -0.7862  0.2677
 6755SOL    HW131898   3.854   3.781   7.631 -1.7909 -0.8950 -2.4015
 6755SOL    HW231899   3.879   3.807   7.491  2.9460 -1.6676 -1.4885
 6756SOL     OW31900   3.675   1.380   2.547 -0.1215  0.4747 -0.3612
 6756SOL    HW131901   3.680   1.301   2.601  0.0650  0.2575 -0.6951
 6756SOL    HW231902   3.607   1.433   2.589 -0.4390 -0.2239  0.0046
 6757SOL     OW31903   3.875   0.380   9.382  0.0152  0.2119 -0.2127
 6757SOL    HW131904   3.928   0.324   9.326  0.2811  1.7049 -1.4342
 6757SOL    HW231905   3.789   0.338   9.376  0.1230  0.0351 -0.5178
 6758SOL     OW31906   0.732   2.867   5.828  0.1616 -0.3107 -0.2460
 6758SOL    HW131907   0.679   2.896   5.902 -0.0455 -1.1065 -0.0880
 6758SOL    HW231908   0.791   2.806   5.873  0.5232 -0.1966 -0.5575
 6759SOL     OW31909   2.691   4.290   7.197  0.0372  0.5827  0.2129
 6759SOL    HW131910   2.670   4.200   7.219 -1.8421  0.9367 -0.1569
 6759SOL    HW231911   2.636   4.328   7.265 -0.9975 -1.2526  0.3713
 6760SOL     OW31912   2.728   1.540   7.065 -0.2791  0.0233 -0.5123
 6760SOL    HW131913   2.806   1.595   7.064 -0.5589  0.4340 -0.1161
 6760SOL    HW231914   2.736   1.500   6.979 -2.9989 -2.3827  0.3605
 6761SOL     OW31915   3.788   2.977   1.823 -0.1020  0.4983  0.1069
 6761SOL    HW131916   3.794   2.994   1.729 -5.3267 -1.8522 -0.6680
 6761SOL    HW231917   3.878   2.991   1.853 -0.1793 -0.5293  0.8269
 6762SOL     OW31918   3.827   1.399   7.977  0.9378 -0.2525  0.3607
 6762SOL    HW131919   3.872   1.461   7.920  0.5705 -0.7057 -0.4350
 6762SOL    HW231920   3.737   1.416   7.951  1.1640 -0.2595 -0.4490
 6763SOL     OW31921   3.135   2.976   2.244  0.5699  0.0733  0.3775
 6763SOL    HW131922   3.183   2.938   2.170 -3.2083 -1.1143 -1.4430
 6763SOL    HW231923   3.082   3.028   2.184 -0.9783 -1.7639  0.1571
 6764SOL     OW31924   4.205   3.923   7.102 -0.2480 -0.0468  0.0759
 6764SOL    HW131925   4.170   3.871   7.030 -0.3356  0.1946 -0.0574
 6764SOL    HW231926   4.288   3.876   7.113 -0.5181 -0.7616 -0.9487
 6765SOL     OW31927   4.053   3.007   6.333 -0.3764 -0.1729 -0.3561
 6765SOL    HW131928   4.047   3.101   6.318 -1.0573 -0.2760 -0.7511
 6765SOL    HW231929   4.093   2.967   6.256  0.3773 -2.5853  1.2788
 6766SOL     OW31930   0.806   1.139   6.725 -0.3657 -0.2572  0.2070
 6766SOL    HW131931   0.760   1.083   6.787 -0.1089 -1.4941 -0.7178
 6766SOL    HW231932   0.777   1.224   6.758 -1.8107 -0.6707  0.0304
 6767SOL     OW31933   3.385   3.527   8.942 -0.1809  0.1064 -0.0587
 6767SOL    HW131934   3.317   3.462   8.923 -1.5361  1.7449 -0.7914
 6767SOL    HW231935   3.441   3.537   8.865 -0.3809 -1.4983 -0.4141
 6768SOL     OW31936   1.973   0.499   2.011 -0.2193 -0.0302 -0.0314
 6768SOL    HW131937   1.934   0.425   1.963  1.2247 -0.4838 -0.5020
 6768SOL    HW231938   1.919   0.496   2.090 -0.2527  0.2161 -0.0459
 6769SOL     OW31939   4.247   2.803   6.960 -0.1037 -0.0979  0.5745
 6769SOL    HW131940   4.296   2.834   6.883  0.7989 -2.8156  0.0353
 6769SOL    HW231941   4.226   2.887   7.000  0.2762 -0.8899  2.4413
 6770SOL     OW31942   3.013   1.570   7.488 -0.5985  0.7899  0.7917
 6770SOL    HW131943   3.098   1.610   7.470  0.7154 -1.7369  1.4499
 6770SOL    HW231944   3.006   1.526   7.403  3.9124 -1.8929  1.7901
 6771SOL     OW31945   2.857   4.329   8.100 -0.1323 -0.0239  0.1210
 6771SOL    HW131946   2.867   4.405   8.043  0.7337 -0.6952 -0.6336
 6771SOL    HW231947   2.897   4.262   8.044 -1.5532  0.4134 -1.3813
 6772SOL     OW31948   4.132   2.317   8.762  0.3509  0.0549 -0.4766
 6772SOL    HW131949   4.168   2.236   8.727  0.8630 -0.2571  0.8030
 6772SOL    HW231950   4.188   2.330   8.838  0.8106 -0.4419 -0.7358
 6773SOL     OW31951   3.771   0.829   6.288  0.6356  0.1140  0.0070
 6773SOL    HW131952   3.820   0.800   6.211  3.5543 -1.6251  2.4826
 6773SOL    HW231953   3.778   0.924   6.296 -0.8521  0.5769 -4.1570
 6774SOL     OW31954   4.088   0.198  17.273  0.3367 -0.0748 -0.3924
 6774SOL    HW131955   4.165   0.145  17.255  1.3315  1.5019 -0.7591
 6774SOL    HW231956   4.023   0.135  17.242 -0.2243  0.9065 -1.2028
 6775SOL     OW31957   4.721   4.277  10.037  0.3281  0.1228  0.2745
 6775SOL    HW131958   4.697   4.299  10.127  1.0500  1.5722  0.1094
 6775SOL    HW231959   0.078   4.283  10.040  0.1792  1.7752  1.3110
 6776SOL     OW31960   1.886   4.503   0.957 -0.4323  0.2541 -0.3502
 6776SOL    HW131961   1.924   4.590   0.947 -1.6604  0.7177 -1.0913
 6776SOL    HW231962   1.805   4.507   0.905 -1.9121 -2.3709  1.7440
 6777SOL     OW31963   2.395   2.401  16.214  0.1927 -0.0615 -0.1177
 6777SOL    HW131964   2.368   2.467  16.150  1.5428 -0.6706 -1.3243
 6777SOL    HW231965   2.488   2.419  16.223  0.1028  0.6330 -0.5854
 6778SOL     OW31966   4.289   1.521   7.686  0.1107  0.4763 -0.5130
 6778SOL    HW131967   4.342   1.600   7.677 -0.3321  0.8788  0.3448
 6778SOL    HW231968   4.216   1.533   7.626  0.7336  0.5486 -1.2462
 6779SOL     OW31969   2.443   3.778   1.880 -0.2533 -0.1098  0.3273
 6779SOL    HW131970   2.402   3.833   1.947  0.9136 -0.3874  1.2628
 6779SOL    HW231971   2.392   3.815   1.808  0.7987 -0.5511 -0.6382
 6780SOL     OW31972   0.300   3.737   3.091  0.2141  0.2419 -0.0870
 6780SOL    HW131973   0.349   3.674   3.038  0.3752  0.1829  0.1336
 6780SOL    HW231974   0.303   3.805   3.024  0.1902 -1.9896 -2.3799
 6781SOL     OW31975   1.015   3.826   6.303  0.6673 -0.3609 -0.5421
 6781SOL    HW131976   1.007   3.892   6.372 -2.1937 -0.0779 -1.1347
 6781SOL    HW231977   1.079   3.858   6.241  0.2161  0.9728 -0.3337
 6782SOL     OW31978   4.327   1.325   5.827  0.4041  0.6827  0.0565
 6782SOL    HW131979   4.350   1.388   5.896  0.3984  0.7990 -0.0469
 6782SOL    HW231980   4.304   1.249   5.881  0.3828  0.4933 -0.2243
 6783SOL     OW31981   2.448   1.812   5.729 -0.0183 -0.1661  0.2295
 6783SOL    HW131982   2.430   1.807   5.823  0.8514 -0.1408  0.4012
 6783SOL    HW231983   2.383   1.752   5.693 -0.2005 -0.6050  1.2975
 6784SOL     OW31984   4.100   2.549  10.754  0.1937 -0.2463  0.2537
 6784SOL    HW131985   4.102   2.515  10.664 -3.6905 -3.4982  1.4392
 6784SOL    HW231986   4.033   2.616  10.738 -0.2637 -0.4474  1.3582
 6785SOL     OW31987   0.175   0.515   1.648 -0.3923 -0.5022 -0.1505
 6785SOL    HW131988   0.173   0.522   1.744  0.2235 -1.9255 -0.0299
 6785SOL    HW231989   0.111   0.583   1.628 -0.3332 -0.5257 -0.4213
 6786SOL     OW31990   3.339   0.527   2.208 -0.2450 -0.0818 -0.9809
 6786SOL    HW131991   3.332   0.599   2.145 -1.0126  0.1622 -0.6128
 6786SOL    HW231992   3.265   0.539   2.268  0.1967 -0.7016 -0.3084
 6787SOL     OW31993   0.893   1.422   2.804 -0.0021  0.3022  0.8562
 6787SOL    HW131994   0.812   1.372   2.795 -0.8034  1.7187  0.2619
 6787SOL    HW231995   0.879   1.483   2.876  2.7538  0.6412  1.1163
 6788SOL     OW31996   0.390   3.397   8.355  0.4150  0.4306 -0.2929
 6788SOL    HW131997   0.480   3.412   8.325  1.3468 -1.1442  1.6717
 6788SOL    HW231998   0.391   3.321   8.414 -1.8491 -1.3401 -2.5639
 6789SOL     OW31999   3.527   4.718   0.371  0.3361 -0.7497 -1.1477
 6789SOL    HW132000   3.531   4.716   0.276 -1.9149  0.3831 -1.2738
 6789SOL    HW232001   3.595   0.046   0.389  0.3718 -0.5427 -2.0668
 6790SOL     OW32002   4.641   1.569   7.239  0.0970  0.4662  0.1141
 6790SOL    HW132003   4.547   1.553   7.232  0.3504 -1.2176  0.5024
 6790SOL    HW232004   4.634   1.640   7.304 -1.3977  0.1335  0.3022
 6791SOL     OW32005   0.425   2.517   7.936 -0.2112 -0.5268 -0.0778
 6791SOL    HW132006   0.353   2.552   7.883  0.8073  1.2906 -0.2717
 6791SOL    HW232007   0.408   2.549   8.024  0.0190 -1.7840  0.4179
 6792SOL     OW32008   4.514   0.919   2.302  0.1011  0.9094  0.4143
 6792SOL    HW132009   4.428   0.934   2.261  0.0009  0.5925  0.5123
 6792SOL    HW232010   4.517   0.994   2.361  0.7826  0.0698  1.4415
 6793SOL     OW32011   0.238   3.689   5.549 -0.1689  0.2896  0.7619
 6793SOL    HW132012   0.190   3.766   5.516 -0.1119 -0.8939 -2.1051
 6793SOL    HW232013   0.317   3.692   5.495  0.0737  0.5538  1.1322
 6794SOL     OW32014   3.532   0.355   2.512 -0.1905 -0.7919 -0.0701
 6794SOL    HW132015   3.505   0.263   2.513 -1.7306 -0.3487 -1.3978
 6794SOL    HW232016   3.620   0.349   2.476 -0.1559 -0.8682  0.0267
 6795SOL     OW32017   1.896   4.125   3.793 -0.0344 -0.8449 -0.4864
 6795SOL    HW132018   1.943   4.065   3.850 -2.4514 -1.3969  0.9265
 6795SOL    HW232019   1.803   4.111   3.811  0.0160 -1.9329 -1.0616
 6796SOL     OW32020   4.354   3.084   2.323 -0.8232 -0.2764 -0.3915
 6796SOL    HW132021   4.289   3.044   2.380 -1.8783  0.0639 -1.3627
 6796SOL    HW232022   4.437   3.090   2.371 -0.6153  2.1572 -1.0858
 6797SOL     OW32023   1.507   0.706   6.052  0.4078  0.2221  0.0853
 6797SOL    HW132024   1.567   0.685   5.980  0.5993  1.9317 -0.2475
 6797SOL    HW232025   1.487   0.798   6.035 -1.2694 -0.2482 -0.4714
 6798SOL     OW32026   0.242   0.892   1.479  0.0563  0.0004  0.3115
 6798SOL    HW132027   0.275   0.939   1.556 -1.8934  1.0156  0.5267
 6798SOL    HW232028   0.203   0.820   1.530 -0.6662  0.2556  0.1144
 6799SOL     OW32029   0.760   1.304   7.028  0.1130  0.6186 -0.2522
 6799SOL    HW132030   0.720   1.286   7.113  0.5095 -1.0778 -0.4089
 6799SOL    HW232031   0.688   1.288   6.967 -0.1115  1.0544 -0.0977
 6800SOL     OW32032   2.347   4.242   3.186 -0.6088 -0.2641 -0.6159
 6800SOL    HW132033   2.419   4.195   3.228  0.6977 -0.4417 -3.0970
 6800SOL    HW232034   2.266   4.211   3.226 -0.6086  1.2830  0.5936
 6801SOL     OW32035   0.984   0.424   5.562  0.1356  0.4610 -0.3615
 6801SOL    HW132036   0.918   0.365   5.597 -1.2815  1.4308 -1.4007
 6801SOL    HW232037   0.934   0.452   5.485 -0.8778 -2.3024 -0.7066
 6802SOL     OW32038   1.536   2.087   2.971 -0.4184  0.1767  0.3330
 6802SOL    HW132039   1.502   1.999   2.984  2.5868 -0.8049  1.5734
 6802SOL    HW232040   1.613   2.080   3.028  0.4985  0.5892 -0.8765
 6803SOL     OW32041   3.641   3.411  15.311 -0.3662 -0.0528  0.0732
 6803SOL    HW132042   3.592   3.378  15.236  1.2455 -0.8780 -0.6103
 6803SOL    HW232043   3.603   3.499  15.304 -0.9845 -0.1699  1.9418
 6804SOL     OW32044   4.251   2.195  15.588  0.0365  0.0947  0.2102
 6804SOL    HW132045   4.307   2.237  15.523 -1.4827  1.5014 -0.1928
 6804SOL    HW232046   4.271   2.244  15.668 -0.6611 -0.4323  0.7080
 6805SOL     OW32047   1.250   0.438   6.637 -0.6897  0.9742 -0.1110
 6805SOL    HW132048   1.320   0.500   6.618 -0.5045  0.3954 -1.3185
 6805SOL    HW232049   1.217   0.437   6.547 -1.2497 -1.8855  0.1272
 6806SOL     OW32050   4.697   1.608   2.385  0.2334 -0.1293  0.0249
 6806SOL    HW132051   4.678   1.580   2.295 -1.5265  0.0122  0.3480
 6806SOL    HW232052   4.671   1.534   2.439  2.3027 -0.9963 -0.1673
 6807SOL     OW32053   3.332   0.802   6.167  0.4889  0.5884 -0.6356
 6807SOL    HW132054   3.399   0.790   6.234 -0.9942  0.4324  0.8546
 6807SOL    HW232055   3.286   0.719   6.186  0.5609  1.0879  1.7386
 6808SOL     OW32056   2.767   3.462  13.993  0.3569 -0.1097  0.7616
 6808SOL    HW132057   2.683   3.435  13.957 -0.3016  1.5024  1.0774
 6808SOL    HW232058   2.791   3.524  13.924  0.5527 -0.2406  0.7122
 6809SOL     OW32059   3.965   0.832   7.528  0.1013 -0.2508 -0.1981
 6809SOL    HW132060   3.896   0.876   7.479  0.0515  0.7566  0.7696
 6809SOL    HW232061   3.909   0.774   7.580  0.9731  0.0748  1.1090
 6810SOL     OW32062   2.716   1.998  12.871 -0.2992  0.0857 -0.3031
 6810SOL    HW132063   2.801   1.995  12.916  0.5752  0.8176 -1.8930
 6810SOL    HW232064   2.729   2.046  12.789 -1.2566 -2.7226 -2.0742
 6811SOL     OW32065   0.083   2.994   8.336  0.6240  0.3170  0.3985
 6811SOL    HW132066   0.058   2.937   8.409  1.3815 -0.3653  0.1198
 6811SOL    HW232067   0.126   3.057   8.393  1.2701  1.7480 -1.6841
 6812SOL     OW32068   3.323   3.059  12.803 -0.1560 -0.1026  0.8678
 6812SOL    HW132069   3.417   3.080  12.805 -0.1808  0.1476 -0.2092
 6812SOL    HW232070   3.333   2.966  12.783  2.0634  0.1043  0.9058
 6813SOL     OW32071   0.963   3.064   1.264  0.0082 -0.1284 -0.0688
 6813SOL    HW132072   0.880   3.042   1.221  0.0974 -0.4142 -0.0986
 6813SOL    HW232073   0.931   3.120   1.334  1.5338  1.9384 -1.0278
 6814SOL     OW32074   4.725   3.325   6.636 -0.3219 -0.4305 -0.3923
 6814SOL    HW132075   4.725   3.272   6.715 -1.4356 -1.2840 -0.9688
 6814SOL    HW232076   4.736   3.253   6.573 -0.5681 -0.4796 -0.3770
 6815SOL     OW32077   2.620   0.220   6.299 -0.2611  0.1227  0.2283
 6815SOL    HW132078   2.603   0.306   6.337  0.9736 -0.0736  1.2108
 6815SOL    HW232079   2.649   0.177   6.379 -2.4242 -0.7838  0.5194
 6816SOL     OW32080   0.502   4.721   6.453 -0.1147 -0.2037  0.2624
 6816SOL    HW132081   0.579   4.707   6.509 -0.3441  0.0793  0.6500
 6816SOL    HW232082   0.431   4.731   6.517 -0.0766  1.1268  0.0922
 6817SOL     OW32083   1.122   3.271   2.617 -0.6079 -0.3648  0.3525
 6817SOL    HW132084   1.097   3.362   2.635 -0.8726 -0.4205  0.2579
 6817SOL    HW232085   1.208   3.259   2.658 -1.0941 -2.0005  0.8803
 6818SOL     OW32086   2.912   4.205   8.331 -0.0845  0.2931  0.1920
 6818SOL    HW132087   2.905   4.240   8.242  0.5277 -0.6008 -0.1992
 6818SOL    HW232088   2.833   4.151   8.333  0.2149 -0.2147 -1.6318
 6819SOL     OW32089   3.285   1.273   9.846 -0.7961  0.1093 -0.6460
 6819SOL    HW132090   3.220   1.203   9.854  1.4804 -2.0320 -0.8939
 6819SOL    HW232091   3.271   1.299   9.755 -0.1428  1.7536 -0.2713
 6820SOL     OW32092   2.819   0.514   3.364 -0.2860 -0.2699 -0.2071
 6820SOL    HW132093   2.812   0.523   3.459 -0.5285  0.5326 -0.3042
 6820SOL    HW232094   2.747   0.571   3.337 -2.8317 -3.3808  0.0795
 6821SOL     OW32095   1.584   0.154   3.560 -0.5837 -0.2977  0.1579
 6821SOL    HW132096   1.574   0.239   3.517 -0.7754  0.6868  2.1505
 6821SOL    HW232097   1.497   0.134   3.595 -0.2624 -0.1746  1.0216
 6822SOL     OW32098   3.766   3.728  10.156 -0.1212 -0.0540  0.2686
 6822SOL    HW132099   3.770   3.823  10.155  2.2475 -0.1298  3.2290
 6822SOL    HW232100   3.719   3.702  10.077 -1.5890 -0.6460  1.3421
 6823SOL     OW32101   1.403   3.196   9.085 -0.1049 -0.1435 -0.2790
 6823SOL    HW132102   1.386   3.290   9.081 -0.6171 -0.2751 -1.0884
 6823SOL    HW232103   1.327   3.164   9.037 -0.5121 -0.2859  0.4511
 6824SOL     OW32104   0.013   2.513   7.009 -0.1725 -0.5943 -0.4078
 6824SOL    HW132105   0.088   2.509   7.068 -0.4828  0.8899  0.0909
 6824SOL    HW232106   4.678   2.491   7.067 -0.4489  0.7180 -0.2521
 6825SOL     OW32107   2.307   1.748   6.693  0.2702 -0.0330  0.2879
 6825SOL    HW132108   2.253   1.792   6.628  0.9371 -1.2679 -1.0863
 6825SOL    HW232109   2.391   1.782   6.661 -0.6707  4.1886  2.2925
 6826SOL     OW32110   0.337   3.968   2.493 -0.3666 -0.3525  0.5963
 6826SOL    HW132111   0.430   3.990   2.507 -0.3434 -0.1494  0.1075
 6826SOL    HW232112   0.352   3.893   2.436  0.3827  1.2300 -1.2695
 6827SOL     OW32113   2.091   0.030   8.654  0.1779  0.1424 -0.4518
 6827SOL    HW132114   2.150   0.091   8.610 -0.4400  1.7469  0.9331
 6827SOL    HW232115   2.140   4.688   8.633 -1.2487 -1.1087  0.9355
 6828SOL     OW32116   4.174   1.142  10.296 -0.1844 -0.2122 -0.2714
 6828SOL    HW132117   4.091   1.179  10.265  0.0551  0.2720 -0.3248
 6828SOL    HW232118   4.160   1.108  10.384 -1.1928 -0.2327 -0.4391
 6829SOL     OW32119   1.538   4.349   3.794 -0.0162 -0.4046  0.1313
 6829SOL    HW132120   1.529   4.375   3.702  1.7032 -0.4489 -0.0436
 6829SOL    HW232121   1.596   4.274   3.807  0.1443 -0.0147  1.7524
 6830SOL     OW32122   4.728   4.258   0.711 -0.2619  0.6475 -0.0390
 6830SOL    HW132123   4.714   4.323   0.780  0.9116  1.0537 -0.1733
 6830SOL    HW232124   4.678   4.180   0.735 -0.9346  1.3248  0.7582
 6831SOL     OW32125   1.802   3.473   2.434 -0.2394 -0.6203 -0.0600
 6831SOL    HW132126   1.713   3.507   2.435 -0.6923 -1.7926 -0.5867
 6831SOL    HW232127   1.845   3.531   2.497 -0.1048 -1.4032  0.5591
 6832SOL     OW32128   1.955   1.837   6.741 -0.5043 -0.4616 -0.2564
 6832SOL    HW132129   1.963   1.751   6.783  0.8741 -0.6948 -0.9948
 6832SOL    HW232130   2.023   1.878   6.794  0.5241 -1.3294 -0.8981
 6833SOL     OW32131   3.010   3.111   5.551 -0.0551  0.2101  0.1421
 6833SOL    HW132132   3.098   3.146   5.538 -0.0719  1.4552  3.2975
 6833SOL    HW232133   3.022   3.018   5.533  0.5094  0.2947  0.0904
 6834SOL     OW32134   2.588   0.698   6.692  0.0805 -0.3590 -0.5261
 6834SOL    HW132135   2.573   0.609   6.725 -1.4714 -0.1947 -0.7755
 6834SOL    HW232136   2.607   0.680   6.600 -0.0272 -1.1895 -0.3841
 6835SOL     OW32137   3.175   3.057  15.439  0.3309 -0.0237 -0.2514
 6835SOL    HW132138   3.261   3.021  15.463 -0.2310 -0.1596  1.6052
 6835SOL    HW232139   3.190   3.081  15.348  1.7438  2.0908  0.5348
 6836SOL     OW32140   0.723   1.056  16.381 -0.4605 -0.1283  0.0264
 6836SOL    HW132141   0.700   1.148  16.397 -1.1543 -0.1907 -0.6084
 6836SOL    HW232142   0.668   1.027  16.453 -1.3359  0.8423 -0.2499
 6837SOL     OW32143   0.948   0.955   7.522  0.4185  0.6726 -0.3348
 6837SOL    HW132144   0.899   1.035   7.505 -1.3571 -0.4062 -0.2361
 6837SOL    HW232145   0.878   0.892   7.536  1.1279  0.3399  1.7045
 6838SOL     OW32146   4.034   1.994   5.279 -0.1828  0.0534  0.4028
 6838SOL    HW132147   3.973   1.932   5.239  1.5239 -1.3815  0.0405
 6838SOL    HW232148   4.016   2.069   5.223 -0.1367  0.2735  0.6814
 6839SOL     OW32149   1.715   2.798   8.393 -0.0002 -0.1399  0.0950
 6839SOL    HW132150   1.809   2.806   8.378 -0.1363 -1.4339 -1.4410
 6839SOL    HW232151   1.712   2.702   8.401  0.6181 -0.1815 -0.1613
 6840SOL     OW32152   0.675   2.434   3.913 -0.1595  0.2182  0.0877
 6840SOL    HW132153   0.591   2.406   3.875 -0.9406 -0.3627  2.2193
 6840SOL    HW232154   0.643   2.492   3.982 -3.1810  1.3125 -2.2070
 6841SOL     OW32155   2.944   3.111   2.378 -0.3365 -0.2911 -0.0043
 6841SOL    HW132156   3.019   3.063   2.344 -0.5411  0.5358 -1.6824
 6841SOL    HW232157   2.881   3.054   2.334  0.5344 -1.6709  0.5553
 6842SOL     OW32158   2.836   3.360  14.905 -0.3748  0.3887  0.4819
 6842SOL    HW132159   2.839   3.285  14.845 -1.3939  0.8968 -0.1910
 6842SOL    HW232160   2.823   3.435  14.848  0.9678  1.3278  1.4186
 6843SOL     OW32161   0.343   0.386   8.818 -0.4923  0.2975 -0.1926
 6843SOL    HW132162   0.358   0.296   8.845  2.8419  0.9939  0.3135
 6843SOL    HW232163   0.252   0.405   8.842 -0.3832 -0.3530  0.7517
 6844SOL     OW32164   0.797   0.229   5.698 -0.6330  0.3204 -0.1266
 6844SOL    HW132165   0.733   0.285   5.656 -0.9184 -1.0212 -1.4769
 6844SOL    HW232166   0.750   0.146   5.699  0.0874 -0.0938 -1.1014
 6845SOL     OW32167   3.580   4.398   7.330  0.2362 -0.2118 -0.4042
 6845SOL    HW132168   3.626   4.316   7.314 -1.8240 -1.7006  1.3335
 6845SOL    HW232169   3.644   4.452   7.283 -0.1113  1.6301  1.2725
 6846SOL     OW32170   2.939   1.162   6.391  0.7992  0.1821  0.3954
 6846SOL    HW132171   2.884   1.191   6.318  0.1585 -1.8334  0.0830
 6846SOL    HW232172   2.997   1.105   6.342  0.2289 -0.9852  1.0592
 6847SOL     OW32173   3.403   0.252   8.955 -0.2104 -0.3011  0.0907
 6847SOL    HW132174   3.382   0.167   8.917 -1.1369 -0.3689  0.7577
 6847SOL    HW232175   3.435   0.301   8.878 -0.6594 -0.7374 -0.3714
 6848SOL     OW32176   1.134   2.985   0.113  0.2910 -0.2188 -0.0672
 6848SOL    HW132177   1.090   2.973   0.029 -0.4197 -2.4903  0.5970
 6848SOL    HW232178   1.099   2.913   0.167 -1.2573 -0.4717 -1.4044
 6849SOL     OW32179   3.841   1.074   7.669  0.4644 -0.3944 -0.2705
 6849SOL    HW132180   3.857   0.984   7.642  4.7007  0.1010  0.6192
 6849SOL    HW232181   3.834   1.071   7.764  1.3635  1.5499 -0.1372
 6850SOL     OW32182   2.583   3.723  13.613 -0.4808  0.0724  0.7503
 6850SOL    HW132183   2.592   3.809  13.653  2.5336  0.6835 -1.2690
 6850SOL    HW232184   2.498   3.697  13.650 -1.6937  4.7096  1.2696
 6851SOL     OW32185   3.038   3.208   0.780  0.4738 -0.0539 -0.4989
 6851SOL    HW132186   3.008   3.281   0.725  2.1936  0.6272 -0.5192
 6851SOL    HW232187   3.122   3.239   0.812 -0.5559  1.1379  1.0641
 6852SOL     OW32188   2.578   4.399   4.627 -0.7994  0.6512 -0.8655
 6852SOL    HW132189   2.663   4.435   4.650  1.0759 -2.1775 -3.3587
 6852SOL    HW232190   2.523   4.418   4.704  1.5027 -0.8929  1.1680
 6853SOL     OW32191   1.860   1.349  14.928  0.3976 -0.2920  1.1965
 6853SOL    HW132192   1.829   1.424  14.878  0.2507 -1.0237  0.1893
 6853SOL    HW232193   1.786   1.292  14.949 -1.1075  0.4079 -2.2957
 6854SOL     OW32194   3.834   4.405  13.400 -0.6750 -0.5553 -0.3256
 6854SOL    HW132195   3.784   4.377  13.476 -0.5700 -1.9551 -0.7782
 6854SOL    HW232196   3.782   4.479  13.368  1.7904  1.3374 -0.0287
 6855SOL     OW32197   0.256   0.456  17.240 -0.1803 -0.3593  0.9962
 6855SOL    HW132198   0.300   0.467  17.156 -0.4474  2.5365  1.2380
 6855SOL    HW232199   0.300   0.524  17.292  1.4547  0.4071 -1.4213
 6856SOL     OW32200   1.033   2.786   2.722 -0.4018 -0.4790  0.0283
 6856SOL    HW132201   0.945   2.817   2.743  0.1529 -0.1093  1.7690
 6856SOL    HW232202   1.032   2.828   2.636 -0.1503  1.7436  1.1096
 6857SOL     OW32203   0.973   4.462  10.078 -0.0742 -0.0812 -0.6924
 6857SOL    HW132204   1.007   4.467   9.988  0.1878  0.0684 -0.5838
 6857SOL    HW232205   1.000   4.544  10.118  1.2661  0.2218 -2.1864
 6858SOL     OW32206   3.571   3.286  16.996 -0.0692 -0.3046  0.2067
 6858SOL    HW132207   3.512   3.227  17.044 -1.0119  0.6503  0.2202
 6858SOL    HW232208   3.512   3.344  16.948 -0.8283 -1.3562 -0.1484
 6859SOL     OW32209   1.721   1.768  10.065 -0.3294  0.0425 -0.2025
 6859SOL    HW132210   1.757   1.778  10.152  0.1852  0.0120 -0.4130
 6859SOL    HW232211   1.769   1.845  10.035 -0.2341 -0.4419 -1.2973
 6860SOL     OW32212   3.640   0.361   4.980  0.2250 -0.7238  0.4042
 6860SOL    HW132213   3.656   0.359   4.886  0.1892  1.1347  0.3487
 6860SOL    HW232214   3.714   0.410   5.017  0.4234 -0.2162 -0.6590
 6861SOL     OW32215   3.749   4.145  13.209  0.0082  0.0955  0.4358
 6861SOL    HW132216   3.680   4.081  13.224  2.2951 -2.7608 -1.1303
 6861SOL    HW232217   3.815   4.127  13.276  2.0542  0.3416 -1.5018
 6862SOL     OW32218   2.611   4.641   4.466  0.3499 -0.0403  0.4417
 6862SOL    HW132219   2.586   4.567   4.523  3.2781 -0.8403  0.6844
 6862SOL    HW232220   2.633   4.705   4.533 -1.2501  0.1817  0.7421
 6863SOL     OW32221   0.944   2.936  14.369  0.0626  0.1486 -0.0654
 6863SOL    HW132222   0.966   2.939  14.462 -2.9204 -2.6321  0.7057
 6863SOL    HW232223   0.939   3.029  14.347 -0.3294 -0.2756 -1.7835
 6864SOL     OW32224   0.272   4.242   1.857  0.1687 -0.2578  0.8318
 6864SOL    HW132225   0.203   4.259   1.793  0.0603 -0.3228  0.9306
 6864SOL    HW232226   0.320   4.172   1.812  0.9922  0.7139  0.2086
 6865SOL     OW32227   3.036   3.484   7.217  0.0354 -0.1932 -0.2136
 6865SOL    HW132228   2.970   3.541   7.177  0.5327 -0.3136 -1.2238
 6865SOL    HW232229   3.096   3.485   7.142 -0.3517 -0.9810 -0.5390
 6866SOL     OW32230   3.323   4.542   4.688 -0.1449 -1.1387 -0.2212
 6866SOL    HW132231   3.401   4.597   4.693  0.1111 -1.5008 -0.2844
 6866SOL    HW232232   3.277   4.564   4.607  1.8002  0.6109 -0.8466
 6867SOL     OW32233   0.484   0.241   4.549 -0.2234 -0.5845 -0.7490
 6867SOL    HW132234   0.416   0.226   4.615  1.1799  1.6481  1.2058
 6867SOL    HW232235   0.447   0.288   4.474  0.1882  1.5212  0.3649
 6868SOL     OW32236   1.011   4.181  15.533  0.4932  0.0045 -0.4058
 6868SOL    HW132237   0.944   4.115  15.553 -0.3464  0.7492 -0.7893
 6868SOL    HW232238   1.043   4.206  15.620 -0.8434  0.5677 -0.0810
 6869SOL     OW32239   2.752   2.557  17.115  0.5510 -0.1653 -1.0631
 6869SOL    HW132240   2.734   2.561  17.021  1.3372  0.4377 -1.1856
 6869SOL    HW232241   2.660   2.555  17.141  0.5880 -0.4659 -0.9568
 6870SOL     OW32242   2.563   0.569   8.541  0.1045  0.0970 -0.1925
 6870SOL    HW132243   2.545   0.477   8.522  1.0299  0.2059 -1.6124
 6870SOL    HW232244   2.609   0.553   8.624 -1.6505  0.0568  0.7615
 6871SOL     OW32245   3.135   0.101   2.043  0.4475  0.5422  0.2773
 6871SOL    HW132246   3.079   0.161   2.092 -2.0312  0.9743 -3.0778
 6871SOL    HW232247   3.215   0.155   2.044  2.5373 -2.5698 -1.1032
 6872SOL     OW32248   4.670   3.002   4.877 -0.6675  0.0083  0.1084
 6872SOL    HW132249   4.707   3.084   4.910 -0.3769  0.7293 -1.9920
 6872SOL    HW232250   4.736   2.954   4.927 -1.5726 -1.2278  0.1045
 6873SOL     OW32251   1.376   4.511   9.464 -0.6299  0.3920  0.0345
 6873SOL    HW132252   1.361   4.489   9.372 -0.8550 -2.1364  0.6841
 6873SOL    HW232253   1.460   4.557   9.454 -1.3305  1.4063 -1.2349
 6874SOL     OW32254   3.133   1.227  15.539  0.2720  0.7034 -0.5139
 6874SOL    HW132255   3.067   1.162  15.515  1.1261 -0.5575  0.5621
 6874SOL    HW232256   3.094   1.302  15.495 -4.5979 -1.2136  0.5692
 6875SOL     OW32257   0.187   1.035   1.958 -0.0923 -0.5483 -0.7045
 6875SOL    HW132258   0.186   1.029   2.053 -2.7576 -1.9037 -0.8047
 6875SOL    HW232259   0.096   1.028   1.930  0.0048  0.0253 -1.1731
 6876SOL     OW32260   2.659   1.777   7.592  0.1731  0.0279  0.4907
 6876SOL    HW132261   2.750   1.780   7.622 -0.2792  0.1837  1.8478
 6876SOL    HW232262   2.672   1.726   7.512 -1.3163  1.7363 -0.8299
 6877SOL     OW32263   1.894   1.036   8.359  0.5295  0.2106 -0.0766
 6877SOL    HW132264   1.940   1.075   8.285 -1.3910  1.6879 -0.5058
 6877SOL    HW232265   1.913   1.112   8.413 -1.8243 -0.4034  1.6058
 6878SOL     OW32266   4.344   1.376   8.415  0.6158  0.0953  0.3318
 6878SOL    HW132267   4.393   1.324   8.352 -1.7762  0.1551 -1.5799
 6878SOL    HW232268   4.367   1.343   8.502  0.9830  0.5015  0.3857
 6879SOL     OW32269   3.233   3.309   4.144  0.1079 -0.4117 -0.1810
 6879SOL    HW132270   3.248   3.380   4.082  1.1993 -0.3822  0.1179
 6879SOL    HW232271   3.181   3.245   4.096 -2.1957 -0.2678  2.1225
 6880SOL     OW32272   1.649   0.040   8.588 -0.1623 -0.2295  0.0651
 6880SOL    HW132273   1.725   0.045   8.529 -1.7136  0.6264 -1.8421
 6880SOL    HW232274   1.698   4.731   8.656  0.2824 -0.7779 -0.6327
 6881SOL     OW32275   4.603   1.959   0.956  0.4238  0.2649  0.2533
 6881SOL    HW132276   4.576   1.877   0.916  0.9707  0.0801  0.2646
 6881SOL    HW232277   4.627   1.929   1.044 -1.1583  0.9847  0.9190
 6882SOL     OW32278   1.850   3.987  11.957 -0.3515 -0.6752  0.2483
 6882SOL    HW132279   1.774   3.929  11.950  0.2375 -1.4241 -0.0171
 6882SOL    HW232280   1.873   3.987  12.049 -0.3600  1.8316  0.2387
 6883SOL     OW32281   0.438   2.561   5.977  0.2400 -0.2703  0.4222
 6883SOL    HW132282   0.425   2.628   6.044 -0.1019 -1.2374  1.3069
 6883SOL    HW232283   0.369   2.498   5.999  1.0409 -1.0318  0.7366
 6884SOL     OW32284   0.420   1.953   6.463  0.4893  0.2297  0.1254
 6884SOL    HW132285   0.469   1.921   6.387  3.3718  3.2659  0.7067
 6884SOL    HW232286   0.331   1.918   6.461  0.8708 -0.7428  0.3336
 6885SOL     OW32287   2.974   1.376   8.982 -0.0734  0.0373 -0.2590
 6885SOL    HW132288   2.905   1.440   8.997 -0.5397 -0.6826  0.6304
 6885SOL    HW232289   2.937   1.320   8.914  0.5433 -0.9704  0.2258
 6886SOL     OW32290   3.191   3.786   5.408  0.3319  0.2961 -0.0995
 6886SOL    HW132291   3.249   3.825   5.344  1.8741 -0.8254  0.6215
 6886SOL    HW232292   3.200   3.846   5.482  1.0795  0.7328 -0.5485
 6887SOL     OW32293   4.597   4.220  16.969  0.4084 -0.2464  0.0990
 6887SOL    HW132294   4.568   4.129  16.978 -1.1480  0.2992  0.6638
 6887SOL    HW232295   4.677   4.231  17.020  1.0179 -2.1888 -0.4458
 6888SOL     OW32296   3.418   1.102   6.989 -0.2177  0.0590 -0.0034
 6888SOL    HW132297   3.366   1.023   7.004 -2.2253  1.8736  2.5445
 6888SOL    HW232298   3.351   1.164   6.961 -0.3901 -0.6247 -1.1051
 6889SOL     OW32299   1.866   2.070   9.256  0.1764 -0.1634 -0.1587
 6889SOL    HW132300   1.876   2.165   9.255 -1.3381  0.0031  0.1248
 6889SOL    HW232301   1.777   2.077   9.289  0.7218  0.4996  1.1636
 6890SOL     OW32302   2.069   0.088  16.108 -0.2613  0.0174 -0.9148
 6890SOL    HW132303   2.051   0.127  16.023  2.2922  0.3355 -1.3258
 6890SOL    HW232304   2.065   0.164  16.167 -0.0805  0.4845 -1.4976
 6891SOL     OW32305   1.869   1.900   5.851 -0.5351  0.1920 -0.1574
 6891SOL    HW132306   1.854   1.806   5.861  0.7703  0.0051 -0.0115
 6891SOL    HW232307   1.834   1.930   5.935 -1.5849  1.2542 -0.9687
 6892SOL     OW32308   0.655   2.598   3.082  0.7652 -0.5118  0.3640
 6892SOL    HW132309   0.612   2.571   3.001  0.9051 -2.6168  0.9895
 6892SOL    HW232310   0.643   2.692   3.073  0.3680 -0.6519 -0.6065
 6893SOL     OW32311   2.101   2.610   6.108 -0.3905 -0.3884 -0.1753
 6893SOL    HW132312   2.122   2.528   6.064  1.1683  1.2912 -2.5357
 6893SOL    HW232313   2.005   2.609   6.100 -0.2780 -0.0505 -1.5100
 6894SOL     OW32314   0.291   1.918  16.765 -0.0974 -0.1010 -0.2916
 6894SOL    HW132315   0.262   1.844  16.818  0.2827 -0.6915 -0.9209
 6894SOL    HW232316   0.243   1.895  16.686  1.6580 -0.9337 -1.0894
 6895SOL     OW32317   3.396   1.944  16.248 -0.0814  0.1271  0.0898
 6895SOL    HW132318   3.331   1.885  16.287  0.5424 -0.8793 -0.3712
 6895SOL    HW232319   3.458   1.871  16.249  0.0068  0.1909 -0.5959
 6896SOL     OW32320   0.919   2.120   1.692  0.1152 -0.1883  0.0921
 6896SOL    HW132321   0.920   2.155   1.781 -0.5923 -0.6854  0.2994
 6896SOL    HW232322   0.892   2.032   1.719  3.6172 -1.6123 -0.9943
 6897SOL     OW32323   2.349   2.720  13.689 -1.0760  0.6725  0.0441
 6897SOL    HW132324   2.373   2.786  13.624 -0.5301 -0.0150 -0.4594
 6897SOL    HW232325   2.262   2.700  13.655 -0.8591 -0.1600 -0.0324
 6898SOL     OW32326   2.538   0.307   4.330 -0.5111  0.0079 -0.2210
 6898SOL    HW132327   2.518   0.309   4.423  0.2383  1.2787 -0.0850
 6898SOL    HW232328   2.594   0.229   4.327  1.0664  1.2271 -2.1248
 6899SOL     OW32329   3.640   2.369   6.604  0.2553  0.2066  0.3254
 6899SOL    HW132330   3.699   2.303   6.568 -0.7600  0.4159 -1.7260
 6899SOL    HW232331   3.692   2.449   6.600  1.2182 -0.3934  0.8508
 6900SOL     OW32332   3.965   3.014   5.069  0.0863 -0.1677  0.0318
 6900SOL    HW132333   3.947   3.108   5.066  0.2747 -0.1570 -0.7135
 6900SOL    HW232334   3.874   2.989   5.054 -0.4135  0.8433  1.4170
 6901SOL     OW32335   4.346   3.214   6.151 -0.3023 -0.4528  0.2737
 6901SOL    HW132336   4.349   3.260   6.234  2.5653  1.6917 -0.9912
 6901SOL    HW232337   4.402   3.275   6.102  0.0533 -1.4182 -0.5128
 6902SOL     OW32338   3.129   2.480   3.063  0.1392 -0.5010 -0.4078
 6902SOL    HW132339   3.167   2.567   3.078  0.0767 -0.5520  0.0377
 6902SOL    HW232340   3.158   2.469   2.972  0.4851 -4.6550  0.2126
 6903SOL     OW32341   4.522   3.092  13.940  0.3230 -0.1824 -0.2550
 6903SOL    HW132342   4.539   3.174  13.894  1.3375  0.0751  0.5694
 6903SOL    HW232343   4.440   3.106  13.987 -1.2271 -3.5064 -1.9652
 6904SOL     OW32344   2.514   0.856   8.977  0.0918  0.7045  0.4734
 6904SOL    HW132345   2.478   0.927   9.030 -1.5210  0.6683 -0.5622
 6904SOL    HW232346   2.516   0.790   9.046  0.1309 -1.8456 -1.9493
 6905SOL     OW32347   0.633   2.109   3.731  0.1911  0.0561  0.3682
 6905SOL    HW132348   0.707   2.062   3.768  1.0120  0.9252 -0.1690
 6905SOL    HW232349   0.667   2.123   3.642 -0.3591 -0.0966  0.1314
 6906SOL     OW32350   1.305   1.260   5.341  0.0349  0.1010  0.3021
 6906SOL    HW132351   1.399   1.267   5.351  0.1236  0.5038 -0.7459
 6906SOL    HW232352   1.287   1.320   5.268  2.8229 -1.7220 -1.8713
 6907SOL     OW32353   2.474   0.014   2.926  0.3871  0.0404  0.6920
 6907SOL    HW132354   2.549   0.058   2.888 -0.4943  1.4805  0.6176
 6907SOL    HW232355   2.498   4.659   2.927 -0.2788 -0.1267  1.4823
 6908SOL     OW32356   2.421   2.047   5.480 -0.2330  0.1920  0.4788
 6908SOL    HW132357   2.386   1.967   5.517  3.0500 -1.2004  0.5548
 6908SOL    HW232358   2.352   2.068   5.416 -0.6685  0.0274  0.8941
 6909SOL     OW32359   1.707   1.245   9.761  0.4187  0.0610  0.1095
 6909SOL    HW132360   1.772   1.226   9.693  1.0205  0.1929  0.6500
 6909SOL    HW232361   1.695   1.160   9.803  0.1739  0.4682  0.8639
 6910SOL     OW32362   0.038   2.422   7.894  0.0889 -0.1717  0.3938
 6910SOL    HW132363   0.086   2.385   7.968  1.4252 -0.9171 -0.8281
 6910SOL    HW232364   4.714   2.350   7.885  2.8743 -2.3935 -0.9641
 6911SOL     OW32365   2.680   3.334   0.618  0.4119  0.0614  0.2358
 6911SOL    HW132366   2.611   3.306   0.558 -1.5524 -1.5257  3.2290
 6911SOL    HW232367   2.722   3.249   0.633  0.0323  0.0202  1.0792
 6912SOL     OW32368   1.607   3.721  12.333 -0.2627 -0.1435 -0.4414
 6912SOL    HW132369   1.539   3.784  12.310  1.4873  2.1801  0.6613
 6912SOL    HW232370   1.608   3.730  12.429  2.1099  1.4331 -0.5990
 6913SOL     OW32371   4.589   1.318   3.505  0.0097  0.0870 -0.2851
 6913SOL    HW132372   4.615   1.243   3.557 -0.0201  0.8199  0.7833
 6913SOL    HW232373   4.673   1.345   3.467  1.6302 -2.6544  1.3481
 6914SOL     OW32374   1.855   4.084   4.533  0.2257  0.1390  0.3565
 6914SOL    HW132375   1.776   4.138   4.521 -0.4493 -1.0204 -0.3524
 6914SOL    HW232376   1.892   4.139   4.602  1.7747  2.3958 -2.2487
 6915SOL     OW32377   4.622   0.027   8.502 -0.1230  0.2343  0.3363
 6915SOL    HW132378   4.693   0.067   8.451 -0.0597 -2.0128 -1.3536
 6915SOL    HW232379   4.672   0.010   8.582  4.0171  1.0586 -2.0268
 6916SOL     OW32380   3.834   2.150   8.298 -0.1788 -0.1147 -0.2578
 6916SOL    HW132381   3.821   2.164   8.392 -2.7448 -0.7254 -0.4991
 6916SOL    HW232382   3.911   2.094   8.303  0.2147  0.4328 -0.1313
 6917SOL     OW32383   3.321   0.585   9.508  0.2216  0.1177  0.5711
 6917SOL    HW132384   3.365   0.603   9.425  0.7658 -1.4439  0.5186
 6917SOL    HW232385   3.234   0.570   9.472 -0.1671  1.2892  1.0125
 6918SOL     OW32386   3.096   3.315   6.760  0.2554 -0.1467 -0.2012
 6918SOL    HW132387   3.136   3.397   6.731 -0.4242  0.2277 -0.1015
 6918SOL    HW232388   3.018   3.359   6.795  2.4204  1.0238  3.1586
 6919SOL     OW32389   2.348   0.628   5.587  0.5820  0.4168 -0.0564
 6919SOL    HW132390   2.388   0.556   5.539 -1.0447 -1.5018  1.4603
 6919SOL    HW232391   2.373   0.603   5.676  1.0351  0.5036 -0.1554
 6920SOL     OW32392   3.876   3.559   6.557  0.1551 -0.2728 -0.1005
 6920SOL    HW132393   3.969   3.544   6.541  0.7737  0.2457  2.9782
 6920SOL    HW232394   3.847   3.468   6.566  1.5571 -0.6214  0.8175
 6921SOL     OW32395   2.929   4.124  16.349  0.4646  0.1947 -0.4342
 6921SOL    HW132396   2.909   4.055  16.412  1.0943  0.2114 -0.2229
 6921SOL    HW232397   2.850   4.178  16.360  0.9568  0.6658  0.8258
 6922SOL     OW32398   0.022   2.093  12.222  0.3625 -0.2916 -0.3619
 6922SOL    HW132399   4.702   2.117  12.295 -0.1188 -0.1168 -0.8047
 6922SOL    HW232400   4.714   2.011  12.201 -1.0356  0.8869 -1.8543
 6923SOL     OW32401   1.854   3.232   8.174 -0.1740  0.5300  0.2060
 6923SOL    HW132402   1.895   3.195   8.095 -0.1069  0.3157  0.3391
 6923SOL    HW232403   1.790   3.164   8.196  1.2330 -1.3116 -1.3469
 6924SOL     OW32404   4.201   0.235   2.928 -0.9094 -0.1342 -0.2556
 6924SOL    HW132405   4.234   0.309   2.876 -0.4147  0.8469  1.4530
 6924SOL    HW232406   4.113   0.229   2.891  0.1872 -0.2457 -2.8383
 6925SOL     OW32407   3.592   1.512   8.378 -0.3056 -0.2326  0.2596
 6925SOL    HW132408   3.571   1.603   8.355 -2.7848 -0.3046  2.2489
 6925SOL    HW232409   3.686   1.516   8.364 -0.0363 -0.0533  2.1193
 6926SOL     OW32410   1.361   1.040   2.631 -0.2431  0.1957  0.1806
 6926SOL    HW132411   1.321   0.986   2.699 -0.7821  1.2544  0.7037
 6926SOL    HW232412   1.337   0.996   2.549 -0.0624 -1.2921  0.9242
 6927SOL     OW32413   1.864   0.667   7.910 -0.1762 -0.4484  0.1805
 6927SOL    HW132414   1.869   0.762   7.904  1.2769 -0.7275 -3.1658
 6927SOL    HW232415   1.868   0.656   8.005 -0.5829  2.8989  0.5695
 6928SOL     OW32416   0.916   3.808   9.726  0.0708 -0.5064  0.0014
 6928SOL    HW132417   0.967   3.751   9.668  0.5649  0.2127 -0.2731
 6928SOL    HW232418   0.825   3.796   9.697  0.7328  2.5364 -3.3545
 6929SOL     OW32419   1.785   3.402   4.078  0.1646  0.2220 -0.1628
 6929SOL    HW132420   1.827   3.319   4.058  0.6635 -0.1916  2.5597
 6929SOL    HW232421   1.708   3.371   4.126 -2.6535  4.5198 -1.8732
 6930SOL     OW32422   4.024   1.123   7.269 -0.3620  0.1931 -0.1095
 6930SOL    HW132423   3.973   1.190   7.315 -1.6364  0.1972 -1.5237
 6930SOL    HW232424   4.102   1.101   7.320 -1.0236 -2.5060 -0.3030
 6931SOL     OW32425   0.053   2.997   3.168 -0.3419  0.2877 -0.2074
 6931SOL    HW132426   0.034   3.001   3.261  0.4147 -0.5815 -0.0167
 6931SOL    HW232427   0.038   2.906   3.141  0.5282 -0.0323  0.3992
 6932SOL     OW32428   3.662   4.079   8.907 -0.2706  0.7866 -0.5308
 6932SOL    HW132429   3.652   4.129   8.826 -2.3717 -0.5467 -1.1222
 6932SOL    HW232430   3.571   4.069   8.937 -0.6747  1.4875 -1.4973
 6933SOL     OW32431   1.342   3.194   1.682  0.3633  0.2716  0.2045
 6933SOL    HW132432   1.411   3.261   1.688  0.6383 -0.0564  0.7273
 6933SOL    HW232433   1.378   3.114   1.722  0.2114 -0.8436 -1.8638
 6934SOL     OW32434   4.401   0.495   6.748  0.2140  0.2920  0.2687
 6934SOL    HW132435   4.427   0.406   6.727 -0.5596  0.0354  0.4242
 6934SOL    HW232436   4.433   0.535   6.667  2.3693 -0.8378  0.5496
 6935SOL     OW32437   2.584   1.908   6.843 -0.0402  0.1549 -0.2066
 6935SOL    HW132438   2.559   1.997   6.867 -0.5528  0.1146 -0.5799
 6935SOL    HW232439   2.557   1.905   6.751 -0.8677  1.3193  0.0052
 6936SOL     OW32440   0.855   4.676   9.050  0.1495 -0.7635  0.3264
 6936SOL    HW132441   0.820   4.614   9.113 -3.1758 -1.2593 -1.9928
 6936SOL    HW232442   0.900   0.012   9.092 -0.2955 -0.2693 -0.0610
 6937SOL     OW32443   4.543   0.262   5.148  0.0654  0.9427 -0.0659
 6937SOL    HW132444   4.535   0.229   5.238  0.7428 -0.2088 -0.4244
 6937SOL    HW232445   4.485   0.338   5.154  1.2702  1.6687  2.3518
 6938SOL     OW32446   2.416   4.450   6.452  0.3115  0.6079 -0.1183
 6938SOL    HW132447   2.461   4.387   6.508 -0.6325 -0.6830 -0.8226
 6938SOL    HW232448   2.481   4.521   6.448 -1.3465  2.0752 -1.1085
 6939SOL     OW32449   0.779   0.474   8.803 -0.4896 -1.0042 -0.8917
 6939SOL    HW132450   0.830   0.494   8.881 -1.9925 -3.5891  0.7334
 6939SOL    HW232451   0.832   0.520   8.738 -1.3191  0.1426 -0.7561
 6940SOL     OW32452   1.880   0.720  14.415  0.1626 -0.1164  1.0366
 6940SOL    HW132453   1.832   0.647  14.377 -0.4906  1.8582 -1.9223
 6940SOL    HW232454   1.932   0.741  14.338 -1.1694 -1.1276 -0.1470
 6941SOL     OW32455   1.960   2.497   6.364  1.2053  0.0682  0.0857
 6941SOL    HW132456   1.936   2.576   6.411 -2.8504 -1.4368  0.5411
 6941SOL    HW232457   1.903   2.499   6.286  1.5843  0.0232 -0.1907
 6942SOL     OW32458   4.333   0.143   4.087 -0.1226  0.3549  0.2521
 6942SOL    HW132459   4.279   0.150   4.166 -0.0301 -2.4331  0.5660
 6942SOL    HW232460   4.360   0.051   4.088 -2.8909 -0.4649  1.8472
 6943SOL     OW32461   0.860   0.090   4.684 -0.5313  0.3109 -0.5430
 6943SOL    HW132462   0.772   0.061   4.663 -0.5476 -0.4126  0.5155
 6943SOL    HW232463   0.844   0.183   4.697  4.3331  1.2374 -1.0589
 6944SOL     OW32464   2.387   4.420   4.800 -0.0932  0.0232  0.0687
 6944SOL    HW132465   2.357   4.430   4.890  1.4668  1.2625  0.4341
 6944SOL    HW232466   2.322   4.363   4.758 -0.3085  0.5304 -0.2791
 6945SOL     OW32467   0.308   3.439   3.620 -0.3871  0.1388  0.0100
 6945SOL    HW132468   0.216   3.439   3.647 -0.0478 -0.5678  1.1539
 6945SOL    HW232469   0.320   3.355   3.577 -0.2370 -0.8927  2.0898
 6946SOL     OW32470   1.824   3.815   9.732 -0.1723 -0.0941  0.2577
 6946SOL    HW132471   1.830   3.867   9.651  3.1748  1.1043  1.2483
 6946SOL    HW232472   1.859   3.733   9.698  1.7256 -0.0841  2.1980
 6947SOL     OW32473   2.801   0.946  17.467 -0.5466  0.6039 -0.6887
 6947SOL    HW132474   2.763   0.866  17.431 -0.4757  0.5277 -0.5922
 6947SOL    HW232475   2.826   0.925  17.557 -1.2678  0.4036 -0.5385
 6948SOL     OW32476   2.846   4.706   6.059 -0.2003  0.3091 -0.4108
 6948SOL    HW132477   2.818   4.664   5.977 -0.3819 -0.2577 -0.0540
 6948SOL    HW232478   2.898   4.640   6.105 -1.7734 -0.1196  0.7125
 6949SOL     OW32479   1.461   1.797   3.693 -0.1146 -0.5887 -0.0247
 6949SOL    HW132480   1.430   1.759   3.776  0.4178 -0.6564  0.1398
 6949SOL    HW232481   1.382   1.835   3.654 -0.3966 -1.6480 -0.5125
 6950SOL     OW32482   3.236   3.055  11.601  0.3029 -0.1269  0.3199
 6950SOL    HW132483   3.211   2.979  11.654  1.8372  1.1806  2.9295
 6950SOL    HW232484   3.258   3.125  11.662 -0.5728  2.1746 -2.0249
 6951SOL     OW32485   1.034   2.400   5.488 -0.1184  0.3001 -0.4313
 6951SOL    HW132486   0.955   2.348   5.502  0.1081  0.3144  0.8854
 6951SOL    HW232487   1.069   2.389   5.576  1.5034 -1.0756 -1.2612
 6952SOL     OW32488   2.295   1.104   4.744 -0.4147  0.5577 -0.2404
 6952SOL    HW132489   2.387   1.113   4.766  0.0751 -0.8226 -1.7538
 6952SOL    HW232490   2.271   1.033   4.803  1.1794  0.2190 -0.0038
 6953SOL     OW32491   2.962   1.154  11.656 -0.0929  0.3350  0.1879
 6953SOL    HW132492   2.966   1.226  11.593  0.9608 -0.3301 -0.5037
 6953SOL    HW232493   2.886   1.180  11.708 -2.3212 -0.6898 -2.5923
 6954SOL     OW32494   1.011   1.476   6.237 -1.0191 -0.1316  0.3883
 6954SOL    HW132495   1.027   1.391   6.195  3.7156  0.8989  0.1245
 6954SOL    HW232496   1.077   1.466   6.305 -1.9042 -2.0120  0.9819
 6955SOL     OW32497   4.168   4.487   4.085 -0.5058  0.3898 -1.2540
 6955SOL    HW132498   4.202   4.531   4.007  0.4278  3.1793  0.7251
 6955SOL    HW232499   4.109   4.550   4.126 -0.8573 -1.6655  1.3381
 6956SOL     OW32500   3.623   2.956   8.689 -0.2281  0.0042 -0.1599
 6956SOL    HW132501   3.692   2.933   8.751 -0.7879  0.3403  0.5953
 6956SOL    HW232502   3.580   2.871   8.695 -0.0421 -0.1710 -1.3799
 6957SOL     OW32503   3.917   3.247   1.447 -0.3143  0.3802  0.4509
 6957SOL    HW132504   3.985   3.188   1.415 -0.1445  0.1770  1.1699
 6957SOL    HW232505   3.958   3.331   1.428  0.5354 -0.0401  0.3911
 6958SOL     OW32506   1.257   2.064   4.578  0.1113 -0.0320 -0.1798
 6958SOL    HW132507   1.333   2.114   4.548  0.4474  0.9034  2.2529
 6958SOL    HW232508   1.193   2.133   4.561 -0.8970 -0.9577 -0.1146
 6959SOL     OW32509   1.521   2.736   3.264 -0.2753  0.1747 -0.5651
 6959SOL    HW132510   1.558   2.748   3.351 -1.4699 -2.4739  0.3179
 6959SOL    HW232511   1.444   2.792   3.274 -0.1463  0.7393 -2.6704
 6960SOL     OW32512   0.607   1.155  17.227  0.0804 -0.1389  0.3695
 6960SOL    HW132513   0.559   1.237  17.219 -0.7642 -0.5943  0.7477
 6960SOL    HW232514   0.546   1.101  17.177 -1.7415  0.8622  1.5488
 6961SOL     OW32515   4.529   2.854   1.226 -0.2634  0.2752 -0.0636
 6961SOL    HW132516   4.589   2.780   1.217 -0.4917  0.2445 -1.3135
 6961SOL    HW232517   4.568   2.915   1.162 -0.8649 -1.5019 -2.1191
 6962SOL     OW32518   3.862   3.415   3.514  0.2531  0.3083 -0.2138
 6962SOL    HW132519   3.792   3.408   3.449 -0.6823  3.7971  0.4542
 6962SOL    HW232520   3.844   3.331   3.556 -1.2452  1.5564  1.6097
 6963SOL     OW32521   3.243   3.498   2.002 -0.3468  0.1281  0.3380
 6963SOL    HW132522   3.157   3.500   1.961  0.0707  1.0146 -0.5067
 6963SOL    HW232523   3.225   3.441   2.077 -1.5498 -1.7577 -1.3886
 6964SOL     OW32524   3.376   4.009   6.397  0.0470  0.0646 -0.3063
 6964SOL    HW132525   3.463   4.026   6.431  0.3955  2.7668 -2.5408
 6964SOL    HW232526   3.326   4.011   6.478  0.1844  3.7626 -0.3237
 6965SOL     OW32527   0.130   2.417  12.533 -0.1779  0.0400  0.3874
 6965SOL    HW132528   0.084   2.483  12.481 -0.8110  0.1885  1.1411
 6965SOL    HW232529   0.119   2.459  12.618 -1.6550  1.3187 -0.4324
 6966SOL     OW32530   1.704   4.428  13.012  0.2590 -0.4678  0.0617
 6966SOL    HW132531   1.614   4.403  12.995 -0.0056 -0.4794  1.5014
 6966SOL    HW232532   1.746   4.345  13.034  0.7972 -0.2292 -0.0670
 6967SOL     OW32533   4.433   1.325   7.252 -0.4714 -0.6279 -0.7448
 6967SOL    HW132534   4.368   1.266   7.292 -0.1308 -0.1279  0.5573
 6967SOL    HW232535   4.396   1.408   7.281  0.1177  0.2701 -2.5884
 6968SOL     OW32536   2.814   4.572   9.900 -0.4258 -0.5255 -0.2450
 6968SOL    HW132537   2.727   4.566   9.940  0.5227 -0.7177  1.8005
 6968SOL    HW232538   2.806   4.488   9.854  2.7648 -1.7714  1.4655
 6969SOL     OW32539   2.551   4.056   3.763  0.3455 -0.0057 -0.7684
 6969SOL    HW132540   2.497   4.093   3.833 -2.2040 -1.5964 -1.8773
 6969SOL    HW232541   2.523   3.965   3.773 -0.6822  0.3969  0.0991
 6970SOL     OW32542   3.617   1.903   0.696  0.0049 -0.8474  0.2581
 6970SOL    HW132543   3.561   1.853   0.635 -1.9118  0.5795  0.8573
 6970SOL    HW232544   3.580   1.991   0.699  2.5383  0.2750 -1.4812
 6971SOL     OW32545   3.883   2.220  16.388  0.2212 -0.9887  0.1276
 6971SOL    HW132546   3.805   2.196  16.438  0.7559 -1.4066  0.7547
 6971SOL    HW232547   3.858   2.304  16.350 -1.0999 -1.7767 -0.7870
 6972SOL     OW32548   1.203   2.188   3.492  0.0869  0.7413  0.0353
 6972SOL    HW132549   1.121   2.175   3.540  1.8136 -2.0793  2.2683
 6972SOL    HW232550   1.162   2.219   3.412 -1.5423  1.0768  1.0006
 6973SOL     OW32551   2.115   1.110   4.024 -0.4387  0.2716  0.4028
 6973SOL    HW132552   2.152   1.035   4.072  2.0960 -0.6421 -2.9329
 6973SOL    HW232553   2.175   1.177   4.055 -2.1841  1.6877  0.6832
 6974SOL     OW32554   1.596   4.013   6.893 -0.3368  0.4019  0.3496
 6974SOL    HW132555   1.667   4.056   6.941  0.1950 -0.2494  0.1441
 6974SOL    HW232556   1.643   3.966   6.824 -1.1521 -1.4558  1.0650
 6975SOL     OW32557   2.964   3.120   6.324 -0.1912 -0.2055  0.3073
 6975SOL    HW132558   2.989   3.153   6.237 -0.6991 -0.3544  0.1046
 6975SOL    HW232559   3.028   3.049   6.317 -1.0722 -1.1360  1.6005
 6976SOL     OW32560   4.442   2.490   3.200 -0.4673  0.1994  0.1728
 6976SOL    HW132561   4.385   2.415   3.217 -0.7157  0.0585 -1.2749
 6976SOL    HW232562   4.389   2.560   3.238 -0.0769  0.4175  0.3128
 6977SOL     OW32563   0.120   4.080   7.033 -0.0166  0.2945  0.1296
 6977SOL    HW132564   0.171   4.144   7.082 -0.8783  2.2132 -1.4605
 6977SOL    HW232565   0.135   4.001   7.085  0.0143  2.1657  2.9721
 6978SOL     OW32566   2.257   2.453   7.408  0.9568 -0.3541 -0.4742
 6978SOL    HW132567   2.348   2.481   7.402  0.6929  0.8780  1.2724
 6978SOL    HW232568   2.249   2.413   7.322 -0.4617  3.2596 -2.0333
 6979SOL     OW32569   0.769   2.401   3.232 -0.6201  0.0236 -0.2010
 6979SOL    HW132570   0.683   2.370   3.260 -1.5010  2.3511 -0.2789
 6979SOL    HW232571   0.752   2.492   3.206  0.2943  0.3016  0.1520
 6980SOL     OW32572   1.609   1.451   6.998  0.0784 -0.1092 -0.4091
 6980SOL    HW132573   1.549   1.432   6.926  0.9803  0.2193 -1.2629
 6980SOL    HW232574   1.632   1.541   6.977 -0.4513 -0.3030 -1.8167
 6981SOL     OW32575   2.916   2.685  13.507 -0.0846 -0.1890  0.0974
 6981SOL    HW132576   2.999   2.722  13.536 -0.5818  2.5269 -1.9574
 6981SOL    HW232577   2.887   2.625  13.576  0.0665  2.1640  2.1898
 6982SOL     OW32578   3.602   2.967   6.961 -0.0999  0.1876  0.7536
 6982SOL    HW132579   3.521   2.936   7.002  0.1507 -0.7056  0.5700
 6982SOL    HW232580   3.663   2.963   7.035 -0.6351  0.3521  1.2049
 6983SOL     OW32581   0.686   0.947   6.246  0.1381 -0.4977  0.5848
 6983SOL    HW132582   0.701   0.944   6.340  0.5908  1.6974  0.5955
 6983SOL    HW232583   0.779   0.966   6.229  0.0733  0.1180  0.8927
 6984SOL     OW32584   1.240   3.382   5.080 -0.4926 -0.1622 -0.8497
 6984SOL    HW132585   1.255   3.301   5.129 -1.2817  0.2387  0.0362
 6984SOL    HW232586   1.327   3.413   5.054  1.0016 -2.2188  1.6372
 6985SOL     OW32587   3.119   3.479   0.134  0.8577 -0.0450 -0.3845
 6985SOL    HW132588   3.175   3.421   0.082 -0.5824 -0.9651 -0.9087
 6985SOL    HW232589   3.142   3.453   0.223 -0.4851  1.6731  0.4652
 6986SOL     OW32590   3.088   0.082   0.400 -0.3760 -0.0003  0.4447
 6986SOL    HW132591   3.108   4.729   0.420 -0.8413 -0.6799 -2.2583
 6986SOL    HW232592   3.155   0.133   0.446 -1.9197  0.2414  2.4415
 6987SOL     OW32593   1.843   0.180   2.971  0.2021 -0.5023 -0.2980
 6987SOL    HW132594   1.842   0.276   2.971 -2.4342 -0.5561 -1.9356
 6987SOL    HW232595   1.846   0.159   2.878  0.4160 -0.6333 -0.2613
 6988SOL     OW32596   3.931   4.709  16.281 -0.2056  0.3729 -0.2652
 6988SOL    HW132597   3.975   4.665  16.209  0.8282  0.4308  0.3379
 6988SOL    HW232598   3.877   4.639  16.319  1.7324 -1.4790 -0.9471
 6989SOL     OW32599   4.128   1.821   3.397 -0.0613  0.0343 -0.3825
 6989SOL    HW132600   4.164   1.733   3.384 -1.1127 -0.6228  1.0520
 6989SOL    HW232601   4.070   1.798   3.469  0.4591  0.6228  0.2253
 6990SOL     OW32602   3.424   2.529  14.533  0.0868 -0.8594  0.2478
 6990SOL    HW132603   3.504   2.516  14.583  0.8052 -0.7193 -0.8906
 6990SOL    HW232604   3.450   2.522  14.442  1.6915 -1.6493  0.7840
 6991SOL     OW32605   0.568   2.623  16.084  0.3819 -0.5882 -0.3361
 6991SOL    HW132606   0.591   2.681  16.012  2.0526 -0.1863  0.5187
 6991SOL    HW232607   0.481   2.656  16.105  0.9999 -1.0211  2.9746
 6992SOL     OW32608   2.389   3.191   7.520 -0.0833 -0.2951 -0.6402
 6992SOL    HW132609   2.426   3.272   7.485 -0.0329 -0.5522 -1.1832
 6992SOL    HW232610   2.300   3.221   7.538  0.1916  1.3449 -1.9571
 6993SOL     OW32611   1.848   0.313   1.869 -0.0366  0.0384  0.5095
 6993SOL    HW132612   1.910   0.250   1.831  0.1510  1.2789 -1.2323
 6993SOL    HW232613   1.815   0.256   1.938 -0.5167 -0.8222 -0.4359
 6994SOL     OW32614   4.425   0.210   4.373 -0.1681  0.5697 -0.5942
 6994SOL    HW132615   4.439   0.232   4.465  0.8477  0.8042 -0.8119
 6994SOL    HW232616   4.358   0.141   4.368 -0.9132  1.0433  2.7690
 6995SOL     OW32617   0.341   2.900   3.211 -0.2030 -0.0912  0.0570
 6995SOL    HW132618   0.257   2.920   3.171  0.3581 -0.9461 -1.5586
 6995SOL    HW232619   0.325   2.828   3.273 -0.0717  0.2875  0.5379
 6996SOL     OW32620   3.138   2.296   7.445  0.3779  0.7320 -0.2454
 6996SOL    HW132621   3.053   2.268   7.413  1.1260 -0.4492 -1.1941
 6996SOL    HW232622   3.111   2.316   7.535 -1.5238  0.8002 -0.8326
 6997SOL     OW32623   1.981   1.302   6.289  0.5814 -0.0783  0.3502
 6997SOL    HW132624   2.029   1.352   6.354 -0.3880  3.5398 -1.7484
 6997SOL    HW232625   1.991   1.212   6.320 -1.4663 -1.0878 -1.9091
 6998SOL     OW32626   2.250   0.262   9.412  0.3305  0.3599  0.3027
 6998SOL    HW132627   2.327   0.216   9.445 -0.0714  0.7764  1.8278
 6998SOL    HW232628   2.274   0.353   9.429 -0.5987  0.8016 -0.7160
 6999SOL     OW32629   4.098   3.974   4.175  0.2492  0.4428  0.1028
 6999SOL    HW132630   4.148   4.034   4.119  1.8617 -1.5062 -0.5624
 6999SOL    HW232631   4.156   3.898   4.185  0.4464  0.6203  0.3200
 7000SOL     OW32632   4.393   3.548   9.114  0.2228 -0.1796 -0.4097
 7000SOL    HW132633   4.457   3.564   9.184  1.0511 -2.6610 -0.5878
 7000SOL    HW232634   4.380   3.453   9.120  2.6346 -0.3592  1.9967
 7001SOL     OW32635   2.453   2.692   8.992  0.4671 -0.2569 -0.6948
 7001SOL    HW132636   2.359   2.704   8.982  0.0770 -1.5734  1.5169
 7001SOL    HW232637   2.479   2.770   9.041 -0.4642 -1.1330  1.1918
 7002SOL     OW32638   2.271   2.566   4.536 -0.0061  0.0533 -0.0450
 7002SOL    HW132639   2.184   2.578   4.574  0.2874  1.6144  0.1469
 7002SOL    HW232640   2.300   2.648   4.576 -1.2375 -0.3142  1.6279
 7003SOL     OW32641   1.888   2.660  17.140  0.0853 -0.4255 -0.2596
 7003SOL    HW132642   1.801   2.675  17.177 -0.8756 -0.4952 -2.4885
 7003SOL    HW232643   1.873   2.590  17.076  0.9459 -0.4503 -0.4262
 7004SOL     OW32644   1.277   4.220  16.859  0.1267  0.2467  0.6746
 7004SOL    HW132645   1.370   4.234  16.875  0.5144  0.7161 -2.0285
 7004SOL    HW232646   1.249   4.293  16.914 -0.3877 -1.6991  3.0134
 7005SOL     OW32647   0.573   0.398   9.677  0.0752  0.1759  0.1584
 7005SOL    HW132648   0.492   0.367   9.717  1.6833 -1.4339  2.2492
 7005SOL    HW232649   0.551   0.407   9.585 -1.7337  1.3192  0.7070
 7006SOL     OW32650   1.441   1.541   1.248 -0.7801  0.3959  0.1801
 7006SOL    HW132651   1.510   1.546   1.182 -1.9016  0.5772 -0.9819
 7006SOL    HW232652   1.399   1.460   1.219 -0.0121 -0.4602  1.4547
 7007SOL     OW32653   1.847   1.434   7.501 -0.1543  0.7912 -0.2590
 7007SOL    HW132654   1.806   1.504   7.451 -0.1724 -0.0548 -1.4202
 7007SOL    HW232655   1.790   1.438   7.578  1.1202 -2.1677  0.8555
 7008SOL     OW32656   4.327   0.259  15.650  0.1728 -0.3632 -0.2593
 7008SOL    HW132657   4.346   0.351  15.671 -2.9333  0.6297 -1.8026
 7008SOL    HW232658   4.377   0.249  15.569  2.5601  1.9970  0.8984
 7009SOL     OW32659   2.801   2.158   7.077 -0.1242  0.7178  0.5929
 7009SOL    HW132660   2.763   2.071   7.068  1.2308  0.1321  0.4889
 7009SOL    HW232661   2.863   2.162   7.004 -0.1610  1.9715  0.6273
 7010SOL     OW32662   2.646   3.521  14.738  0.4320  0.0368 -0.4582
 7010SOL    HW132663   2.596   3.556  14.812  0.0526 -1.1179 -0.1681
 7010SOL    HW232664   2.585   3.464  14.692 -1.0052  1.2986 -0.1014
 7011SOL     OW32665   3.745   1.779  17.328  0.0194 -0.1139 -0.2674
 7011SOL    HW132666   3.719   1.728  17.251  3.5785 -1.8922 -0.3221
 7011SOL    HW232667   3.728   1.716  17.398  0.8671  1.2021  1.1166
 7012SOL     OW32668   0.087   0.881   0.662 -0.2374 -0.3631 -0.2442
 7012SOL    HW132669   0.000   0.902   0.697 -1.2052 -3.5620 -0.7429
 7012SOL    HW232670   0.093   0.793   0.698  0.1588  1.3237  3.7446
 7013SOL     OW32671   3.561   3.834   5.908 -0.0380  0.0658  0.3465
 7013SOL    HW132672   3.539   3.874   5.992  1.2695  1.3227  0.0856
 7013SOL    HW232673   3.530   3.899   5.845 -1.3985 -0.2305  0.6986
 7014SOL     OW32674   4.191   0.861   1.825 -0.0472 -0.0164 -0.1972
 7014SOL    HW132675   4.169   0.822   1.739 -0.8642  2.5065 -1.1195
 7014SOL    HW232676   4.140   0.796   1.874 -0.8488  3.2597  3.2295
 7015SOL     OW32677   0.438   4.624   1.871  0.7507 -0.4076 -0.5015
 7015SOL    HW132678   0.366   4.672   1.830  1.0423  1.3412  1.0592
 7015SOL    HW232679   0.424   4.638   1.965 -0.2708 -0.5555 -0.6287
 7016SOL     OW32680   4.701   2.090   0.747  0.9054 -0.3297  0.1958
 7016SOL    HW132681   4.623   2.112   0.696  2.1598  1.5944 -0.8957
 7016SOL    HW232682   4.661   2.050   0.824 -1.1790 -3.1122 -2.3240
 7017SOL     OW32683   0.944   4.317  12.275  0.0823  0.3547 -0.4005
 7017SOL    HW132684   0.911   4.364  12.351  2.2191 -0.1590  0.8487
 7017SOL    HW232685   0.874   4.255  12.256 -1.5357  1.4405  2.0857
 7018SOL     OW32686   2.873   3.707   8.368  0.4359 -0.3742  0.2597
 7018SOL    HW132687   2.818   3.766   8.318 -2.5508 -2.4516  1.0602
 7018SOL    HW232688   2.815   3.631   8.368 -0.4944  0.3444 -0.9087
 7019SOL     OW32689   0.721   1.240   9.086 -0.4281 -0.6268  0.2271
 7019SOL    HW132690   0.778   1.175   9.128  0.9703 -0.3966 -1.3127
 7019SOL    HW232691   0.778   1.317   9.090 -3.1606  1.4240 -0.5054
 7020SOL     OW32692   2.532   3.142   1.952 -0.0899  0.1145  0.3661
 7020SOL    HW132693   2.557   3.158   1.862  0.1511 -1.4466  0.1535
 7020SOL    HW232694   2.439   3.162   1.944  0.4434  1.8303 -1.2810
 7021SOL     OW32695   4.427   1.405   4.211  0.3150 -0.2544 -0.1251
 7021SOL    HW132696   4.339   1.380   4.183  0.1420  0.0572  0.1486
 7021SOL    HW232697   4.421   1.378   4.302  0.0477 -1.0603 -0.3781
 7022SOL     OW32698   4.497   4.608   8.293 -0.2543  0.5441  0.0778
 7022SOL    HW132699   4.425   4.548   8.313  0.4870 -0.8475 -1.4760
 7022SOL    HW232700   4.536   4.622   8.379 -1.2523 -1.2148  0.8241
 7023SOL     OW32701   1.898   3.141   3.982 -0.1100  0.0888 -0.1259
 7023SOL    HW132702   1.873   3.100   3.899 -0.2977 -0.2852  0.1162
 7023SOL    HW232703   1.838   3.105   4.048 -1.0713 -0.2639 -1.2006
 7024SOL     OW32704   1.456   3.550   7.376  0.3809  0.4238  0.0149
 7024SOL    HW132705   1.395   3.606   7.327  0.2561 -1.0034 -1.4543
 7024SOL    HW232706   1.472   3.604   7.453 -1.4660  2.7824 -1.2549
 7025SOL     OW32707   1.805   1.200   0.934  0.4508  0.4129 -0.8439
 7025SOL    HW132708   1.785   1.273   0.992 -0.9278 -0.7597  0.1339
 7025SOL    HW232709   1.765   1.131   0.987  0.2095  1.5649  0.4630
 7026SOL     OW32710   0.884   2.216   4.709 -0.1069  0.1405 -0.3136
 7026SOL    HW132711   0.896   2.185   4.799 -1.2001 -0.2319 -0.2926
 7026SOL    HW232712   0.868   2.129   4.671 -1.4955 -0.0720  0.7652
 7027SOL     OW32713   2.891   4.221   8.898  0.1556 -0.1724 -0.1509
 7027SOL    HW132714   2.972   4.272   8.905  0.0615  0.2269 -2.0605
 7027SOL    HW232715   2.916   4.129   8.902  0.9769  0.0079 -1.2256
 7028SOL     OW32716   3.396   4.045  17.367  0.4011 -0.0084 -0.5855
 7028SOL    HW132717   3.425   4.070  17.455  0.1756 -0.5613 -0.3519
 7028SOL    HW232718   3.449   4.111  17.322  0.0850  0.3069 -0.4886
 7029SOL     OW32719   0.488   3.240   4.473  0.1856 -0.1642 -0.1166
 7029SOL    HW132720   0.514   3.277   4.557 -0.7660 -0.2289  0.2052
 7029SOL    HW232721   0.502   3.147   4.488  1.4780 -0.3164 -2.2100
 7030SOL     OW32722   0.761   1.784   9.371 -0.3895 -0.1261  0.1242
 7030SOL    HW132723   0.844   1.817   9.334 -0.9203 -0.1910 -1.1301
 7030SOL    HW232724   0.790   1.717   9.433  1.3535 -0.0005 -0.5318
 7031SOL     OW32725   2.365   0.525   4.252 -0.3332 -0.0959 -0.2187
 7031SOL    HW132726   2.408   0.599   4.211  0.3991  0.7688  2.1295
 7031SOL    HW232727   2.430   0.455   4.256 -1.8864 -1.5035  0.6949
 7032SOL     OW32728   3.227   0.939   4.230  0.2001  0.1411 -0.2247
 7032SOL    HW132729   3.257   1.015   4.279  1.6665  0.6442 -1.9090
 7032SOL    HW232730   3.251   0.862   4.282 -2.9745 -0.6430  0.1043
 7033SOL     OW32731   1.467   1.178   2.050 -0.2961  0.1459  0.7999
 7033SOL    HW132732   1.384   1.203   2.009  0.6424 -0.7365 -1.6490
 7033SOL    HW232733   1.454   1.087   2.023  0.1023  0.7625 -1.4555
 7034SOL     OW32734   0.404   3.227  10.768  0.5242  0.1191 -0.3297
 7034SOL    HW132735   0.452   3.245  10.687  3.0116  0.2939  1.1711
 7034SOL    HW232736   0.429   3.300  10.825 -1.0097  0.6109 -0.2986
 7035SOL     OW32737   4.718   1.516  15.164  0.2260 -0.1129  0.5379
 7035SOL    HW132738   4.720   1.425  15.137  0.6935  0.8955 -2.8685
 7035SOL    HW232739   4.623   1.528  15.173  0.1579  0.2639 -0.6865
 7036SOL     OW32740   0.542   1.950   4.264  0.1723  0.2794 -0.2550
 7036SOL    HW132741   0.553   1.980   4.354 -1.1979 -0.0521  0.0296
 7036SOL    HW232742   0.613   1.887   4.258  1.5792  2.0720 -2.2727
 7037SOL     OW32743   2.011   1.473   3.310  0.1029  0.8995  0.0336
 7037SOL    HW132744   1.948   1.481   3.381  0.1030 -0.2727  0.1641
 7037SOL    HW232745   1.956   1.490   3.233  0.9280 -0.0238 -0.7724
 7038SOL     OW32746   2.690   0.670   4.731  0.3564 -0.0053 -0.0785
 7038SOL    HW132747   2.684   0.625   4.648 -0.9626 -0.0554  0.0465
 7038SOL    HW232748   2.732   0.752   4.704 -0.1409  0.0407 -0.7017
 7039SOL     OW32749   3.004   3.333   9.681  0.9488  0.1201  0.1537
 7039SOL    HW132750   3.013   3.406   9.741  0.4891  0.5443 -0.2951
 7039SOL    HW232751   2.972   3.371   9.599  0.6680 -1.0532 -0.2919
 7040SOL     OW32752   3.658   2.029   9.206  0.5690  0.0805 -0.4128
 7040SOL    HW132753   3.625   1.968   9.139  3.1514 -0.9298 -0.7824
 7040SOL    HW232754   3.650   1.970   9.281 -0.0780 -0.2674 -0.7481
 7041SOL     OW32755   4.726   2.036   3.584 -0.1954  0.3135  0.3972
 7041SOL    HW132756   4.706   2.008   3.495  0.4565 -2.0874  1.0220
 7041SOL    HW232757   4.651   2.093   3.605 -0.8506  0.2506 -1.7344
 7042SOL     OW32758   0.505   2.361  17.487  0.5323 -0.7045 -0.3384
 7042SOL    HW132759   0.462   2.282  17.521 -0.5173 -0.1432 -0.3414
 7042SOL    HW232760   0.454   2.386  17.410  0.7367 -1.0689 -0.5867
 7043SOL     OW32761   1.248   2.776   4.341  0.1738  0.4317  0.2848
 7043SOL    HW132762   1.186   2.780   4.414 -0.6975 -1.1877 -0.3722
 7043SOL    HW232763   1.197   2.776   4.260  1.2462  0.2096 -0.3876
 7044SOL     OW32764   4.041   0.702  13.339  0.2435  0.1227  0.0786
 7044SOL    HW132765   4.009   0.649  13.266 -1.0903  1.1101 -0.0623
 7044SOL    HW232766   4.132   0.718  13.313  0.8026 -0.8092  1.4459
 7045SOL     OW32767   3.385   1.168   1.353  0.1506 -0.6181  0.5264
 7045SOL    HW132768   3.441   1.091   1.353 -0.0362 -0.7467  2.6487
 7045SOL    HW232769   3.385   1.191   1.260  0.8751 -3.2110 -0.1005
 7046SOL     OW32770   1.204   2.394   1.520 -0.0575  0.8616 -0.2961
 7046SOL    HW132771   1.287   2.438   1.499 -0.9499  2.2860 -0.8181
 7046SOL    HW232772   1.189   2.355   1.434  0.2232  0.7104 -0.2791
 7047SOL     OW32773   4.217   2.167   3.780  0.1139  0.0644  0.6098
 7047SOL    HW132774   4.246   2.216   3.857  1.2593 -0.3352  0.4391
 7047SOL    HW232775   4.155   2.102   3.813  0.1842 -0.8967 -1.1099
 7048SOL     OW32776   4.031   3.814   5.510  0.0580  0.2345  0.0732
 7048SOL    HW132777   4.118   3.788   5.541  0.0174  0.3875  0.3150
 7048SOL    HW232778   4.030   3.769   5.426  0.0892  2.6687 -1.2291
 7049SOL     OW32779   1.843   4.619   0.228  0.2709 -0.4981  0.1720
 7049SOL    HW132780   1.857   4.525   0.216  1.1364 -0.3976  0.3871
 7049SOL    HW232781   1.932   4.651   0.212 -0.6963  1.5803 -0.9235
 7050SOL     OW32782   1.592   1.511   8.555 -0.0335  0.0488  0.0208
 7050SOL    HW132783   1.558   1.424   8.575 -2.5466  0.9010 -0.5675
 7050SOL    HW232784   1.510   1.556   8.536  0.2803  0.0585 -1.3327
 7051SOL     OW32785   0.249   0.077  11.605 -0.2046  0.2664  0.0437
 7051SOL    HW132786   0.171   0.108  11.650 -2.0772 -1.3997 -2.0234
 7051SOL    HW232787   0.318   0.082  11.671  0.8917  1.1422 -1.1733
 7052SOL     OW32788   3.709   4.541   1.950  0.5169  0.3954 -0.5867
 7052SOL    HW132789   3.696   4.567   2.041 -0.6379  0.2709 -0.7207
 7052SOL    HW232790   3.622   4.544   1.910 -0.0421  0.0801  0.6246
 7053SOL     OW32791   3.955   3.774   8.844 -0.1969 -0.8541  0.9810
 7053SOL    HW132792   3.889   3.707   8.861 -0.5893 -1.1004 -1.4601
 7053SOL    HW232793   3.948   3.820   8.927 -3.8244  0.7386 -0.1827
 7054SOL     OW32794   1.782   1.818  14.680 -0.0179 -0.2723  0.2194
 7054SOL    HW132795   1.705   1.838  14.734 -1.1214 -1.2023 -0.9847
 7054SOL    HW232796   1.798   1.724  14.682  0.1823 -0.2445 -0.1187
 7055SOL     OW32797   2.331   2.694  17.393 -0.0114  0.0022  0.6385
 7055SOL    HW132798   2.298   2.775  17.353  0.5163  0.4166  1.0426
 7055SOL    HW232799   2.261   2.637  17.362  1.1981 -0.2190 -1.7048
 7056SOL     OW32800   0.131   1.848   9.063  0.2226 -0.1244 -0.2762
 7056SOL    HW132801   0.155   1.784   9.130  1.5131  1.1765  0.5125
 7056SOL    HW232802   0.037   1.843   9.075  0.5011 -4.5141  0.3647
 7057SOL     OW32803   1.403   4.471  16.145  0.2873  0.4917 -0.4929
 7057SOL    HW132804   1.366   4.528  16.212 -0.3883  1.8008 -1.9806
 7057SOL    HW232805   1.363   4.387  16.168  0.3102 -0.0321 -2.3636
 7058SOL     OW32806   1.541   3.609   4.293  0.0791  0.6085 -0.0412
 7058SOL    HW132807   1.568   3.519   4.273 -0.8841  0.3620 -0.2557
 7058SOL    HW232808   1.454   3.612   4.253  0.9375 -0.4422 -2.0146
 7059SOL     OW32809   3.793   1.118   4.615  0.2413  0.5298  0.2310
 7059SOL    HW132810   3.872   1.156   4.579  0.7628 -1.2755 -0.5474
 7059SOL    HW232811   3.817   1.032   4.650 -0.1117  1.1991  2.1184
 7060SOL     OW32812   2.059   2.929  17.093  0.3848  0.4518  0.6003
 7060SOL    HW132813   2.073   2.938  17.188  0.7411  2.5861  0.3633
 7060SOL    HW232814   2.057   2.834  17.086  2.6700  0.3858  0.9448
 7061SOL     OW32815   0.113   2.268   8.570  0.7644  0.1173 -0.0397
 7061SOL    HW132816   0.172   2.285   8.496  1.9122 -0.4957  0.7250
 7061SOL    HW232817   0.080   2.358   8.575 -0.0685 -0.1619 -0.7009
 7062SOL     OW32818   0.758   2.728   8.560 -0.1994 -0.2610 -0.0451
 7062SOL    HW132819   0.831   2.773   8.603 -0.2302  1.4947 -1.8458
 7062SOL    HW232820   0.766   2.766   8.472 -2.9628 -1.7410 -0.9588
 7063SOL     OW32821   3.138   3.960  10.781 -0.2827 -0.3864  0.2390
 7063SOL    HW132822   3.092   4.028  10.830  0.4295 -0.2473  0.7065
 7063SOL    HW232823   3.078   3.887  10.797  0.5295 -0.7557  1.6318
 7064SOL     OW32824   2.185   1.889   5.535  0.2612  0.0392 -0.2612
 7064SOL    HW132825   2.194   1.822   5.467 -1.0018 -0.8697  0.4663
 7064SOL    HW232826   2.172   1.844   5.619  2.0843  2.1582  1.1441
 7065SOL     OW32827   3.626   3.640   8.083 -0.1966  0.0667 -0.0430
 7065SOL    HW132828   3.674   3.582   8.023 -2.6697 -3.6360  1.5664
 7065SOL    HW232829   3.557   3.667   8.023  0.3180 -1.3668 -1.2856
 7066SOL     OW32830   0.267   1.959   4.571 -0.2195  0.5190 -0.4906
 7066SOL    HW132831   0.198   1.893   4.564 -0.5564  0.9971 -1.6321
 7066SOL    HW232832   0.301   1.940   4.659 -1.0740  2.5854  0.3006
 7067SOL     OW32833   2.715   4.408  13.677 -0.2804  0.4419  0.0981
 7067SOL    HW132834   2.772   4.336  13.706 -1.3561 -0.5420 -0.2181
 7067SOL    HW232835   2.756   4.480  13.724 -0.3255 -0.0747  0.9334
 7068SOL     OW32836   0.624   3.102   2.148 -0.2452 -0.1996 -0.1031
 7068SOL    HW132837   0.602   3.022   2.195  0.2259 -0.2885 -0.0333
 7068SOL    HW232838   0.532   3.127   2.136 -0.2981 -0.8364 -1.0731
 7069SOL     OW32839   1.787   3.618   7.111 -0.0916  0.3784  0.6247
 7069SOL    HW132840   1.741   3.545   7.154 -0.5251  0.4583  0.2961
 7069SOL    HW232841   1.727   3.632   7.037  0.6685 -1.0765 -0.2723
 7070SOL     OW32842   0.307   4.286   5.564  0.4814 -0.2765  0.2003
 7070SOL    HW132843   0.247   4.328   5.503 -3.1273 -2.8850  1.9585
 7070SOL    HW232844   0.381   4.345   5.577  1.5699 -1.3531 -1.1096
 7071SOL     OW32845   3.366   0.979   1.648  0.3026 -0.4144 -0.3362
 7071SOL    HW132846   3.449   1.010   1.683  0.2609 -1.9414  1.1130
 7071SOL    HW232847   3.383   0.972   1.554 -1.2207 -0.2352 -0.6284
 7072SOL     OW32848   1.481   3.431   4.614 -0.5128  0.0885 -0.1248
 7072SOL    HW132849   1.400   3.396   4.579 -0.0922  0.5040 -1.4931
 7072SOL    HW232850   1.464   3.525   4.608  0.5420  0.3241  0.4588
 7073SOL     OW32851   2.159   0.710   4.874  0.4639 -0.6409 -0.3870
 7073SOL    HW132852   2.167   0.669   4.960  0.1817  2.4519  1.1441
 7073SOL    HW232853   2.163   0.803   4.899 -0.4933 -1.6257  3.4568
 7074SOL     OW32854   3.181   4.559   2.394  0.7301  0.1556  0.0457
 7074SOL    HW132855   3.211   4.646   2.420  0.5856  0.2879 -0.2357
 7074SOL    HW232856   3.175   4.518   2.481  0.4781 -0.0387 -0.0636
 7075SOL     OW32857   3.169   0.424   3.252 -0.3059 -1.0670 -0.5483
 7075SOL    HW132858   3.249   0.475   3.259 -0.2702 -1.2607  0.4195
 7075SOL    HW232859   3.112   0.489   3.210 -2.0514 -2.1562  0.1116
 7076SOL     OW32860   1.927   1.318   0.426  0.2177  0.1487 -0.1168
 7076SOL    HW132861   1.995   1.267   0.469 -1.4793 -0.4993  1.8287
 7076SOL    HW232862   1.865   1.332   0.498 -0.5615  2.2294 -1.1885
 7077SOL     OW32863   4.339   4.610  13.375 -0.4838  0.0936 -0.2010
 7077SOL    HW132864   4.409   4.622  13.311 -0.5046 -0.6442 -0.3651
 7077SOL    HW232865   4.295   4.694  13.366  0.1826  0.3465 -1.0201
 7078SOL     OW32866   2.057   0.020   5.872  0.2282  0.1662 -0.2417
 7078SOL    HW132867   1.978   0.006   5.925  2.4168 -1.5594  2.5707
 7078SOL    HW232868   2.067   0.113   5.892  0.6414 -0.9534  4.7748
 7079SOL     OW32869   0.008   1.300   7.346 -0.0077 -0.2798  0.5266
 7079SOL    HW132870   0.094   1.329   7.375  0.6561 -2.2126  0.5098
 7079SOL    HW232871   4.697   1.382   7.337  3.2341  1.2318 -2.8638
 7080SOL     OW32872   0.330   2.759   0.611 -0.7641  0.0023 -0.0084
 7080SOL    HW132873   0.261   2.710   0.655 -1.0347 -0.2698 -0.7245
 7080SOL    HW232874   0.401   2.697   0.626 -1.6445 -1.0117  0.0014
 7081SOL     OW32875   4.427   4.516  11.245 -0.5562 -0.0020  0.2834
 7081SOL    HW132876   4.333   4.530  11.252 -0.5082  0.1184  0.6473
 7081SOL    HW232877   4.456   4.601  11.277  0.2834  0.0678 -0.6546
 7082SOL     OW32878   1.244   2.609  17.443  0.1976  0.0099  0.1374
 7082SOL    HW132879   1.230   2.704  17.448 -1.1600 -0.2467  1.1423
 7082SOL    HW232880   1.211   2.593  17.354  0.3505  0.5283 -0.0127
 7083SOL     OW32881   0.836   3.058   3.746  0.1679  0.4774  0.2003
 7083SOL    HW132882   0.820   3.151   3.726  0.5582  0.2795 -1.0694
 7083SOL    HW232883   0.760   3.031   3.797 -1.2760  1.9363 -1.1534
 7084SOL     OW32884   0.982   4.114  11.423 -0.1075  0.2585  0.0104
 7084SOL    HW132885   0.935   4.184  11.468  0.7342  0.1679  1.0325
 7084SOL    HW232886   1.048   4.172  11.385 -1.9485  0.1053 -3.4483
 7085SOL     OW32887   2.176   1.397   5.061 -0.1960  0.5430  0.0652
 7085SOL    HW132888   2.240   1.436   5.001 -0.8327 -0.0907 -1.0139
 7085SOL    HW232889   2.127   1.474   5.090  0.0551  1.2025 -1.2604
 7086SOL     OW32890   2.359   0.918   7.009 -0.9263  0.5656 -0.0331
 7086SOL    HW132891   2.333   0.948   6.922 -1.4171 -1.7463 -0.6948
 7086SOL    HW232892   2.323   0.829   7.011  0.2659  0.0830 -0.6729
 7087SOL     OW32893   3.829   3.821   3.549  0.1601  0.1861 -0.4488
 7087SOL    HW132894   3.869   3.858   3.470  0.9177  0.2648 -0.0298
 7087SOL    HW232895   3.877   3.739   3.553 -0.7082 -0.1527  3.3671
 7088SOL     OW32896   3.635   2.355   1.575  0.0399 -0.1819 -0.1600
 7088SOL    HW132897   3.541   2.342   1.566 -0.2890  0.7877  1.8602
 7088SOL    HW232898   3.637   2.388   1.665  0.7148 -1.5877  0.3498
 7089SOL     OW32899   1.266   0.075  15.257  0.2278  0.0889  0.0072
 7089SOL    HW132900   1.312   0.061  15.174  1.7485  1.0701  0.6846
 7089SOL    HW232901   1.221   4.731  15.277  0.8081 -0.3707 -0.5361
 7090SOL     OW32902   0.542   3.974   3.942  0.3732  0.4929  0.2633
 7090SOL    HW132903   0.480   3.904   3.923 -0.3163  0.6812  1.8281
 7090SOL    HW232904   0.595   3.942   4.016  0.8927  0.1500 -0.2574
 7091SOL     OW32905   4.357   2.391  15.739 -0.3490 -0.4167 -0.0604
 7091SOL    HW132906   4.404   2.450  15.680 -0.4992 -0.6156 -0.3774
 7091SOL    HW232907   4.409   2.406  15.818 -0.9266 -0.7238  0.3772
 7092SOL     OW32908   1.661   2.491   4.479 -0.8671  0.2758 -0.1751
 7092SOL    HW132909   1.701   2.564   4.431 -0.1861  0.2662  0.3628
 7092SOL    HW232910   1.710   2.414   4.450 -0.7009  0.0788  0.6305
 7093SOL     OW32911   2.478   2.771   5.209  0.3812 -0.0706 -0.7757
 7093SOL    HW132912   2.514   2.857   5.232 -0.0002 -0.6562  2.0426
 7093SOL    HW232913   2.464   2.746   5.301  0.6297  0.1679 -0.6709
 7094SOL     OW32914   3.245   2.384  13.889 -0.0897 -0.0436 -0.2360
 7094SOL    HW132915   3.292   2.301  13.899 -1.1572 -0.6894 -0.4715
 7094SOL    HW232916   3.275   2.438  13.961 -4.2250  1.6194  0.2238
 7095SOL     OW32917   2.558   0.356   2.042 -0.0647  0.3136  0.4191
 7095SOL    HW132918   2.598   0.320   1.963  1.9845  0.5978  1.3430
 7095SOL    HW232919   2.619   0.428   2.050 -1.8453  1.8664 -0.0563
 7096SOL     OW32920   2.912   4.215   2.993  0.0503 -0.5480  0.2632
 7096SOL    HW132921   2.888   4.237   3.083  0.1922 -0.7587  0.3516
 7096SOL    HW232922   2.994   4.265   2.985  0.6683 -1.9571 -2.1065
 7097SOL     OW32923   2.026   2.151  11.385  0.3228 -0.2070 -0.5473
 7097SOL    HW132924   2.096   2.147  11.320 -0.6008 -0.1430 -1.5368
 7097SOL    HW232925   2.082   2.152  11.463  0.9285  1.6713 -1.0189
 7098SOL     OW32926   3.588   4.096  14.901 -0.4401  0.2549  0.7718
 7098SOL    HW132927   3.677   4.126  14.921 -0.3228 -0.8010  1.8000
 7098SOL    HW232928   3.574   4.161  14.832  1.3901  1.2065  1.2800
 7099SOL     OW32929   3.793   3.340  17.389  0.0114 -0.0104  0.5508
 7099SOL    HW132930   3.790   3.331  17.294 -0.7685 -1.0132  0.6751
 7099SOL    HW232931   3.887   3.358  17.399  0.4237 -0.9973 -1.6852
 7100SOL     OW32932   3.357   2.525   0.165  0.0666 -0.1741  0.1188
 7100SOL    HW132933   3.281   2.483   0.125 -1.1432  0.6422  1.5598
 7100SOL    HW232934   3.321   2.614   0.157  1.5523  0.4438  0.2834
 7101SOL     OW32935   0.836   1.701   5.862 -0.0987  0.1537 -0.1471
 7101SOL    HW132936   0.794   1.623   5.898 -0.2390  0.4495  0.3316
 7101SOL    HW232937   0.763   1.731   5.807 -0.2886 -1.2239 -0.6503
 7102SOL     OW32938   3.505   2.974   3.740 -0.3843 -0.3492  0.1728
 7102SOL    HW132939   3.456   2.992   3.659 -0.3567  1.1394  0.4793
 7102SOL    HW232940   3.502   3.053   3.795 -2.2644  0.2923 -0.8416
 7103SOL     OW32941   2.621   3.471  16.369  0.7568  0.0212 -0.1938
 7103SOL    HW132942   2.676   3.500  16.296  1.1449  1.3508  0.6358
 7103SOL    HW232943   2.530   3.470  16.338  0.7097 -0.1163 -0.0554
 7104SOL     OW32944   3.452   1.172  14.204  0.3352 -0.2107  0.0015
 7104SOL    HW132945   3.526   1.133  14.252  1.8039  0.6352 -1.6020
 7104SOL    HW232946   3.386   1.142  14.267 -0.0508  0.3883 -0.1202
 7105SOL     OW32947   1.927   1.511   4.062 -0.1595 -0.2086 -0.0613
 7105SOL    HW132948   2.007   1.543   4.105  0.2341 -3.7192  1.8634
 7105SOL    HW232949   1.916   1.435   4.119 -0.0296 -1.3767 -1.6041
 7106SOL     OW32950   0.688   4.294   8.231 -0.1581 -0.0453  0.3338
 7106SOL    HW132951   0.657   4.356   8.164  1.2927 -0.3573 -0.6245
 7106SOL    HW232952   0.614   4.307   8.290  0.5906 -2.2931  1.7646
 7107SOL     OW32953   0.742   3.589   1.241  0.1521 -0.1473  0.1631
 7107SOL    HW132954   0.667   3.583   1.182 -0.7201 -1.9418  1.4554
 7107SOL    HW232955   0.725   3.520   1.304 -1.0818 -0.9484 -1.0488
 7108SOL     OW32956   0.509   2.255   7.465  0.0267 -0.0951 -0.2631
 7108SOL    HW132957   0.549   2.285   7.546 -1.5765  0.8177  0.1833
 7108SOL    HW232958   0.578   2.228   7.404  1.2382  1.5870  0.3622
 7109SOL     OW32959   0.688   1.347   8.275 -0.1190 -0.0287  0.5096
 7109SOL    HW132960   0.624   1.345   8.345  0.6897  1.2366  1.2959
 7109SOL    HW232961   0.745   1.278   8.308 -1.6530 -1.3435  0.3571
 7110SOL     OW32962   2.223   1.132  10.290 -0.0085  0.1392  0.5803
 7110SOL    HW132963   2.305   1.114  10.335  0.7909  2.3715  0.0246
 7110SOL    HW232964   2.205   1.224  10.312 -0.8314 -0.0787  0.8442
 7111SOL     OW32965   2.818   2.660   6.841 -0.0506  0.3184  0.7557
 7111SOL    HW132966   2.897   2.714   6.838 -1.2335  1.9348 -1.0343
 7111SOL    HW232967   2.753   2.722   6.810  1.4370  0.6364 -1.7012
 7112SOL     OW32968   1.486   2.316   7.744  0.4817 -0.2757  0.4922
 7112SOL    HW132969   1.528   2.403   7.742 -1.0697  0.4861  1.2957
 7112SOL    HW232970   1.441   2.303   7.661  2.0254 -0.4382 -0.3164
 7113SOL     OW32971   2.306   3.007  12.524  0.1034 -0.0261 -0.1995
 7113SOL    HW132972   2.395   2.997  12.490  0.8079  2.5632  0.8924
 7113SOL    HW232973   2.329   3.053  12.604 -0.0426  0.3745 -0.3897
 7114SOL     OW32974   1.247   1.722   2.139 -0.0994  0.7070 -0.4832
 7114SOL    HW132975   1.317   1.776   2.103  1.3887 -0.5679  0.4711
 7114SOL    HW232976   1.203   1.773   2.207 -2.0042  1.2732 -2.1313
 7115SOL     OW32977   3.153   0.587   1.456  0.0000 -0.1396  0.2967
 7115SOL    HW132978   3.222   0.601   1.522 -0.2458 -0.4099  0.6090
 7115SOL    HW232979   3.081   0.636   1.496  2.1612  3.2864  0.0393
 7116SOL     OW32980   2.849   0.121   3.821  0.0176 -0.4105 -0.0591
 7116SOL    HW132981   2.824   0.035   3.854  2.8870  0.2847  3.8312
 7116SOL    HW232982   2.786   0.172   3.873  1.9738  0.9847  0.9454
 7117SOL     OW32983   3.404   2.467   6.259  0.4853 -0.1484  0.8350
 7117SOL    HW132984   3.338   2.483   6.191  2.4838 -1.7482 -1.5079
 7117SOL    HW232985   3.361   2.501   6.337 -0.7972  1.5466 -0.6019
 7118SOL     OW32986   1.843   4.651   7.573  0.2020 -0.2034  0.2681
 7118SOL    HW132987   1.911   4.718   7.560  1.7550 -2.0489 -1.2334
 7118SOL    HW232988   1.802   4.655   7.487  0.0779 -0.9972  0.2942
 7119SOL     OW32989   3.660   4.225   6.173  0.0826 -0.2356 -0.0210
 7119SOL    HW132990   3.719   4.208   6.246 -1.3612  1.9662  1.6601
 7119SOL    HW232991   3.720   4.200   6.103  0.2762  1.3708 -0.4183
 7120SOL     OW32992   3.944   4.062  15.435 -0.1122  0.6689  0.1223
 7120SOL    HW132993   4.027   4.109  15.436 -0.2698  0.9307  0.9533
 7120SOL    HW232994   3.919   4.083  15.345  3.4161  1.3798 -0.7120
 7121SOL     OW32995   0.600   3.054   8.184 -0.1250 -0.3096 -0.2806
 7121SOL    HW132996   0.625   3.022   8.097  2.0386 -0.1031  0.2741
 7121SOL    HW232997   0.526   2.999   8.209 -0.1358  0.2917  0.9808
 7122SOL     OW32998   1.640   1.188  12.412 -0.1828  0.3271  0.1274
 7122SOL    HW132999   1.733   1.178  12.432 -0.4505 -2.3564 -0.0006
 7122SOL    HW233000   1.604   1.218  12.496 -1.6575  1.5865 -0.9657
 7123SOL     OW33001   1.465   3.709   4.541 -0.0662  0.5864  0.1317
 7123SOL    HW133002   1.501   3.676   4.459 -1.1431  0.0953 -0.1550
 7123SOL    HW233003   1.523   3.782   4.558 -0.4939  1.5745 -2.7317
 7124SOL     OW33004   4.055   2.045   4.212 -0.5267  0.2134 -0.3485
 7124SOL    HW133005   4.014   2.045   4.299 -0.7794  1.2062 -0.4620
 7124SOL    HW233006   4.064   1.951   4.196 -0.0522 -0.0034  1.1817
 7125SOL     OW33007   3.933   3.749  13.679 -0.5958 -0.2593 -0.2820
 7125SOL    HW133008   4.016   3.781  13.642  0.3537 -2.2438  0.1481
 7125SOL    HW233009   3.872   3.788  13.616 -0.2223  0.2729 -0.3128
 7126SOL     OW33010   2.677   1.369   2.047 -0.0234 -0.3454 -0.0280
 7126SOL    HW133011   2.768   1.350   2.072  0.9841  1.7836 -2.0521
 7126SOL    HW233012   2.652   1.424   2.121  0.8005 -2.0494  1.5069
 7127SOL     OW33013   0.455   3.219   8.558 -0.1078  0.0488 -0.2910
 7127SOL    HW133014   0.466   3.222   8.653  1.8037  0.6657 -0.5206
 7127SOL    HW233015   0.406   3.138   8.546  0.8152 -0.1487 -2.6571
 7128SOL     OW33016   4.121   3.786   9.104  0.1205  0.7729  0.2398
 7128SOL    HW133017   4.039   3.785   9.153  0.7101  0.5213  1.2330
 7128SOL    HW233018   4.185   3.758   9.169  2.1651  0.9920 -1.6757
 7129SOL     OW33019   2.333   3.550   5.081 -0.0018  0.0099  0.0572
 7129SOL    HW133020   2.346   3.488   5.009  0.2795 -0.3851  0.4459
 7129SOL    HW233021   2.303   3.627   5.033  1.0084  0.4019  0.0398
 7130SOL     OW33022   3.545   0.152   1.502  0.2183 -0.3250  0.3475
 7130SOL    HW133023   3.478   0.107   1.553 -0.7102  0.5495 -0.0969
 7130SOL    HW233024   3.609   0.164   1.573 -2.0930  1.8126  2.0637
 7131SOL     OW33025   3.875   3.210  11.950  0.3856  0.5671 -0.4994
 7131SOL    HW133026   3.818   3.286  11.947 -0.8482 -0.3771 -1.0888
 7131SOL    HW233027   3.876   3.197  12.045 -0.1504 -2.0067 -0.8382
 7132SOL     OW33028   1.220   3.716   6.708 -0.1968  0.1912  0.2715
 7132SOL    HW133029   1.148   3.772   6.739 -0.6239 -0.7784  1.0176
 7132SOL    HW233030   1.299   3.762   6.738  0.2390  1.1528 -2.3769
 7133SOL     OW33031   1.058   3.108  10.306  0.2684  0.4867  0.0267
 7133SOL    HW133032   1.137   3.158  10.330  0.4333 -0.2549  1.0612
 7133SOL    HW233033   1.098   3.053  10.239  1.8112  2.3200 -0.5630
 7134SOL     OW33034   1.104   3.405   5.566 -0.1253  0.1466  0.3861
 7134SOL    HW133035   1.186   3.444   5.535  0.6004 -0.1894  1.9066
 7134SOL    HW233036   1.130   3.314   5.577 -0.2903 -0.1046 -1.2834
 7135SOL     OW33037   3.244   1.053   5.672 -0.0493  0.6707  0.1565
 7135SOL    HW133038   3.199   1.097   5.599 -0.6601  1.3557  0.9458
 7135SOL    HW233039   3.241   0.963   5.640  1.0418  0.8608 -0.4885
 7136SOL     OW33040   2.035   4.239   2.751 -0.3042  0.5546 -0.1847
 7136SOL    HW133041   2.019   4.173   2.818  0.4355  2.3763  1.7983
 7136SOL    HW233042   1.945   4.255   2.724 -0.0533  2.5400  0.1309
 7137SOL     OW33043   1.873   1.747  10.294  0.4415  0.0308 -0.0047
 7137SOL    HW133044   1.963   1.717  10.302  0.4392  0.1413  0.4609
 7137SOL    HW233045   1.897   1.840  10.298 -0.7728  0.3638 -0.3588
 7138SOL     OW33046   1.862   0.204   4.678 -0.6677 -0.4474  0.1013
 7138SOL    HW133047   1.873   0.182   4.771  0.4897 -0.8510 -0.1387
 7138SOL    HW233048   1.952   0.220   4.652 -1.0018 -0.6744 -1.1754
 7139SOL     OW33049   1.742   3.723  14.134  0.4352  0.2855  0.2285
 7139SOL    HW133050   1.669   3.755  14.081  1.1487  0.2519 -0.7893
 7139SOL    HW233051   1.794   3.662  14.082 -0.3762 -2.2138  2.3964
 7140SOL     OW33052   2.540   0.297   9.437 -0.2576  0.2309  0.4173
 7140SOL    HW133053   2.561   0.218   9.388 -1.6740  1.8006 -2.6660
 7140SOL    HW233054   2.621   0.343   9.462  0.6205 -1.5979  0.9248
 7141SOL     OW33055   1.835   3.489   8.280  0.1905  0.2543 -0.7826
 7141SOL    HW133056   1.758   3.497   8.337  1.2193  0.2565  0.6166
 7141SOL    HW233057   1.827   3.396   8.260 -0.4799 -0.1316  1.2034
 7142SOL     OW33058   3.813   0.274   6.156  0.4419 -0.3652 -0.2570
 7142SOL    HW133059   3.774   0.192   6.186 -1.7759  0.5081 -0.7971
 7142SOL    HW233060   3.791   0.311   6.241 -0.8850  0.0287 -0.7739
 7143SOL     OW33061   4.729   3.429  13.444  0.2030  0.2803 -0.3822
 7143SOL    HW133062   0.057   3.365  13.471 -0.1857  0.6846  1.5392
 7143SOL    HW233063   4.652   3.373  13.455  1.2091 -1.1848 -0.8269
 7144SOL     OW33064   0.614   0.048   8.132  0.0551  0.5069 -0.5719
 7144SOL    HW133065   0.596   0.117   8.068 -0.0568 -0.6598 -1.8003
 7144SOL    HW233066   0.630   0.099   8.211  0.4527  1.1390 -1.0610
 7145SOL     OW33067   1.213   0.416   3.840  0.4390 -0.0144  0.0278
 7145SOL    HW133068   1.240   0.328   3.867  1.8817 -0.0596 -1.5130
 7145SOL    HW233069   1.285   0.474   3.867  0.5349 -0.2886  0.3626
 7146SOL     OW33070   4.646   0.501   8.089 -0.3768  0.3214  0.4173
 7146SOL    HW133071   4.576   0.495   8.153 -1.0009  0.6839 -0.2370
 7146SOL    HW233072   4.615   0.569   8.029  0.1912  1.2841  1.2163
 7147SOL     OW33073   1.413   3.010   6.934 -0.5239 -0.0506 -0.6525
 7147SOL    HW133074   1.336   2.954   6.938 -0.7065  0.3701  1.6182
 7147SOL    HW233075   1.426   3.027   6.841 -3.4676  2.7661 -0.5420
 7148SOL     OW33076   2.154   1.390   2.354  0.1841 -0.0270 -0.3287
 7148SOL    HW133077   2.107   1.473   2.353 -0.7651 -0.5708 -0.6505
 7148SOL    HW233078   2.106   1.344   2.285  0.7315 -5.3217  2.7955
 7149SOL     OW33079   3.824   0.682   3.732 -0.4264  0.2163  0.2827
 7149SOL    HW133080   3.838   0.744   3.661 -0.0811 -2.1423 -1.7256
 7149SOL    HW233081   3.826   0.744   3.805  2.6370  0.2146  0.2287
 7150SOL     OW33082   0.407   3.891   5.721 -0.1991  0.1799  0.2877
 7150SOL    HW133083   0.325   3.908   5.674  1.3392  1.8014 -1.7902
 7150SOL    HW233084   0.456   3.965   5.687  2.2979 -0.9896  1.3296
 7151SOL     OW33085   4.417   0.304   6.284  0.0387 -0.0383 -0.1071
 7151SOL    HW133086   4.497   0.337   6.325 -0.7693  0.4442  1.0775
 7151SOL    HW233087   4.393   0.386   6.240  0.7548 -0.7058 -1.7216
 7152SOL     OW33088   2.170   1.276   7.653  0.0773  0.2892 -0.5925
 7152SOL    HW133089   2.170   1.344   7.720  1.3181 -0.0343 -0.2526
 7152SOL    HW233090   2.198   1.318   7.571 -3.2782 -0.0561 -1.8860
 7153SOL     OW33091   3.998   0.951   5.989 -0.3912 -0.2847 -0.3370
 7153SOL    HW133092   4.039   0.941   6.075  1.2382  0.9850 -0.9613
 7153SOL    HW233093   3.938   0.876   5.996  1.3738 -1.8390 -1.8758
 7154SOL     OW33094   0.934   2.039   9.897 -0.1249 -0.0065  0.2925
 7154SOL    HW133095   0.912   2.021   9.805  2.0156  0.1718 -0.2646
 7154SOL    HW233096   0.847   2.059   9.932  0.2254  1.3801  0.3676
 7155SOL     OW33097   4.470   2.042   1.453  0.0176 -0.7843  0.2396
 7155SOL    HW133098   4.397   2.098   1.479 -0.8042 -0.0712 -3.5572
 7155SOL    HW233099   4.527   2.055   1.528 -0.9610 -2.0721  1.1988
 7156SOL     OW33100   3.811   1.313  14.362 -0.2946 -0.3383 -0.1952
 7156SOL    HW133101   3.723   1.338  14.334 -0.7509 -0.6716  0.9188
 7156SOL    HW233102   3.805   1.217  14.366  2.0872 -0.5114 -1.0205
 7157SOL     OW33103   1.774   4.498   5.583 -0.0873 -0.5541  0.4161
 7157SOL    HW133104   1.705   4.495   5.516 -0.6361  1.3551  0.9098
 7157SOL    HW233105   1.836   4.556   5.540  1.4349 -2.1672  0.4431
 7158SOL     OW33106   0.014   1.070   8.798  0.0393 -0.0748  0.0572
 7158SOL    HW133107   0.054   1.023   8.872 -2.3130  0.9252  1.9707
 7158SOL    HW233108   4.727   1.001   8.737 -1.9192  1.8108 -1.2708
 7159SOL     OW33109   0.426   4.568   3.177  0.2405  0.4330 -0.7338
 7159SOL    HW133110   0.481   4.544   3.251 -1.5772  0.8104  0.7399
 7159SOL    HW233111   0.357   4.613   3.226  0.3554  0.7263 -0.8460
 7160SOL     OW33112   1.814   1.935   4.046 -0.2680 -0.7586  0.0488
 7160SOL    HW133113   1.852   1.936   3.959  1.0664 -2.2498  0.6081
 7160SOL    HW233114   1.890   1.951   4.102  0.1977 -0.8188 -0.5690
 7161SOL     OW33115   0.685   3.365   4.312  0.0023 -0.2663 -0.2026
 7161SOL    HW133116   0.599   3.334   4.342 -0.8537  0.8038 -1.5440
 7161SOL    HW233117   0.667   3.381   4.220  1.3360  0.0596 -0.4067
 7162SOL     OW33118   4.334   0.936  10.200 -0.3093  0.7009 -0.5443
 7162SOL    HW133119   4.300   0.883  10.128 -1.6654  1.8659 -0.7614
 7162SOL    HW233120   4.264   1.002  10.195 -1.7764 -0.8182 -0.1257
 7163SOL     OW33121   2.484   4.371  14.027  0.0435 -0.2514 -0.0941
 7163SOL    HW133122   2.550   4.314  14.068 -0.8555 -1.7078 -0.6736
 7163SOL    HW233123   2.512   4.456  14.061 -0.2704  0.5539 -1.8738
 7164SOL     OW33124   0.294   4.706   2.403 -0.1974  0.5128  0.0990
 7164SOL    HW133125   0.300   4.638   2.470 -1.3732 -1.1932 -1.5095
 7164SOL    HW233126   0.201   4.727   2.401 -0.1074  0.8987 -0.0219
 7165SOL     OW33127   1.739   4.092   3.461  0.7633  0.6365  0.3988
 7165SOL    HW133128   1.681   4.168   3.462  0.5893  0.5045  0.4913
 7165SOL    HW233129   1.698   4.040   3.531  1.7511 -1.6916 -0.7538
 7166SOL     OW33130   2.119   0.107   9.236 -0.0001  0.4251  0.3242
 7166SOL    HW133131   2.178   0.160   9.183 -0.8690  1.7129  0.6467
 7166SOL    HW233132   2.156   0.134   9.320  1.6118 -0.4322 -0.0857
 7167SOL     OW33133   0.999   0.891   5.879 -0.1802  0.3556 -0.1799
 7167SOL    HW133134   1.047   0.823   5.831  0.5729  0.0560  0.9797
 7167SOL    HW233135   0.909   0.862   5.868 -0.0233 -0.9818  2.0521
 7168SOL     OW33136   3.324   2.722   8.275  0.1934 -0.3148 -0.2822
 7168SOL    HW133137   3.359   2.781   8.342  0.7188 -0.2743 -0.5959
 7168SOL    HW233138   3.351   2.638   8.312 -0.7639 -0.0658  0.9794
 7169SOL     OW33139   4.435   0.232   3.070 -0.4030 -0.0205  0.2924
 7169SOL    HW133140   4.409   0.289   3.143 -0.0328  3.1209 -2.0339
 7169SOL    HW233141   4.351   0.231   3.024 -0.5496  2.0889  0.5003
 7170SOL     OW33142   2.804   1.330   7.396 -0.4229  0.2599  0.3796
 7170SOL    HW133143   2.773   1.255   7.345 -1.5367  0.1951  1.1435
 7170SOL    HW233144   2.872   1.360   7.335  0.2787  1.0148  1.5320
 7171SOL     OW33145   1.066   4.404  17.256 -0.1870  0.1667  0.4539
 7171SOL    HW133146   0.983   4.381  17.297 -0.1728 -1.5604 -0.4908
 7171SOL    HW233147   1.113   4.452  17.324  2.3061 -0.9317 -0.4613
 7172SOL     OW33148   4.434   4.282   2.553 -0.3266  0.0873  0.9959
 7172SOL    HW133149   4.445   4.191   2.581  0.1009 -0.6776 -1.6624
 7172SOL    HW233150   4.381   4.273   2.474  0.7746 -1.6838  0.4465
 7173SOL     OW33151   3.751   2.503   7.453  0.3818  0.1932  0.2857
 7173SOL    HW133152   3.751   2.567   7.382  3.9808 -1.3502 -1.1139
 7173SOL    HW233153   3.817   2.535   7.514 -0.2347  3.1649 -0.5717
 7174SOL     OW33154   0.776   1.546  13.260 -0.1192  0.0412  0.0005
 7174SOL    HW133155   0.834   1.470  13.258 -0.0754  0.0844 -0.3864
 7174SOL    HW233156   0.834   1.607  13.214 -0.1194 -0.0039 -0.0596
 7175SOL     OW33157   3.398   4.329   6.167  0.3781  0.1426 -0.1625
 7175SOL    HW133158   3.396   4.411   6.117  0.8341 -0.2346 -0.8029
 7175SOL    HW233159   3.493   4.312   6.169  0.3252 -0.1565 -0.2208
 7176SOL     OW33160   2.862   2.872  10.113 -0.6411  0.6428 -0.4335
 7176SOL    HW133161   2.851   2.828  10.197 -1.3926 -2.0599 -1.9525
 7176SOL    HW233162   2.877   2.965  10.131  1.0077  0.2588  0.1686
 7177SOL     OW33163   0.185   4.573   6.660  0.4805  0.1814  0.0507
 7177SOL    HW133164   0.245   4.508   6.696 -1.2944 -0.6729  1.5297
 7177SOL    HW233165   0.095   4.544   6.677  0.1338  1.8449  1.0676
 7178SOL     OW33166   0.021   4.361  17.183  0.2134 -0.3175 -0.0917
 7178SOL    HW133167   0.076   4.408  17.246 -0.8689  1.4958 -0.5053
 7178SOL    HW233168   4.705   4.302  17.236  0.7436 -0.9497 -0.2559
 7179SOL     OW33169   3.277   0.971   2.634  0.2468 -0.0274 -0.2597
 7179SOL    HW133170   3.191   0.931   2.643 -1.3837  3.5886  0.2406
 7179SOL    HW233171   3.335   0.916   2.687 -1.2420 -1.5282 -0.2116
 7180SOL     OW33172   4.067   0.699   9.430  0.4529 -0.1546 -1.0006
 7180SOL    HW133173   3.989   0.656   9.465 -0.3981  0.6531 -1.9026
 7180SOL    HW233174   4.050   0.788   9.461  0.0470  0.2225 -2.3139
 7181SOL     OW33175   0.266   0.102   7.526 -0.4100  0.6130  0.1922
 7181SOL    HW133176   0.257   0.044   7.451  1.3602 -1.0177  1.2514
 7181SOL    HW233177   0.320   0.165   7.477 -0.0342 -0.5249 -0.8569
 7182SOL     OW33178   4.005   1.137   4.922 -0.1730  0.4469 -0.4797
 7182SOL    HW133179   3.922   1.183   4.910 -0.0327  1.0893  0.9318
 7182SOL    HW233180   4.058   1.209   4.888  0.9122 -0.3217 -0.3987
 7183SOL     OW33181   3.320   0.008   5.058 -0.3731 -0.5015  0.4656
 7183SOL    HW133182   3.308   0.018   5.153  1.7043  1.2300  0.5524
 7183SOL    HW233183   3.381   4.673   5.062 -1.8699 -1.8338 -0.8054
 7184SOL     OW33184   0.853   4.319   1.553  0.3140  0.4329 -0.4269
 7184SOL    HW133185   0.772   4.360   1.521 -1.4040 -2.5102  0.1327
 7184SOL    HW233186   0.827   4.261   1.624  4.2874  0.0376  0.6838
 7185SOL     OW33187   2.757   4.124   5.659  1.2031  0.4776 -0.1151
 7185SOL    HW133188   2.711   4.203   5.632  0.8813  0.0595 -0.7989
 7185SOL    HW233189   2.818   4.161   5.722  0.9394  0.8540 -0.0790
 7186SOL     OW33190   0.805   2.712  14.348  0.3257  0.0419 -0.1967
 7186SOL    HW133191   0.770   2.696  14.261 -0.5444  1.0255 -0.0344
 7186SOL    HW233192   0.860   2.789  14.332  0.1853  0.3377  0.7168
 7187SOL     OW33193   3.417   2.319   0.359 -0.4984  0.1970 -0.1304
 7187SOL    HW133194   3.329   2.352   0.342 -0.4533  0.2820 -0.1950
 7187SOL    HW233195   3.430   2.299   0.267 -1.3232 -0.1584 -0.1715
 7188SOL     OW33196   2.856   0.208   0.362 -0.3456  0.0879 -0.0340
 7188SOL    HW133197   2.891   0.287   0.321 -0.1938  0.1973  0.3068
 7188SOL    HW233198   2.935   0.156   0.374 -0.3201  0.3396  0.8892
 7189SOL     OW33199   1.218   1.278   1.958  0.0693 -0.3138 -0.4764
 7189SOL    HW133200   1.132   1.245   1.934 -0.9375  1.3405  0.8939
 7189SOL    HW233201   1.187   1.346   2.017  1.1103 -0.0041 -0.2879
 7190SOL     OW33202   4.553   0.295   2.144 -0.0940  0.1688  0.3667
 7190SOL    HW133203   4.539   0.369   2.086 -0.1743 -0.1108  0.0282
 7190SOL    HW233204   4.624   0.250   2.099 -1.9014 -4.1719  1.7939
 7191SOL     OW33205   4.138   0.530   4.680 -0.1552  0.3875 -0.1942
 7191SOL    HW133206   4.222   0.529   4.635 -0.5629 -0.0499 -0.9388
 7191SOL    HW233207   4.073   0.500   4.617  0.8656  0.8267 -1.4553
 7192SOL     OW33208   1.494   3.496   8.142 -0.0474 -0.2423 -0.3456
 7192SOL    HW133209   1.539   3.552   8.205 -0.4739  1.3451 -1.4536
 7192SOL    HW233210   1.566   3.477   8.082  1.1081  0.3265  0.8690
 7193SOL     OW33211   1.807   2.822   9.082  0.2904 -0.4002  0.7511
 7193SOL    HW133212   1.829   2.860   9.167 -0.5522 -1.8469  1.6182
 7193SOL    HW233213   1.875   2.755   9.073  0.8107  0.1587  0.5409
 7194SOL     OW33214   2.667   3.937   0.254  0.2371 -0.2014 -0.1258
 7194SOL    HW133215   2.612   3.871   0.211 -0.4202 -0.5095  1.1842
 7194SOL    HW233216   2.739   3.957   0.195 -0.2090  0.1760 -0.5409
 7195SOL     OW33217   1.103   2.236   9.822  0.3111  0.3660 -0.6511
 7195SOL    HW133218   1.031   2.253   9.762  0.3232 -0.9753 -1.0617
 7195SOL    HW233219   1.069   2.170   9.883  1.0894 -0.1202 -0.7476
 7196SOL     OW33220   1.876   4.267   9.164  0.1899  0.1562  0.6982
 7196SOL    HW133221   1.803   4.215   9.198  0.2171 -1.3859 -1.6026
 7196SOL    HW233222   1.841   4.353   9.190  0.6881  0.1862  1.2731
 7197SOL     OW33223   2.477   3.256   1.608  0.3226  0.3543 -0.4433
 7197SOL    HW133224   2.475   3.160   1.608 -1.2978  0.4051  4.0187
 7197SOL    HW233225   2.551   3.277   1.551  0.5514  1.9120  0.4411
 7198SOL     OW33226   1.384   1.569  15.047 -0.6085  0.0657 -0.0535
 7198SOL    HW133227   1.388   1.654  15.005 -0.9663  0.5624  0.8994
 7198SOL    HW233228   1.416   1.522  14.971  1.3994  0.2321  0.6981
 7199SOL     OW33229   1.743   2.235  12.473  0.7539 -0.4314 -0.0902
 7199SOL    HW133230   1.804   2.162  12.484  0.0276 -1.0276 -0.0849
 7199SOL    HW233231   1.769   2.261  12.385 -0.9487 -2.3936 -1.1531
 7200SOL     OW33232   2.399   3.299  16.187 -0.1393 -0.4140 -0.1107
 7200SOL    HW133233   2.429   3.332  16.103 -0.3099 -0.2481 -0.1073
 7200SOL    HW233234   2.364   3.214  16.159  0.0231 -0.1088 -1.2346
 7201SOL     OW33235   1.038   4.702   1.022 -0.0157  0.4836  0.3603
 7201SOL    HW133236   0.953   4.673   0.987  1.9103 -3.3201 -1.2118
 7201SOL    HW233237   1.039   0.059   1.013 -1.4008  0.3268 -1.7049
 7202SOL     OW33238   2.439   0.777   4.160 -0.0785 -0.1662 -0.3892
 7202SOL    HW133239   2.433   0.799   4.067 -0.5356  1.4934  0.0440
 7202SOL    HW233240   2.476   0.855   4.201 -0.9124  0.6868 -1.2813
 7203SOL     OW33241   0.862   1.612   3.367  0.4463 -0.6739 -0.2786
 7203SOL    HW133242   0.875   1.517   3.373  3.7892 -0.1694  0.8322
 7203SOL    HW233243   0.776   1.614   3.325  0.5166  0.8194 -0.3756
 7204SOL     OW33244   0.304   0.456   7.736  0.2536  0.2351  0.4677
 7204SOL    HW133245   0.273   0.440   7.825 -0.1739 -2.7362 -0.2164
 7204SOL    HW233246   0.238   0.410   7.684  0.1976 -0.4595  1.1527
 7205SOL     OW33247   0.190   1.956   0.203  0.4175 -0.2762  0.0405
 7205SOL    HW133248   0.151   1.925   0.285  1.9633 -0.5388  0.6771
 7205SOL    HW233249   0.200   2.050   0.218 -1.5822  0.6636 -4.4095
 7206SOL     OW33250   1.605   4.340   3.461  0.0486  0.4374 -0.1821
 7206SOL    HW133251   1.515   4.369   3.478 -1.0248 -1.4976 -2.5772
 7206SOL    HW233252   1.625   4.387   3.380 -2.8856 -0.1368 -1.2670
 7207SOL     OW33253   0.883   4.073   7.651 -0.5123  0.4527 -0.9137
 7207SOL    HW133254   0.853   4.071   7.742 -0.0723  0.1785 -0.7698
 7207SOL    HW233255   0.934   4.153   7.647  0.2879  0.0016  0.2692
 7208SOL     OW33256   2.695   3.549   7.317 -0.2200  0.2552  0.1648
 7208SOL    HW133257   2.635   3.588   7.254 -0.6306 -1.8022 -0.7220
 7208SOL    HW233258   2.733   3.626   7.359 -0.7255  1.2401 -1.1536
 7209SOL     OW33259   0.342   0.592   8.640 -0.0544 -0.9100  0.3502
 7209SOL    HW133260   0.290   0.643   8.702  0.0011 -1.7469  1.0947
 7209SOL    HW233261   0.359   0.517   8.697  2.4791 -1.2148 -0.8106
 7210SOL     OW33262   1.121   0.774   4.668  0.1292 -0.1297 -0.1741
 7210SOL    HW133263   1.103   0.724   4.747 -2.0913 -1.2350 -1.3987
 7210SOL    HW233264   1.131   0.712   4.596 -0.4943 -1.6591  1.0486
 7211SOL     OW33265   2.691   3.160   8.228  0.2811 -0.4540  0.2406
 7211SOL    HW133266   2.689   3.200   8.142 -0.3517 -1.0060 -0.0085
 7211SOL    HW233267   2.699   3.238   8.283  0.5708 -0.4310  0.1640
 7212SOL     OW33268   1.571   2.127   5.635  0.6147  0.4081  0.6598
 7212SOL    HW133269   1.628   2.203   5.641  1.5333 -0.2285  0.1130
 7212SOL    HW233270   1.554   2.113   5.728  0.0728  0.8527  0.6306
 7213SOL     OW33271   3.912   0.112   2.086 -0.0872  0.1916 -0.0873
 7213SOL    HW133272   3.982   0.171   2.060  0.3738 -0.7144 -0.9025
 7213SOL    HW233273   3.934   0.040   2.026 -1.2913 -0.5150  0.2975
 7214SOL     OW33274   2.332   0.888   3.638  0.4105 -0.3438  0.4510
 7214SOL    HW133275   2.379   0.870   3.719 -0.3830 -0.4676  0.8777
 7214SOL    HW233276   2.282   0.807   3.645 -1.4494  0.9318  1.8317
 7215SOL     OW33277   4.325   1.739   1.075  0.3215  0.1104  0.1244
 7215SOL    HW133278   4.230   1.740   1.064  0.3462  0.6147 -0.0332
 7215SOL    HW233279   4.340   1.708   1.165  2.8661  1.2531  0.1159
 7216SOL     OW33280   2.399   1.568   8.697 -0.6844 -0.2154  0.2904
 7216SOL    HW133281   2.348   1.644   8.724  1.4770  0.5990  2.0213
 7216SOL    HW233282   2.491   1.593   8.704 -1.5599  2.8964  0.6238
 7217SOL     OW33283   3.243   2.861  16.268  0.4476  0.3915 -0.0931
 7217SOL    HW133284   3.286   2.912  16.337  2.7450 -2.4105  0.5382
 7217SOL    HW233285   3.161   2.905  16.245  0.3268 -0.6971 -1.6771
 7218SOL     OW33286   1.465   0.634   7.301 -0.5048 -0.3334 -0.1098
 7218SOL    HW133287   1.474   0.544   7.331  4.1397 -1.0157 -3.5239
 7218SOL    HW233288   1.524   0.635   7.225 -0.7292  0.6211 -0.2723
 7219SOL     OW33289   1.165   1.374  12.928  0.9822 -0.0481  0.2097
 7219SOL    HW133290   1.260   1.382  12.923  0.8810  0.1388 -1.3394
 7219SOL    HW233291   1.153   1.416  13.013  0.2696  0.8719 -0.3395
 7220SOL     OW33292   0.143   1.488   2.768  0.1205  0.1065 -0.2570
 7220SOL    HW133293   0.145   1.548   2.694  0.6619  1.0836  0.5660
 7220SOL    HW233294   0.231   1.505   2.801  1.0971 -2.4474 -1.5479
 7221SOL     OW33295   4.133   2.667   5.211  0.8918  0.0859  0.1149
 7221SOL    HW133296   4.215   2.666   5.260  2.4120  2.2035 -2.4008
 7221SOL    HW233297   4.076   2.734   5.248 -1.0408  0.6277 -3.8011
 7222SOL     OW33298   3.923   0.313   9.002 -0.0162  0.1798 -0.5705
 7222SOL    HW133299   3.962   0.272   9.080 -0.7606  0.4460 -0.0534
 7222SOL    HW233300   3.832   0.284   9.013 -0.5186  2.3963  1.2095
 7223SOL     OW33301   4.430   2.976   6.811 -0.6401  1.0661  0.1843
 7223SOL    HW133302   4.406   3.023   6.732  0.6634 -1.8949 -1.9648
 7223SOL    HW233303   4.520   2.947   6.794 -1.1975  0.0324 -0.9473
 7224SOL     OW33304   2.294   2.360  10.045 -0.1555 -0.0470 -0.2843
 7224SOL    HW133305   2.247   2.402   9.974 -0.0279 -0.6782 -0.7398
 7224SOL    HW233306   2.317   2.277  10.002  0.4459 -0.6741  1.2442
 7225SOL     OW33307   3.638   1.385   3.151  0.3700  0.6194  0.5746
 7225SOL    HW133308   3.645   1.417   3.061  1.4458 -1.0289  0.0818
 7225SOL    HW233309   3.662   1.463   3.202 -0.3174  1.9296 -1.1113
 7226SOL     OW33310   1.072   3.262  13.285  0.1473  0.2577 -0.0700
 7226SOL    HW133311   1.134   3.225  13.347 -0.1645 -0.2961 -0.0858
 7226SOL    HW233312   0.991   3.216  13.307  0.9593 -0.4341  1.4478
 7227SOL     OW33313   1.249   1.988   6.678 -0.5707  0.0215 -0.1585
 7227SOL    HW133314   1.201   2.043   6.740 -0.9373  0.2795 -0.6708
 7227SOL    HW233315   1.254   1.901   6.718 -4.8450 -0.3758 -0.5425
 7228SOL     OW33316   1.780   4.267   5.267  0.1609  0.2322  0.2386
 7228SOL    HW133317   1.718   4.334   5.297  0.4096  0.0309  1.1796
 7228SOL    HW233318   1.742   4.188   5.304  1.8084 -1.9567 -2.7849
 7229SOL     OW33319   2.565   4.455   1.830 -0.3533  0.6135 -0.2754
 7229SOL    HW133320   2.558   4.470   1.925  0.3682 -2.6581  0.2938
 7229SOL    HW233321   2.652   4.491   1.814 -0.3185  0.0974 -1.2357
 7230SOL     OW33322   1.916   1.884   3.737  0.3776  0.3140 -0.1262
 7230SOL    HW133323   1.828   1.910   3.708 -0.3176 -0.8806  0.8808
 7230SOL    HW233324   1.953   1.971   3.726  0.4863 -0.0812 -2.8708
 7231SOL     OW33325   4.638   0.631   1.346  0.3147  0.5434  0.0818
 7231SOL    HW133326   4.732   0.622   1.360  0.7662  0.5368 -2.9529
 7231SOL    HW233327   4.604   0.574   1.415  0.9498  0.7398  0.5533
 7232SOL     OW33328   3.740   0.670   7.932  0.3235  0.3075  0.1706
 7232SOL    HW133329   3.701   0.610   7.996 -2.4015  0.6142 -1.1893
 7232SOL    HW233330   3.832   0.646   7.940  0.1018  0.1382  2.4525
 7233SOL     OW33331   0.401   3.713   5.969  0.1073  0.1065  0.4926
 7233SOL    HW133332   0.391   3.723   5.874  0.3351 -1.0550  0.3481
 7233SOL    HW233333   0.310   3.696   5.993  0.1251 -0.4920  0.1212
 7234SOL     OW33334   0.327   4.683  17.330  0.4681  0.2807 -0.1545
 7234SOL    HW133335   0.353   4.697  17.421 -0.7202  2.1903 -0.1090
 7234SOL    HW233336   0.323   0.034  17.294  1.2472  0.9892  1.4816
 7235SOL     OW33337   3.789   3.042  13.693 -0.3699  0.2168 -0.3091
 7235SOL    HW133338   3.733   3.086  13.630 -0.7374  0.4411  0.1776
 7235SOL    HW233339   3.728   3.009  13.758 -0.8560 -2.0029 -1.9012
 7236SOL     OW33340   2.323   3.315   5.529  0.0251 -0.7026 -0.1006
 7236SOL    HW133341   2.329   3.326   5.624 -0.1296 -1.9504  0.0498
 7236SOL    HW233342   2.302   3.399   5.487 -0.7497 -0.9747 -0.2710
 7237SOL     OW33343   1.010   2.779   4.148  0.6729 -0.1236  0.3763
 7237SOL    HW133344   1.006   2.693   4.107 -0.4474 -0.0593  0.3382
 7237SOL    HW233345   0.923   2.774   4.189  0.7964 -1.3911  0.4849
 7238SOL     OW33346   0.739   1.879  15.851 -0.3064  0.2762  0.0175
 7238SOL    HW133347   0.705   1.832  15.927 -0.3315 -1.4828 -1.0785
 7238SOL    HW233348   0.697   1.963  15.865 -0.0108  0.3879  0.2372
 7239SOL     OW33349   1.368   2.966   8.388  0.6506  0.0184  0.0203
 7239SOL    HW133350   1.273   2.980   8.396  0.5207  0.6647 -2.6589
 7239SOL    HW233351   1.366   2.881   8.342 -1.2328  1.0255 -1.7797
 7240SOL     OW33352   2.993   1.049   7.061  0.5936 -0.5850 -0.0022
 7240SOL    HW133353   2.988   1.114   6.991  0.6280  1.1623  1.5828
 7240SOL    HW233354   2.905   1.013   7.053  0.1386  0.4005  0.5329
 7241SOL     OW33355   1.874   3.275   7.353  0.0391  0.4846 -0.1512
 7241SOL    HW133356   1.804   3.320   7.307  1.6225  0.3097 -2.7305
 7241SOL    HW233357   1.853   3.187   7.319 -0.7345  0.3204  0.7525
 7242SOL     OW33358   3.927   3.811  12.343  0.2681 -0.1299 -0.1060
 7242SOL    HW133359   4.001   3.830  12.399  0.7678 -2.3812  0.0123
 7242SOL    HW233360   3.966   3.815  12.256 -0.5261  1.8718 -0.3540
 7243SOL     OW33361   3.443   0.696   2.002  0.8762 -0.4776 -0.3591
 7243SOL    HW133362   3.458   0.785   2.034 -2.1048  0.5510 -1.7875
 7243SOL    HW233363   3.371   0.729   1.949  0.6939  0.9525  0.7710
 7244SOL     OW33364   1.182   1.115  12.224  0.3398  0.1181 -0.2947
 7244SOL    HW133365   1.265   1.073  12.202  0.1664 -0.6429  0.4838
 7244SOL    HW233366   1.207   1.160  12.304  0.1675  0.8483 -0.6511
 7245SOL     OW33367   2.667   2.550   9.977 -0.2696  0.1842  0.0113
 7245SOL    HW133368   2.655   2.625   9.919  1.0579  1.9381  1.9934
 7245SOL    HW233369   2.758   2.526   9.960  0.3454  2.9999 -0.5865
 7246SOL     OW33370   3.843   2.376   2.644  0.5205 -0.9670 -0.4179
 7246SOL    HW133371   3.819   2.463   2.611 -0.5510 -1.3928 -0.7579
 7246SOL    HW233372   3.863   2.333   2.561  0.2710  0.6067 -1.2931
 7247SOL     OW33373   2.327   2.642  16.749 -0.0388 -0.6050 -0.2409
 7247SOL    HW133374   2.276   2.563  16.768 -0.4729 -0.2090  0.2235
 7247SOL    HW233375   2.264   2.707  16.720  1.3876  0.7818 -0.2686
 7248SOL     OW33376   3.860   2.930   7.060 -0.3650 -0.5309  0.7311
 7248SOL    HW133377   3.882   3.017   7.091 -0.9661  0.1500 -0.7872
 7248SOL    HW233378   3.945   2.887   7.048 -1.7499 -3.0774  0.0801
 7249SOL     OW33379   3.464   1.561   5.389 -0.6336  0.3295 -0.0203
 7249SOL    HW133380   3.524   1.560   5.314 -1.9078 -1.6600 -1.0200
 7249SOL    HW233381   3.388   1.524   5.342 -0.0786 -2.1950  1.0770
 7250SOL     OW33382   0.210   4.025   5.565  0.1669  0.6397  0.0503
 7250SOL    HW133383   0.250   4.105   5.530  1.9629 -0.1222  0.3659
 7250SOL    HW233384   0.125   4.026   5.522  0.1848  3.5057  0.0681
 7251SOL     OW33385   3.655   1.019   9.635  0.1253  0.3275  0.5400
 7251SOL    HW133386   3.688   1.083   9.697  0.1990 -0.0143  0.8568
 7251SOL    HW233387   3.711   0.943   9.650  0.8929  0.5843 -1.0383
 7252SOL     OW33388   0.299   0.453  11.721 -0.0699 -0.3467 -0.2367
 7252SOL    HW133389   0.363   0.479  11.787 -0.0257  1.1830 -0.8600
 7252SOL    HW233390   0.349   0.406  11.655  0.0131  2.9607 -2.5740
 7253SOL     OW33391   2.188   0.009   2.531 -0.6259 -0.0615 -0.4195
 7253SOL    HW133392   2.109   4.714   2.574  0.9350 -1.9011  1.0859
 7253SOL    HW233393   2.234   0.044   2.607 -2.1974  3.2029 -1.0192
 7254SOL     OW33394   0.023   2.286   8.136 -0.0085  0.2211  0.1475
 7254SOL    HW133395   0.059   2.206   8.097 -0.6757  0.8445 -1.7368
 7254SOL    HW233396   4.706   2.250   8.206 -2.2860  0.1014 -1.6897
 7255SOL     OW33397   3.372   1.520   0.726  0.7335 -0.5363  0.2475
 7255SOL    HW133398   3.348   1.586   0.791  0.1141  0.5994 -1.1147
 7255SOL    HW233399   3.331   1.443   0.764  1.2115 -1.2558 -0.7144
 7256SOL     OW33400   3.414   2.748   1.387  0.2128  0.9642 -0.7791
 7256SOL    HW133401   3.504   2.779   1.372 -0.0195  1.8599 -0.3134
 7256SOL    HW233402   3.366   2.791   1.316  0.5202 -0.2508 -1.7253
 7257SOL     OW33403   0.345   4.592  14.638 -0.5198 -0.4466  0.3075
 7257SOL    HW133404   0.308   4.559  14.556  0.5494  0.9218 -0.7252
 7257SOL    HW233405   0.419   4.645  14.608 -1.2051 -0.1148 -0.7969
 7258SOL     OW33406   1.547   0.220   4.030 -0.2009 -0.3907 -0.8008
 7258SOL    HW133407   1.598   0.271   4.094  1.0131 -1.2760 -1.0594
 7258SOL    HW233408   1.611   0.220   3.959  3.2546 -0.7314  2.2570
 7259SOL     OW33409   0.037   0.189   6.078 -0.5959  0.2202  0.3114
 7259SOL    HW133410   4.705   0.124   6.073 -1.8451  1.5425  0.5202
 7259SOL    HW233411   0.058   0.199   5.985  1.4515 -0.4945  0.6961
 7260SOL     OW33412   4.103   2.264   9.170  0.8083  0.2715 -0.1721
 7260SOL    HW133413   4.033   2.209   9.134  0.8713 -0.6775  1.1478
 7260SOL    HW233414   4.146   2.203   9.230 -1.4845 -0.4014  0.7627
 7261SOL     OW33415   3.733   4.256   1.956 -0.5000  0.2599 -0.4890
 7261SOL    HW133416   3.651   4.239   1.909 -1.2361  0.2077  0.8262
 7261SOL    HW233417   3.723   4.351   1.950  0.1423  0.4706  1.7826
 7262SOL     OW33418   0.003   1.828   0.057  0.0328 -0.3771 -0.1909
 7262SOL    HW133419   4.659   1.861   0.095  0.7389  0.2586  0.7965
 7262SOL    HW233420   0.066   1.863   0.120 -0.6330 -0.7381  0.6805
 7263SOL     OW33421   2.119   1.058  14.993  0.5769  0.1236  0.3798
 7263SOL    HW133422   2.107   1.038  14.900 -0.6119 -1.5551  0.8912
 7263SOL    HW233423   2.153   0.978  15.035  1.3797  1.9627  3.2556
 7264SOL     OW33424   4.060   0.333   4.883 -0.3621 -0.2908  0.0586
 7264SOL    HW133425   4.007   0.274   4.830  0.3479 -3.0426  2.3619
 7264SOL    HW233426   4.073   0.415   4.837 -1.0765 -1.2356 -1.8142
 7265SOL     OW33427   3.884   4.511  11.377  0.1325  0.2479  0.3848
 7265SOL    HW133428   3.827   4.571  11.425  1.2021  3.1915 -1.9758
 7265SOL    HW233429   3.863   4.434  11.428 -0.3220  0.7150  0.8999
 7266SOL     OW33430   1.836   3.009   2.684 -0.7109 -0.0226 -0.7843
 7266SOL    HW133431   1.814   3.088   2.635 -1.5960  0.2882  0.1311
 7266SOL    HW233432   1.751   2.966   2.693 -0.9714  0.7862  0.5330
 7267SOL     OW33433   0.934   0.623  16.773 -0.5698  0.2934  0.0395
 7267SOL    HW133434   0.975   0.707  16.796 -1.5202  0.6098  0.5756
 7267SOL    HW233435   0.878   0.651  16.701 -0.9369 -2.3492 -0.6829
 7268SOL     OW33436   2.799   0.272   3.260 -0.0735 -0.1603  0.2091
 7268SOL    HW133437   2.810   0.366   3.275  0.5181 -0.5434  2.2499
 7268SOL    HW233438   2.707   0.273   3.287  0.0773  1.3966  0.6590
 7269SOL     OW33439   1.359   1.597   6.231  0.2827 -0.0065 -0.5192
 7269SOL    HW133440   1.298   1.658   6.190  0.3519 -0.5750 -1.4748
 7269SOL    HW233441   1.430   1.604   6.167  0.2362 -0.8307 -0.6691
 7270SOL     OW33442   0.476   2.619   9.430  0.3317  0.3091 -0.0822
 7270SOL    HW133443   0.458   2.609   9.336  1.0857 -2.5751  0.0620
 7270SOL    HW233444   0.572   2.617   9.430  0.3566  0.6438 -3.1445
 7271SOL     OW33445   0.993   1.089  11.787  0.1718 -0.2453  0.4705
 7271SOL    HW133446   0.913   1.109  11.837 -0.3793  0.3530 -0.6561
 7271SOL    HW233447   1.053   1.147  11.834 -0.2357  0.8626 -0.3773
 7272SOL     OW33448   0.049   0.311   7.397 -0.2019 -0.0859 -0.4988
 7272SOL    HW133449   0.130   0.264   7.420 -0.2772 -0.4722 -1.0433
 7272SOL    HW233450   0.014   0.261   7.324 -2.3924  0.2264  0.3382
 7273SOL     OW33451   1.699   4.078   8.804 -0.6046 -0.1383  0.0577
 7273SOL    HW133452   1.707   4.083   8.900  0.2271 -0.3259  0.0004
 7273SOL    HW233453   1.724   4.168   8.784 -0.1895  0.5120  3.5103
 7274SOL     OW33454   4.555   1.781   1.584 -0.0059  0.9350  0.0344
 7274SOL    HW133455   4.517   1.783   1.496 -1.1149 -2.0411  0.4303
 7274SOL    HW233456   4.592   1.869   1.589  0.8517  0.5486  0.5756
 7275SOL     OW33457   2.250   3.142   6.335  0.0702 -0.2317 -0.3644
 7275SOL    HW133458   2.305   3.065   6.349  1.4570  0.7312 -0.5163
 7275SOL    HW233459   2.284   3.199   6.403 -1.5626  1.0106 -0.5862
 7276SOL     OW33460   0.707   4.725   2.756  0.2630 -0.1702  0.6433
 7276SOL    HW133461   0.679   4.656   2.696  3.6737 -1.5196  0.6300
 7276SOL    HW233462   0.770   0.032   2.700  0.2513 -1.1490 -0.1561
 7277SOL     OW33463   4.736   4.612   4.264  0.3153 -0.3688 -0.4762
 7277SOL    HW133464   0.044   4.587   4.184  0.1626 -0.8634 -0.4082
 7277SOL    HW233465   4.651   4.617   4.221  0.4047 -0.1901 -0.6321
 7278SOL     OW33466   4.448   2.476   0.070  0.2900  0.0810  0.1815
 7278SOL    HW133467   4.481   2.512  17.736 -0.7322  0.9010  0.1258
 7278SOL    HW233468   4.398   2.546   0.112  0.6132 -0.0695  0.8143
 7279SOL     OW33469   0.255   3.573  12.496  0.1655 -0.2582 -0.1589
 7279SOL    HW133470   0.243   3.480  12.476 -1.9925  0.3284 -1.5918
 7279SOL    HW233471   0.162   3.588  12.515  0.6053  0.1964  1.5697
 7280SOL     OW33472   4.215   3.535   0.101 -0.1051 -0.4295  0.6235
 7280SOL    HW133473   4.201   3.511   0.193 -0.2814  2.5770  1.3878
 7280SOL    HW233474   4.188   3.627   0.098 -3.1228 -1.2750  1.4460
 7281SOL     OW33475   2.582   2.664   8.055  0.3122  0.4277 -0.4973
 7281SOL    HW133476   2.664   2.714   8.062  1.8775 -2.0559 -0.8591
 7281SOL    HW233477   2.527   2.720   8.110 -0.4937  0.3361 -1.2093
 7282SOL     OW33478   3.863   2.418  13.230 -0.0875 -0.1671 -0.7680
 7282SOL    HW133479   3.789   2.360  13.210 -1.1544  1.3683 -1.2652
 7282SOL    HW233480   3.915   2.423  13.150 -0.1114 -0.1362 -0.7816
 7283SOL     OW33481   0.975   3.006   9.640 -0.3542 -0.2910 -0.3633
 7283SOL    HW133482   1.062   3.026   9.673 -0.7330  0.8996 -0.0836
 7283SOL    HW233483   0.924   3.046   9.710  0.8169  0.0017  0.3072
 7284SOL     OW33484   4.147   2.981   1.118  0.0250  0.1715 -0.3738
 7284SOL    HW133485   4.221   3.021   1.073 -0.6833  0.5438 -1.2030
 7284SOL    HW233486   4.084   2.998   1.048  0.6990 -2.5504 -1.6199
 7285SOL     OW33487   3.791   0.569   9.183  0.4785 -0.4624  0.1650
 7285SOL    HW133488   3.847   0.511   9.234 -0.0865 -6.8244 -6.3449
 7285SOL    HW233489   3.835   0.588   9.100  2.4390 -1.0683  1.0540
 7286SOL     OW33490   0.462   3.735  12.560  0.4834  0.0569  0.6041
 7286SOL    HW133491   0.413   3.799  12.611 -0.6161 -0.6775  0.4847
 7286SOL    HW233492   0.389   3.676  12.538 -0.1355  0.9365  0.3170
 7287SOL     OW33493   0.823   4.324  17.390  0.2717  0.1421 -0.6487
 7287SOL    HW133494   0.743   4.376  17.396  1.0255  1.1009  1.1323
 7287SOL    HW233495   0.786   4.236  17.386 -0.4383  0.5621 -3.2875
 7288SOL     OW33496   4.269   0.280   2.088 -0.3408  0.3739  0.3371
 7288SOL    HW133497   4.273   0.240   2.001 -0.4013 -0.3691  0.6787
 7288SOL    HW233498   4.363   0.278   2.105  0.1185  0.0478 -2.3172
 7289SOL     OW33499   3.522   3.953   2.082 -0.5852  0.4167 -0.2564
 7289SOL    HW133500   3.489   4.010   2.013  0.6524  0.3801 -0.8890
 7289SOL    HW233501   3.471   3.872   2.074 -1.8414  1.2995 -1.1388
 7290SOL     OW33502   1.968   0.081  12.219 -0.4971 -0.3835 -0.5404
 7290SOL    HW133503   1.943   0.130  12.298 -0.2988  1.6889 -1.7597
 7290SOL    HW233504   2.004   0.002  12.258 -0.0195 -0.5270 -1.2906
 7291SOL     OW33505   2.045   1.850   4.567  0.3090 -0.0926 -0.1165
 7291SOL    HW133506   1.982   1.896   4.622  0.8598 -0.4376  0.8141
 7291SOL    HW233507   2.052   1.768   4.617 -0.3574 -0.0393  0.0599
 7292SOL     OW33508   4.471   0.702   7.203 -0.2866  0.4023  0.3590
 7292SOL    HW133509   4.450   0.793   7.222 -0.7526  0.4666 -0.4757
 7292SOL    HW233510   4.433   0.665   7.283  0.5566 -0.6327  0.2754
 7293SOL     OW33511   1.065   2.394   8.225 -0.0124  0.0227 -0.0434
 7293SOL    HW133512   1.151   2.400   8.268  0.2585  0.4011 -0.6280
 7293SOL    HW233513   1.035   2.313   8.265  1.3822  0.0164  0.9933
 7294SOL     OW33514   1.535   3.522  14.175  0.1342 -0.2589  0.0217
 7294SOL    HW133515   1.558   3.584  14.244  0.7624 -2.5140  1.8301
 7294SOL    HW233516   1.561   3.568  14.095  0.8951 -0.6634  0.0310
 7295SOL     OW33517   4.629   0.331  15.173 -0.1009 -0.4686  0.5320
 7295SOL    HW133518   4.585   0.274  15.110 -0.7518  3.0402 -2.2080
 7295SOL    HW233519   4.655   0.266  15.239 -1.4403 -1.2590  0.2810
 7296SOL     OW33520   4.397   1.945   4.058 -0.3392  0.3846  0.2122
 7296SOL    HW133521   4.421   1.885   4.129 -1.3414 -1.7305 -1.2321
 7296SOL    HW233522   4.475   1.932   4.003 -0.2230 -1.0642  0.7281
 7297SOL     OW33523   0.725   0.838   9.260  0.2885 -0.1247  0.4395
 7297SOL    HW133524   0.670   0.823   9.183  0.8932  1.8973 -0.3969
 7297SOL    HW233525   0.658   0.848   9.327  0.2210  0.7588  0.2467
 7298SOL     OW33526   4.139   4.329   9.647  0.4095 -0.1963  0.2798
 7298SOL    HW133527   4.143   4.419   9.680  1.7977 -0.1775  0.0564
 7298SOL    HW233528   4.194   4.284   9.712 -0.0723  0.4587  1.1395
 7299SOL     OW33529   2.693   4.577  14.343  0.8271 -0.2345  0.1862
 7299SOL    HW133530   2.604   4.609  14.353  1.4485  0.2547  4.3490
 7299SOL    HW233531   2.706   4.509  14.409 -2.2340 -2.3499 -1.3871
 7300SOL     OW33532   4.085   4.568   6.129  0.5844  0.2883 -0.2375
 7300SOL    HW133533   3.992   4.560   6.109  0.3030  1.9397  0.3351
 7300SOL    HW233534   4.083   4.663   6.142  1.1823  0.4289 -1.2004
 7301SOL     OW33535   3.157   0.385   8.508 -0.7209  0.0318 -0.4883
 7301SOL    HW133536   3.122   0.296   8.512  0.6991 -0.5636 -1.3859
 7301SOL    HW233537   3.192   0.376   8.420 -1.1479  3.5226 -1.0234
 7302SOL     OW33538   1.559   2.930   1.039 -0.3969  0.1471  0.4573
 7302SOL    HW133539   1.481   2.975   1.073  0.3409  1.3569  0.5257
 7302SOL    HW233540   1.536   2.935   0.946  1.4960 -3.7193 -0.2134
 7303SOL     OW33541   1.653   0.229   7.120  0.4065 -0.2565  0.2182
 7303SOL    HW133542   1.571   0.255   7.161 -0.4873 -0.8009 -1.2141
 7303SOL    HW233543   1.661   0.134   7.131 -0.8202 -0.1545  1.8800
 7304SOL     OW33544   0.631   3.310   4.705 -0.3202  0.3672  0.1310
 7304SOL    HW133545   0.681   3.229   4.696 -0.5087  0.4405 -1.5637
 7304SOL    HW233546   0.676   3.337   4.785  1.0243 -0.0949 -0.4689
 7305SOL     OW33547   2.869   1.294  17.631  0.6739  0.9068 -0.8234
 7305SOL    HW133548   2.897   1.385  17.635  0.2353  0.8168  3.6127
 7305SOL    HW233549   2.920   1.255  17.560 -0.2222  1.7497 -1.9229
 7306SOL     OW33550   0.361   3.464   2.970  0.1838 -0.3475 -0.4581
 7306SOL    HW133551   0.314   3.399   3.022 -0.7883 -0.9965 -2.1654
 7306SOL    HW233552   0.293   3.485   2.906  1.3498  0.7359 -1.3379
 7307SOL     OW33553   1.481   4.324   2.413  0.3469  0.6016 -0.4082
 7307SOL    HW133554   1.400   4.281   2.442  0.9188  0.4759  1.0115
 7307SOL    HW233555   1.475   4.413   2.446  1.1637  0.9723 -1.2661
 7308SOL     OW33556   3.677   0.033   3.086  0.1335 -0.5862  0.0548
 7308SOL    HW133557   3.743   4.705   3.064  0.4768 -0.4063  0.5376
 7308SOL    HW233558   3.735   0.086   3.140 -0.5708 -0.2314  0.4740
 7309SOL     OW33559   1.254   2.445   9.532 -1.3224  0.4359  0.6189
 7309SOL    HW133560   1.166   2.427   9.499 -0.4802 -2.0358 -0.1972
 7309SOL    HW233561   1.294   2.365   9.500  0.6842  1.0500  1.5770
 7310SOL     OW33562   2.195   4.633   6.467  0.6294  0.7651 -0.4486
 7310SOL    HW133563   2.145   4.571   6.414 -0.9919 -0.3173  2.3372
 7310SOL    HW233564   2.277   4.584   6.464  0.7413  0.8018  2.7046
 7311SOL     OW33565   0.605   0.647   6.374 -0.1210  0.0185  0.0695
 7311SOL    HW133566   0.583   0.568   6.325  0.9190 -0.3026  0.1284
 7311SOL    HW233567   0.684   0.673   6.327 -1.0567  2.6878 -0.0371
 7312SOL     OW33568   0.378   3.200  17.354  0.0331  0.6426  0.0352
 7312SOL    HW133569   0.457   3.250  17.336 -0.4456  1.0247 -1.0078
 7312SOL    HW233570   0.378   3.140  17.279  0.6224 -0.0508  0.5909
 7313SOL     OW33571   4.632   0.759  11.219  0.2694 -0.6676  0.2322
 7313SOL    HW133572   4.674   0.681  11.182  1.4455 -0.4934  1.2092
 7313SOL    HW233573   4.683   0.772  11.298 -0.2100 -0.1806  0.4586
 7314SOL     OW33574   1.603   2.858   8.913 -0.2348 -0.7205 -0.2638
 7314SOL    HW133575   1.656   2.817   8.983  0.8884 -0.1985 -0.8062
 7314SOL    HW233576   1.524   2.806   8.928  1.0522 -2.2710  1.3227
 7315SOL     OW33577   1.448   1.670   3.945 -0.0212 -0.0660 -0.5562
 7315SOL    HW133578   1.542   1.675   3.957 -0.0892  0.8460 -0.3970
 7315SOL    HW233579   1.432   1.586   3.988  2.1310 -0.4166 -0.4912
 7316SOL     OW33580   0.496   0.413   9.160 -0.6728 -0.7272 -0.2811
 7316SOL    HW133581   0.521   0.475   9.092  1.2957  0.3781  1.4378
 7316SOL    HW233582   0.572   0.355   9.150 -1.0106 -0.9099 -1.8350
 7317SOL     OW33583   1.315   2.730   8.615  0.6584 -0.3932 -0.1357
 7317SOL    HW133584   1.263   2.650   8.608 -0.7587  0.4450  0.8966
 7317SOL    HW233585   1.377   2.703   8.683  0.4060 -0.9571 -0.1305
 7318SOL     OW33586   3.995   1.956  10.079 -0.5780  0.1940 -0.2045
 7318SOL    HW133587   4.012   2.048  10.059  0.2325  0.3915  1.3521
 7318SOL    HW233588   4.057   1.929  10.011  0.8302  2.7005  0.0924
 7319SOL     OW33589   3.430   2.075   6.362 -0.2554 -0.6348  0.2188
 7319SOL    HW133590   3.487   1.999   6.372 -0.5845 -1.1739 -1.9255
 7319SOL    HW233591   3.429   2.113   6.450 -0.1663  2.6480 -1.2030
 7320SOL     OW33592   3.972   0.248   2.738  0.0535 -0.5132  0.2109
 7320SOL    HW133593   3.960   0.306   2.663  0.8760 -1.6829 -0.8538
 7320SOL    HW233594   3.894   0.261   2.791  0.4030 -0.8169  0.8052
 7321SOL     OW33595   2.658   1.825   2.848 -0.1065 -0.6134  0.2362
 7321SOL    HW133596   2.640   1.771   2.924 -0.1105 -1.1312 -0.1297
 7321SOL    HW233597   2.675   1.754   2.785 -2.8537  0.5792 -1.8489
 7322SOL     OW33598   2.577   3.738   8.112 -0.4577  0.2558  0.4385
 7322SOL    HW133599   2.485   3.717   8.097 -0.1844 -0.3839 -0.3710
 7322SOL    HW233600   2.594   3.823   8.072  3.2164 -0.5070  0.3429
 7323SOL     OW33601   2.702   0.731   3.045 -0.0825 -0.6737 -0.2056
 7323SOL    HW133602   2.708   0.693   3.132  0.7230 -1.5045 -0.6308
 7323SOL    HW233603   2.608   0.724   3.028  0.0467  1.0333 -1.6758
 7324SOL     OW33604   3.489   4.089   4.169  0.1088 -0.1496  0.2403
 7324SOL    HW133605   3.584   4.095   4.168  0.0293  0.9608 -0.0772
 7324SOL    HW233606   3.468   3.997   4.150  0.3297 -0.4579  1.4766
 7325SOL     OW33607   1.920   4.451  10.447 -0.2666  0.3332 -0.1160
 7325SOL    HW133608   1.842   4.405  10.476 -0.3413  2.0473  2.3858
 7325SOL    HW233609   1.924   4.514  10.519 -1.4394  0.8602 -0.5078
 7326SOL     OW33610   1.725   2.552   2.382 -0.5311 -0.2459 -0.3715
 7326SOL    HW133611   1.635   2.526   2.399 -1.3642  2.2926 -0.9582
 7326SOL    HW233612   1.709   2.646   2.378  3.4567  0.3496 -2.4219
 7327SOL     OW33613   4.265   1.465   6.303 -0.0267 -0.1221 -0.0203
 7327SOL    HW133614   4.171   1.470   6.289  0.0074 -1.5695 -0.7512
 7327SOL    HW233615   4.260   1.410   6.381  0.4795  0.3453  0.3425
 7328SOL     OW33616   2.860   2.818   6.016  0.2511 -1.1201 -0.0277
 7328SOL    HW133617   2.927   2.868   5.969 -0.7015 -0.6729 -0.8978
 7328SOL    HW233618   2.841   2.749   5.952  1.1072 -1.0535 -0.3610
 7329SOL     OW33619   0.742   1.487   1.410  0.2835  1.1085 -0.4876
 7329SOL    HW133620   0.759   1.523   1.323 -4.1534  2.9945 -0.5456
 7329SOL    HW233621   0.673   1.422   1.395  0.1449  0.9898  0.6967
 7330SOL     OW33622   0.472   2.706   5.010 -0.0055 -0.1516  0.4387
 7330SOL    HW133623   0.408   2.718   5.080 -0.2926  0.9277 -0.0203
 7330SOL    HW233624   0.537   2.645   5.047 -0.5325 -1.7702 -1.3038
 7331SOL     OW33625   0.901   3.906   3.198 -0.0378  0.5787 -0.5376
 7331SOL    HW133626   0.915   3.848   3.272 -1.4260  3.2122  1.8169
 7331SOL    HW233627   0.826   3.861   3.159  0.3201 -0.8442  0.4491
 7332SOL     OW33628   0.195   2.428   2.876  0.3183 -0.4265  0.3365
 7332SOL    HW133629   0.109   2.407   2.913 -1.1422  0.8525 -2.3441
 7332SOL    HW233630   0.191   2.359   2.810  2.1828  0.5416 -0.7840
 7333SOL     OW33631   4.649   2.948   2.753  0.5158  0.5289  0.1080
 7333SOL    HW133632   4.586   2.894   2.705 -1.7783  2.2737  1.1733
 7333SOL    HW233633   4.622   2.955   2.844 -0.3226  1.3863 -0.2095
 7334SOL     OW33634   2.546   4.623   9.251  0.4374 -0.4355 -0.2443
 7334SOL    HW133635   2.451   4.623   9.261  0.4654  0.2095  0.0559
 7334SOL    HW233636   2.573   4.661   9.334  1.9642 -1.2159 -0.3905
 7335SOL     OW33637   2.767   2.006  13.314 -0.3248  0.1100 -0.9731
 7335SOL    HW133638   2.819   1.933  13.347  0.8903  1.1333 -0.6113
 7335SOL    HW233639   2.680   1.994  13.351 -0.0869 -0.6770 -0.6736
 7336SOL     OW33640   1.906   4.462   1.764  0.0673 -0.2551  0.3029
 7336SOL    HW133641   1.891   4.399   1.693  0.6449  1.7295 -1.6017
 7336SOL    HW233642   2.001   4.457   1.762  0.0295 -1.5828  2.1497
 7337SOL     OW33643   3.234   3.041   6.677  0.0262 -0.2104  0.5321
 7337SOL    HW133644   3.232   3.080   6.590  0.0257 -1.3328  0.0275
 7337SOL    HW233645   3.281   3.104   6.731 -1.3412  0.5163  0.8716
 7338SOL     OW33646   0.339   1.005   5.453  0.0655 -0.5557 -0.6403
 7338SOL    HW133647   0.407   1.005   5.520 -1.1799 -0.2197  0.6250
 7338SOL    HW233648   0.356   0.925   5.404 -0.4714 -1.9345  1.4109
 7339SOL     OW33649   0.956   3.598   8.472  0.0014  0.4286 -0.4471
 7339SOL    HW133650   0.900   3.658   8.521  1.0904 -0.8660  2.4299
 7339SOL    HW233651   0.951   3.632   8.383  3.3661  2.3738  0.1076
 7340SOL     OW33652   4.311   1.534  14.830 -0.1196 -0.0364  0.0183
 7340SOL    HW133653   4.340   1.445  14.809 -0.8474  0.2310 -2.0623
 7340SOL    HW233654   4.269   1.544  14.745 -1.8129 -2.7889  0.5569
 7341SOL     OW33655   0.641   0.068  15.638  0.3384 -0.0364 -0.3506
 7341SOL    HW133656   0.630   0.067  15.543 -1.5043  0.8147 -0.1523
 7341SOL    HW233657   0.708   4.737  15.643  0.1344 -0.3164 -1.5007
 7342SOL     OW33658   2.333   1.524   7.576  0.1297  0.1892 -0.7851
 7342SOL    HW133659   2.379   1.576   7.643  0.5573 -1.1367 -0.0473
 7342SOL    HW233660   2.265   1.589   7.558  0.0442 -0.2058 -1.8415
 7343SOL     OW33661   0.110   1.619   9.354  0.0371 -0.5474 -0.1281
 7343SOL    HW133662   0.109   1.531   9.393  0.5150 -0.3651  0.3003
 7343SOL    HW233663   0.173   1.659   9.414 -0.4530 -0.4220  0.3003
 7344SOL     OW33664   2.888   4.026   6.800  0.4481  0.7926  0.2760
 7344SOL    HW133665   2.907   4.120   6.800  1.5142  0.5809  0.9167
 7344SOL    HW233666   2.873   4.005   6.892 -2.5118  1.6910 -0.0146
 7345SOL     OW33667   3.517   4.120   3.167  0.3134 -1.2874  0.3830
 7345SOL    HW133668   3.572   4.194   3.192  0.1591 -1.2005  0.4630
 7345SOL    HW233669   3.439   4.136   3.220  0.8710  0.1614  0.7618
 7346SOL     OW33670   4.365   0.754   5.790  0.3556 -0.6801 -0.0199
 7346SOL    HW133671   4.403   0.780   5.706  0.3687 -1.7990 -0.3584
 7346SOL    HW233672   4.372   0.828   5.850  2.7883 -0.7263 -0.2435
 7347SOL     OW33673   4.406   2.706   1.893 -0.5458  0.3434  0.1134
 7347SOL    HW133674   4.486   2.664   1.862 -1.9792 -1.2029 -1.5396
 7347SOL    HW233675   4.440   2.785   1.934  1.2138 -0.7294  0.7046
 7348SOL     OW33676   0.019   2.466   9.475  0.3399 -0.1306  0.0780
 7348SOL    HW133677   0.090   2.416   9.435 -0.5241  0.3583 -2.0743
 7348SOL    HW233678   0.047   2.483   9.565 -0.6742 -3.2660  1.0198
 7349SOL     OW33679   1.651   2.945   4.137  0.0182 -0.4662  0.1398
 7349SOL    HW133680   1.742   2.929   4.161 -0.0534 -1.0611  0.0048
 7349SOL    HW233681   1.633   2.873   4.076 -0.9308 -0.7554  0.7553
 7350SOL     OW33682   2.860   2.085   1.465  0.5391  0.2118 -0.1758
 7350SOL    HW133683   2.908   2.077   1.547  1.9859  0.3035 -1.0107
 7350SOL    HW233684   2.792   2.146   1.493  2.3486  1.5077  1.4222
 7351SOL     OW33685   2.440   0.663   5.886  0.0649  0.5541 -0.4689
 7351SOL    HW133686   2.439   0.586   5.942 -0.7072  1.3126  0.5700
 7351SOL    HW233687   2.395   0.733   5.934 -0.3711  1.3118 -1.9605
 7352SOL     OW33688   0.179   1.593   4.696  0.0863 -0.1018 -0.7488
 7352SOL    HW133689   0.208   1.506   4.723 -1.1466 -0.0807  0.6639
 7352SOL    HW233690   0.219   1.609   4.611 -0.1938 -0.7975 -1.0048
 7353SOL     OW33691   3.096   0.377   5.097 -0.6464 -0.2546 -0.6308
 7353SOL    HW133692   3.183   0.370   5.058  0.0299  0.6039  0.7359
 7353SOL    HW233693   3.044   0.365   5.017  0.1645  0.3115 -1.2465
 7354SOL     OW33694   3.978   4.249  11.649  0.2244  0.4507 -0.0121
 7354SOL    HW133695   3.885   4.229  11.650  0.3207  0.0206  0.2405
 7354SOL    HW233696   4.014   4.206  11.571  0.7018  0.7184  0.0652
 7355SOL     OW33697   4.478   2.702  15.670 -0.2924  0.2863  0.3899
 7355SOL    HW133698   4.440   2.730  15.753  1.3579  3.0704  0.2168
 7355SOL    HW233699   4.472   2.777  15.610 -1.6103  0.0282  0.2002
 7356SOL     OW33700   3.535   0.950   9.152  0.0243  0.2944 -0.0535
 7356SOL    HW133701   3.476   0.940   9.227 -0.1565  0.0041 -0.2341
 7356SOL    HW233702   3.562   1.042   9.149 -0.6385  0.6006  3.3789
 7357SOL     OW33703   1.782   2.246   6.950 -0.2464 -0.0924  0.0340
 7357SOL    HW133704   1.863   2.236   6.999 -1.7104 -1.4927  2.1213
 7357SOL    HW233705   1.732   2.288   7.020 -1.4606 -0.6683 -0.4962
 7358SOL     OW33706   0.650   2.878   4.843 -0.4235  0.2844 -0.0731
 7358SOL    HW133707   0.601   2.828   4.908 -3.2974 -0.7403 -3.0543
 7358SOL    HW233708   0.725   2.907   4.895  1.1428  0.7115 -2.5920
 7359SOL     OW33709   3.979   1.502   5.723  0.3029 -0.2797  0.2266
 7359SOL    HW133710   3.897   1.455   5.708  0.8043 -1.5877  1.5656
 7359SOL    HW233711   4.042   1.461   5.664  0.7248  2.0857 -0.9644
 7360SOL     OW33712   2.448   0.826   1.568 -0.4993  0.4615  0.3676
 7360SOL    HW133713   2.527   0.783   1.535 -0.5710 -0.5859  1.5684
 7360SOL    HW233714   2.410   0.755   1.620 -1.1804  1.2588  0.9499
 7361SOL     OW33715   3.244   0.184   6.618  0.3422  0.2276 -0.3482
 7361SOL    HW133716   3.207   0.102   6.584 -0.4595  0.8772 -1.0322
 7361SOL    HW233717   3.308   0.153   6.682 -0.1492  0.6908  0.3631
 7362SOL     OW33718   3.939   1.569   7.255  0.0300 -0.4214  0.3269
 7362SOL    HW133719   3.971   1.493   7.303  0.0490 -0.4752  0.2286
 7362SOL    HW233720   3.890   1.614   7.324  1.3249  1.2129  0.1872
 7363SOL     OW33721   4.363   3.149   1.044 -0.1779 -0.0822 -0.4270
 7363SOL    HW133722   4.325   3.236   1.030  3.3933  1.4787 -0.2214
 7363SOL    HW233723   4.457   3.160   1.034 -0.4246 -0.1556 -2.8586
 7364SOL     OW33724   0.341   1.021  13.006  0.3680 -0.0150 -0.3781
 7364SOL    HW133725   0.407   0.970  12.959 -0.1898  0.2154 -1.4236
 7364SOL    HW233726   0.394   1.099  13.022  1.5313 -0.7942 -0.4420
 7365SOL     OW33727   1.159   1.471   6.585 -0.2503  0.1876  0.0609
 7365SOL    HW133728   1.064   1.481   6.576  0.0302  3.2706  0.4790
 7365SOL    HW233729   1.176   1.378   6.571 -0.6539  0.3327 -1.3616
 7366SOL     OW33730   0.767   3.762   5.098 -0.0154  0.4261 -0.2281
 7366SOL    HW133731   0.683   3.719   5.087 -0.2089  0.7773 -0.1267
 7366SOL    HW233732   0.797   3.718   5.177 -3.2194 -0.7109  0.3401
 7367SOL     OW33733   3.012   2.740   7.297  0.3245 -0.3061  0.1290
 7367SOL    HW133734   3.062   2.812   7.259 -0.0772  0.2929  0.7358
 7367SOL    HW233735   3.020   2.666   7.236 -0.7982 -0.1743 -0.1845
 7368SOL     OW33736   1.408   1.292  15.178 -0.3015 -0.0128 -0.1456
 7368SOL    HW133737   1.409   1.381  15.142 -0.9974  0.0863  0.0842
 7368SOL    HW233738   1.316   1.268  15.173 -0.4298  0.7511 -1.4292
 7369SOL     OW33739   3.277   3.528  16.548 -0.2039  0.1318 -0.7027
 7369SOL    HW133740   3.266   3.454  16.488  3.0446 -0.8890 -0.0495
 7369SOL    HW233741   3.355   3.504  16.598  0.3209  0.8231 -1.1988
 7370SOL     OW33742   3.776   2.691   1.066 -0.0663 -0.9767 -0.3756
 7370SOL    HW133743   3.825   2.610   1.052 -1.2164 -1.5475 -1.1006
 7370SOL    HW233744   3.824   2.734   1.137 -1.4203  0.8869 -0.5975
 7371SOL     OW33745   2.859   3.333   7.378 -0.4305  0.3656  0.3706
 7371SOL    HW133746   2.936   3.370   7.335 -0.7479  0.5111 -0.0715
 7371SOL    HW233747   2.798   3.406   7.367  0.2242  0.7657 -0.5576
 7372SOL     OW33748   3.549   3.556  17.123  0.2534  0.1847  0.4560
 7372SOL    HW133749   3.552   3.643  17.084 -2.3874 -0.2840 -0.8143
 7372SOL    HW233750   3.641   3.534  17.112 -0.3061 -0.5168 -2.7160
 7373SOL     OW33751   0.351   2.114   3.047 -0.1345 -0.3697 -0.2658
 7373SOL    HW133752   0.445   2.101   3.042 -0.2012 -0.1038 -2.4205
 7373SOL    HW233753   0.352   2.208   3.027  1.3564 -0.2628  0.3459
 7374SOL     OW33754   3.591   2.860   6.474 -0.0983  0.0810  0.3310
 7374SOL    HW133755   3.528   2.847   6.403  0.6610  3.4394 -0.9364
 7374SOL    HW233756   3.527   2.873   6.544  0.6853  1.8356  0.7162
 7375SOL     OW33757   3.639   0.946   6.956  0.5245 -0.0790  0.0215
 7375SOL    HW133758   3.610   0.867   7.002 -1.7207 -0.2682 -1.6908
 7375SOL    HW233759   3.571   1.011   6.977  0.8361  0.3996 -0.4489
 7376SOL     OW33760   2.614   0.446   8.812  0.6902  0.4016  0.3740
 7376SOL    HW133761   2.691   0.395   8.787  1.2472  1.9172 -0.9958
 7376SOL    HW233762   2.637   0.454   8.904 -0.5580  0.5665  0.6709
 7377SOL     OW33763   2.800   1.694   2.004 -0.2097 -0.0176 -0.0316
 7377SOL    HW133764   2.831   1.646   1.927  1.4226  0.4286  0.3686
 7377SOL    HW233765   2.711   1.722   1.982 -0.7020  0.9620  3.2126
 7378SOL     OW33766   1.766   4.330   5.003 -0.3846 -0.0807 -0.0910
 7378SOL    HW133767   1.772   4.303   5.095 -0.1363 -2.1397 -0.6997
 7378SOL    HW233768   1.686   4.284   4.977  1.2902 -2.0509 -1.7444
 7379SOL     OW33769   0.414   4.420   4.776  0.5356 -0.0912 -0.4173
 7379SOL    HW133770   0.483   4.486   4.769 -0.5752  0.8503 -2.5056
 7379SOL    HW233771   0.397   4.409   4.682  2.5753 -0.3369 -0.7495
 7380SOL     OW33772   0.283   4.244   8.747  0.4236  0.6282  0.1164
 7380SOL    HW133773   0.365   4.252   8.796 -0.2322  1.0296  1.1603
 7380SOL    HW233774   0.248   4.332   8.757 -2.1143 -0.2582 -0.8165
 7381SOL     OW33775   2.524   1.009   4.268 -0.0496  0.4101 -0.5847
 7381SOL    HW133776   2.557   1.064   4.198  2.0595 -1.5248 -1.1141
 7381SOL    HW233777   2.518   1.085   4.326 -0.9750 -0.7090  0.8248
 7382SOL     OW33778   2.473   1.519  11.724  0.2863 -0.0572 -0.1218
 7382SOL    HW133779   2.515   1.494  11.805  0.1422 -0.4651 -0.1753
 7382SOL    HW233780   2.391   1.556  11.756 -0.2615 -1.3438 -0.0497
 7383SOL     OW33781   0.019   1.720   5.835  0.0792 -0.4814  0.6753
 7383SOL    HW133782   4.730   1.735   5.745  1.2639  0.1214  0.4163
 7383SOL    HW233783   4.684   1.673   5.874  0.2768 -0.0714  1.5504
 7384SOL     OW33784   3.186   2.709   5.503  0.6892  0.4791  0.1891
 7384SOL    HW133785   3.120   2.649   5.467 -1.5953  1.4014  2.8602
 7384SOL    HW233786   3.252   2.695   5.435 -0.4342  0.5286 -0.9197
 7385SOL     OW33787   4.715   1.155   5.224 -0.0144  0.2851 -0.2393
 7385SOL    HW133788   4.682   1.118   5.305  0.3538  2.2088  0.8084
 7385SOL    HW233789   4.662   1.105   5.164  1.1646 -0.1433 -0.9301
 7386SOL     OW33790   3.514   3.203   3.059  0.1154  0.7950  0.3053
 7386SOL    HW133791   3.514   3.108   3.051  1.9849  0.7256  1.1699
 7386SOL    HW233792   3.423   3.217   3.087  0.3221  1.6497  0.5670
 7387SOL     OW33793   4.259   2.789   1.264  0.2494 -0.4703 -0.5428
 7387SOL    HW133794   4.238   2.848   1.192 -2.8230 -1.9341 -0.8456
 7387SOL    HW233795   4.354   2.786   1.252  0.4047 -3.0433  1.3564
 7388SOL     OW33796   4.398   3.706   8.110  0.0232  0.5336 -0.1002
 7388SOL    HW133797   4.382   3.772   8.043 -1.2569  2.3251  1.9842
 7388SOL    HW233798   4.427   3.746   8.191 -1.1946 -2.0696  1.6274
 7389SOL     OW33799   3.295   2.078  11.063  0.3650 -0.9163  0.0655
 7389SOL    HW133800   3.258   2.070  10.975 -0.6606  1.3064  0.2985
 7389SOL    HW233801   3.376   2.030  11.046  2.1088  1.2896  2.1135
 7390SOL     OW33802   1.514   1.897  11.282  0.1996 -0.0535 -0.4849
 7390SOL    HW133803   1.583   1.853  11.331 -1.6651 -0.5456  1.6805
 7390SOL    HW233804   1.516   1.986  11.317  1.6157 -0.7144  1.0846
 7391SOL     OW33805   1.527   4.264   2.811  0.3090 -0.2290  0.1157
 7391SOL    HW133806   1.434   4.281   2.795  0.2073  0.0069  0.9826
 7391SOL    HW233807   1.555   4.346   2.851  1.7397 -0.6523 -0.0047
 7392SOL     OW33808   1.415   3.419  14.867  0.3611 -0.1645  0.6626
 7392SOL    HW133809   1.332   3.382  14.897 -0.1259 -1.0548 -1.7171
 7392SOL    HW233810   1.439   3.483  14.934  1.3005  1.1791 -0.9612
 7393SOL     OW33811   3.906   1.736   2.352 -0.3412 -0.1188  0.0720
 7393SOL    HW133812   3.994   1.768   2.332 -0.8089 -0.0489 -1.8650
 7393SOL    HW233813   3.924   1.643   2.365 -0.2864 -0.1587 -0.2958
 7394SOL     OW33814   3.203   0.641   6.951  0.0891  0.3253 -0.1505
 7394SOL    HW133815   3.267   0.598   7.008 -0.4628 -1.5682 -0.9669
 7394SOL    HW233816   3.141   0.570   6.935 -1.0409  1.6109 -1.5218
 7395SOL     OW33817   1.902   2.109   0.861  0.0872  0.8995 -0.0674
 7395SOL    HW133818   1.888   2.079   0.772  0.6991  0.3933  0.0040
 7395SOL    HW233819   1.882   2.033   0.916  0.5781  1.1242  0.4297
 7396SOL     OW33820   0.632   1.215  11.157  0.7708  0.5558 -0.0609
 7396SOL    HW133821   0.555   1.180  11.113  0.0887  2.0118 -0.0213
 7396SOL    HW233822   0.701   1.215  11.090 -0.0503 -3.0190 -0.8796
 7397SOL     OW33823   4.505   0.386  11.350  0.4950 -0.6306  0.3485
 7397SOL    HW133824   4.432   0.325  11.360 -0.0515 -0.4326 -2.7074
 7397SOL    HW233825   4.531   0.401  11.441  0.5147  1.1255  0.0484
 7398SOL     OW33826   0.127   4.533   8.349  0.1875 -0.2578 -0.5858
 7398SOL    HW133827   0.147   4.569   8.435  1.3114 -1.6694 -0.2668
 7398SOL    HW233828   0.187   4.584   8.294 -1.4876  0.3511 -1.8705
 7399SOL     OW33829   3.434   4.184   4.419 -0.2897 -0.1068 -0.3249
 7399SOL    HW133830   3.484   4.164   4.339  2.6522 -1.9063  1.9573
 7399SOL    HW233831   3.375   4.252   4.386 -0.6437 -0.4856 -0.4723
 7400SOL     OW33832   3.094   2.136  15.451  0.0799  0.0744 -0.3108
 7400SOL    HW133833   3.146   2.216  15.456  0.8448 -0.4086 -0.5498
 7400SOL    HW233834   3.026   2.143  15.384  0.4461  0.7257 -0.6106
 7401SOL     OW33835   3.822   4.153   5.967 -0.4202 -0.3141 -0.1592
 7401SOL    HW133836   3.833   4.168   5.873  0.6463 -1.3444 -0.1973
 7401SOL    HW233837   3.838   4.059   5.971 -2.7258 -0.7256 -0.2862
 7402SOL     OW33838   0.494   2.783   3.801  0.6219  0.1221  0.8166
 7402SOL    HW133839   0.523   2.728   3.873 -0.2526  0.0423  1.1078
 7402SOL    HW233840   0.516   2.871   3.830 -0.8024  0.9606 -0.6334
 7403SOL     OW33841   3.747   3.608   4.787  0.3837  0.2682  0.3855
 7403SOL    HW133842   3.658   3.612   4.823  0.2163  0.3060 -0.0376
 7403SOL    HW233843   3.752   3.515   4.766 -1.2479  0.4425 -0.7835
 7404SOL     OW33844   2.304   4.103   4.327 -0.2955 -0.5752  0.2575
 7404SOL    HW133845   2.296   4.047   4.404  0.1001 -0.8427  0.1069
 7404SOL    HW233846   2.372   4.168   4.347 -1.4834  0.4494  0.9685
 7405SOL     OW33847   3.439   3.321   1.783  0.1618 -0.3377  0.2088
 7405SOL    HW133848   3.510   3.382   1.766  0.5566 -0.9645 -0.3911
 7405SOL    HW233849   3.473   3.232   1.794 -1.0811 -0.6606  1.5782
 7406SOL     OW33850   0.208   1.563   6.515  0.3258  0.1785 -0.4269
 7406SOL    HW133851   0.251   1.604   6.440 -2.0266 -0.8029 -2.3142
 7406SOL    HW233852   0.258   1.481   6.521 -0.5328 -0.2608  0.8415
 7407SOL     OW33853   4.534   2.932   4.335  0.5746 -0.1069  0.2926
 7407SOL    HW133854   4.461   2.945   4.394 -0.0157 -1.0338 -0.2246
 7407SOL    HW233855   4.513   2.843   4.307  0.3248  0.3271 -0.8950
 7408SOL     OW33856   1.227   3.196   4.717 -1.0587 -0.3933 -0.2138
 7408SOL    HW133857   1.242   3.281   4.758  0.4166  1.3205 -4.3104
 7408SOL    HW233858   1.239   3.223   4.626  0.0185  0.7252  0.2526
 7409SOL     OW33859   4.720   0.237   1.715 -0.0297 -0.1849 -0.4624
 7409SOL    HW133860   4.663   0.308   1.747 -0.6590 -0.8944  0.0033
 7409SOL    HW233861   0.047   0.293   1.673  0.8810 -0.5157  0.5046
 7410SOL     OW33862   2.889   2.595  17.394  0.0583 -0.3671 -0.6851
 7410SOL    HW133863   2.889   2.513  17.343  0.5909 -1.3240  0.8471
 7410SOL    HW233864   2.797   2.605  17.418  0.3594  0.5753  0.0467
 7411SOL     OW33865   3.614   3.595   6.338  0.0229 -0.6596  0.6864
 7411SOL    HW133866   3.677   3.542   6.290  0.3816 -0.3899  0.8532
 7411SOL    HW233867   3.626   3.677   6.291  0.8880 -0.4889  1.1944
 7412SOL     OW33868   3.413   4.597   6.092  0.0072 -0.0610  0.3280
 7412SOL    HW133869   3.323   4.630   6.100  0.2766  1.0124 -1.0702
 7412SOL    HW233870   3.462   4.671   6.128  1.4088  0.5048 -2.7387
 7413SOL     OW33871   0.513   3.979   8.193 -0.2586 -0.2774  0.2144
 7413SOL    HW133872   0.431   3.929   8.187  0.3342 -1.0662 -1.0787
 7413SOL    HW233873   0.545   3.947   8.277 -0.0117 -0.1473  0.1682
 7414SOL     OW33874   4.139   0.261   5.857  0.2422  0.0929  0.7108
 7414SOL    HW133875   4.134   0.342   5.807  2.5983 -0.1898  0.0360
 7414SOL    HW233876   4.145   0.197   5.787  1.3151  0.9173  0.0573
 7415SOL     OW33877   2.645   3.720  16.911 -0.2482  0.7684  0.6597
 7415SOL    HW133878   2.557   3.758  16.914 -0.8386 -0.4488 -1.1832
 7415SOL    HW233879   2.626   3.628  16.893 -2.5843  1.5447 -0.8949
 7416SOL     OW33880   4.456   2.304   3.979  0.0885 -0.0507 -0.3243
 7416SOL    HW133881   4.440   2.349   4.062 -0.1286 -1.2822  0.2961
 7416SOL    HW233882   4.550   2.293   3.993  0.2382  0.0097 -1.3285
 7417SOL     OW33883   4.320   1.704   2.513 -0.2541  0.3768 -0.0519
 7417SOL    HW133884   4.294   1.727   2.424  0.0814 -0.0359 -0.2584
 7417SOL    HW233885   4.237   1.727   2.555 -0.7845 -1.9662  0.1916
 7418SOL     OW33886   3.743   1.123   3.151  0.5386  0.1095 -0.3107
 7418SOL    HW133887   3.706   1.202   3.190 -0.5708 -1.3480  1.6078
 7418SOL    HW233888   3.830   1.154   3.128  0.5013 -0.3426 -1.0536
 7419SOL     OW33889   4.153   2.175  16.039 -0.3377 -0.7403  0.0535
 7419SOL    HW133890   4.231   2.225  16.016 -0.4046 -0.1183  1.1558
 7419SOL    HW233891   4.182   2.089  16.007  0.6974  0.2758 -1.7187
 7420SOL     OW33892   2.993   2.802   0.895  0.1541  0.3178 -0.1808
 7420SOL    HW133893   2.929   2.760   0.838 -0.8305  1.4780  0.0830
 7420SOL    HW233894   3.071   2.786   0.841  0.3079 -2.3039  0.7979
 7421SOL     OW33895   2.487   3.433   7.957  0.0060  0.7582  0.0057
 7421SOL    HW133896   2.446   3.346   7.953  0.2957  0.4872  2.8465
 7421SOL    HW233897   2.432   3.492   8.009  0.5135 -0.0388  1.4513
 7422SOL     OW33898   0.481   0.484   8.420  0.2409  0.6928 -0.1990
 7422SOL    HW133899   0.539   0.424   8.466 -2.0344  0.6477  2.6590
 7422SOL    HW233900   0.424   0.519   8.489 -1.7176 -2.8950  0.0324
 7423SOL     OW33901   3.339   3.776   4.537  0.6056 -0.0857  0.0520
 7423SOL    HW133902   3.288   3.774   4.456 -0.1706 -1.4728  0.5767
 7423SOL    HW233903   3.331   3.868   4.561  0.4900 -0.2878  0.7620
 7424SOL     OW33904   0.160   2.780   6.041  0.4054 -0.2977  0.5781
 7424SOL    HW133905   0.191   2.736   5.962 -0.8251 -1.3817  0.6976
 7424SOL    HW233906   0.230   2.775   6.105  0.0803 -1.0258  0.8741
 7425SOL     OW33907   3.865   2.270   8.592  0.2866 -0.1796  0.1036
 7425SOL    HW133908   3.825   2.194   8.635  0.1813  0.3246  0.8985
 7425SOL    HW233909   3.952   2.272   8.631  0.1106 -0.1576  0.5028
 7426SOL     OW33910   0.603   3.784   8.418 -0.0562  0.0146  0.0159
 7426SOL    HW133911   0.608   3.760   8.511 -0.4863  0.6680  0.2098
 7426SOL    HW233912   0.538   3.728   8.376  1.9873 -1.3075 -1.3532
 7427SOL     OW33913   0.778   0.636   5.969 -0.0390  0.0846  0.5756
 7427SOL    HW133914   0.714   0.691   6.013 -1.5623 -1.8889  0.8102
 7427SOL    HW233915   0.732   0.553   5.955 -1.1349  0.8772 -0.4428
 7428SOL     OW33916   4.561   4.475  13.494 -0.1795 -0.6229 -0.3095
 7428SOL    HW133917   4.526   4.512  13.575  0.7281 -0.2200 -0.1000
 7428SOL    HW233918   4.482   4.493  13.442 -1.2118  0.2239  1.5306
 7429SOL     OW33919   2.440   2.244  13.969  0.0124 -0.0670  0.2663
 7429SOL    HW133920   2.530   2.273  13.957  0.1400 -0.7950 -0.5531
 7429SOL    HW233921   2.442   2.150  13.953  1.0292 -0.2756  1.7034
 7430SOL     OW33922   2.236   0.033   5.673 -0.1186  0.7425  0.2198
 7430SOL    HW133923   2.169   0.021   5.740 -0.8623 -1.1514 -0.8718
 7430SOL    HW233924   2.216   0.117   5.631 -0.9426  0.2423 -0.3922
 7431SOL     OW33925   0.686   3.453  17.621 -0.0381 -0.2671  0.2521
 7431SOL    HW133926   0.770   3.475  17.660  0.1137  0.8229 -0.7162
 7431SOL    HW233927   0.707   3.362  17.600  0.9332 -0.2201  1.0188
 7432SOL     OW33928   3.378   4.267   2.613 -0.7332  0.0183 -0.1005
 7432SOL    HW133929   3.311   4.202   2.590 -0.7602  1.4007 -3.9679
 7432SOL    HW233930   3.407   4.233   2.697 -1.0167 -0.1609 -0.0777
 7433SOL     OW33931   0.375   0.556   2.302  0.0357 -0.8772 -0.3439
 7433SOL    HW133932   0.424   0.545   2.220 -0.1455 -0.6603 -0.4829
 7433SOL    HW233933   0.399   0.478   2.352  0.2096 -0.9688 -0.5711
 7434SOL     OW33934   4.262   4.581   5.155 -0.2443 -0.6105 -0.0755
 7434SOL    HW133935   4.338   4.524   5.164 -0.2021 -0.5356  0.0450
 7434SOL    HW233936   4.251   4.568   5.060 -1.6674  0.6037 -0.0714
 7435SOL     OW33937   3.127   4.191   6.523 -0.1753 -0.1810 -0.0461
 7435SOL    HW133938   3.064   4.262   6.514  0.8040  0.7844  0.7457
 7435SOL    HW233939   3.201   4.217   6.467 -1.4368 -2.2508 -2.6887
 7436SOL     OW33940   0.517   0.907  12.842  0.0208 -0.6629 -0.0061
 7436SOL    HW133941   0.551   0.839  12.783  2.7494  0.4025  0.3628
 7436SOL    HW233942   0.584   0.974  12.829  1.0873 -1.6365  0.5682
 7437SOL     OW33943   0.878   2.426   2.956 -0.2672 -0.8067 -0.2258
 7437SOL    HW133944   0.804   2.486   2.952 -0.1898 -0.8626 -2.3860
 7437SOL    HW233945   0.872   2.407   3.050  0.7052  1.7375  0.3627
 7438SOL     OW33946   4.394   0.729   9.209  0.6497 -0.0881 -0.5628
 7438SOL    HW133947   4.486   0.758   9.212 -0.4470  3.3821  0.0134
 7438SOL    HW233948   4.407   0.635   9.203 -0.4844 -0.2839  0.3169
 7439SOL     OW33949   4.089   1.599  15.689 -0.0600  0.1922  0.3091
 7439SOL    HW133950   4.170   1.611  15.738  2.3930 -2.6145 -3.0216
 7439SOL    HW233951   4.042   1.681  15.700  0.5401  0.5821 -0.0468
 7440SOL     OW33952   4.663   3.866   8.188 -0.5884  0.0239  0.1894
 7440SOL    HW133953   4.626   3.953   8.207  0.5128  0.3672  0.7809
 7440SOL    HW233954   4.644   3.865   8.094  0.3861 -3.7032  0.0294
 7441SOL     OW33955   3.784   3.492  12.572 -0.1297 -0.1235 -0.5715
 7441SOL    HW133956   3.755   3.435  12.643  0.0644  1.7232  0.9706
 7441SOL    HW233957   3.843   3.545  12.626  0.9933 -1.4569 -0.4919
 7442SOL     OW33958   1.231   1.117   4.217 -0.0574  0.1936 -0.0687
 7442SOL    HW133959   1.301   1.167   4.259 -0.6712 -0.4284  1.6918
 7442SOL    HW233960   1.279   1.097   4.137 -2.0816  0.0651 -1.2686
 7443SOL     OW33961   4.536   3.979   5.038 -0.0211  0.2901  0.1187
 7443SOL    HW133962   4.474   3.955   5.106 -0.0094 -0.0403  0.0158
 7443SOL    HW233963   4.607   3.914   5.041 -1.1102 -0.8719  0.7527
 7444SOL     OW33964   2.610   1.601   5.596 -0.1745  0.4756 -0.4218
 7444SOL    HW133965   2.694   1.642   5.576  0.9702 -1.6080  0.0420
 7444SOL    HW233966   2.582   1.660   5.666  0.3012  0.0149  0.1553
 7445SOL     OW33967   2.930   3.581   3.593 -0.1145  0.2988  0.0399
 7445SOL    HW133968   2.956   3.521   3.663  1.2103  2.8010  1.7141
 7445SOL    HW233969   2.838   3.557   3.598 -0.0515  0.5212  2.0891
 7446SOL     OW33970   0.448   1.460   5.082 -0.1579 -0.2424 -0.1645
 7446SOL    HW133971   0.378   1.416   5.130  0.8889 -0.4545  1.1429
 7446SOL    HW233972   0.424   1.444   4.991  2.3141  0.0607 -0.8730
 7447SOL     OW33973   4.305   1.133   1.860  0.1081 -0.3751  0.1903
 7447SOL    HW133974   4.377   1.150   1.920  0.5202  0.8007 -0.6377
 7447SOL    HW233975   4.286   1.039   1.868 -0.9009 -0.2586 -0.8835
 7448SOL     OW33976   0.837   4.520   7.854 -0.1777  0.0668 -0.2172
 7448SOL    HW133977   0.846   4.571   7.934 -0.9133  2.4838 -1.6593
 7448SOL    HW233978   0.762   4.464   7.873  0.5644  0.1530  2.9102
 7449SOL     OW33979   0.151   0.849   6.221  0.8734 -0.1269  0.0007
 7449SOL    HW133980   0.125   0.847   6.313  0.7699 -1.2366 -0.0554
 7449SOL    HW233981   0.234   0.894   6.232  1.1639 -1.1554  1.9258
 7450SOL     OW33982   3.609   4.356   3.535 -0.3198  0.1630 -0.0390
 7450SOL    HW133983   3.622   4.356   3.629  1.6994 -0.6821 -0.3108
 7450SOL    HW233984   3.699   4.350   3.501 -0.8311 -0.2991 -1.3299
 7451SOL     OW33985   3.652   0.767   0.721  0.3945 -0.4374 -0.2606
 7451SOL    HW133986   3.597   0.783   0.645  0.5828 -2.3203 -0.7859
 7451SOL    HW233987   3.674   0.674   0.712 -1.7061 -0.9494 -0.1510
 7452SOL     OW33988   3.724   3.593  12.321 -0.5630  0.1026  0.1467
 7452SOL    HW133989   3.735   3.556  12.409 -1.4757  1.7940  0.9746
 7452SOL    HW233990   3.783   3.669  12.319  0.7760 -0.9725 -1.1014
 7453SOL     OW33991   2.044   0.996   5.519  0.4420 -0.2784 -0.0517
 7453SOL    HW133992   2.060   0.902   5.531  0.3094 -0.4433 -1.2017
 7453SOL    HW233993   1.961   1.003   5.471  0.1395 -1.1173  0.3267
 7454SOL     OW33994   1.022   1.128  16.421 -0.4258 -0.0659  0.1831
 7454SOL    HW133995   1.050   1.074  16.347  0.0136  1.0259 -0.4420
 7454SOL    HW233996   0.943   1.076  16.440 -0.9762  1.2368  1.4356
 7455SOL     OW33997   2.158   2.454   7.871  0.6444  0.0477 -0.4287
 7455SOL    HW133998   2.116   2.505   7.940  0.5146  0.0124 -0.4827
 7455SOL    HW233999   2.245   2.494   7.861  1.5438 -1.2045  2.2901
 7456SOL     OW34000   4.479   2.268   2.639 -0.0848  0.0991 -0.1352
 7456SOL    HW134001   4.464   2.307   2.553  2.1794 -0.3191 -0.7227
 7456SOL    HW234002   4.408   2.203   2.643  0.2040 -0.1301  1.2039
 7457SOL     OW34003   3.898   0.945   2.480  0.8562 -0.2905 -0.1499
 7457SOL    HW134004   3.805   0.969   2.481  1.0539  0.4481  0.5496
 7457SOL    HW234005   3.894   0.851   2.500  0.4203 -0.3881 -0.6990
 7458SOL     OW34006   4.735   1.059   9.990  0.5239  0.3361 -0.4661
 7458SOL    HW134007   4.671   0.989  10.000 -1.5225  1.9523 -2.4395
 7458SOL    HW234008   0.079   1.009   9.987  1.3500  1.4651  3.0451
 7459SOL     OW34009   2.456   4.229   5.176 -0.5554 -0.0664  0.2979
 7459SOL    HW134010   2.418   4.142   5.167 -0.0145 -0.3337  0.5639
 7459SOL    HW234011   2.507   4.218   5.257 -0.8349  0.8130  0.5925
 7460SOL     OW34012   1.924   0.146   8.472  0.4356 -0.0122  0.3175
 7460SOL    HW134013   1.898   0.235   8.498 -1.0693 -0.3431 -0.0404
 7460SOL    HW234014   1.976   0.124   8.549 -0.6884  0.4817  1.2210
 7461SOL     OW34015   1.068   3.271   0.973  0.5132  0.2424  0.0209
 7461SOL    HW134016   0.985   3.285   1.018 -0.7489  0.2784 -2.3554
 7461SOL    HW234017   1.123   3.316   1.037 -0.9125  0.7462  0.8828
 7462SOL     OW34018   0.478   3.041   4.117  0.1961 -0.2420  0.7954
 7462SOL    HW134019   0.421   2.968   4.141 -1.2274  0.0277 -1.7841
 7462SOL    HW234020   0.444   3.112   4.172  0.5994 -0.2618  1.0685
 7463SOL     OW34021   3.996   1.350   8.170 -0.5541  0.1603 -0.0589
 7463SOL    HW134022   3.942   1.351   8.091 -0.9922 -0.2626  0.2348
 7463SOL    HW234023   4.076   1.324   8.125 -0.0431 -1.0448  1.5457
 7464SOL     OW34024   4.613   2.738   4.737 -0.1476 -0.1189  0.2011
 7464SOL    HW134025   4.532   2.751   4.687 -0.6957 -1.5931  0.7132
 7464SOL    HW234026   4.616   2.823   4.781  1.4181  0.8501 -1.7599
 7465SOL     OW34027   0.101   3.235   8.473 -0.0979 -0.2873 -0.2587
 7465SOL    HW134028   0.007   3.224   8.481 -0.4136  0.8146 -2.5478
 7465SOL    HW234029   0.113   3.271   8.561  1.2228 -1.0168 -0.1248
 7466SOL     OW34030   1.177   1.711   6.067  0.2644  0.5909 -0.9719
 7466SOL    HW134031   1.101   1.768   6.065 -0.6992 -0.6403  0.5864
 7466SOL    HW234032   1.147   1.638   6.013  0.2134 -2.3150  2.9429
 7467SOL     OW34033   3.977   3.710   9.379 -0.2596  0.0717 -0.1093
 7467SOL    HW134034   3.885   3.728   9.359 -0.4225 -1.6552 -0.8721
 7467SOL    HW234035   3.976   3.625   9.424  0.3227 -0.8543 -1.8534
 7468SOL     OW34036   2.742   1.798  14.531 -0.0896 -0.1410 -0.4554
 7468SOL    HW134037   2.710   1.833  14.614 -1.1941  1.4908 -1.5665
 7468SOL    HW234038   2.715   1.706  14.528 -1.7815  0.4070 -2.0931
 7469SOL     OW34039   0.554   3.654  10.927  0.4086 -0.3612  0.1509
 7469SOL    HW134040   0.576   3.681  11.015  0.3285 -0.1308  0.1009
 7469SOL    HW234041   0.592   3.725  10.874  0.1492  0.1161  0.6085
 7470SOL     OW34042   4.489   0.048   3.415 -0.2032 -0.3398 -0.6514
 7470SOL    HW134043   4.574   0.091   3.409  0.8243 -1.7347  3.6855
 7470SOL    HW234044   4.444   0.122   3.455 -1.3507 -0.7790 -1.1366
 7471SOL     OW34045   0.783   2.281   2.207  0.0800  0.4149 -0.7188
 7471SOL    HW134046   0.707   2.319   2.251  1.0154 -0.2420  1.4623
 7471SOL    HW234047   0.752   2.197   2.171  0.0145 -0.1856  0.7375
 7472SOL     OW34048   0.107   1.598  12.766  0.2312  0.2074 -0.5303
 7472SOL    HW134049   0.057   1.583  12.686 -1.2205  1.4640  0.1309
 7472SOL    HW234050   0.194   1.601  12.727 -0.6808  2.6695 -2.3153
 7473SOL     OW34051   1.971   4.240  11.818  0.5818  0.2143 -0.5301
 7473SOL    HW134052   1.892   4.227  11.871  0.2582 -0.3573 -1.1440
 7473SOL    HW234053   2.006   4.325  11.845  2.2584 -0.2382 -1.3128
 7474SOL     OW34054   2.703   2.989   5.556 -0.0755  0.7441  0.2792
 7474SOL    HW134055   2.698   2.899   5.589  0.6090 -0.0126 -1.7136
 7474SOL    HW234056   2.756   2.967   5.480  0.3238  2.0846  0.1594
 7475SOL     OW34057   0.889   4.547   3.235  0.3345 -0.0418  0.2262
 7475SOL    HW134058   0.864   4.609   3.166  1.6432 -0.9335 -1.0469
 7475SOL    HW234059   0.890   4.463   3.190 -1.9000 -0.1116  0.2786
 7476SOL     OW34060   1.770   1.805   6.326 -0.4045 -0.2261 -0.7896
 7476SOL    HW134061   1.720   1.737   6.371  1.3085 -0.7147  0.3420
 7476SOL    HW234062   1.760   1.876   6.389  1.9423 -0.8861  0.3029
 7477SOL     OW34063   2.179   3.196  10.887 -0.0921  0.1375 -0.2162
 7477SOL    HW134064   2.139   3.152  10.812  0.8430 -3.4233  1.3428
 7477SOL    HW234065   2.094   3.220  10.923  0.0712  1.3721 -0.6567
 7478SOL     OW34066   2.321   3.275  16.778  0.0435  0.9958 -0.1840
 7478SOL    HW134067   2.301   3.184  16.802 -0.3473  1.0918 -0.1377
 7478SOL    HW234068   2.379   3.306  16.847  0.6167 -0.3396 -0.0661
 7479SOL     OW34069   1.461   0.290   2.353  0.4599  0.0701  0.4945
 7479SOL    HW134070   1.431   0.271   2.264 -2.3427 -1.8701  1.8536
 7479SOL    HW234071   1.430   0.379   2.365  0.8511  0.1823  0.6682
 7480SOL     OW34072   2.876   4.050   7.377 -0.3272 -0.5783  0.0061
 7480SOL    HW134073   2.916   4.112   7.437 -1.0504 -0.0991  0.0008
 7480SOL    HW234074   2.786   4.083   7.374  0.3742  1.5265  2.2178
 7481SOL     OW34075   2.879   2.233  10.243 -0.7357 -0.0892 -0.2128
 7481SOL    HW134076   2.944   2.280  10.192 -0.5201  1.1182  1.1959
 7481SOL    HW234077   2.806   2.253  10.184 -0.9412 -0.9297 -0.2435
 7482SOL     OW34078   0.664   4.664   6.677  0.0618  0.0843 -0.3113
 7482SOL    HW134079   0.734   4.723   6.705 -0.7024  0.9199 -0.1809
 7482SOL    HW234080   0.660   4.597   6.746  1.7858  0.8837  0.5779
 7483SOL     OW34081   0.903   3.172  16.299 -0.0941  0.7000 -0.7383
 7483SOL    HW134082   0.866   3.221  16.373 -0.9231 -2.1054  0.7230
 7483SOL    HW234083   0.934   3.237  16.237 -0.1037 -0.5142 -2.0241
 7484SOL     OW34084   1.555   2.512   6.004  0.5783 -0.4351  0.7095
 7484SOL    HW134085   1.477   2.461   5.982  0.2791  1.2781 -2.0872
 7484SOL    HW234086   1.521   2.569   6.073  0.5400  0.5530 -0.1208
 7485SOL     OW34087   0.724   3.723  14.623  0.3137 -0.2376 -0.1226
 7485SOL    HW134088   0.691   3.788  14.561 -0.0200 -0.7053 -0.4246
 7485SOL    HW234089   0.734   3.646  14.568 -0.1137  0.5664 -1.3321
 7486SOL     OW34090   0.167   0.014   8.572  0.4288  0.0924  0.0368
 7486SOL    HW134091   0.151   0.071   8.647 -1.3446 -0.4171  0.0305
 7486SOL    HW234092   0.239   0.061   8.531  0.0060  3.4889  3.2435
 7487SOL     OW34093   2.695   2.620   2.056  0.1521  0.0500  0.0659
 7487SOL    HW134094   2.701   2.705   2.012 -0.7108  0.1149  0.0713
 7487SOL    HW234095   2.639   2.654   2.126 -0.5363 -1.0463  0.0464
 7488SOL     OW34096   3.065   2.982   0.602  0.2822 -0.3976 -0.2864
 7488SOL    HW134097   3.054   3.033   0.682  4.2045 -1.7705  1.0892
 7488SOL    HW234098   3.127   2.915   0.631  0.1303 -0.7761 -0.8346
 7489SOL     OW34099   3.197   0.970   6.519  0.2260  0.2853  0.2190
 7489SOL    HW134100   3.198   1.064   6.501  0.2528  0.1328 -0.5859
 7489SOL    HW234101   3.142   0.932   6.450  1.5876 -1.3157  0.0248
 7490SOL     OW34102   0.067   4.369   9.104 -1.0161  0.5060 -0.0311
 7490SOL    HW134103   0.136   4.332   9.159 -0.9505  1.0577  0.2572
 7490SOL    HW234104   4.729   4.364   9.162 -1.3377  1.3077 -0.3723
 7491SOL     OW34105   3.105   0.230   3.795  0.7296 -0.2315  0.2972
 7491SOL    HW134106   3.038   0.262   3.735  0.2605 -0.2295  0.8202
 7491SOL    HW234107   3.064   0.148   3.821 -1.3792  0.8802  0.4773
 7492SOL     OW34108   4.126   3.223   1.277 -0.3519  0.6032 -0.1264
 7492SOL    HW134109   4.146   3.152   1.216 -0.6540  0.5923 -0.2104
 7492SOL    HW234110   4.209   3.232   1.325  0.3927 -1.5130 -1.0297
 7493SOL     OW34111   3.909   4.482  13.072 -0.0520  0.6020  0.5998
 7493SOL    HW134112   3.988   4.521  13.035  0.6872  0.5154  2.0870
 7493SOL    HW234113   3.956   4.411  13.117 -1.7367 -1.3172 -0.7052
 7494SOL     OW34114   3.460   0.076   9.536 -0.0271 -0.3493  0.1864
 7494SOL    HW134115   3.508   4.735   9.510  0.6900 -0.0333  0.5830
 7494SOL    HW234116   3.510   0.095   9.615 -2.3540  2.1501  1.0798
 7495SOL     OW34117   2.215   4.297   5.782 -0.0650 -0.5654  0.5039
 7495SOL    HW134118   2.223   4.201   5.774 -2.3476 -0.6945 -0.2258
 7495SOL    HW234119   2.291   4.315   5.727  0.9310 -2.9213  1.0930
 7496SOL     OW34120   0.918   2.016   9.123  0.5013  0.2770 -0.1773
 7496SOL    HW134121   0.827   2.039   9.139  0.7344  0.8342  0.3549
 7496SOL    HW234122   0.948   2.019   9.214 -1.4642  0.4360  0.4485
 7497SOL     OW34123   3.079   2.705  14.694  0.2618  0.0814 -0.6657
 7497SOL    HW134124   3.028   2.775  14.654 -1.0529 -0.9572 -0.8130
 7497SOL    HW234125   3.074   2.745  14.780 -2.6127  0.4854 -1.0137
 7498SOL     OW34126   2.803   1.500  15.245  0.1068 -0.2942 -0.7763
 7498SOL    HW134127   2.743   1.568  15.215 -1.2009 -0.8819  0.5161
 7498SOL    HW234128   2.779   1.505  15.337  1.0916  1.4393 -0.5990
 7499SOL     OW34129   0.727   0.826   5.774 -0.0617  0.2199  0.4728
 7499SOL    HW134130   0.760   0.809   5.686 -1.1740 -1.8923  0.4754
 7499SOL    HW234131   0.723   0.740   5.814 -0.0059 -0.6521 -1.4219
 7500SOL     OW34132   0.009   3.229   6.910 -0.5541 -0.5445  0.3513
 7500SOL    HW134133   4.667   3.255   6.956 -0.3172 -2.0747  1.6390
 7500SOL    HW234134   0.073   3.284   6.957 -0.7498  1.4149 -1.6907
 7501SOL     OW34135   2.932   2.597  10.051  0.0620  0.1406 -0.3215
 7501SOL    HW134136   2.906   2.683  10.016  2.9836  0.4557 -1.7937
 7501SOL    HW234137   2.881   2.601  10.132  0.3099  0.3715 -0.1748
 7502SOL     OW34138   2.816   3.412  10.722  0.4731  0.0392 -0.0203
 7502SOL    HW134139   2.777   3.489  10.765  0.0021 -0.3083  0.1777
 7502SOL    HW234140   2.848   3.441  10.637  0.4417  0.6949  0.1906
 7503SOL     OW34141   3.662   0.064   8.438  0.0919  0.5823  0.1074
 7503SOL    HW134142   3.713   4.726   8.469  2.1937  1.8903 -0.1848
 7503SOL    HW234143   3.602   0.080   8.511 -0.0859  0.5676 -0.0328
 7504SOL     OW34144   3.700   3.214   5.743 -0.1692 -0.1745 -0.5316
 7504SOL    HW134145   3.695   3.307   5.720  3.3549  0.9071  3.0066
 7504SOL    HW234146   3.792   3.190   5.730  0.0126  0.4568 -0.4418
 7505SOL     OW34147   4.709   2.862   8.727  0.1353 -0.0010 -0.1350
 7505SOL    HW134148   4.632   2.897   8.771 -1.5428 -1.7103 -1.7123
 7505SOL    HW234149   0.036   2.861   8.798  1.2711  0.2034 -1.1709
 7506SOL     OW34150   3.445   0.285   0.269  0.4721  0.5336 -0.8878
 7506SOL    HW134151   3.484   0.341   0.336  1.7804 -0.2216 -1.0251
 7506SOL    HW234152   3.358   0.272   0.306  2.6279  0.7095  4.1943
 7507SOL     OW34153   2.502   3.885  17.605 -0.3475 -0.5495  0.2389
 7507SOL    HW134154   2.519   3.964  17.553 -0.3756  1.0466  2.6396
 7507SOL    HW234155   2.525   3.820  17.539 -0.1793  2.1277 -2.3281
 7508SOL     OW34156   3.361   4.172   2.921 -0.1874  0.4062  0.8176
 7508SOL    HW134157   3.414   4.149   2.997  0.1367  1.0390  0.7817
 7508SOL    HW234158   3.282   4.122   2.939  0.3455 -0.3817  0.9747
 7509SOL     OW34159   3.690   2.043  12.065 -0.2102 -0.5203 -0.0771
 7509SOL    HW134160   3.651   2.082  12.143  0.4455  2.0593 -1.0253
 7509SOL    HW234161   3.735   1.971  12.108 -0.3230  0.7282  2.1271
 7510SOL     OW34162   2.314   3.603   6.370 -0.7222 -0.2084 -0.4466
 7510SOL    HW134163   2.225   3.628   6.344 -0.7926 -0.5833 -0.5617
 7510SOL    HW234164   2.351   3.611   6.282 -0.7625 -2.1702 -0.6476
 7511SOL     OW34165   0.282   1.721  16.332 -0.0826  0.4783 -0.0126
 7511SOL    HW134166   0.329   1.789  16.283  0.1473  1.3851  1.4658
 7511SOL    HW234167   0.214   1.701  16.267  0.7471  1.7737 -1.2880
 7512SOL     OW34168   4.128   3.509   6.437 -0.2161 -0.4659  0.2207
 7512SOL    HW134169   4.210   3.460   6.444 -0.1781 -0.2687  1.1480
 7512SOL    HW234170   4.114   3.530   6.345  0.1924  0.2690  0.3240
 7513SOL     OW34171   0.160   4.065   9.182 -0.1305  0.4895  0.2020
 7513SOL    HW134172   0.171   3.978   9.222  1.4935  1.4291  1.7607
 7513SOL    HW234173   0.104   4.112   9.243 -1.2112 -1.0659  0.4329
 7514SOL     OW34174   4.176   2.066   3.270 -0.2027  0.7418 -0.1977
 7514SOL    HW134175   4.150   1.981   3.305  0.8247  1.2054  1.7066
 7514SOL    HW234176   4.096   2.106   3.236 -1.5450 -1.2011  0.6368
 7515SOL     OW34177   3.083   3.034   4.972  0.0323 -0.2331 -0.9612
 7515SOL    HW134178   3.011   3.073   5.021  0.5654 -1.5909  0.8866
 7515SOL    HW234179   3.143   3.106   4.989 -0.7608 -0.0783  1.1591
 7516SOL     OW34180   0.012   1.227   2.494 -0.1368  0.3110 -0.0678
 7516SOL    HW134181   4.724   1.319   2.504 -1.4444  0.2097 -2.3065
 7516SOL    HW234182   0.092   1.227   2.546 -0.0124 -0.0563 -0.2575
 7517SOL     OW34183   4.339   2.913   5.594 -0.6325  0.0816  0.6733
 7517SOL    HW134184   4.289   2.979   5.642 -1.3933  0.2875 -0.4245
 7517SOL    HW234185   4.428   2.947   5.606 -0.3528  0.6033 -2.9977
 7518SOL     OW34186   3.380   0.568  16.942 -0.4305  0.3784  0.7861
 7518SOL    HW134187   3.348   0.655  16.965 -2.1955  0.2746 -1.3019
 7518SOL    HW234188   3.410   0.587  16.853 -1.2635 -3.8865 -0.3889
 7519SOL     OW34189   3.237   2.279  10.373  0.0763 -0.1592 -0.0271
 7519SOL    HW134190   3.176   2.233  10.315 -2.4317  1.4986  1.2499
 7519SOL    HW234191   3.311   2.285  10.313 -0.7459 -1.3796 -1.1544
 7520SOL     OW34192   2.203   1.339   2.676  0.1521 -0.1125 -0.2808
 7520SOL    HW134193   2.168   1.384   2.598 -0.2664  0.6257  0.3280
 7520SOL    HW234194   2.118   1.318   2.713 -0.3813  3.0196  0.3109
 7521SOL     OW34195   3.214   2.853   4.262 -0.8005  0.0317 -0.1908
 7521SOL    HW134196   3.163   2.930   4.235 -1.5022 -0.7249 -1.0039
 7521SOL    HW234197   3.162   2.776   4.241 -0.7640  0.2780 -1.1957
 7522SOL     OW34198   2.927   4.017  12.381 -0.6403 -0.1358  0.4555
 7522SOL    HW134199   2.986   3.968  12.438 -0.8372  0.2082  0.9570
 7522SOL    HW234200   2.957   4.107  12.393 -1.3635 -0.0211  1.3492
 7523SOL     OW34201   0.715   3.829   0.526  0.2214 -0.4976  0.5030
 7523SOL    HW134202   0.733   3.863   0.438  1.4050  0.6105  1.1680
 7523SOL    HW234203   0.740   3.736   0.522 -1.3125 -0.8227 -1.5618
 7524SOL     OW34204   0.515   2.837   0.190 -0.6067 -0.1562 -0.3697
 7524SOL    HW134205   0.587   2.777   0.171  0.2381  0.3581  1.2588
 7524SOL    HW234206   0.524   2.917   0.138  0.1238 -0.6065 -0.9381
 7525SOL     OW34207   3.282   2.719  15.531 -0.2698 -0.0193  0.0018
 7525SOL    HW134208   3.231   2.645  15.565  0.5575 -0.1871  0.8830
 7525SOL    HW234209   3.281   2.785  15.600 -2.1171  1.0565 -1.0594
 7526SOL     OW34210   0.421   2.059   2.623 -0.4447 -0.0835  0.3498
 7526SOL    HW134211   0.446   2.105   2.543  0.2997 -1.7009 -0.3504
 7526SOL    HW234212   0.451   1.973   2.594  1.6019  0.0877  2.0136
 7527SOL     OW34213   4.477   2.956   2.092  0.3229  0.1485 -0.1053
 7527SOL    HW134214   4.537   2.897   2.138  0.3069 -0.0372 -0.3283
 7527SOL    HW234215   4.451   3.007   2.169  1.8851 -1.0283  1.2204
 7528SOL     OW34216   3.521   2.121  12.291  0.5897 -0.1265  0.2854
 7528SOL    HW134217   3.530   2.191  12.356 -1.6954  0.1786  0.2844
 7528SOL    HW234218   3.475   2.057  12.346  1.0641 -0.2488  0.5449
 7529SOL     OW34219   4.709   4.079   9.639 -0.6722 -0.2476  0.0171
 7529SOL    HW134220   4.708   4.173   9.655  0.0463 -0.0824 -0.9301
 7529SOL    HW234221   4.699   4.051   9.731  0.3204  2.1979  0.8649
 7530SOL     OW34222   2.167   0.044   1.597 -0.6080 -0.2666  0.0592
 7530SOL    HW134223   2.240   4.722   1.584  0.5417  0.8367  1.4457
 7530SOL    HW234224   2.211   0.119   1.637 -0.0400 -0.8975  0.6150
 7531SOL     OW34225   2.462   0.462   6.090 -0.3784  0.0223 -0.0636
 7531SOL    HW134226   2.428   0.373   6.102 -0.1337 -0.0815 -0.1202
 7531SOL    HW234227   2.526   0.470   6.161 -1.5455  0.2578  0.9484
 7532SOL     OW34228   0.607   2.553   2.011 -0.3123 -0.4921 -0.2705
 7532SOL    HW134229   0.627   2.622   1.948  0.7983 -0.0137  0.6022
 7532SOL    HW234230   0.564   2.613   2.072  0.4894  2.2783 -2.4511
 7533SOL     OW34231   4.063   2.394   1.728 -0.4210  0.2063 -0.4046
 7533SOL    HW134232   4.131   2.462   1.729 -0.3386  0.1534 -3.8272
 7533SOL    HW234233   4.037   2.402   1.636  0.7094 -1.5236 -0.8584
 7534SOL     OW34234   1.935   4.084   2.940  0.0341 -0.2732  0.2234
 7534SOL    HW134235   1.913   4.132   3.020 -0.3596  0.2418 -0.1942
 7534SOL    HW234236   1.874   4.011   2.956  1.3511 -1.6042 -0.8300
 7535SOL     OW34237   2.478   0.154   2.239  0.7376 -0.4576  0.2318
 7535SOL    HW134238   2.546   0.110   2.290 -1.2803 -1.9307  1.6871
 7535SOL    HW234239   2.525   0.220   2.189  2.7802 -0.1827  2.5069
 7536SOL     OW34240   0.667   4.157   9.556 -0.2638  0.3621  0.0552
 7536SOL    HW134241   0.722   4.225   9.593  0.8836 -0.1384 -0.7386
 7536SOL    HW234242   0.718   4.125   9.481 -1.4634 -5.0394  1.5462
 7537SOL     OW34243   4.474   3.343  17.436  0.5815  0.4535 -0.2672
 7537SOL    HW134244   4.500   3.277  17.371  0.4242  0.4220 -0.2975
 7537SOL    HW234245   4.470   3.292  17.518  0.7020 -2.1570 -1.8770
 7538SOL     OW34246   1.083   3.265   0.010  0.2893  0.0262 -0.1673
 7538SOL    HW134247   0.994   3.237   0.029  0.4399 -0.6756 -0.4781
 7538SOL    HW234248   1.132   3.191  17.722 -0.4806  0.3024 -1.7661
 7539SOL     OW34249   0.862   0.478   5.343  0.4504 -0.3531  0.2641
 7539SOL    HW134250   0.892   0.435   5.264  0.1264  0.7476 -0.4565
 7539SOL    HW234251   0.784   0.528   5.321  0.3458 -1.2381 -1.3100
 7540SOL     OW34252   0.126   2.052   4.960 -0.5591 -0.2496  0.3125
 7540SOL    HW134253   0.130   1.958   4.943 -2.9562 -0.4287  0.8046
 7540SOL    HW234254   0.108   2.057   5.054 -4.5309 -1.7097 -0.3820
 7541SOL     OW34255   2.335   3.695  13.752 -0.0573 -0.5298 -0.0301
 7541SOL    HW134256   2.245   3.665  13.762  0.0537 -1.0888 -0.6926
 7541SOL    HW234257   2.321   3.785  13.781 -2.0496 -0.6573 -0.5955
 7542SOL     OW34258   1.693   3.522  11.931 -0.3551 -0.0959  0.4816
 7542SOL    HW134259   1.612   3.546  11.886  0.3430  0.1439 -0.6459
 7542SOL    HW234260   1.659   3.473  12.006  0.5885  2.2755  2.4563
 7543SOL     OW34261   0.959   0.488   3.940 -0.0197  0.6160 -0.7117
 7543SOL    HW134262   0.991   0.564   3.988 -0.6398 -0.0580  0.7928
 7543SOL    HW234263   1.042   0.443   3.928 -0.4613 -1.6446  4.7224
 7544SOL     OW34264   0.968   3.485   5.300 -0.1958 -0.3188  0.4666
 7544SOL    HW134265   0.987   3.447   5.385 -0.7214 -1.5179  0.0423
 7544SOL    HW234266   0.975   3.578   5.321 -1.3230  0.2081 -1.4338
 7545SOL     OW34267   4.690   0.575   6.731 -0.3657  0.2899  0.0506
 7545SOL    HW134268   0.015   0.648   6.726  0.7768 -0.6777  0.0430
 7545SOL    HW234269   4.721   0.510   6.667  0.7246 -0.6785  1.5377
 7546SOL     OW34270   4.509   0.827   7.696 -0.8445 -0.3524 -0.2773
 7546SOL    HW134271   4.491   0.779   7.777  2.5246 -1.2704 -0.0926
 7546SOL    HW234272   4.443   0.806   7.629 -0.5939  1.5143 -1.0872
 7547SOL     OW34273   1.923   2.826   4.491  0.2782  0.2266  0.1891
 7547SOL    HW134274   2.010   2.867   4.491  0.2303  0.3268  0.1332
 7547SOL    HW234275   1.909   2.811   4.584  5.1378 -0.3644  0.8443
 7548SOL     OW34276   2.610   0.648  15.731  0.2768 -0.0953  0.5122
 7548SOL    HW134277   2.539   0.701  15.695  1.2815  1.5289  0.9477
 7548SOL    HW234278   2.675   0.661  15.661 -0.6356  0.8880 -0.1536
 7549SOL     OW34279   1.952   1.572   9.283  0.3234 -0.0824  0.0418
 7549SOL    HW134280   1.886   1.510   9.315  3.4779 -1.1677  4.5242
 7549SOL    HW234281   2.018   1.567   9.352 -0.8451  1.7251  1.2836
 7550SOL     OW34282   3.707   1.420   5.633  0.4559  0.0619  0.4564
 7550SOL    HW134283   3.741   1.478   5.565  1.1287 -0.6955  0.1392
 7550SOL    HW234284   3.712   1.340   5.581 -0.8578  0.6959 -0.6065
 7551SOL     OW34285   1.310   1.352   2.664 -0.3450 -0.1761 -0.2019
 7551SOL    HW134286   1.218   1.323   2.661 -0.2903 -0.4583  0.9303
 7551SOL    HW234287   1.349   1.301   2.593 -1.3946 -0.7038 -0.4047
 7552SOL     OW34288   4.504   2.472   7.234 -0.8222 -0.2771  0.3352
 7552SOL    HW134289   4.507   2.560   7.197  2.5292  0.8485  3.2126
 7552SOL    HW234290   4.421   2.438   7.202 -1.3298  0.3075  1.0266
 7553SOL     OW34291   1.238   3.866   9.324 -0.0010 -0.4973  0.1160
 7553SOL    HW134292   1.299   3.856   9.397 -0.6273 -0.8431  0.5910
 7553SOL    HW234293   1.272   3.939   9.273 -2.3409  0.7760  0.3966
 7554SOL     OW34294   2.768   4.584  15.947 -0.7598 -0.5073  0.4511
 7554SOL    HW134295   2.814   4.601  15.865 -0.2428  1.4854  1.1327
 7554SOL    HW234296   2.844   4.576  16.006 -1.3184  1.2440  1.4197
 7555SOL     OW34297   1.845   0.503   6.947  0.0434  0.1693 -0.3186
 7555SOL    HW134298   1.839   0.418   6.905 -0.8313 -1.3719  2.9059
 7555SOL    HW234299   1.866   0.480   7.038  0.5848  0.8361 -0.2719
 7556SOL     OW34300   2.526   2.401  10.891 -0.2661 -0.4340 -0.9828
 7556SOL    HW134301   2.581   2.328  10.862  0.4147  0.0937 -1.0066
 7556SOL    HW234302   2.591   2.470  10.878 -0.1040 -0.6185 -1.1544
 7557SOL     OW34303   1.004   2.337   9.434  0.2886  0.0251 -0.0164
 7557SOL    HW134304   0.953   2.362   9.357  0.2317 -0.8918 -0.2777
 7557SOL    HW234305   0.933   2.326   9.496 -0.0330  0.4489 -0.3147
 7558SOL     OW34306   4.654   1.924   5.586  0.3190 -0.2057 -0.2146
 7558SOL    HW134307   4.706   1.980   5.644 -1.0342  1.3523 -0.5026
 7558SOL    HW234308   4.633   1.981   5.512 -0.5394  0.6688  0.6940
 7559SOL     OW34309   2.682   2.489   5.194 -0.5417 -0.1112  0.8455
 7559SOL    HW134310   2.709   2.423   5.258  1.4710  0.0756  0.1959
 7559SOL    HW234311   2.600   2.515   5.234 -0.9791  2.4237 -1.7216
 7560SOL     OW34312   2.838   0.687   0.581  0.3973  0.0931 -0.2827
 7560SOL    HW134313   2.776   0.677   0.509  1.1354  0.3865 -0.9717
 7560SOL    HW234314   2.778   0.741   0.632  2.6791  2.8021 -0.4116
 7561SOL     OW34315   2.708   3.914   3.397 -0.9366  0.0957 -0.1866
 7561SOL    HW134316   2.800   3.941   3.389 -0.5112 -0.8537  1.5082
 7561SOL    HW234317   2.694   3.863   3.477 -0.4271 -0.3576 -0.3833
 7562SOL     OW34318   0.638   0.473   6.712 -0.2754 -0.3282 -0.2949
 7562SOL    HW134319   0.716   0.516   6.746 -0.1825 -1.2987  0.7275
 7562SOL    HW234320   0.571   0.487   6.779 -0.1987 -1.3427  0.0034
 7563SOL     OW34321   2.324   2.668  12.242 -0.0100  0.3437  0.2010
 7563SOL    HW134322   2.396   2.639  12.299 -0.9912 -1.8943  0.2975
 7563SOL    HW234323   2.382   2.688  12.169  0.5631  1.3391  0.9312
 7564SOL     OW34324   2.441   4.130   7.552 -0.0177  0.1771 -0.0334
 7564SOL    HW134325   2.410   4.121   7.642  0.9881  1.2615  0.4380
 7564SOL    HW234326   2.374   4.185   7.510  2.0984  3.4540  0.8585
 7565SOL     OW34327   1.132   0.609   2.286  0.1006 -0.2076 -0.1632
 7565SOL    HW134328   1.050   0.570   2.256  0.0181  0.6112 -0.9943
 7565SOL    HW234329   1.151   0.542   2.351  0.4368  0.8799  0.8547
 7566SOL     OW34330   1.246   2.188   2.980 -0.3669  0.0689 -0.2891
 7566SOL    HW134331   1.335   2.173   2.948 -0.3722 -1.3424  0.3226
 7566SOL    HW234332   1.269   2.232   3.061 -1.0258 -0.4483  0.1802
 7567SOL     OW34333   3.325   1.543   5.861  0.1567 -1.0408 -0.0235
 7567SOL    HW134334   3.250   1.491   5.892 -0.1264  0.2543  1.4735
 7567SOL    HW234335   3.396   1.479   5.855  1.1159  0.0078  0.2785
 7568SOL     OW34336   4.585   1.776  13.592 -0.1598 -0.5329  0.5665
 7568SOL    HW134337   4.566   1.861  13.554  2.9529 -0.3137 -0.4781
 7568SOL    HW234338   4.670   1.756  13.551  0.4693  0.0468  1.6024
 7569SOL     OW34339   1.973   1.114   2.007 -0.1735  0.6517  0.5346
 7569SOL    HW134340   1.945   1.062   1.931 -1.9316  1.6971  0.4672
 7569SOL    HW234341   1.890   1.141   2.047 -1.3575 -2.9967  0.5696
 7570SOL     OW34342   1.475   3.042   2.457 -0.0956  0.2097 -0.7502
 7570SOL    HW134343   1.502   3.000   2.539 -0.0754  0.0006 -0.8627
 7570SOL    HW234344   1.558   3.080   2.428  0.2074 -0.4828 -0.8059
 7571SOL     OW34345   3.928   4.402   2.433 -0.3418 -0.1513  0.3455
 7571SOL    HW134346   4.015   4.441   2.439  0.4031 -1.6881 -0.3860
 7571SOL    HW234347   3.871   4.462   2.481 -1.2409  0.4209 -1.4422
 7572SOL     OW34348   2.471   1.844   3.344 -0.2902  0.1516  0.1446
 7572SOL    HW134349   2.391   1.795   3.363  0.0669 -0.5158 -0.0720
 7572SOL    HW234350   2.502   1.884   3.425 -1.1513  1.6491 -0.2689
 7573SOL     OW34351   4.461   1.594   6.921 -0.4631  0.2521 -0.9659
 7573SOL    HW134352   4.367   1.580   6.935 -0.1059  0.2973  1.4375
 7573SOL    HW234353   4.497   1.511   6.953  1.3920  1.8264  1.0237
 7574SOL     OW34354   2.239   3.656  13.388 -0.1953 -0.2857 -0.0804
 7574SOL    HW134355   2.190   3.672  13.469 -0.4013  1.3563 -0.5191
 7574SOL    HW234356   2.301   3.587  13.410 -1.5996 -2.0366 -1.6248
 7575SOL     OW34357   2.687   2.265  10.043  0.5417  0.6031 -0.2758
 7575SOL    HW134358   2.686   2.214   9.962 -0.7994  0.3159 -0.0803
 7575SOL    HW234359   2.641   2.341  10.007  0.1023  0.3965 -0.1600
 7576SOL     OW34360   0.918   1.818   8.745 -0.2940 -0.6726  0.2770
 7576SOL    HW134361   0.932   1.758   8.671  1.0865  1.1546 -0.9363
 7576SOL    HW234362   0.823   1.828   8.744 -0.2659 -0.4214 -0.0901
 7577SOL     OW34363   0.461   4.041  16.713  0.5682  0.3724  0.2361
 7577SOL    HW134364   0.479   4.108  16.779  1.0313 -0.9767  1.4625
 7577SOL    HW234365   0.502   4.079  16.636 -1.1347  1.1267 -0.3096
 7578SOL     OW34366   4.657   2.626  15.981  0.0777  0.4439 -0.1293
 7578SOL    HW134367   0.014   2.614  15.975  0.0295  0.9628 -1.9166
 7578SOL    HW234368   4.649   2.701  16.040  3.2152  0.4465  0.3019
 7579SOL     OW34369   3.950   4.026   8.702  0.3647 -0.2601 -0.3710
 7579SOL    HW134370   3.985   4.041   8.790  0.6142  2.1548 -0.8874
 7579SOL    HW234371   3.917   3.939   8.727 -3.3737  1.4321  0.4514
 7580SOL     OW34372   1.588   1.504   0.491 -0.5870  0.4603 -0.2261
 7580SOL    HW134373   1.629   1.573   0.543 -0.9473  0.7452 -0.3227
 7580SOL    HW234374   1.580   1.545   0.405 -0.6469 -0.0728 -0.4751
 7581SOL     OW34375   3.762   0.826   3.983 -0.6927  0.3297 -0.2018
 7581SOL    HW134376   3.690   0.836   3.920 -0.3081 -2.1213 -1.0096
 7581SOL    HW234377   3.701   0.813   4.056 -1.1132  1.1401 -0.4121
 7582SOL     OW34378   1.177   1.775  13.259  0.5255 -0.0828  0.4960
 7582SOL    HW134379   1.133   1.829  13.325 -0.0877 -0.4841  0.4157
 7582SOL    HW234380   1.241   1.838  13.223  1.9684 -0.2344  2.7975
 7583SOL     OW34381   1.155   2.040   6.271  1.0772  0.1309 -0.1354
 7583SOL    HW134382   1.216   2.091   6.323 -1.1863 -0.0535  2.7381
 7583SOL    HW234383   1.148   1.957   6.320  2.6633 -0.2460 -0.5559
 7584SOL     OW34384   2.277   4.450   6.788 -0.8291  0.6541 -0.0228
 7584SOL    HW134385   2.345   4.384   6.788 -2.6863 -1.2709 -4.3840
 7584SOL    HW234386   2.212   4.414   6.728 -1.3340 -1.7982  1.9947
 7585SOL     OW34387   2.198   3.086  14.733 -0.0969 -0.3171 -0.5952
 7585SOL    HW134388   2.184   3.166  14.784 -1.0240  0.6881 -2.3937
 7585SOL    HW234389   2.262   3.117  14.669  0.2431  0.8753  0.3134
 7586SOL     OW34390   0.477   2.784   8.224  0.4590  0.1208  0.7301
 7586SOL    HW134391   0.552   2.763   8.168 -1.0256  0.8230 -1.4847
 7586SOL    HW234392   0.480   2.723   8.298  0.9323 -1.6802 -0.7762
 7587SOL     OW34393   1.561   1.119   6.808  0.1707 -0.2015 -0.4622
 7587SOL    HW134394   1.554   1.073   6.891  0.2098  0.8150  0.1031
 7587SOL    HW234395   1.591   1.206   6.837  3.3431 -0.3490 -3.2385
 7588SOL     OW34396   3.736   3.656   0.230  0.2205 -0.1238 -0.6985
 7588SOL    HW134397   3.748   3.676   0.322 -1.4405  1.8015 -0.9105
 7588SOL    HW234398   3.780   3.729   0.187  2.4063 -2.0207 -1.6426
 7589SOL     OW34399   2.879   2.538  10.945 -0.4751 -0.1791 -0.2039
 7589SOL    HW134400   2.873   2.488  11.027 -1.4435  1.1075  0.5107
 7589SOL    HW234401   2.974   2.552  10.938 -0.3857 -1.4204 -1.4208
 7590SOL     OW34402   4.398   4.357   3.027 -0.3033  0.7693 -0.4283
 7590SOL    HW134403   4.490   4.369   3.051 -0.4917 -0.0655  0.6891
 7590SOL    HW234404   4.412   4.370   2.933  0.0387 -0.9841 -0.6200
 7591SOL     OW34405   3.445   2.693   8.975  0.3419  0.0407 -0.1174
 7591SOL    HW134406   3.407   2.611   9.003  1.0551  0.0825  0.9821
 7591SOL    HW234407   3.444   2.743   9.057  0.9242  0.1912 -0.2001
 7592SOL     OW34408   3.112   0.721  12.161 -0.3579  0.3755  0.2903
 7592SOL    HW134409   3.039   0.779  12.139  0.2337  0.5587 -1.2098
 7592SOL    HW234410   3.134   0.693  12.072 -0.6778  0.1206  0.2870
 7593SOL     OW34411   0.645   2.152   2.740 -0.0681  0.1776  0.0618
 7593SOL    HW134412   0.550   2.139   2.749  0.0406  0.4125  1.5475
 7593SOL    HW234413   0.638   2.222   2.674 -0.6945  0.0885  0.0312
 7594SOL     OW34414   0.768   2.728   5.289 -0.1823 -0.2436  0.2484
 7594SOL    HW134415   0.795   2.693   5.374  1.5382 -1.3768 -0.7573
 7594SOL    HW234416   0.854   2.756   5.256  0.1101 -3.9244 -2.0724
 7595SOL     OW34417   2.839   1.877   1.309 -0.3128 -0.0996 -0.2449
 7595SOL    HW134418   2.760   1.839   1.348 -0.0800 -2.1600 -1.7930
 7595SOL    HW234419   2.857   1.947   1.372  4.5696 -1.4081 -0.2242
 7596SOL     OW34420   3.276   3.452   2.699  0.0940  0.2730 -0.3179
 7596SOL    HW134421   3.208   3.385   2.709 -1.0092  1.2198 -1.4468
 7596SOL    HW234422   3.338   3.388   2.665 -1.9807 -1.9595  0.0784
 7597SOL     OW34423   0.886   0.230  13.852  0.6422 -0.6489 -0.2189
 7597SOL    HW134424   0.807   0.236  13.907  1.4042 -1.8094  1.0125
 7597SOL    HW234425   0.946   0.266  13.917  0.0021 -1.3396  0.7748
 7598SOL     OW34426   0.656   2.008   9.491  0.1718  0.0788 -0.3053
 7598SOL    HW134427   0.676   1.915   9.478 -2.3153 -0.6648  1.0370
 7598SOL    HW234428   0.734   2.033   9.540 -0.8127  1.1309  0.7343
 7599SOL     OW34429   3.675   0.184   9.367  0.3747 -0.8571 -0.3797
 7599SOL    HW134430   3.632   0.157   9.286 -0.8398 -3.2542  1.0813
 7599SOL    HW234431   3.618   0.138   9.428 -0.3518 -0.2444 -0.6049
 7600SOL     OW34432   2.567   3.795   1.394  0.7861 -0.5967  0.5096
 7600SOL    HW134433   2.499   3.732   1.372 -0.1676  0.4486  0.4260
 7600SOL    HW234434   2.621   3.797   1.315  0.3566 -1.0487  0.2034
 7601SOL     OW34435   2.634   2.594   0.505 -0.0347  0.1601 -0.2083
 7601SOL    HW134436   2.642   2.503   0.473 -1.4136  0.3696 -1.1632
 7601SOL    HW234437   2.540   2.587   0.523 -0.0778  2.9829  0.6072
 7602SOL     OW34438   3.844   3.396   0.860 -0.5292 -0.2107  0.0632
 7602SOL    HW134439   3.821   3.311   0.823  0.7274 -0.3582 -0.3903
 7602SOL    HW234440   3.901   3.384   0.936 -0.9664 -1.4439  0.1809
 7603SOL     OW34441   2.803   1.566   3.934  0.2059  0.5519 -0.1366
 7603SOL    HW134442   2.746   1.515   3.876  0.5288  0.0158  0.0146
 7603SOL    HW234443   2.763   1.652   3.921  0.3622  0.9411  2.0078
 7604SOL     OW34444   3.435   1.889  14.964 -0.6212 -0.0066  1.0577
 7604SOL    HW134445   3.390   1.879  15.047  0.4878 -0.2862  1.6195
 7604SOL    HW234446   3.426   1.802  14.924 -0.4797  1.1033 -1.4313
 7605SOL     OW34447   3.989   2.102   1.087 -0.2437 -0.1713  0.4002
 7605SOL    HW134448   3.937   2.074   1.163 -1.5812 -0.9942 -0.8208
 7605SOL    HW234449   3.917   2.113   1.025 -0.7825 -0.3587  0.9992
 7606SOL     OW34450   3.672   2.103   7.348  0.0384  0.2339 -0.4704
 7606SOL    HW134451   3.652   2.196   7.358  0.8013  0.5937 -2.3964
 7606SOL    HW234452   3.581   2.071   7.346 -0.4429  1.7150 -2.1651
 7607SOL     OW34453   0.337   4.266   5.201  0.4478 -0.3630  0.5607
 7607SOL    HW134454   0.297   4.224   5.277 -0.8087  0.3565  0.2994
 7607SOL    HW234455   0.427   4.247   5.226  1.1980 -0.5004 -2.2217
 7608SOL     OW34456   0.838   0.282   1.257 -0.3167  0.0710  0.1388
 7608SOL    HW134457   0.753   0.254   1.223 -0.2114  0.0491 -0.1047
 7608SOL    HW234458   0.869   0.192   1.270 -0.6841  0.3850  3.3669
 7609SOL     OW34459   0.196   1.962   7.746 -0.0640  0.0077 -0.2449
 7609SOL    HW134460   0.271   2.022   7.745  0.1954 -0.2775  2.3751
 7609SOL    HW234461   0.159   1.990   7.663  0.5606  4.4553  1.0091
 7610SOL     OW34462   3.987   0.273   1.875  0.0687  0.3552  0.7222
 7610SOL    HW134463   3.909   0.280   1.819  0.9581  2.6489 -0.2562
 7610SOL    HW234464   4.038   0.199   1.843 -1.7961 -0.4562 -0.3674
 7611SOL     OW34465   4.446   3.960   6.838  0.1570  0.0855 -0.1097
 7611SOL    HW134466   4.460   3.978   6.745  0.2707  0.3657 -0.0405
 7611SOL    HW234467   4.429   3.866   6.832  1.2910 -0.1490  0.2695
 7612SOL     OW34468   0.595   0.744   3.450  0.2456  0.2562  0.4820
 7612SOL    HW134469   0.684   0.774   3.432  0.0740  0.8482  0.6152
 7612SOL    HW234470   0.545   0.824   3.468 -0.1099 -0.1643  1.3655
 7613SOL     OW34471   3.369   1.399  10.389  0.3284  0.1729 -0.4127
 7613SOL    HW134472   3.318   1.436  10.316 -2.5601 -0.2042  1.4195
 7613SOL    HW234473   3.360   1.306  10.370 -1.4579  0.0805  0.9175
 7614SOL     OW34474   4.600   1.442   2.195 -0.4182 -0.6372 -0.1952
 7614SOL    HW134475   4.509   1.424   2.172 -1.2587 -0.2205  2.7683
 7614SOL    HW234476   4.641   1.450   2.109 -0.8306 -0.5254 -0.3831
 7615SOL     OW34477   0.688   3.775   5.786 -0.1854  0.0210  0.0238
 7615SOL    HW134478   0.721   3.862   5.764  1.1825 -0.8054 -1.2406
 7615SOL    HW234479   0.596   3.799   5.790  0.2084  1.3452  1.2853
 7616SOL     OW34480   0.967   3.403   4.425  0.3300  1.0292 -0.2271
 7616SOL    HW134481   0.900   3.341   4.397  1.7398 -0.9267  0.7147
 7616SOL    HW234482   0.936   3.448   4.503  0.5996 -1.4513  1.3045
 7617SOL     OW34483   1.076   0.900  10.746  0.5214  0.2835 -0.7237
 7617SOL    HW134484   0.985   0.880  10.767  1.8573 -0.1185  4.6521
 7617SOL    HW234485   1.083   0.994  10.762  0.1917  0.2338 -0.2864
 7618SOL     OW34486   2.667   0.722   1.421  0.3418  0.2284  0.2881
 7618SOL    HW134487   2.727   0.654   1.452 -0.0120  1.0679  2.8749
 7618SOL    HW234488   2.727   0.765   1.360 -2.4145  1.1909 -1.7268
 7619SOL     OW34489   4.722   2.939  12.414 -0.0519 -0.4427 -0.1712
 7619SOL    HW134490   0.013   3.007  12.474 -0.7246  0.9806 -1.4674
 7619SOL    HW234491   4.726   2.974  12.325 -1.7485 -1.5876 -0.7013
 7620SOL     OW34492   3.018   1.680   6.691  0.0679  0.4393  0.0884
 7620SOL    HW134493   3.077   1.732   6.636 -0.1379  0.1186 -0.4444
 7620SOL    HW234494   2.975   1.737   6.754 -0.5497  1.3624 -1.1529
 7621SOL     OW34495   4.085   4.620   7.100  0.1061 -0.7457 -0.6892
 7621SOL    HW134496   4.135   4.700   7.112  0.8430 -1.3577  0.2875
 7621SOL    HW234497   4.150   4.556   7.070  0.3863 -0.4033 -0.8008
 7622SOL     OW34498   4.449   4.025   2.093  0.3315 -0.0975  0.9057
 7622SOL    HW134499   4.372   4.079   2.073  0.0606 -0.4007  1.1226
 7622SOL    HW234500   4.518   4.073   2.049 -1.3791  0.5298 -1.1234
 7623SOL     OW34501   3.067   2.364  10.095  0.0479  0.0952 -0.2228
 7623SOL    HW134502   3.135   2.393  10.034  1.1428 -2.0960 -0.0370
 7623SOL    HW234503   3.026   2.451  10.096  1.7249  0.9054 -1.5476
 7624SOL     OW34504   1.400   2.169   3.673 -0.0155 -0.1495  0.7279
 7624SOL    HW134505   1.334   2.154   3.741 -0.1288  1.1290  0.8883
 7624SOL    HW234506   1.346   2.174   3.594  0.9688  0.2111  0.0783
 7625SOL     OW34507   0.345   3.245   9.568 -0.3187  0.0820  0.2896
 7625SOL    HW134508   0.409   3.203   9.626 -1.7973 -1.0015  1.1365
 7625SOL    HW234509   0.277   3.180   9.551  0.1301 -0.6295  1.2239
 7626SOL     OW34510   1.642   0.050   0.650  0.4085 -0.3595 -0.4210
 7626SOL    HW134511   1.592   4.732   0.710 -1.0723  1.4513  0.0228
 7626SOL    HW234512   1.590   0.033   0.571 -0.8742  1.7124 -0.0003
 7627SOL     OW34513   2.859   2.930   5.309  0.0186 -0.7732 -0.4514
 7627SOL    HW134514   2.845   2.859   5.246  0.5852  2.0087 -3.6674
 7627SOL    HW234515   2.867   3.013   5.262  1.1431 -0.1894  0.7988
 7628SOL     OW34516   1.249   4.410  15.634 -0.6186 -0.5195 -0.2131
 7628SOL    HW134517   1.291   4.492  15.663 -1.2262  0.6820 -2.7760
 7628SOL    HW234518   1.308   4.349  15.678  1.4987  2.1391  0.6748
 7629SOL     OW34519   2.126   0.758   0.301 -0.4369 -0.5301  0.5848
 7629SOL    HW134520   2.103   0.665   0.299  1.4020 -0.9847  0.7075
 7629SOL    HW234521   2.061   0.794   0.361  1.5088  0.6560  2.0037
 7630SOL     OW34522   3.587   0.712   1.596 -0.5758 -0.3729 -0.0805
 7630SOL    HW134523   3.599   0.711   1.691 -1.7493  1.2520  0.0680
 7630SOL    HW234524   3.666   0.743   1.551 -2.1483  2.2748 -1.0522
 7631SOL     OW34525   3.901   0.776   4.360  0.4418  0.1847  0.3565
 7631SOL    HW134526   3.908   0.785   4.456 -0.5168 -0.3104  0.4624
 7631SOL    HW234527   3.858   0.691   4.358  1.2256 -0.1821 -0.6982
 7632SOL     OW34528   1.926   3.246   5.914  0.1914 -0.1584  0.4711
 7632SOL    HW134529   1.877   3.287   5.985 -2.1082 -2.1192  0.0257
 7632SOL    HW234530   1.869   3.170   5.898  1.6049 -1.8089  3.2610
 7633SOL     OW34531   3.485   2.318   3.270  0.3075  0.6957  0.1679
 7633SOL    HW134532   3.569   2.356   3.244  1.0162 -1.5129 -0.7958
 7633SOL    HW234533   3.477   2.234   3.225  0.0280  1.8451 -1.9207
 7634SOL     OW34534   2.089   0.440   8.605 -0.3774  0.2857  0.0372
 7634SOL    HW134535   2.066   0.531   8.592  3.8008  1.2078 -0.9916
 7634SOL    HW234536   2.168   0.453   8.659 -1.9573  3.0212  1.6958
 7635SOL     OW34537   3.348   0.806  17.104  0.4646  0.2765  0.5573
 7635SOL    HW134538   3.394   0.889  17.116  1.8249 -0.1291 -1.8057
 7635SOL    HW234539   3.326   0.786  17.195 -1.8538 -1.2451 -0.3602
 7636SOL     OW34540   0.933   2.764   9.502  0.9060  0.3031 -0.1313
 7636SOL    HW134541   1.029   2.759   9.502  0.8962  0.0982 -0.8265
 7636SOL    HW234542   0.933   2.851   9.543  1.7662  1.5340 -2.7068
 7637SOL     OW34543   1.894   0.067   4.909 -0.1223 -0.4851  0.2233
 7637SOL    HW134544   1.921   4.714   4.925 -0.6213 -0.8704 -1.1333
 7637SOL    HW234545   1.976   0.113   4.924  0.3235 -1.2079 -0.0268
 7638SOL     OW34546   3.470   4.007   8.046  0.0190  0.0154 -0.1672
 7638SOL    HW134547   3.526   3.957   8.105 -1.0067 -1.0785 -0.1105
 7638SOL    HW234548   3.532   4.038   7.980  0.0275  0.6422  0.1304
 7639SOL     OW34549   2.562   3.934  13.785 -0.4029 -0.1522  0.0728
 7639SOL    HW134550   2.554   4.026  13.762 -2.9972  0.2485  2.7424
 7639SOL    HW234551   2.474   3.931  13.821 -0.7170 -0.1295 -0.7031
 7640SOL     OW34552   1.098   0.830  16.818  1.0530 -0.0324 -0.3942
 7640SOL    HW134553   1.088   0.922  16.793 -2.1140 -0.0778  0.6213
 7640SOL    HW234554   1.129   0.832  16.909  0.7996  0.1007 -0.3093
 7641SOL     OW34555   4.658   4.038   9.902  0.1938  0.2248  0.0086
 7641SOL    HW134556   4.587   3.981   9.931  0.0668  0.0546 -0.6235
 7641SOL    HW234557   4.648   4.120   9.951  2.8968  0.3248  0.4072
 7642SOL     OW34558   4.030   1.077  13.583 -0.1567  0.1418 -0.4826
 7642SOL    HW134559   4.056   1.166  13.558 -0.8881 -0.2487 -2.6285
 7642SOL    HW234560   4.102   1.025  13.548 -0.5992 -0.8515  0.0974
 7643SOL     OW34561   3.848   0.440   5.945  0.0648 -0.3702 -0.3760
 7643SOL    HW134562   3.838   0.393   6.028  1.5600  0.7709  0.4436
 7643SOL    HW234563   3.848   0.363   5.888 -0.0233 -1.0852  0.6056
 7644SOL     OW34564   0.726   1.165   2.874  0.1885 -0.1038 -0.8042
 7644SOL    HW134565   0.738   1.130   2.786  1.9687 -0.4571 -0.4226
 7644SOL    HW234566   0.755   1.099   2.937 -0.1189  2.6324  2.2199
 7645SOL     OW34567   1.183   1.517   4.350  0.6953 -0.0919  0.0839
 7645SOL    HW134568   1.278   1.532   4.354  0.4469  1.0359  1.7154
 7645SOL    HW234569   1.178   1.440   4.407 -1.0683 -0.2032 -0.2393
 7646SOL     OW34570   3.511   3.236  10.031 -0.1019 -0.6096  0.4154
 7646SOL    HW134571   3.511   3.203   9.941  1.2222  1.0834 -0.2205
 7646SOL    HW234572   3.478   3.323  10.011  0.9755 -0.3602 -0.3029
 7647SOL     OW34573   4.245   2.201   2.204  0.5346  0.0564 -0.0777
 7647SOL    HW134574   4.181   2.170   2.139 -0.0122  1.2231 -0.0791
 7647SOL    HW234575   4.294   2.272   2.163  1.4410  0.8243  2.3908
 7648SOL     OW34576   1.274   1.778   2.540  0.1679  0.0112  0.0796
 7648SOL    HW134577   1.233   1.797   2.455  0.5017 -0.7398 -0.2439
 7648SOL    HW234578   1.328   1.857   2.542  1.9294 -1.1734 -0.6083
 7649SOL     OW34579   1.562   3.928   6.018  0.4288  0.3838 -0.4772
 7649SOL    HW134580   1.505   3.996   6.052  0.2251  1.5497 -3.1292
 7649SOL    HW234581   1.521   3.933   5.932 -0.4989  1.4061  0.0193
 7650SOL     OW34582   1.927   4.493   3.587 -0.1405 -0.2402  0.1722
 7650SOL    HW134583   1.961   4.512   3.500 -0.6651  0.7676  0.1925
 7650SOL    HW234584   1.852   4.550   3.602 -1.0353 -0.5757 -3.1361
 7651SOL     OW34585   1.584   1.956  12.497 -0.5043  1.2761  0.5073
 7651SOL    HW134586   1.668   1.921  12.524  0.0272  0.1576 -2.6246
 7651SOL    HW234587   1.588   1.952  12.402 -0.1908 -0.6320  0.6167
 7652SOL     OW34588   3.259   2.581   1.969 -0.3483  0.1677  0.4696
 7652SOL    HW134589   3.281   2.525   1.894 -0.7534 -2.7533  2.5163
 7652SOL    HW234590   3.177   2.539   1.997  0.2452 -0.7539  0.8312
 7653SOL     OW34591   0.233   2.215   3.357  0.2468 -0.0501  0.6286
 7653SOL    HW134592   0.185   2.271   3.417  0.0126 -0.6350  0.9881
 7653SOL    HW234593   0.163   2.209   3.292  0.8763  1.2533 -0.1631
 7654SOL     OW34594   3.665   2.567   4.595 -0.0802 -0.4428 -0.6225
 7654SOL    HW134595   3.751   2.597   4.627 -0.2806  0.1925 -0.6702
 7654SOL    HW234596   3.697   2.503   4.531  0.5054  0.0146 -0.7889
 7655SOL     OW34597   3.981   2.509   8.451  0.1038 -0.4459  0.0094
 7655SOL    HW134598   3.967   2.420   8.484 -0.6098 -0.1687  0.4784
 7655SOL    HW234599   4.004   2.483   8.362 -0.0235  1.3725 -0.5495
 7656SOL     OW34600   4.253   0.396   9.183  0.0645 -0.4726  0.6528
 7656SOL    HW134601   4.203   0.477   9.175 -1.0051 -1.3196 -1.1360
 7656SOL    HW234602   4.334   0.439   9.155 -0.3048  1.2970  2.2670
 7657SOL     OW34603   1.916   4.379   7.597  0.1148 -0.0094 -0.1871
 7657SOL    HW134604   1.888   4.470   7.611 -0.4423  0.0206 -1.4650
 7657SOL    HW234605   1.984   4.374   7.664 -1.3910 -2.0583  1.1779
 7658SOL     OW34606   1.113   4.244   7.994  0.7197 -0.2079 -0.3900
 7658SOL    HW134607   1.055   4.305   8.039 -0.3745 -1.5328 -0.0224
 7658SOL    HW234608   1.097   4.157   8.030 -0.5002 -1.4355 -3.9032
 7659SOL     OW34609   1.615   2.465   3.180 -0.6281  0.5688  0.2472
 7659SOL    HW134610   1.538   2.481   3.126 -1.0613 -3.1223 -0.2568
 7659SOL    HW234611   1.609   2.539   3.241  2.3440  0.9562  0.0749
 7660SOL     OW34612   2.863   3.365   6.501  0.3776  0.1782  0.1600
 7660SOL    HW134613   2.876   3.270   6.503 -0.9943 -0.0079  0.2305
 7660SOL    HW234614   2.935   3.394   6.445 -0.6079  1.4432 -0.4736
 7661SOL     OW34615   2.979   2.311  13.906 -0.2590 -0.2041 -0.2341
 7661SOL    HW134616   2.941   2.373  13.844  2.8550 -0.0229 -1.9490
 7661SOL    HW234617   3.051   2.368  13.931  1.1615 -1.6155 -1.0959
 7662SOL     OW34618   1.283   0.041   8.997  0.2370 -0.3185 -0.3321
 7662SOL    HW134619   1.375   0.058   8.976  0.2199  1.8371  1.3481
 7662SOL    HW234620   1.250   0.131   9.001 -0.1142 -0.5145  1.3239
 7663SOL     OW34621   2.758   3.855   1.188  0.5415  0.4124 -0.4288
 7663SOL    HW134622   2.735   3.829   1.099  0.3565  2.3336 -0.9625
 7663SOL    HW234623   2.691   3.924   1.195 -1.6902 -1.6504 -1.3381
 7664SOL     OW34624   1.069   3.265  11.898 -0.2147  0.0922  0.6947
 7664SOL    HW134625   1.125   3.300  11.968  3.0067 -3.2110 -0.1924
 7664SOL    HW234626   0.985   3.266  11.944 -1.1817  0.9567 -1.1126
 7665SOL     OW34627   0.437   2.259   1.933 -0.7740  0.1605  0.0108
 7665SOL    HW134628   0.398   2.205   2.002 -0.9365  0.8145  0.4309
 7665SOL    HW234629   0.527   2.272   1.962 -0.3221 -2.5903 -0.1888
 7666SOL     OW34630   0.308   0.184   2.014  0.2084 -0.2071  0.0753
 7666SOL    HW134631   0.381   0.234   2.052 -0.1782 -0.3823  1.0621
 7666SOL    HW234632   0.322   0.099   2.055 -0.4945  0.1936  1.1492
 7667SOL     OW34633   4.606   3.528   7.998  0.2429 -0.4932 -0.4037
 7667SOL    HW134634   4.690   3.543   8.041  1.0060  0.8707 -2.3755
 7667SOL    HW234635   4.554   3.600   8.034  0.7612  0.4746 -1.5935
 7668SOL     OW34636   1.237   2.857   0.709 -0.1544 -0.3525  0.2836
 7668SOL    HW134637   1.145   2.872   0.733  0.2391 -0.0366  1.6220
 7668SOL    HW234638   1.235   2.896   0.622  2.2396  0.9121  0.8024
 7669SOL     OW34639   2.224   0.639   2.597  0.2525 -0.0816  0.1857
 7669SOL    HW134640   2.279   0.574   2.554  0.8982 -0.6065  1.8030
 7669SOL    HW234641   2.288   0.693   2.644  0.6121 -1.3683  1.1916
 7670SOL     OW34642   0.494   3.554   1.089  0.0587  0.0064  0.1693
 7670SOL    HW134643   0.444   3.619   1.040 -2.2058 -1.3556  0.6515
 7670SOL    HW234644   0.474   3.474   1.041 -2.9328  0.8938 -0.0649
 7671SOL     OW34645   2.617   2.449   6.212 -0.1022 -0.4094  0.0146
 7671SOL    HW134646   2.542   2.401   6.178 -0.0796 -0.3607 -0.1030
 7671SOL    HW234647   2.623   2.416   6.302 -2.1756 -4.5140 -1.3259
 7672SOL     OW34648   3.583   3.236   8.267  0.2979 -0.2542  0.0109
 7672SOL    HW134649   3.613   3.198   8.350  0.8402 -0.3849 -0.2453
 7672SOL    HW234650   3.665   3.220   8.221  0.5833 -2.4975  1.2550
 7673SOL     OW34651   0.946   2.766  17.064  0.0814 -0.0638 -0.3785
 7673SOL    HW134652   0.872   2.790  17.120  0.3949 -0.2782  0.1303
 7673SOL    HW234653   0.991   2.713  17.130  1.5110 -0.9126 -2.0657
 7674SOL     OW34654   2.629   3.971   0.528  0.0586  0.1035 -0.4196
 7674SOL    HW134655   2.643   3.938   0.439  1.1794 -1.1931  0.2438
 7674SOL    HW234656   2.561   4.030   0.496  0.3850  0.6003 -0.2094
 7675SOL     OW34657   0.448   0.330   4.864 -0.0885 -0.0150  0.0527
 7675SOL    HW134658   0.476   0.420   4.851 -2.7532  0.8640  0.3514
 7675SOL    HW234659   0.353   0.332   4.849 -0.1936  0.2015  0.7436
 7676SOL     OW34660   0.965   0.533   7.417  0.5971 -0.3615  0.7550
 7676SOL    HW134661   0.945   0.442   7.395  1.7724 -0.6012  0.6826
 7676SOL    HW234662   1.053   0.546   7.383  0.0170 -0.4608 -0.8237
 7677SOL     OW34663   3.373   1.435  16.247 -0.0272  0.7762  0.2187
 7677SOL    HW134664   3.467   1.456  16.248  0.0212  0.5570  0.3598
 7677SOL    HW234665   3.378   1.368  16.315 -0.2614  2.3986  1.8445
 7678SOL     OW34666   1.243   2.529   7.008  0.0415  0.1278 -0.0309
 7678SOL    HW134667   1.230   2.517   6.914 -0.1243  0.6542 -0.0765
 7678SOL    HW234668   1.299   2.607   7.011 -0.0454  0.2861 -2.1499
 7679SOL     OW34669   0.253   3.598  10.070 -0.6880  0.3986  0.6857
 7679SOL    HW134670   0.260   3.502  10.068 -1.3680  0.3799 -0.5414
 7679SOL    HW234671   0.250   3.607   9.975  2.6776 -2.1761  0.3199
 7680SOL     OW34672   2.897   3.200   7.628 -0.7891 -0.3392 -0.3223
 7680SOL    HW134673   2.804   3.197   7.650 -1.0554  0.6391 -1.3201
 7680SOL    HW234674   2.895   3.217   7.534  0.2223  2.0351  0.0685
 7681SOL     OW34675   2.289   1.644   7.254 -0.0356 -0.6949 -0.0012
 7681SOL    HW134676   2.246   1.662   7.171 -0.7678  0.8851  0.7223
 7681SOL    HW234677   2.379   1.655   7.226 -0.1425  0.1699 -0.0017
 7682SOL     OW34678   2.736   1.539   4.538  1.0222  0.1143  0.1990
 7682SOL    HW134679   2.776   1.470   4.592  0.4368 -1.3882 -1.2960
 7682SOL    HW234680   2.743   1.617   4.594 -2.0811  0.0828  0.6168
 7683SOL     OW34681   1.106   4.665   5.156 -0.3464 -0.9278 -0.3112
 7683SOL    HW134682   1.046   4.639   5.086 -1.7524 -0.0906  0.6021
 7683SOL    HW234683   1.191   4.637   5.122  0.4867 -0.4549  1.3873
 7684SOL     OW34684   1.284   1.237  16.437  0.4915 -0.0552 -0.4286
 7684SOL    HW134685   1.319   1.173  16.499  0.8552 -1.6307 -2.2696
 7684SOL    HW234686   1.191   1.214  16.436  1.0119 -2.1247  0.1056
 7685SOL     OW34687   4.428   3.732   3.468 -0.1015  0.0056 -0.0830
 7685SOL    HW134688   4.408   3.716   3.375  1.5313 -1.9001 -0.0993
 7685SOL    HW234689   4.520   3.706   3.469 -0.1995 -0.3098  0.7061
 7686SOL     OW34690   1.847   0.943   2.921  0.5720 -0.3704 -0.4800
 7686SOL    HW134691   1.827   0.979   2.835  1.3271 -1.0188 -0.9307
 7686SOL    HW234692   1.903   0.873   2.888  1.1367 -1.1110  2.0150
 7687SOL     OW34693   1.815   4.167   8.494 -0.3496  0.0349 -0.1948
 7687SOL    HW134694   1.842   4.258   8.501 -0.6291  0.0900  0.1521
 7687SOL    HW234695   1.857   4.130   8.571  1.3558 -1.2787 -1.7567
 7688SOL     OW34696   0.232   4.648   3.371  0.1736  0.1938 -0.3838
 7688SOL    HW134697   0.177   4.692   3.436  2.6576  1.4513  0.8577
 7688SOL    HW234698   0.167   4.629   3.304  2.3407 -0.9786 -2.1306
 7689SOL     OW34699   1.797   2.007  11.377  0.0485 -0.5505 -0.4895
 7689SOL    HW134700   1.878   2.057  11.377  0.9723 -2.0359 -3.6714
 7689SOL    HW234701   1.729   2.073  11.389 -1.2971 -1.4352 -3.0724
 7690SOL     OW34702   1.568   2.800   5.055  0.0651  0.5477  0.0736
 7690SOL    HW134703   1.510   2.728   5.079  0.9755 -0.2100  0.0376
 7690SOL    HW234704   1.657   2.774   5.080  1.0205  1.3234 -2.5420
 7691SOL     OW34705   1.968   2.358  14.261 -0.0015 -0.1082 -0.3963
 7691SOL    HW134706   2.001   2.322  14.343 -1.5665 -0.9350 -0.1283
 7691SOL    HW234707   2.042   2.371  14.202  1.4997  1.6754  1.9004
 7692SOL     OW34708   3.150   3.103   1.368 -0.0266  0.3256  0.3471
 7692SOL    HW134709   3.112   3.163   1.431 -0.0296  0.9629 -0.2569
 7692SOL    HW234710   3.093   3.027   1.378 -2.0179  1.1745 -4.4590
 7693SOL     OW34711   2.038   4.284   1.038 -0.3535 -0.5739  0.4823
 7693SOL    HW134712   2.007   4.225   0.969  1.6507 -0.5967 -0.4051
 7693SOL    HW234713   1.981   4.357   1.013  1.4816  0.9486  0.7441
 7694SOL     OW34714   0.546   3.114   9.064  0.1428  0.1690  0.6908
 7694SOL    HW134715   0.568   3.062   9.142  0.6021  0.5980  0.8510
 7694SOL    HW234716   0.462   3.151   9.091  0.5328 -0.0656  2.2428
 7695SOL     OW34717   1.365   2.599   6.199  0.3164 -0.4816  0.2525
 7695SOL    HW134718   1.325   2.663   6.141 -0.0686 -1.8302 -0.9803
 7695SOL    HW234719   1.287   2.546   6.214  0.0417 -0.8134 -2.2096
 7696SOL     OW34720   0.365   1.576  17.153 -0.8089 -0.1255 -0.7820
 7696SOL    HW134721   0.351   1.631  17.230 -0.8301 -0.1314 -0.7815
 7696SOL    HW234722   0.434   1.518  17.185 -2.7592 -2.0350 -0.0135
 7697SOL     OW34723   0.927   3.250   4.137 -0.5864 -1.0379  0.4681
 7697SOL    HW134724   0.883   3.199   4.206 -1.0105 -2.4379 -0.8353
 7697SOL    HW234725   0.856   3.297   4.094  2.5924  1.2010 -2.3327
 7698SOL     OW34726   1.040   0.330  14.048 -0.0820  0.1480  0.2477
 7698SOL    HW134727   0.997   0.404  14.090 -0.7643 -1.1313  1.7913
 7698SOL    HW234728   1.083   0.294  14.125 -2.0597 -1.2094  0.7464
 7699SOL     OW34729   3.454   3.446  11.593  0.7927  0.0592  0.0018
 7699SOL    HW134730   3.497   3.524  11.628 -0.2474  0.6886 -0.1024
 7699SOL    HW234731   3.490   3.375  11.644  1.4541 -0.1725 -0.7848
 7700SOL     OW34732   4.303   3.937   7.988  0.1505  0.3030 -0.2878
 7700SOL    HW134733   4.219   3.919   7.944 -0.3291 -0.5317  0.9551
 7700SOL    HW234734   4.286   3.972   8.075  1.6535  0.9818 -0.2783
 7701SOL     OW34735   2.887   1.223   8.779 -0.1690  0.0531  0.1557
 7701SOL    HW134736   2.908   1.249   8.690 -0.9664  1.3913  0.3558
 7701SOL    HW234737   2.800   1.185   8.770  0.8354 -1.9396 -1.0978
 7702SOL     OW34738   0.071   4.348  13.510 -0.3574 -0.0277 -0.3249
 7702SOL    HW134739   4.722   4.389  13.501  0.0933  0.8386 -0.6715
 7702SOL    HW234740   0.125   4.420  13.479  0.8035 -0.4984  0.6084
 7703SOL     OW34741   2.016   3.971  10.219 -0.1445 -0.0903 -0.4562
 7703SOL    HW134742   1.993   4.037  10.285  0.8904 -1.2341  1.0488
 7703SOL    HW234743   1.937   3.964  10.165  0.1726 -0.8079 -0.8315
 7704SOL     OW34744   0.309   3.911  17.649  0.6254  0.6835 -0.1843
 7704SOL    HW134745   0.384   3.862  17.683 -0.2624 -1.6954 -1.6949
 7704SOL    HW234746   0.250   3.906  17.724 -0.3536 -0.5094 -1.0477
 7705SOL     OW34747   3.848   0.066   7.029 -0.1984 -0.7217  0.2938
 7705SOL    HW134748   3.923   0.101   6.980  0.4981 -2.0639  0.4045
 7705SOL    HW234749   3.888   4.721   7.056  1.0482 -0.3833 -0.5079
 7706SOL     OW34750   4.433   0.556   7.497 -0.0162 -0.9038  0.0678
 7706SOL    HW134751   4.429   0.471   7.454 -1.6182 -0.8523  0.1238
 7706SOL    HW234752   4.389   0.536   7.579  0.1677  2.8434  1.0641
 7707SOL     OW34753   2.890   2.413   9.774  0.2437 -0.4748  0.1600
 7707SOL    HW134754   2.914   2.502   9.799 -1.5904 -0.2101  0.9195
 7707SOL    HW234755   2.970   2.394   9.724 -0.5644 -0.8905 -0.9678
 7708SOL     OW34756   4.614   4.336   9.782 -0.0396  0.5222  0.1836
 7708SOL    HW134757   4.689   4.370   9.735 -0.9662  2.1461 -0.1246
 7708SOL    HW234758   4.640   4.335   9.874  2.1294  0.2600 -0.4397
 7709SOL     OW34759   2.061   2.622  14.818  0.9034 -0.0590 -0.5674
 7709SOL    HW134760   2.086   2.714  14.829  1.2899 -0.2481  0.1835
 7709SOL    HW234761   2.117   2.601  14.743  1.4605 -0.2711 -0.0946
 7710SOL     OW34762   2.408   1.607  14.441 -0.6700 -0.1540 -0.2476
 7710SOL    HW134763   2.370   1.694  14.453 -0.8537 -0.2571 -0.0705
 7710SOL    HW234764   2.327   1.556  14.439 -0.1189 -0.9512 -2.1020
 7711SOL     OW34765   4.334   4.571   3.874 -0.0263  0.1167  0.2251
 7711SOL    HW134766   4.265   4.543   3.814  0.9873 -2.3214  0.1861
 7711SOL    HW234767   4.361   4.650   3.827  0.7288 -0.3468 -0.1196
 7712SOL     OW34768   4.357   3.722   4.731 -0.1385 -0.0063  0.1730
 7712SOL    HW134769   4.449   3.746   4.734  0.1216 -0.8090 -1.8501
 7712SOL    HW234770   4.346   3.699   4.824  2.1069 -1.3163  0.1054
 7713SOL     OW34771   2.081   4.247   1.884 -0.6119 -0.3313  0.1337
 7713SOL    HW134772   2.119   4.325   1.844 -0.0449 -0.8361 -0.3307
 7713SOL    HW234773   1.992   4.270   1.911 -1.2329 -2.2177 -0.2285
 7714SOL     OW34774   0.828   1.592   7.232 -0.1778 -0.0108  0.1808
 7714SOL    HW134775   0.883   1.516   7.251  2.9818  2.2487  0.0086
 7714SOL    HW234776   0.823   1.587   7.137 -0.9854 -0.4787  0.2508
 7715SOL     OW34777   4.691   0.088   3.715  0.4348  0.0975 -0.1690
 7715SOL    HW134778   4.731   0.091   3.628 -0.3479 -1.1168 -0.5644
 7715SOL    HW234779   4.702   4.734   3.739 -0.0813  0.0142 -0.2483
 7716SOL     OW34780   3.407   0.705  12.291  0.8086  0.0168 -0.5214
 7716SOL    HW134781   3.405   0.796  12.261  0.5460 -0.6780 -2.5696
 7716SOL    HW234782   3.319   0.691  12.326  1.2877 -1.0508  0.2577
 7717SOL     OW34783   2.146   1.761   2.361  0.2689  0.4640 -0.1467
 7717SOL    HW134784   2.209   1.831   2.341  0.1419  0.8670  0.8591
 7717SOL    HW234785   2.109   1.782   2.446  0.7923 -0.8336  0.3899
 7718SOL     OW34786   0.120   2.244   9.211 -0.0288 -0.5903  0.3774
 7718SOL    HW134787   0.179   2.274   9.280 -0.5366  0.1038  0.5125
 7718SOL    HW234788   0.102   2.319   9.155  0.9996 -1.1951 -0.7336
 7719SOL     OW34789   4.623   2.997  12.751  0.6530  0.2299 -0.4502
 7719SOL    HW134790   4.540   2.964  12.716 -0.3297  1.4603  0.7171
 7719SOL    HW234791   4.645   3.073  12.698  1.5309  2.3010  2.8698
 7720SOL     OW34792   0.858   0.206   8.577  0.1365 -0.7393  0.5814
 7720SOL    HW134793   0.953   0.206   8.562  0.5146  0.8956  3.0244
 7720SOL    HW234794   0.839   0.125   8.624 -3.0486 -0.5545 -0.3846
 7721SOL     OW34795   1.599   3.362   2.645  0.7466 -0.1977  0.1790
 7721SOL    HW134796   1.615   3.287   2.587 -0.2600 -0.0643 -0.2643
 7721SOL    HW234797   1.688   3.379   2.677  0.2797  0.9702  0.8536
 7722SOL     OW34798   3.533   0.458   0.448 -0.0392 -0.3583 -0.3460
 7722SOL    HW134799   3.538   0.515   0.525 -0.2751 -0.0201 -0.5838
 7722SOL    HW234800   3.549   0.530   0.386 -0.8440  0.3039  0.2147
 7723SOL     OW34801   4.388   4.194   7.458 -0.3035 -0.2497 -0.1947
 7723SOL    HW134802   4.441   4.119   7.431  0.9656  0.5153  0.1540
 7723SOL    HW234803   4.449   4.244   7.513 -1.4233 -2.0548  2.7160
 7724SOL     OW34804   4.483   3.687   0.396  0.5431  0.7216 -0.0994
 7724SOL    HW134805   4.416   3.620   0.388  1.5035 -0.1823 -0.6156
 7724SOL    HW234806   4.563   3.633   0.395  0.1817  0.2299 -1.5465
 7725SOL     OW34807   2.393   2.855   4.513  0.9212 -0.3960  0.1426
 7725SOL    HW134808   2.476   2.829   4.475  0.5753 -0.8987 -0.2744
 7725SOL    HW234809   2.395   2.817   4.601 -0.0470 -0.0262  0.3314
 7726SOL     OW34810   0.113   2.146  12.554  0.6573  0.0228  0.4187
 7726SOL    HW134811   0.157   2.215  12.505  0.1917 -0.1063 -0.1846
 7726SOL    HW234812   0.032   2.191  12.579  1.2748  1.7156 -0.6001
 7727SOL     OW34813   0.774   4.352  16.465 -0.2389 -0.3843  0.4604
 7727SOL    HW134814   0.702   4.294  16.443  0.5657 -1.2184  0.0184
 7727SOL    HW234815   0.746   4.436  16.430 -2.3275 -1.1839  0.2200
 7728SOL     OW34816   4.159   0.250   2.533 -0.3201 -0.0677 -0.7847
 7728SOL    HW134817   4.183   0.178   2.475  1.0497  0.5541 -0.9955
 7728SOL    HW234818   4.133   0.197   2.607 -1.0299  1.1796 -0.1360
 7729SOL     OW34819   2.044   3.760  15.151 -0.0657  0.3156 -0.4485
 7729SOL    HW134820   1.994   3.810  15.086  0.0411  0.2373 -0.5909
 7729SOL    HW234821   2.028   3.823  15.221  0.3895 -1.4996  1.2679
 7730SOL     OW34822   2.197   4.069   0.528 -0.4399  0.6401 -0.4732
 7730SOL    HW134823   2.148   4.086   0.609 -1.5544 -0.1785 -0.9793
 7730SOL    HW234824   2.163   4.135   0.467  3.6515  1.8066 -1.4544
 7731SOL     OW34825   0.170   0.567   2.484 -0.6785 -0.0626 -0.4817
 7731SOL    HW134826   0.097   0.537   2.430 -1.0340  0.8259 -0.4855
 7731SOL    HW234827   0.242   0.545   2.425 -1.7106  0.2483 -1.8387
 7732SOL     OW34828   4.174   1.347   4.843 -0.1677 -0.0536 -0.4079
 7732SOL    HW134829   4.156   1.396   4.923  1.3191  1.1485 -0.8085
 7732SOL    HW234830   4.266   1.369   4.834 -0.4534  1.1098 -0.5118
 7733SOL     OW34831   0.374   2.460  12.796 -0.2568 -0.0703  0.2062
 7733SOL    HW134832   0.282   2.432  12.799 -0.9162  2.4029  3.5512
 7733SOL    HW234833   0.361   2.547  12.835 -0.5544  0.9979 -2.2336
 7734SOL     OW34834   0.500   4.285   2.004  0.1378  0.1030 -0.3071
 7734SOL    HW134835   0.411   4.283   1.969 -0.2757 -0.2069  0.7645
 7734SOL    HW234836   0.555   4.270   1.927  0.5770  2.7909 -0.5202
 7735SOL     OW34837   0.855   0.492   7.685 -0.7973  0.4243  0.1169
 7735SOL    HW134838   0.793   0.426   7.653 -0.6265  0.7642 -0.9350
 7735SOL    HW234839   0.850   0.568   7.627 -5.2564  0.4284  0.4823
 7736SOL     OW34840   1.787   2.537  16.064 -0.0655 -0.3210  0.0725
 7736SOL    HW134841   1.724   2.585  16.118  3.1159  1.2432  2.3869
 7736SOL    HW234842   1.798   2.600  15.992 -2.8496 -1.9566 -1.7521
 7737SOL     OW34843   2.761   3.241   4.861 -0.3419  0.5412  0.3353
 7737SOL    HW134844   2.669   3.219   4.876  1.2096 -3.1224  4.2643
 7737SOL    HW234845   2.796   3.152   4.856  0.3692  1.0411 -3.6605
 7738SOL     OW34846   0.854   3.640   7.398 -0.0691 -0.1483  0.4249
 7738SOL    HW134847   0.897   3.725   7.385  0.6413  0.0512  4.0303
 7738SOL    HW234848   0.932   3.588   7.418  1.4029  1.8199 -0.2060
 7739SOL     OW34849   3.751   2.984   7.984 -0.3839 -0.5531  0.6225
 7739SOL    HW134850   3.741   2.975   7.890  1.1715  0.8125  0.3151
 7739SOL    HW234851   3.778   2.897   8.014  0.4324 -0.2724  0.7160
 7740SOL     OW34852   2.022   4.069   6.914 -0.0056  0.6544  0.4533
 7740SOL    HW134853   2.056   4.001   6.971  2.4248  0.6867 -0.9642
 7740SOL    HW234854   2.047   4.038   6.827 -2.8104 -1.6792  0.4943
 7741SOL     OW34855   4.341   3.429   7.984  0.2140  0.0555 -0.1706
 7741SOL    HW134856   4.427   3.462   7.957 -0.0569  0.7719 -0.1457
 7741SOL    HW234857   4.290   3.505   8.011 -0.7229 -1.0545  1.1911
 7742SOL     OW34858   3.435   3.829   0.519  0.3922  0.2777 -0.4107
 7742SOL    HW134859   3.507   3.872   0.472 -0.1449 -0.1084 -1.5800
 7742SOL    HW234860   3.374   3.803   0.451  2.8626 -3.2700 -1.2276
 7743SOL     OW34861   4.362   3.747   2.113 -0.0923 -0.4133 -0.8281
 7743SOL    HW134862   4.404   3.832   2.101  2.3713 -1.9289 -2.9134
 7743SOL    HW234863   4.287   3.762   2.172  2.5454 -1.6144  2.8160
 7744SOL     OW34864   2.423   2.331  14.628 -0.4830 -0.0049 -0.4190
 7744SOL    HW134865   2.343   2.329  14.680 -0.0552  0.9081  0.2643
 7744SOL    HW234866   2.395   2.375  14.548 -1.1886 -0.2994 -0.3370
 7745SOL     OW34867   4.737   0.901  16.562  0.0233 -0.7874  0.0768
 7745SOL    HW134868   4.678   0.830  16.588  1.3242 -1.2729  1.7073
 7745SOL    HW234869   0.043   0.864  16.485 -0.9420  0.0248 -0.8580
 7746SOL     OW34870   4.519   0.454   8.831 -0.2239  0.6289  0.0183
 7746SOL    HW134871   4.514   0.549   8.839 -0.8695  0.7508 -1.8006
 7746SOL    HW234872   4.445   0.432   8.775 -0.0334  0.8729 -0.3315
 7747SOL     OW34873   0.194   2.761   9.016  0.2419  0.0146 -0.1280
 7747SOL    HW134874   0.226   2.785   8.929  0.0849  0.7969  0.0305
 7747SOL    HW234875   0.162   2.846   9.047 -0.0537 -1.0856  2.5858
 7748SOL     OW34876   4.199   1.867   4.516 -0.0395  0.3153 -0.2493
 7748SOL    HW134877   4.129   1.933   4.510 -1.6915 -1.2574  1.7433
 7748SOL    HW234878   4.161   1.791   4.560  1.0170  0.8863  1.6081
 7749SOL     OW34879   0.734   1.142   3.253  0.4480  0.0312 -0.7026
 7749SOL    HW134880   0.662   1.087   3.221 -0.1567  0.5851 -0.2895
 7749SOL    HW234881   0.728   1.118   3.345  1.0797 -1.1265 -0.9660
 7750SOL     OW34882   1.033   3.751   3.381  0.4602  0.1356  0.5476
 7750SOL    HW134883   1.106   3.805   3.352 -0.0799  0.6025  0.0527
 7750SOL    HW234884   1.049   3.667   3.338  1.1265 -0.6809  2.3901
 7751SOL     OW34885   3.234   3.904  12.994 -0.2951 -0.3222 -0.2937
 7751SOL    HW134886   3.196   3.991  12.991 -0.7748 -0.4201  2.8095
 7751SOL    HW234887   3.326   3.931  12.990  0.1760 -1.8791 -0.0119
 7752SOL     OW34888   2.691   0.334   5.463 -0.0176 -0.6616 -0.2237
 7752SOL    HW134889   2.728   0.273   5.528 -1.8665 -0.3744  1.0958
 7752SOL    HW234890   2.750   0.316   5.390  2.1334  0.8269  1.1507
 7753SOL     OW34891   0.618   2.640  16.981  0.0625  0.0326 -0.2322
 7753SOL    HW134892   0.704   2.611  17.013  0.7483  1.2175 -0.9949
 7753SOL    HW234893   0.565   2.560  16.981 -0.3751  0.2948  2.5093
 7754SOL     OW34894   0.531   1.926   0.296 -0.4353 -0.6692  0.4311
 7754SOL    HW134895   0.503   1.839   0.265 -0.8667 -0.3599 -0.0467
 7754SOL    HW234896   0.477   1.950   0.371 -1.2028  0.4884 -0.4993
 7755SOL     OW34897   2.443   0.229  16.971 -0.5806 -0.5591 -0.0093
 7755SOL    HW134898   2.395   0.310  16.987  2.2985  1.0947  0.2586
 7755SOL    HW234899   2.431   0.213  16.878  0.0156 -1.3007  0.0411
 7756SOL     OW34900   4.497   0.496   9.114 -0.0186 -0.1626  0.1852
 7756SOL    HW134901   4.503   0.453   9.029 -1.7413  0.2182 -0.1318
 7756SOL    HW234902   4.588   0.505   9.141 -0.1400  1.0247  0.1920
 7757SOL     OW34903   2.863   0.732   8.387 -0.1354 -0.4570  0.2494
 7757SOL    HW134904   2.870   0.825   8.411 -0.4985 -1.2512  3.4436
 7757SOL    HW234905   2.951   0.695   8.394  0.6542  1.3368 -0.0435
 7758SOL     OW34906   2.796   1.313  11.891  0.6710  0.0529  0.1534
 7758SOL    HW134907   2.785   1.269  11.975  3.1806 -0.2947  0.3038
 7758SOL    HW234908   2.737   1.388  11.894  1.0435  0.4014 -1.4477
 7759SOL     OW34909   1.782   4.295   2.736 -0.0635  0.1805  0.1845
 7759SOL    HW134910   1.699   4.257   2.765  0.4417 -0.3899  0.8866
 7759SOL    HW234911   1.766   4.347   2.657  1.5197 -0.2691 -0.4428
 7760SOL     OW34912   4.514   4.270   3.700  0.3893 -0.0684  0.1627
 7760SOL    HW134913   4.540   4.293   3.611  1.2940 -0.9187  0.2096
 7760SOL    HW234914   4.420   4.272   3.681  0.2801  0.0226  0.6906
 7761SOL     OW34915   0.952   3.873   5.981 -0.2037  0.0919  0.8276
 7761SOL    HW134916   0.867   3.828   5.979 -0.0287 -0.1795 -0.1753
 7761SOL    HW234917   0.997   3.831   5.908  0.5412 -0.0896  1.3943
 7762SOL     OW34918   0.382   3.886   4.354 -0.1032  0.3373 -0.5398
 7762SOL    HW134919   0.471   3.863   4.379  0.7038  1.3703 -2.4531
 7762SOL    HW234920   0.392   3.979   4.335  1.8084  0.6911  2.1774
 7763SOL     OW34921   0.146   3.479   9.406  0.2254  0.4046  0.0221
 7763SOL    HW134922   0.207   3.492   9.334 -0.3312 -0.0898 -0.5427
 7763SOL    HW234923   0.199   3.482   9.485 -0.6263  2.6432  0.5222
 7764SOL     OW34924   0.865   4.124  14.111  0.1335 -0.6313 -0.3088
 7764SOL    HW134925   0.842   4.031  14.112 -2.8562  0.1202  0.0742
 7764SOL    HW234926   0.956   4.114  14.082  0.3952  1.1480 -0.0873
 7765SOL     OW34927   3.739   1.190   9.837  0.3413  0.1861 -0.1734
 7765SOL    HW134928   3.790   1.263   9.872  0.3859 -0.1960  0.5593
 7765SOL    HW234929   3.758   1.126   9.906 -0.6879  0.6464  0.5539
 7766SOL     OW34930   2.995   1.285   4.323  0.1743  0.5623 -0.5133
 7766SOL    HW134931   2.950   1.285   4.239 -2.3537  0.2803  0.8171
 7766SOL    HW234932   2.918   1.274   4.380  1.5979 -0.8797  1.1250
 7767SOL     OW34933   1.910   3.662   2.858 -0.2770  0.6334 -0.4109
 7767SOL    HW134934   1.819   3.653   2.888  0.0827  0.7631  0.7170
 7767SOL    HW234935   1.955   3.656   2.943 -1.0796  1.4309  0.0727
 7768SOL     OW34936   3.962   3.498   4.027  0.3424  0.2145 -0.5347
 7768SOL    HW134937   3.955   3.539   4.113  3.2131 -0.3695 -0.0123
 7768SOL    HW234938   3.912   3.420   4.050  0.3641  0.0743 -0.9607
 7769SOL     OW34939   3.009   3.152   2.031  0.0998  0.0172  0.1958
 7769SOL    HW134940   2.974   3.115   1.951  1.5291  1.0623 -0.9091
 7769SOL    HW234941   2.946   3.217   2.061  1.6664  0.5614  2.3859
 7770SOL     OW34942   2.727   1.454   6.822  0.9374  0.0920 -0.2175
 7770SOL    HW134943   2.762   1.407   6.746 -0.8122  1.2982 -1.7731
 7770SOL    HW234944   2.633   1.448   6.808  1.0404  1.4414 -1.5216
 7771SOL     OW34945   1.949   3.960   4.010 -0.0468 -0.3842  0.3033
 7771SOL    HW134946   1.957   4.020   4.084  1.1833  0.0652 -0.1915
 7771SOL    HW234947   1.887   3.895   4.042  1.3502 -0.7040  2.4230
 7772SOL     OW34948   3.461   0.356  15.888 -0.6290  0.1816 -0.7141
 7772SOL    HW134949   3.438   0.283  15.830  0.1579  1.1030 -2.2059
 7772SOL    HW234950   3.545   0.316  15.912  0.7776  2.6489 -1.4821
 7773SOL     OW34951   0.482   3.157   5.475  0.6184 -0.7276  0.6337
 7773SOL    HW134952   0.425   3.202   5.538 -1.7486 -0.5820 -1.6038
 7773SOL    HW234953   0.495   3.071   5.514  2.5860 -1.2434 -1.1500
 7774SOL     OW34954   0.164   4.255   4.877 -0.1487  0.7986  0.1207
 7774SOL    HW134955   0.238   4.308   4.849 -0.1170  0.8743  0.3472
 7774SOL    HW234956   0.107   4.262   4.801  0.2798  0.1808 -0.2562
 7775SOL     OW34957   0.955   3.528   6.933 -0.8539 -0.3075  0.4112
 7775SOL    HW134958   0.960   3.589   7.007  2.3875  0.7237 -0.6456
 7775SOL    HW234959   0.872   3.483   6.950 -0.3717 -0.0860  3.3904
 7776SOL     OW34960   3.592   3.254   5.152  0.6084 -0.3106  0.2645
 7776SOL    HW134961   3.650   3.239   5.078 -0.6829 -2.4763 -0.2928
 7776SOL    HW234962   3.560   3.343   5.136 -1.1568 -0.8637  0.6926
 7777SOL     OW34963   4.490   0.101   9.433  0.0013  0.0852  0.0070
 7777SOL    HW134964   4.436   0.177   9.456  0.0667 -0.0969  0.7350
 7777SOL    HW234965   4.487   0.065   9.521 -2.1282 -0.4606 -0.2963
 7778SOL     OW34966   1.788   4.393   6.629 -0.3344 -0.2651  0.1939
 7778SOL    HW134967   1.699   4.356   6.637 -0.3358 -0.2343  0.3196
 7778SOL    HW234968   1.791   4.453   6.703 -1.0511 -1.7787  1.4602
 7779SOL     OW34969   1.897   1.963  10.005 -0.6829  0.1889  0.0430
 7779SOL    HW134970   1.953   1.982  10.080 -1.3258 -0.4656  0.6876
 7779SOL    HW234971   1.900   2.042   9.950  0.1985 -0.1139 -0.3520
 7780SOL     OW34972   1.515   4.163   4.868  0.3064  0.1225  0.1191
 7780SOL    HW134973   1.576   4.144   4.797  0.4872 -0.5985  0.4636
 7780SOL    HW234974   1.495   4.256   4.859 -1.4502 -0.2635 -0.0296
 7781SOL     OW34975   3.021   2.915   8.327  0.0780  0.0588  0.1782
 7781SOL    HW134976   3.092   2.962   8.372  0.6300 -0.2898 -0.3224
 7781SOL    HW234977   3.055   2.935   8.239 -2.6789  0.0340 -0.8835
 7782SOL     OW34978   1.099   3.014   4.054 -0.2624 -0.3827 -1.1063
 7782SOL    HW134979   1.063   2.931   4.087 -0.7117  0.4128  0.4005
 7782SOL    HW234980   1.049   3.076   4.108  0.3543 -0.1373 -0.8231
 7783SOL     OW34981   3.978   3.919   9.558 -0.2323 -0.0570  0.5083
 7783SOL    HW134982   3.974   3.829   9.524  0.6978 -0.2082  0.8016
 7783SOL    HW234983   4.066   3.925   9.596 -0.1818  1.7285  0.1161
 7784SOL     OW34984   1.156   1.765  16.282 -0.5119 -0.1003 -0.1514
 7784SOL    HW134985   1.205   1.686  16.258  1.0100 -0.0012  2.6385
 7784SOL    HW234986   1.093   1.732  16.346  0.2073 -0.8308  0.1789
 7785SOL     OW34987   2.626   1.094   2.156  0.1881  0.0091 -0.4419
 7785SOL    HW134988   2.568   1.094   2.232 -0.8833 -0.2409 -1.2615
 7785SOL    HW234989   2.592   1.172   2.111  0.2355  1.0148  1.2550
 7786SOL     OW34990   2.048   3.008   0.142  0.7103  0.7144  0.2400
 7786SOL    HW134991   2.079   3.069   0.209 -0.6944  1.3473  0.3065
 7786SOL    HW234992   1.957   3.036   0.131  0.0533 -0.4452  2.6334
 7787SOL     OW34993   2.211   2.649  12.850 -0.2622  0.2328  0.5486
 7787SOL    HW134994   2.277   2.675  12.913  0.6709 -4.3615  1.4729
 7787SOL    HW234995   2.236   2.709  12.779  1.1483 -1.6840 -0.5828
 7788SOL     OW34996   2.743   3.635   0.035  0.2250 -0.0830  0.6270
 7788SOL    HW134997   2.800   3.698  17.738  0.2488 -1.8659 -1.8101
 7788SOL    HW234998   2.676   3.692   0.071  0.1851  0.3741 -0.1517
 7789SOL     OW34999   3.346   0.311   2.052 -0.2672  0.2328  0.1614
 7789SOL    HW135000   3.322   0.378   2.117 -0.7339  1.3532 -1.1735
 7789SOL    HW235001   3.412   0.355   1.999  1.5474 -0.6189  1.7248
 7790SOL     OW35002   1.849   4.142  13.935  0.1816 -0.0694 -0.4549
 7790SOL    HW135003   1.860   4.237  13.940 -0.9492 -0.0614  1.9836
 7790SOL    HW235004   1.937   4.111  13.957  0.1016  0.5385  0.7813
 7791SOL     OW35005   0.033   2.690  15.526  0.1223 -0.0213  0.2495
 7791SOL    HW135006   0.050   2.596  15.536  2.8622  0.5453  0.7917
 7791SOL    HW235007   4.696   2.695  15.586  0.0914 -2.2952  0.4184
 7792SOL     OW35008   2.726   0.562   2.718 -0.1190  0.0137 -0.1727
 7792SOL    HW135009   2.814   0.524   2.715 -0.5833 -1.1552  1.2468
 7792SOL    HW235010   2.740   0.653   2.744  0.9796 -0.8417  2.2068
 7793SOL     OW35011   1.162   3.103   2.078  0.2641 -0.0408  0.8738
 7793SOL    HW135012   1.193   3.015   2.058  2.0479  0.6813  0.5008
 7793SOL    HW235013   1.152   3.087   2.172  1.7139 -0.2119  0.9949
 7794SOL     OW35014   3.889   4.611   3.870 -0.2596 -0.1750 -0.2379
 7794SOL    HW135015   3.874   4.701   3.897  1.7657  0.4511 -1.2721
 7794SOL    HW235016   3.838   4.568   3.939  0.1252  1.1648  0.8765
 7795SOL     OW35017   2.269   3.918  12.321  0.0825  0.6131 -0.4888
 7795SOL    HW135018   2.279   3.886  12.411  2.3971  3.1841  0.1874
 7795SOL    HW235019   2.188   3.875  12.295  0.4929  0.3329 -1.2945
 7796SOL     OW35020   3.893   3.776   5.052 -0.8916  0.1757  0.3296
 7796SOL    HW135021   3.911   3.712   5.120  2.1905  0.1894 -0.4997
 7796SOL    HW235022   3.894   3.729   4.969 -0.8528  0.1360  0.3528
 7797SOL     OW35023   2.881   3.973   8.064  0.7444 -0.3767 -0.0814
 7797SOL    HW135024   2.921   4.051   8.025 -0.9703  0.6426  0.1796
 7797SOL    HW235025   2.843   4.002   8.147  0.7582  2.0340 -0.8998
 7798SOL     OW35026   4.238   1.581   3.433 -0.1569 -0.0398 -0.1533
 7798SOL    HW135027   4.199   1.494   3.436 -0.6101  0.0981 -2.5062
 7798SOL    HW235028   4.323   1.553   3.398  0.3196  1.1988 -0.0122
 7799SOL     OW35029   1.741   2.375  12.179  0.8134 -0.8060  0.5373
 7799SOL    HW135030   1.691   2.347  12.102  1.1513 -0.5132  0.2137
 7799SOL    HW235031   1.829   2.341  12.165  0.8270 -0.7769  0.5531
 7800SOL     OW35032   3.319   4.615   6.977  0.1573  0.1536 -0.9487
 7800SOL    HW135033   3.405   4.573   6.968  0.9778  1.5640  0.2594
 7800SOL    HW235034   3.313   4.601   7.071  0.1792  1.0765 -0.8164
 7801SOL     OW35035   3.867   3.631   3.791 -0.7556  0.4794  0.1458
 7801SOL    HW135036   3.945   3.683   3.771 -0.4057 -0.6785 -1.5989
 7801SOL    HW235037   3.901   3.578   3.863  1.2956 -0.9734 -1.9003
 7802SOL     OW35038   2.451   1.012   8.054 -0.5627  0.0128  0.4065
 7802SOL    HW135039   2.506   1.002   8.132  0.8008  0.7779 -0.4808
 7802SOL    HW235040   2.500   1.061   7.990 -0.1181 -0.7441  0.1676
 7803SOL     OW35041   2.685   4.353  16.827 -0.6017  0.1779  0.1241
 7803SOL    HW135042   2.591   4.337  16.813 -0.0320 -1.4623 -1.6886
 7803SOL    HW235043   2.726   4.312  16.751  0.9122  0.0947  0.9973
 7804SOL     OW35044   4.418   4.737   3.697  0.7603  0.1449  0.5484
 7804SOL    HW135045   4.427   4.697   3.610 -0.0812  0.4584  0.3203
 7804SOL    HW235046   4.509   0.025   3.713  0.8448  0.6421 -0.6948
 7805SOL     OW35047   4.363   0.429   4.221  0.2793 -0.0151 -0.1063
 7805SOL    HW135048   4.372   0.343   4.260 -1.6563 -0.7328 -1.2237
 7805SOL    HW235049   4.297   0.406   4.155 -0.1395 -0.0489  0.3295
 7806SOL     OW35050   0.744   4.068   3.696 -0.0552 -0.2389 -0.0346
 7806SOL    HW135051   0.652   4.094   3.706  0.0971  0.3253 -0.1094
 7806SOL    HW235052   0.741   4.005   3.624 -2.3201 -1.7070  1.3554
 7807SOL     OW35053   2.366   2.350   1.515  0.1940 -0.3718  0.1222
 7807SOL    HW135054   2.317   2.270   1.536 -2.5477  1.9421  2.5949
 7807SOL    HW235055   2.323   2.413   1.573 -0.7321 -0.0450 -0.9084
 7808SOL     OW35056   2.304   2.023   6.449  0.2589 -0.2155 -0.3921
 7808SOL    HW135057   2.261   2.085   6.508  0.7368  1.4916 -1.8553
 7808SOL    HW235058   2.277   2.061   6.366  2.7460  0.7014 -0.7798
 7809SOL     OW35059   1.517   2.592   9.553  0.4061  0.1190  0.1052
 7809SOL    HW135060   1.501   2.611   9.645  1.7425  0.3315  0.2995
 7809SOL    HW235061   1.449   2.527   9.532 -0.0094  0.1940  1.1919
 7810SOL     OW35062   4.311   4.124   3.211 -0.4804 -0.0607  0.3322
 7810SOL    HW135063   4.265   4.072   3.146  1.6861  0.6557 -1.7517
 7810SOL    HW235064   4.356   4.178   3.147 -0.6715  0.9221  1.0287
 7811SOL     OW35065   4.366   3.784   8.698 -0.1253 -0.1501  0.3880
 7811SOL    HW135066   4.314   3.726   8.753  0.0604 -0.2937  0.4121
 7811SOL    HW235067   4.412   3.824   8.772 -0.4268 -0.4698  0.7472
 7812SOL     OW35068   3.622   2.957   4.783  0.2711 -0.2581  0.2175
 7812SOL    HW135069   3.579   2.871   4.788 -0.8359  0.1480 -2.3842
 7812SOL    HW235070   3.629   2.970   4.689  0.0010  0.5293  0.3048
 7813SOL     OW35071   1.590   2.215   5.112  0.7897  0.0198  0.5320
 7813SOL    HW135072   1.559   2.303   5.088  0.1874 -0.5558 -0.8135
 7813SOL    HW235073   1.520   2.170   5.159  0.1105 -0.8617 -1.3083
 7814SOL     OW35074   3.456   1.212   7.558  0.2993 -0.2154  0.1090
 7814SOL    HW135075   3.405   1.284   7.594 -1.3388 -2.7037  2.7652
 7814SOL    HW235076   3.538   1.260   7.567  0.2558 -0.6505  2.8265
 7815SOL     OW35077   0.430   3.103   5.064 -0.0518  0.1813 -0.1084
 7815SOL    HW135078   0.525   3.106   5.066  0.0503 -1.1758 -2.8039
 7815SOL    HW235079   0.403   3.080   4.975 -2.4530  0.3123  0.5932
 7816SOL     OW35080   3.819   0.690   1.793  0.7285  0.3166 -0.0718
 7816SOL    HW135081   3.853   0.737   1.717 -1.4263  0.0464 -1.2042
 7816SOL    HW235082   3.876   0.713   1.866  0.1538 -1.3421  0.9022
 7817SOL     OW35083   2.522   2.962   1.607  0.3631 -0.6157 -0.2708
 7817SOL    HW135084   2.604   3.000   1.575  0.3975 -0.7968 -0.3994
 7817SOL    HW235085   2.530   2.871   1.579 -0.4522 -0.2537 -1.6756
 7818SOL     OW35086   3.863   0.043   5.234  0.3806  0.6831 -0.2029
 7818SOL    HW135087   3.897   0.069   5.319  0.2997 -0.2979  0.1308
 7818SOL    HW235088   3.855   0.132   5.198  0.4116  0.9860  0.5498
 7819SOL     OW35089   2.285   2.191  17.311  0.1963 -0.1877  0.3465
 7819SOL    HW135090   2.257   2.118  17.366  0.7360 -0.4540  0.2698
 7819SOL    HW235091   2.361   2.229  17.354  0.6357 -0.2078 -0.3922
 7820SOL     OW35092   3.780   0.002   3.607 -0.5279  0.1626  0.1092
 7820SOL    HW135093   3.697   4.693   3.600 -0.7970  0.7925 -0.8326
 7820SOL    HW235094   3.811   4.677   3.673  0.4789  0.0089 -0.5183
 7821SOL     OW35095   2.458   4.189   9.081 -0.6682  0.7870 -0.1681
 7821SOL    HW135096   2.535   4.243   9.097 -0.7898  0.8172  0.3202
 7821SOL    HW235097   2.419   4.177   9.168  0.6995  3.1361  0.7634
 7822SOL     OW35098   4.146   0.224   6.612  0.0736 -0.5084  0.0683
 7822SOL    HW135099   4.165   0.316   6.593  0.4892 -0.6174 -0.0444
 7822SOL    HW235100   4.153   0.190   6.522 -0.1859 -0.1665 -0.0806
 7823SOL     OW35101   1.730   0.306   2.324  0.2568 -0.1676 -0.7365
 7823SOL    HW135102   1.683   0.378   2.282  0.2141 -0.2355 -0.8064
 7823SOL    HW235103   1.648   0.273   2.361 -0.1489  1.3226 -0.3129
 7824SOL     OW35104   3.317   2.197  12.943  0.6736  0.0696 -0.1864
 7824SOL    HW135105   3.303   2.197  13.037 -0.1034 -0.9413 -0.2934
 7824SOL    HW235106   3.309   2.102  12.935 -1.8334  0.0726  2.2746
 7825SOL     OW35107   1.004   3.505   3.246 -0.4962  0.1542 -0.4930
 7825SOL    HW135108   1.058   3.472   3.174 -0.5477  1.8468 -1.2988
 7825SOL    HW235109   1.012   3.435   3.310  1.0627  0.5329 -0.2714
 7826SOL     OW35110   1.103   4.170   8.689  0.3224  0.4636  0.3422
 7826SOL    HW135111   1.162   4.170   8.765  0.6447 -0.8440  0.0890
 7826SOL    HW235112   1.033   4.222   8.728 -2.2792 -0.4615 -3.1075
 7827SOL     OW35113   0.847   0.337   0.366 -0.5806 -0.3641  0.8452
 7827SOL    HW135114   0.934   0.336   0.326 -1.5023  0.3850 -1.2151
 7827SOL    HW235115   0.853   0.272   0.435 -1.9281  1.0476  2.3028
 7828SOL     OW35116   0.372   1.085  15.520  0.2687  0.0995 -0.3085
 7828SOL    HW135117   0.447   1.027  15.506 -0.0778 -0.7782  1.5940
 7828SOL    HW235118   0.307   1.049  15.460  1.5272 -0.4710 -1.3424
 7829SOL     OW35119   2.056   3.390   2.065  0.2989  0.5835  0.2073
 7829SOL    HW135120   2.090   3.366   2.151  2.1949  0.5801 -0.5270
 7829SOL    HW235121   2.004   3.461   2.104 -1.1180 -0.7088  0.6662
 7830SOL     OW35122   1.134   1.768   0.876 -0.0125 -0.1750 -0.0134
 7830SOL    HW135123   1.218   1.742   0.914  0.1503  0.3785  0.0043
 7830SOL    HW235124   1.077   1.733   0.944 -0.3836 -0.6878 -0.5924
 7831SOL     OW35125   0.916   0.013  12.511 -0.0680 -0.4981  0.3348
 7831SOL    HW135126   0.923   0.094  12.562  1.5137  0.2798 -1.1036
 7831SOL    HW235127   1.006   4.735  12.483  0.3475  0.6358  1.0058
 7832SOL     OW35128   2.778   3.377   3.366 -0.1087  0.2190  0.0419
 7832SOL    HW135129   2.807   3.450   3.311  2.1467 -1.2790 -0.7392
 7832SOL    HW235130   2.718   3.333   3.306 -0.9328 -1.2207  1.9322
 7833SOL     OW35131   4.101   3.068   4.834 -0.3427  0.1963 -0.4694
 7833SOL    HW135132   4.057   3.092   4.916  0.8646 -2.4763  0.9806
 7833SOL    HW235133   4.098   3.157   4.798 -0.4607 -0.8034 -2.9294
 7834SOL     OW35134   0.861   3.125   4.666  0.0544 -0.1452 -0.3096
 7834SOL    HW135135   0.837   3.116   4.573 -0.5659 -0.1593 -0.1478
 7834SOL    HW235136   0.957   3.125   4.665  0.0511  1.1301 -0.9958
 7835SOL     OW35137   0.069   0.909   2.198  0.3376 -0.3035 -0.3242
 7835SOL    HW135138   0.118   0.867   2.268 -1.7585 -0.0715  1.3067
 7835SOL    HW235139   4.730   0.944   2.244  0.6605 -0.9078  0.6564
 7836SOL     OW35140   0.823   0.144  16.903  0.3794 -0.1710 -0.4014
 7836SOL    HW135141   0.768   0.207  16.950 -1.8390 -2.2807 -0.1910
 7836SOL    HW235142   0.906   0.152  16.950  1.4278 -1.4243 -2.0433
 7837SOL     OW35143   2.267   4.055   2.717 -0.7436  0.2636 -0.5326
 7837SOL    HW135144   2.299   4.086   2.802 -1.3319 -2.6508  0.7743
 7837SOL    HW235145   2.203   4.124   2.700  1.3962  2.1932 -0.6884
 7838SOL     OW35146   3.596   3.224   6.003 -0.4816 -0.1763  0.3652
 7838SOL    HW135147   3.619   3.221   5.910 -0.2665 -0.0241  0.4126
 7838SOL    HW235148   3.681   3.238   6.045  0.0679  0.3831 -0.9008
 7839SOL     OW35149   4.674   3.639  11.104  0.0927 -0.4922  0.3058
 7839SOL    HW135150   4.696   3.725  11.068  0.1704 -1.0987 -1.1124
 7839SOL    HW235151   4.579   3.634  11.099  0.1648 -1.7880 -0.0103
 7840SOL     OW35152   4.563   0.792  13.514  0.6947 -0.0690 -0.5113
 7840SOL    HW135153   4.561   0.853  13.440 -0.3462  1.9205  1.1566
 7840SOL    HW235154   4.497   0.727  13.490  1.6949 -1.7520  1.3213
 7841SOL     OW35155   2.775   2.710   9.279  0.5023  0.2469  0.4530
 7841SOL    HW135156   2.749   2.711   9.371  0.8777 -1.0089  0.5769
 7841SOL    HW235157   2.702   2.768   9.257  0.3299  0.1112  0.6729
 7842SOL     OW35158   2.189   2.922   8.030  0.0270 -0.2934 -0.0072
 7842SOL    HW135159   2.121   2.976   8.071  0.8169 -0.2895  1.2976
 7842SOL    HW235160   2.172   2.931   7.937  0.3432  0.5976  0.0228
 7843SOL     OW35161   4.227   3.378  14.937 -0.0013 -0.8696  0.4252
 7843SOL    HW135162   4.270   3.422  14.864 -1.2841  0.0047  0.1980
 7843SOL    HW235163   4.204   3.300  14.888 -0.8264 -1.5529  1.9071
 7844SOL     OW35164   3.905   3.679  17.378  0.5574 -0.1221 -0.0047
 7844SOL    HW135165   3.893   3.640  17.292 -0.3288 -2.0641  0.9897
 7844SOL    HW235166   3.895   3.604  17.436 -0.4441  1.0089  1.2953
 7845SOL     OW35167   3.148   0.856   8.688 -0.1270  0.1683  0.6510
 7845SOL    HW135168   3.139   0.772   8.733  0.2253 -1.0414 -1.5249
 7845SOL    HW235169   3.242   0.872   8.684 -0.3377  1.6941  1.5380
 7846SOL     OW35170   2.683   2.095   9.194  0.3321  0.3113 -0.2302
 7846SOL    HW135171   2.740   2.149   9.248  0.4480 -1.9298  1.9318
 7846SOL    HW235172   2.611   2.157   9.186  1.5204  1.6560 -0.3865
 7847SOL     OW35173   0.268   4.125   7.605  0.1712  0.0975 -0.4691
 7847SOL    HW135174   0.327   4.076   7.548  1.9612  0.6585  0.9153
 7847SOL    HW235175   0.331   4.192   7.633  0.2347 -0.8682  1.7079
 7848SOL     OW35176   2.609   4.516   2.862  0.8544 -0.6638 -0.5910
 7848SOL    HW135177   2.686   4.529   2.807  0.1079 -0.7053 -1.6458
 7848SOL    HW235178   2.545   4.482   2.800 -1.0135  0.0789  0.9329
 7849SOL     OW35179   2.079   0.031   4.056  0.0994  0.4250 -0.1234
 7849SOL    HW135180   2.072   0.108   3.999 -1.9037  0.1376 -0.2486
 7849SOL    HW235181   2.049   4.705   3.991 -0.8398 -1.0446  1.7859
 7850SOL     OW35182   4.094   0.458   5.650  0.1644  0.0233  0.2198
 7850SOL    HW135183   4.051   0.531   5.694 -1.4093 -0.5997 -0.2960
 7850SOL    HW235184   4.021   0.428   5.595  0.8274  0.8469 -1.1350
 7851SOL     OW35185   1.308   2.175   6.482  0.0022 -0.3284  0.6760
 7851SOL    HW135186   1.333   2.246   6.542  0.5858 -0.3230  0.4265
 7851SOL    HW235187   1.298   2.102   6.542 -0.2518 -0.3820  0.5677
 7852SOL     OW35188   3.645   0.462   8.166 -0.3291  0.3117  0.1960
 7852SOL    HW135189   3.592   0.470   8.087  0.1818  1.8674  0.0068
 7852SOL    HW235190   3.583   0.405   8.212 -0.2445 -0.2850 -0.4347
 7853SOL     OW35191   1.498   0.599  11.915  0.2413  0.2890 -0.1033
 7853SOL    HW135192   1.403   0.597  11.923  0.3832  0.2735  1.5452
 7853SOL    HW235193   1.538   0.532  11.970 -0.9833 -1.2932 -1.1247
 7854SOL     OW35194   3.262   1.459   5.215  0.2991 -0.0226  0.4169
 7854SOL    HW135195   3.212   1.536   5.189 -1.9743 -1.1369  1.4860
 7854SOL    HW235196   3.192   1.400   5.243  0.6313 -0.4346  0.3849
 7855SOL     OW35197   1.483   1.455   1.829  0.3442  0.4421  0.2388
 7855SOL    HW135198   1.459   1.545   1.806  2.2019  1.4664  2.2891
 7855SOL    HW235199   1.465   1.462   1.923  0.3948  2.8941  0.0707
 7856SOL     OW35200   0.572   0.780   9.052  0.1195  0.6289 -0.1410
 7856SOL    HW135201   0.546   0.708   8.995  0.9219 -0.3717  0.7510
 7856SOL    HW235202   0.493   0.834   9.045  0.6233  1.0517 -2.7697
 7857SOL     OW35203   3.004   3.328   4.300 -0.0445 -0.0230  0.1654
 7857SOL    HW135204   3.100   3.321   4.298 -0.0672 -0.6503  1.9597
 7857SOL    HW235205   2.979   3.243   4.264  1.8546 -0.2618 -0.6207
 7858SOL     OW35206   2.017   3.767  13.207 -0.1225  0.2856  0.7506
 7858SOL    HW135207   2.070   3.730  13.277  2.1165  0.4245 -0.8844
 7858SOL    HW235208   1.930   3.762  13.247 -1.2584  1.8662 -1.5495
 7859SOL     OW35209   0.964   1.680  16.452 -0.3558  0.3393 -0.3883
 7859SOL    HW135210   1.015   1.686  16.533 -2.4140 -1.5282  1.0557
 7859SOL    HW235211   0.876   1.676  16.488 -0.5463 -0.0461 -0.8856
 7860SOL     OW35212   3.930   2.834   1.248 -0.0523 -0.4919 -0.1784
 7860SOL    HW135213   4.011   2.884   1.238 -0.0026 -0.1696  1.9343
 7860SOL    HW235214   3.860   2.899   1.255  0.4583 -0.1515  1.7815
 7861SOL     OW35215   0.316   3.507   9.213  0.5773 -0.2972  0.1382
 7861SOL    HW135216   0.340   3.573   9.147 -1.4311 -2.1475 -2.4529
 7861SOL    HW235217   0.328   3.426   9.164  1.9419  0.1664 -0.3233
 7862SOL     OW35218   4.708   3.787   2.963 -0.2518 -0.0104 -0.6004
 7862SOL    HW135219   4.634   3.781   2.903 -1.3611 -0.4799  0.8268
 7862SOL    HW235220   4.700   3.873   3.004 -0.5956 -0.4180  0.1935
 7863SOL     OW35221   3.091   2.610   9.345  0.2076  0.6925  0.5200
 7863SOL    HW135222   3.001   2.636   9.326  0.6069  1.4125 -0.4122
 7863SOL    HW235223   3.142   2.690   9.327  0.1437  0.6181  0.0234
 7864SOL     OW35224   4.285   0.205   1.822  0.4111 -0.1518 -0.2650
 7864SOL    HW135225   4.246   0.287   1.791 -1.2255 -0.9405 -0.2672
 7864SOL    HW235226   4.324   0.177   1.740  1.4676  0.9758 -0.1648
 7865SOL     OW35227   0.510   2.773   2.160 -0.0721  0.3132  0.6751
 7865SOL    HW135228   0.439   2.825   2.123  0.2102 -0.3459 -0.7913
 7865SOL    HW235229   0.501   2.797   2.252 -0.7235  1.9097  0.2025
 7866SOL     OW35230   0.057   2.115   0.435  0.4804 -0.6155 -0.7362
 7866SOL    HW135231   0.026   2.094   0.347 -0.5545 -1.3021 -0.2102
 7866SOL    HW235232   4.712   2.112   0.484  1.2632  0.9539  0.6701
 7867SOL     OW35233   0.679   2.655   2.563 -0.3590 -0.3582 -0.2728
 7867SOL    HW135234   0.772   2.678   2.576 -0.3419  0.0405 -1.0895
 7867SOL    HW235235   0.670   2.728   2.501 -0.6835  0.9979  1.3451
 7868SOL     OW35236   3.421   4.268   4.750  0.1398 -0.1607  0.1640
 7868SOL    HW135237   3.422   4.333   4.680  0.7963 -1.8501 -1.4057
 7868SOL    HW235238   3.494   4.288   4.809 -0.1200 -0.3862  0.5619
 7869SOL     OW35239   4.166   2.016  12.806  0.2378 -0.1449  0.4669
 7869SOL    HW135240   4.195   2.088  12.862 -2.0755  1.0878  0.0841
 7869SOL    HW235241   4.110   1.974  12.871  0.7398  2.0308  2.3167
 7870SOL     OW35242   1.602   1.954   3.433 -0.2938 -0.2641 -0.2993
 7870SOL    HW135243   1.584   2.043   3.401  0.6546 -0.1857 -0.6198
 7870SOL    HW235244   1.609   1.973   3.526  1.4820 -0.9504 -0.3044
 7871SOL     OW35245   4.270   2.448   4.656 -0.4723 -0.2690  0.3930
 7871SOL    HW135246   4.352   2.411   4.622  0.0709  0.0193  1.3635
 7871SOL    HW235247   4.311   2.495   4.729 -0.8848  1.9664 -0.8359
 7872SOL     OW35248   3.400   3.097   4.342  0.7188  0.5154  0.2944
 7872SOL    HW135249   3.376   3.179   4.385  1.0725  1.1797 -0.8018
 7872SOL    HW235250   3.375   3.030   4.407 -0.6221  1.2399  0.5333
 7873SOL     OW35251   4.164   4.503   8.257 -0.0592  0.5036 -0.4908
 7873SOL    HW135252   4.221   4.482   8.331  1.3541 -0.1873 -1.7636
 7873SOL    HW235253   4.121   4.423   8.227  0.0496  0.5966 -0.9092
 7874SOL     OW35254   0.536   3.937   6.531  0.3562 -0.0181 -0.2402
 7874SOL    HW135255   0.561   3.910   6.619 -1.8108 -0.1883  0.3267
 7874SOL    HW235256   0.594   3.874   6.488 -1.0494 -0.8484 -0.9334
 7875SOL     OW35257   1.420   0.926   2.307 -0.5153  0.4744  0.2241
 7875SOL    HW135258   1.326   0.941   2.307 -0.8449 -1.6177 -0.9120
 7875SOL    HW235259   1.449   0.966   2.225  0.4056  0.8692  0.7389
 7876SOL     OW35260   4.700   3.776   3.486  0.1533  0.0446  0.4010
 7876SOL    HW135261   4.713   3.858   3.534 -0.6503 -0.0197  0.7120
 7876SOL    HW235262   0.025   3.778   3.414  0.5255  1.1005  0.7526
 7877SOL     OW35263   0.814   1.101  15.332 -0.2252 -0.0243  0.0729
 7877SOL    HW135264   0.750   1.171  15.343  0.2706  0.7850 -2.3195
 7877SOL    HW235265   0.818   1.098  15.236 -0.2753  2.4915  0.0087
 7878SOL     OW35266   3.111   0.103   5.416 -0.2709  0.0774  0.0440
 7878SOL    HW135267   3.035   0.058   5.379  0.2882  0.7108 -1.8937
 7878SOL    HW235268   3.169   0.106   5.339 -1.5193  2.1750 -0.7989
 7879SOL     OW35269   3.721   0.954   4.998 -0.0005  0.2239 -0.0502
 7879SOL    HW135270   3.643   0.977   4.947  1.1430  1.4293 -1.2285
 7879SOL    HW235271   3.740   1.036   5.044 -0.3624  0.5626 -0.5066
 7880SOL     OW35272   3.978   2.789   1.625 -1.1079  0.2533 -0.0879
 7880SOL    HW135273   3.945   2.719   1.568 -0.9493 -1.3001  1.7340
 7880SOL    HW235274   3.919   2.859   1.596  0.7474  1.5123 -0.8366
 7881SOL     OW35275   3.875   2.329   8.919 -0.0121 -0.6483  0.5070
 7881SOL    HW135276   3.845   2.239   8.935 -0.9166 -0.4585 -0.1267
 7881SOL    HW235277   3.956   2.324   8.869 -0.2776 -1.2743  0.1401
 7882SOL     OW35278   0.394   4.371   7.606 -0.5042  0.7823 -0.1115
 7882SOL    HW135279   0.397   4.408   7.694 -0.1351  0.9209 -0.1837
 7882SOL    HW235280   0.375   4.444   7.547 -0.0590  0.4956 -0.6020
 7883SOL     OW35281   0.436   0.294   6.490 -0.3712 -0.4103  0.0192
 7883SOL    HW135282   0.372   0.225   6.510  0.7002 -1.2397  0.6079
 7883SOL    HW235283   0.456   0.334   6.574  2.3027 -0.7212 -0.4668
 7884SOL     OW35284   2.961   4.299   3.865 -0.4845 -0.0050 -0.1915
 7884SOL    HW135285   2.942   4.209   3.893 -3.1477  0.9422  1.0543
 7884SOL    HW235286   2.962   4.292   3.769 -0.2639 -1.8227 -0.0504
 7885SOL     OW35287   4.409   2.953   7.627 -0.1401 -0.0598 -0.5351
 7885SOL    HW135288   4.419   2.982   7.718 -0.4099 -1.8111  0.0585
 7885SOL    HW235289   4.445   2.864   7.631  0.1703  0.0941  0.0255
 7886SOL     OW35290   2.593   3.574   9.561 -0.0775 -0.1970  0.1538
 7886SOL    HW135291   2.683   3.564   9.528  0.3938  2.5628  0.6108
 7886SOL    HW235292   2.550   3.493   9.532  1.5735 -1.0863  0.1439
 7887SOL     OW35293   1.905   0.234   6.062  0.0046  0.1075  0.4684
 7887SOL    HW135294   1.861   0.149   6.066 -3.7682  2.2394  3.6517
 7887SOL    HW235295   1.872   0.259   5.975  0.6868  0.2515  0.2420
 7888SOL     OW35296   3.942   4.725   4.979 -0.4826  0.3849  0.0965
 7888SOL    HW135297   4.035   0.007   4.976 -0.3769 -0.3263 -1.4214
 7888SOL    HW235298   3.910   4.725   5.069 -0.1598 -1.6557  0.2144
 7889SOL     OW35299   0.665   3.920   6.063 -0.2905  0.7661  0.2988
 7889SOL    HW135300   0.578   3.941   6.097 -0.2517 -0.0222  0.8577
 7889SOL    HW235301   0.680   3.841   6.114  3.6234 -0.2127 -2.3668
 7890SOL     OW35302   1.196   1.530   9.732 -0.6047  0.1646 -0.2392
 7890SOL    HW135303   1.182   1.436   9.740  0.0260  0.3733  3.0197
 7890SOL    HW235304   1.288   1.534   9.704 -0.5453  0.6195  0.0273
 7891SOL     OW35305   0.765   1.986   5.336 -0.0820 -0.6682  0.3762
 7891SOL    HW135306   0.758   1.948   5.248  1.5970 -1.0991  0.4251
 7891SOL    HW235307   0.698   2.055   5.336  0.9496  0.3381 -0.2180
 7892SOL     OW35308   0.273   1.452  11.358  0.2983 -0.1961  0.1679
 7892SOL    HW135309   0.279   1.485  11.268 -0.0581 -0.9666 -0.1331
 7892SOL    HW235310   0.191   1.487  11.394 -1.2349 -1.1386 -2.3934
 7893SOL     OW35311   0.342   2.869   4.839  0.2751 -0.1963 -0.2220
 7893SOL    HW135312   0.273   2.861   4.904 -0.6576  0.3540 -1.1468
 7893SOL    HW235313   0.405   2.815   4.886 -0.0454  0.9553  1.5187
 7894SOL     OW35314   1.957   2.305   6.585 -0.3183  0.0135 -0.0884
 7894SOL    HW135315   1.972   2.376   6.523  0.3813  1.9435  2.2672
 7894SOL    HW235316   1.896   2.354   6.640 -0.0204 -1.2290  1.3667
 7895SOL     OW35317   0.810   3.700   8.227  0.1628  0.1240 -0.3190
 7895SOL    HW135318   0.736   3.740   8.273  0.5334 -0.0567  0.4194
 7895SOL    HW235319   0.782   3.672   8.140  3.4537  0.1732 -1.3816
 7896SOL     OW35320   1.445   3.197   1.005 -0.1386  0.0981 -0.0784
 7896SOL    HW135321   1.422   3.284   0.972 -2.5738 -1.1309 -1.5694
 7896SOL    HW235322   1.461   3.158   0.919  0.4022 -2.5781  1.2301
 7897SOL     OW35323   0.438   2.245   7.987 -0.1473 -0.2478  0.1907
 7897SOL    HW135324   0.485   2.230   8.069 -0.8678 -3.5822 -0.0229
 7897SOL    HW235325   0.465   2.332   7.955  1.3447 -1.1907 -1.0982
 7898SOL     OW35326   0.403   1.852   8.599 -0.0125  0.4379  0.1187
 7898SOL    HW135327   0.363   1.931   8.563  0.0927 -0.1574 -1.2696
 7898SOL    HW235328   0.339   1.821   8.663 -0.2052  1.5756  0.4836
 7899SOL     OW35329   1.178   4.017   6.468 -0.0033 -0.0163  0.0857
 7899SOL    HW135330   1.206   4.081   6.534 -0.8397  1.7326 -1.2659
 7899SOL    HW235331   1.089   4.006   6.501 -1.2691  0.4636 -3.2517
 7900SOL     OW35332   1.377   2.955   3.681  0.5479 -0.4588  0.4518
 7900SOL    HW135333   1.305   2.978   3.740 -1.1483 -0.4299 -1.6330
 7900SOL    HW235334   1.416   3.040   3.659 -0.6170 -0.1149 -0.2921
 7901SOL     OW35335   4.644   3.990  13.546 -0.3841  0.1847  0.6067
 7901SOL    HW135336   4.733   4.003  13.514 -0.5365  0.1435  0.1589
 7901SOL    HW235337   4.669   3.898  13.556  2.4073  0.5720 -2.5606
 7902SOL     OW35338   0.331   2.291   1.420 -0.3435 -0.4064 -0.2194
 7902SOL    HW135339   0.236   2.286   1.419 -0.3391 -0.4930 -0.2175
 7902SOL    HW235340   0.361   2.304   1.330 -1.4150 -1.4723 -0.7174
 7903SOL     OW35341   4.281   1.997  16.494  0.0422  0.0654  0.6177
 7903SOL    HW135342   4.212   2.013  16.429  0.8475  0.4591 -0.1347
 7903SOL    HW235343   4.354   1.990  16.432 -0.0225 -0.8329  0.6340
 7904SOL     OW35344   4.613   2.431   5.644  0.1238  0.2208 -0.0573
 7904SOL    HW135345   4.671   2.419   5.719  1.4073  1.2613 -0.8947
 7904SOL    HW235346   4.548   2.489   5.682  0.0682 -0.5780  1.0456
 7905SOL     OW35347   0.230   2.530   0.772 -0.6025 -0.0764  0.4577
 7905SOL    HW135348   0.161   2.571   0.720 -1.2847  0.0773  1.4753
 7905SOL    HW235349   0.207   2.440   0.749  0.5017 -0.6967  1.7378
 7906SOL     OW35350   1.756   0.603  17.437 -0.2742  0.0126  0.0158
 7906SOL    HW135351   1.692   0.633  17.501 -0.8433  0.8022 -0.9110
 7906SOL    HW235352   1.757   0.510  17.459 -0.6068  0.4089  1.6686
 7907SOL     OW35353   0.648   4.325   3.595 -0.3706  0.2500  0.0956
 7907SOL    HW135354   0.739   4.299   3.607 -0.5562 -1.5601 -2.6292
 7907SOL    HW235355   0.653   4.398   3.658 -0.2603 -0.7347  1.2331
 7908SOL     OW35356   0.266   2.845   8.783 -0.8775 -0.0545  0.1316
 7908SOL    HW135357   0.242   2.840   8.691  2.0546 -0.7275 -0.6048
 7908SOL    HW235358   0.359   2.820   8.783 -0.7222  0.4784  1.4676
 7909SOL     OW35359   2.170   2.408  11.093 -0.1313 -0.0011  0.2259
 7909SOL    HW135360   2.218   2.389  11.173  2.1564 -0.4318 -1.2429
 7909SOL    HW235361   2.118   2.327  11.090 -0.2149  0.0867 -0.8560
 7910SOL     OW35362   3.826   2.331  15.802 -0.3418  0.5331 -0.0783
 7910SOL    HW135363   3.754   2.268  15.799  0.9420 -0.8642 -1.8996
 7910SOL    HW235364   3.782   2.416  15.805  0.3214  0.7080  3.6493
 7911SOL     OW35365   1.166   4.146   6.720 -0.2907  0.3263 -0.1083
 7911SOL    HW135366   1.239   4.194   6.760 -0.2103 -1.3398  1.7232
 7911SOL    HW235367   1.099   4.214   6.721  1.0264  1.6305  0.5651
 7912SOL     OW35368   3.815   0.599   6.457  0.4290  0.4130  0.3265
 7912SOL    HW135369   3.760   0.667   6.417  2.0776  1.7087  0.2744
 7912SOL    HW235370   3.820   0.540   6.382 -1.9060  0.9506 -0.2708
 7913SOL     OW35371   2.988   2.683   3.495 -0.4422  0.6695  0.0474
 7913SOL    HW135372   2.951   2.753   3.442 -1.6832  0.3105  0.4453
 7913SOL    HW235373   3.044   2.730   3.557  1.5880 -2.4562  0.6257
 7914SOL     OW35374   4.078   4.355   1.839  0.0691 -0.0445  0.0559
 7914SOL    HW135375   4.026   4.358   1.758 -1.0916 -2.5197  0.6951
 7914SOL    HW235376   4.168   4.379   1.817 -0.6161  0.2680 -2.4729
 7915SOL     OW35377   1.636   0.893   9.137 -0.0790  0.2154 -0.7793
 7915SOL    HW135378   1.703   0.840   9.094 -1.6621 -1.6174 -0.9758
 7915SOL    HW235379   1.592   0.941   9.066  1.0223  0.3366 -1.3723
 7916SOL     OW35380   4.588   2.551   5.072 -0.7715  0.0809  0.6399
 7916SOL    HW135381   4.536   2.630   5.082 -1.6577 -0.3164 -0.8879
 7916SOL    HW235382   4.602   2.531   5.165  1.9316 -1.2270 -0.0487
 7917SOL     OW35383   4.126   2.081   2.886 -0.0585 -0.0417  0.2125
 7917SOL    HW135384   4.201   2.033   2.921 -0.4534 -1.6094 -1.0844
 7917SOL    HW235385   4.072   2.062   2.962  1.0062 -0.4872  0.8607
 7918SOL     OW35386   2.411   4.263   1.714 -0.0846  0.1771 -0.0610
 7918SOL    HW135387   2.441   4.282   1.625 -0.6623  0.2985 -0.2310
 7918SOL    HW235388   2.471   4.319   1.763  0.7037  0.2626 -1.1194
 7919SOL     OW35389   0.612   1.912  13.674 -0.5525  0.2590 -0.1063
 7919SOL    HW135390   0.610   1.999  13.714 -0.3452  0.0222  0.4202
 7919SOL    HW235391   0.558   1.861  13.734 -0.9158 -0.7836 -1.3079
 7920SOL     OW35392   2.705   4.257   4.251  0.0335  0.6084  0.9264
 7920SOL    HW135393   2.632   4.278   4.310 -1.1699 -0.3377 -0.2065
 7920SOL    HW235394   2.666   4.182   4.207 -0.9894  1.7394 -0.1012
 7921SOL     OW35395   3.809   3.253   3.010 -0.4399 -0.3515  0.0376
 7921SOL    HW135396   3.824   3.220   2.921 -0.4529 -1.7882  0.5708
 7921SOL    HW235397   3.714   3.250   3.011 -0.4601  0.1574 -0.5591
 7922SOL     OW35398   1.268   0.044   6.180 -0.2248  0.4539  0.4004
 7922SOL    HW135399   1.178   0.070   6.159 -0.4171 -1.7012 -1.4038
 7922SOL    HW235400   1.313   0.067   6.099  0.2220 -0.1676  0.4706
 7923SOL     OW35401   1.366   1.488   5.739 -0.4579  0.0000  0.9323
 7923SOL    HW135402   1.448   1.527   5.710 -1.6368  1.1296 -0.9215
 7923SOL    HW235403   1.366   1.401   5.699  0.1902  0.5662 -0.2880
 7924SOL     OW35404   0.590   1.611   3.263  1.2366  0.3010 -0.2937
 7924SOL    HW135405   0.617   1.571   3.181  0.0552  0.7765 -0.9075
 7924SOL    HW235406   0.542   1.682   3.222  1.6572  0.3985 -0.6146
 7925SOL     OW35407   1.293   3.752  12.240 -0.0237 -0.2159 -0.2680
 7925SOL    HW135408   1.204   3.787  12.239  0.6403  1.4413 -0.7962
 7925SOL    HW235409   1.268   3.662  12.220  0.4521 -0.6526  1.1387
 7926SOL     OW35410   3.902   1.112   5.200 -0.2709 -0.1589  0.0619
 7926SOL    HW135411   3.968   1.096   5.132 -0.2806 -1.3196  0.3225
 7926SOL    HW235412   3.875   1.202   5.182  4.1005  0.9405 -1.0863
 7927SOL     OW35413   0.362   3.044  13.187  0.1017 -0.2165 -0.0794
 7927SOL    HW135414   0.346   3.113  13.251 -0.1693  0.1529 -0.5419
 7927SOL    HW235415   0.412   2.984  13.243 -0.6447  0.3816  1.2286
 7928SOL     OW35416   0.285   0.490   6.631 -0.4060 -0.4688 -0.0137
 7928SOL    HW135417   0.215   0.428   6.612 -1.6636  1.0812 -0.4308
 7928SOL    HW235418   0.292   0.547   6.554  0.5273  0.6540  0.8977
 7929SOL     OW35419   0.035   0.723   9.948 -0.1949 -0.4157 -0.4925
 7929SOL    HW135420   4.691   0.748   9.991  0.1420  1.1710 -0.7732
 7929SOL    HW235421   0.006   0.636   9.919 -0.0721 -0.6451  0.0778
 7930SOL     OW35422   3.607   0.336   5.384 -0.0500  0.0755 -0.0198
 7930SOL    HW135423   3.614   0.388   5.304 -0.2104  0.3152  0.1227
 7930SOL    HW235424   3.518   0.365   5.406  0.0064 -0.8977  1.5026
 7931SOL     OW35425   4.728   0.224   3.139 -0.1335 -0.4536 -0.1200
 7931SOL    HW135426   4.641   0.230   3.100  0.6127 -1.4232 -1.8993
 7931SOL    HW235427   0.023   0.313   3.125  1.6636 -0.9539  0.8788
 7932SOL     OW35428   3.444   0.786   5.705  0.1803 -0.7861  0.4269
 7932SOL    HW135429   3.365   0.793   5.651  0.3124  1.0784  0.4688
 7932SOL    HW235430   3.514   0.822   5.650 -0.0074  1.1015  1.4238
 7933SOL     OW35431   2.078   3.779   2.679 -0.3303 -0.0471 -0.4582
 7933SOL    HW135432   2.032   3.721   2.741  0.8577  0.8421  1.2616
 7933SOL    HW235433   2.018   3.854   2.683 -1.3199 -0.8144 -1.0788
 7934SOL     OW35434   3.176   2.457  14.607  0.3270 -0.0533  0.6799
 7934SOL    HW135435   3.142   2.546  14.621 -1.4582 -0.8758  1.5208
 7934SOL    HW235436   3.268   2.481  14.597  0.6224 -1.3219  0.4074
 7935SOL     OW35437   0.689   3.773   8.870 -0.0133 -0.2274 -0.0442
 7935SOL    HW135438   0.713   3.756   8.779  0.6114  2.5176 -0.3974
 7935SOL    HW235439   0.623   3.706   8.888 -1.2288  1.4396  1.8133
 7936SOL     OW35440   0.701   2.168  10.605  0.7132  0.3207  0.2316
 7936SOL    HW135441   0.727   2.082  10.639  0.0693  1.8029  4.5334
 7936SOL    HW235442   0.770   2.188  10.542 -0.1569 -0.4105 -0.9636
 7937SOL     OW35443   3.750   2.645   2.534  0.1286  0.9180 -0.3161
 7937SOL    HW135444   3.702   2.660   2.616  1.6439 -1.3391  1.0066
 7937SOL    HW235445   3.678   2.638   2.472  0.4396  1.8212 -0.7758
 7938SOL     OW35446   0.373   3.564  12.153  0.2470  0.4562 -0.0140
 7938SOL    HW135447   0.435   3.491  12.151 -2.8098 -2.1629  0.8776
 7938SOL    HW235448   0.390   3.620  12.077 -1.0001  0.8987  0.0228
 7939SOL     OW35449   3.062   3.406   5.667 -0.2699  0.5179  0.2962
 7939SOL    HW135450   3.113   3.361   5.599  1.8267  1.7389  1.0667
 7939SOL    HW235451   3.019   3.480   5.623 -0.4909 -1.3392 -2.6408
 7940SOL     OW35452   3.799   1.904   9.738  0.2090  0.0584  0.0370
 7940SOL    HW135453   3.804   1.864   9.825  1.0707  1.3731  0.6011
 7940SOL    HW235454   3.705   1.893   9.724  0.3203 -0.1911 -0.5193
 7941SOL     OW35455   0.612   2.329   7.709  0.1479 -0.0378  0.3615
 7941SOL    HW135456   0.584   2.347   7.799 -0.6901 -0.9752  0.2782
 7941SOL    HW235457   0.628   2.421   7.685  0.2233 -0.4949 -1.3199
 7942SOL     OW35458   1.976   2.077   6.400 -0.4563 -0.2380 -0.4371
 7942SOL    HW135459   1.883   2.076   6.421 -1.1805 -0.1891 -3.5619
 7942SOL    HW235460   1.995   2.158   6.447  0.4726  0.4277 -1.9383
 7943SOL     OW35461   0.332   0.613   0.820 -0.0728  0.6977  0.6440
 7943SOL    HW135462   0.368   0.699   0.844  0.4631  0.6695 -0.0456
 7943SOL    HW235463   0.239   0.635   0.810 -0.1456 -0.5580 -1.4863
 7944SOL     OW35464   3.599   3.393   2.044 -0.2191 -0.4319  0.3005
 7944SOL    HW135465   3.539   3.438   2.104 -0.7316 -2.7861  1.5246
 7944SOL    HW235466   3.558   3.307   2.034 -0.1079 -0.5048  0.4841
 7945SOL     OW35467   0.452   2.502   7.145 -0.7521 -0.1523 -0.0423
 7945SOL    HW135468   0.434   2.527   7.236  0.0140 -1.4990  0.4727
 7945SOL    HW235469   0.393   2.426   7.146  0.2068 -0.8896 -0.1259
 7946SOL     OW35470   3.174   1.565   8.630 -0.0880  0.0937 -0.4695
 7946SOL    HW135471   3.150   1.649   8.667 -0.1033 -0.2094  0.2129
 7946SOL    HW235472   3.095   1.531   8.589 -0.3864  0.8923 -0.5518
 7947SOL     OW35473   3.726   1.731   7.012  0.7916 -0.1748 -0.5409
 7947SOL    HW135474   3.817   1.750   7.032  1.0611  1.8618 -3.6762
 7947SOL    HW235475   3.715   1.767   6.924  0.6429 -0.0706 -0.4809
 7948SOL     OW35476   0.701   3.743   7.719  0.0157 -0.1946  0.2950
 7948SOL    HW135477   0.769   3.714   7.657  1.3508 -1.8024  2.4910
 7948SOL    HW235478   0.757   3.780   7.787  2.4599  0.4452 -2.0500
 7949SOL     OW35479   0.758   2.475   5.697 -0.4282  0.1909 -0.4987
 7949SOL    HW135480   0.764   2.380   5.698 -1.9274  0.1485  3.1740
 7949SOL    HW235481   0.698   2.486   5.624 -0.8720 -2.1420 -0.4623
 7950SOL     OW35482   4.015   2.549   9.062 -0.3075  0.0930 -0.1610
 7950SOL    HW135483   4.087   2.496   9.097 -0.2584  0.2995  0.0496
 7950SOL    HW235484   3.954   2.477   9.048 -0.1797 -0.1336  0.4373
 7951SOL     OW35485   1.472   2.012   4.229  0.1340  0.4372 -0.3096
 7951SOL    HW135486   1.541   1.972   4.282  0.2739  2.0668  0.7243
 7951SOL    HW235487   1.433   2.087   4.273 -0.9015  0.0092 -0.5065
 7952SOL     OW35488   0.408   0.709  17.267  0.2111  0.3532  0.2725
 7952SOL    HW135489   0.495   0.696  17.227  0.0398 -1.6071  0.5336
 7952SOL    HW235490   0.407   0.804  17.273 -0.2131  0.4029 -0.5911
 7953SOL     OW35491   0.792   0.792   0.686 -0.4697 -0.2817 -0.2538
 7953SOL    HW135492   0.811   0.704   0.653  1.6170 -0.1991  0.7312
 7953SOL    HW235493   0.723   0.825   0.628 -0.4775  0.1304 -0.0047
 7954SOL     OW35494   3.045   0.724   9.322 -0.6474 -0.7278  0.3866
 7954SOL    HW135495   2.998   0.783   9.381  0.6319  2.4690 -1.8239
 7954SOL    HW235496   3.129   0.768   9.312 -1.2917  0.0961 -1.3205
 7955SOL     OW35497   1.347   2.583  16.474  0.6482 -0.1916 -0.7166
 7955SOL    HW135498   1.302   2.576  16.558  0.3511 -1.1171 -0.9489
 7955SOL    HW235499   1.285   2.648  16.441  1.4849  1.4424  0.9095
 7956SOL     OW35500   0.054   2.558   4.894 -0.3383  0.3120 -0.0613
 7956SOL    HW135501   0.041   2.606   4.812 -0.6996  0.1180 -0.1183
 7956SOL    HW235502   4.708   2.524   4.928  0.0423 -0.5935 -0.0338
 7957SOL     OW35503   0.572   3.886   2.849  0.0128  0.2532 -0.0185
 7957SOL    HW135504   0.591   3.889   2.756 -1.2715  0.5834 -0.2732
 7957SOL    HW235505   0.589   3.796   2.877  1.1197  0.6562  0.5826
 7958SOL     OW35506   3.313   4.191   5.443 -0.2577 -0.3473  0.6248
 7958SOL    HW135507   3.291   4.151   5.359 -0.4558  0.0278  0.4959
 7958SOL    HW235508   3.225   4.204   5.478 -0.5250 -1.7689  0.4794
 7959SOL     OW35509   3.323   4.010   9.366  0.3209  0.2420  0.2767
 7959SOL    HW135510   3.281   4.036   9.284 -0.3050 -0.6324  0.3176
 7959SOL    HW235511   3.276   4.072   9.422 -0.4198 -0.6280  0.6229
 7960SOL     OW35512   1.356   1.219   8.914 -0.2282 -0.3319  0.2560
 7960SOL    HW135513   1.345   1.314   8.908 -0.4716 -0.3009  1.1863
 7960SOL    HW235514   1.276   1.179   8.880 -0.0447  0.3665 -1.0152
 7961SOL     OW35515   3.896   0.247   4.678 -0.6977 -0.6667 -0.0773
 7961SOL    HW135516   3.870   0.186   4.609 -1.7152 -1.1791  0.7498
 7961SOL    HW235517   3.822   0.308   4.687  0.2727  0.6444 -0.8695
 7962SOL     OW35518   0.466   2.674   5.726  0.2629  0.1074  0.5168
 7962SOL    HW135519   0.508   2.598   5.684 -0.5306 -0.3247  0.5175
 7962SOL    HW235520   0.466   2.638   5.814  2.0012  0.7841  0.8107
 7963SOL     OW35521   2.944   1.388   0.456  0.0311  0.3693  0.0661
 7963SOL    HW135522   2.917   1.474   0.488  2.0114  1.1691 -0.3896
 7963SOL    HW235523   2.939   1.410   0.363  1.1355  0.6604  0.0736
 7964SOL     OW35524   4.575   1.751  10.499 -0.6785  0.2326  0.1606
 7964SOL    HW135525   4.585   1.826  10.441  0.9419  0.5885  0.8957
 7964SOL    HW235526   4.482   1.733  10.492 -0.4516 -0.7179 -0.3543
 7965SOL     OW35527   1.542   4.654   6.055 -0.6963 -0.0214  0.8051
 7965SOL    HW135528   1.576   4.697   6.134 -0.6266 -0.4097  0.9890
 7965SOL    HW235529   1.487   4.719   6.011 -1.3730 -1.5081 -0.5091
 7966SOL     OW35530   1.983   1.352   4.832 -0.4544  0.0736 -0.1920
 7966SOL    HW135531   1.973   1.447   4.828 -3.3570 -0.3642 -3.4619
 7966SOL    HW235532   2.033   1.340   4.913 -0.6592 -1.3590 -0.2726
 7967SOL     OW35533   4.240   0.687   3.959 -0.5028 -0.4250  0.2363
 7967SOL    HW135534   4.247   0.632   3.881  0.0986 -0.8921  0.6205
 7967SOL    HW235535   4.322   0.735   3.946  0.2446 -1.7346  0.1690
 7968SOL     OW35536   4.589   2.544   3.646 -0.5190 -0.4189 -0.1763
 7968SOL    HW135537   4.632   2.563   3.730  0.6996 -1.0436 -0.6606
 7968SOL    HW235538   4.537   2.468   3.670  0.0490 -0.9821 -0.7142
 7969SOL     OW35539   2.544   0.689   7.963  0.3089  0.0934 -0.1483
 7969SOL    HW135540   2.487   0.751   7.919 -0.1537 -0.1546  0.0941
 7969SOL    HW235541   2.624   0.740   7.961 -0.7824  1.7493 -1.5139
 7970SOL     OW35542   1.772   3.054  15.167  0.2805  0.4889  0.1714
 7970SOL    HW135543   1.855   3.038  15.124  0.7690  0.4605  1.1409
 7970SOL    HW235544   1.748   3.137  15.124 -3.7426 -0.5828  0.3033
 7971SOL     OW35545   3.548   0.069   7.908 -0.0687  0.4929  0.3488
 7971SOL    HW135546   3.482   0.031   7.849 -0.0884 -0.2652  0.8703
 7971SOL    HW235547   3.620   0.015   7.875 -1.1322 -0.3709 -0.5686
 7972SOL     OW35548   1.437   2.495   2.958  0.1359  0.3152  0.0282
 7972SOL    HW135549   1.457   2.571   2.903 -1.8175  0.2832 -0.7498
 7972SOL    HW235550   1.362   2.524   3.011  2.2007  2.6191  1.6706
 7973SOL     OW35551   1.017   3.238   1.888  0.4629  0.3889 -0.1619
 7973SOL    HW135552   0.926   3.221   1.913  0.2992  2.6369  0.7219
 7973SOL    HW235553   1.066   3.196   1.960  0.3273  1.0215  0.3014
 7974SOL     OW35554   2.756   0.240   2.345  0.2744 -0.2390  0.3634
 7974SOL    HW135555   2.715   0.226   2.431 -0.4208 -0.1405  0.0495
 7974SOL    HW235556   2.754   0.336   2.348  0.6616 -0.1938 -0.7519
 7975SOL     OW35557   3.208   0.329   1.401  0.3091 -0.1370 -0.1111
 7975SOL    HW135558   3.185   0.422   1.407 -1.7225 -0.5737 -1.0654
 7975SOL    HW235559   3.150   0.291   1.336  0.6882  1.7552 -1.5486
 7976SOL     OW35560   1.685   2.427   2.657  0.3016 -0.0234  0.7195
 7976SOL    HW135561   1.641   2.345   2.638  0.7548  0.1427 -1.1054
 7976SOL    HW235562   1.727   2.427   2.570  2.3309  0.3292  1.6935
 7977SOL     OW35563   1.618   3.536   9.604  0.2943 -0.4430 -0.2794
 7977SOL    HW135564   1.636   3.506   9.515 -0.6006 -2.2674  0.1592
 7977SOL    HW235565   1.701   3.520   9.648 -0.4547 -0.2772  1.1810
 7978SOL     OW35566   3.122   4.145  11.346 -0.3584 -0.2291 -0.1185
 7978SOL    HW135567   3.092   4.103  11.427 -0.4044  0.8266  0.4072
 7978SOL    HW235568   3.180   4.076  11.313 -0.0001 -0.3755  0.8165
 7979SOL     OW35569   3.589   4.061   9.441  0.0059 -0.1046 -0.2208
 7979SOL    HW135570   3.501   4.053   9.405  0.1638 -0.4062 -0.5382
 7979SOL    HW235571   3.599   3.986   9.499 -1.2706 -1.3456 -1.6254
 7980SOL     OW35572   0.551   1.522  15.902 -0.3194  0.2819 -0.3807
 7980SOL    HW135573   0.625   1.529  15.961 -2.1486  0.8105  1.8487
 7980SOL    HW235574   0.563   1.428  15.884  1.4714  0.1217  1.7289
 7981SOL     OW35575   0.978   3.372   8.944 -0.2028 -0.0624 -0.1279
 7981SOL    HW135576   0.971   3.379   8.849  1.5651  1.0904 -0.1748
 7981SOL    HW235577   0.905   3.428   8.968 -1.1228 -1.3929  0.1240
 7982SOL     OW35578   1.812   0.936   2.432  0.6015  0.2172  0.0041
 7982SOL    HW135579   1.770   0.887   2.503  1.3117  0.4302  0.5659
 7982SOL    HW235580   1.885   0.883   2.400 -1.7793 -1.8103 -2.1059
 7983SOL     OW35581   2.833   2.545   3.689 -0.3334 -0.0467  0.0021
 7983SOL    HW135582   2.878   2.599   3.624  0.0545 -0.0047  0.3094
 7983SOL    HW235583   2.848   2.457   3.655  1.4601  0.8283 -1.4747
 7984SOL     OW35584   1.719   0.853   8.500  0.4795 -0.6056  0.3765
 7984SOL    HW135585   1.778   0.779   8.485  2.6881  1.3625 -0.8380
 7984SOL    HW235586   1.768   0.934   8.481  0.4668 -0.6531  0.1426
 7985SOL     OW35587   0.298   2.859   0.341 -0.3526  0.3895 -0.0674
 7985SOL    HW135588   0.387   2.834   0.316  0.3240  1.8767  0.8676
 7985SOL    HW235589   0.290   2.811   0.424  0.9446 -3.5799 -2.2440
 7986SOL     OW35590   1.482   3.698   8.606 -0.2952 -0.4254  0.2200
 7986SOL    HW135591   1.501   3.787   8.636 -3.3998 -0.1884  1.5276
 7986SOL    HW235592   1.394   3.685   8.642 -1.0787  0.1941 -1.4762
 7987SOL     OW35593   2.813   1.260   6.632  0.3741  0.8386 -0.4339
 7987SOL    HW135594   2.857   1.295   6.555  1.2584 -0.7159 -0.6403
 7987SOL    HW235595   2.725   1.237   6.601 -0.4815  0.5197  2.2025
 7988SOL     OW35596   2.178   1.454   3.801  0.1533  0.3510  0.1896
 7988SOL    HW135597   2.085   1.466   3.785 -0.1434  1.1224  2.5666
 7988SOL    HW235598   2.219   1.517   3.742 -1.9938  1.5602  0.0307
 7989SOL     OW35599   4.129   3.898   6.372  0.1164  0.1831  0.6760
 7989SOL    HW135600   4.179   3.899   6.291 -0.0627  0.0768  0.5653
 7989SOL    HW235601   4.057   3.838   6.349  0.3042  0.3685 -0.3963
 7990SOL     OW35602   3.984   3.757  10.387  0.8495 -0.6589 -0.6218
 7990SOL    HW135603   3.901   3.796  10.414  0.5980 -0.4351 -1.7146
 7990SOL    HW235604   3.990   3.793  10.298  0.0600 -3.0271 -1.6290
 7991SOL     OW35605   2.338   4.481   3.558 -0.5188 -0.1786  1.0256
 7991SOL    HW135606   2.334   4.387   3.575 -0.7618 -0.2258  0.7021
 7991SOL    HW235607   2.423   4.497   3.600  0.8832  0.2545 -2.0403
 7992SOL     OW35608   0.372   2.370   5.210  0.4603  0.1799  0.2306
 7992SOL    HW135609   0.339   2.395   5.123 -3.2345 -1.1559  1.2760
 7992SOL    HW235610   0.435   2.440   5.229  0.9023 -0.1988  0.1723
 7993SOL     OW35611   2.086   4.361   8.370 -0.0436  0.1593 -1.1552
 7993SOL    HW135612   2.178   4.386   8.371 -0.3776  1.2231  2.1750
 7993SOL    HW235613   2.083   4.292   8.436 -0.3163 -1.1663 -2.5392
 7994SOL     OW35614   1.809   3.673  10.503  0.2177 -0.0748  0.5418
 7994SOL    HW135615   1.808   3.768  10.492  2.5561  0.1688  2.5902
 7994SOL    HW235616   1.797   3.663  10.597  2.0624  2.0711  1.0185
 7995SOL     OW35617   1.519   4.531   2.930  0.1170  0.1182 -0.5148
 7995SOL    HW135618   1.431   4.534   2.968  0.7130 -1.7829  1.0174
 7995SOL    HW235619   1.533   4.623   2.908 -0.3979  0.3178  0.0098
 7996SOL     OW35620   3.937   2.483   1.040 -0.1821  0.0166  0.3091
 7996SOL    HW135621   4.022   2.525   1.027 -0.6821  1.3675  1.4032
 7996SOL    HW235622   3.966   2.423   1.109 -0.0041  0.7303  0.8541
 7997SOL     OW35623   4.555   3.582   6.998 -0.6166  0.2972 -0.3682
 7997SOL    HW135624   4.585   3.505   7.045 -0.7277  0.3989 -0.1296
 7997SOL    HW235625   4.606   3.578   6.918  1.5354  1.6226  0.9193
 7998SOL     OW35626   0.291   2.018   5.225  0.0370  0.5018 -0.0444
 7998SOL    HW135627   0.335   1.940   5.256 -1.1688 -0.9277 -1.9343
 7998SOL    HW235628   0.310   2.081   5.295 -0.5364 -1.1200  1.5751
 7999SOL     OW35629   3.464   1.094  12.497  0.7949 -0.2034  0.1550
 7999SOL    HW135630   3.409   1.026  12.537  1.9615 -1.6789 -0.7518
 7999SOL    HW235631   3.517   1.131  12.568 -1.5082  2.6166  0.4076
 8000SOL     OW35632   0.679   2.741   7.463  0.6155 -0.0168  0.4409
 8000SOL    HW135633   0.723   2.664   7.427  2.3390  0.7436  0.9340
 8000SOL    HW235634   0.700   2.817   7.409  1.5837 -0.0321  0.7890
 8001SOL     OW35635   0.098   3.700   8.320  0.1123  0.1371 -0.5841
 8001SOL    HW135636   0.055   3.763   8.262  1.0569  1.1068 -0.2231
 8001SOL    HW235637   0.035   3.712   8.391  0.8213  1.4650 -0.1814
 8002SOL     OW35638   0.293   2.153   3.967  0.3287  0.0313 -0.2285
 8002SOL    HW135639   0.282   2.122   3.877  2.4646  0.8314 -0.7814
 8002SOL    HW235640   0.341   2.236   3.958  0.5033  0.5664  5.4379
 8003SOL     OW35641   0.194   4.466  17.371  0.5640 -0.2890  0.0179
 8003SOL    HW135642   0.274   4.414  17.380  1.5347  1.0942 -0.7977
 8003SOL    HW235643   0.222   4.554  17.349 -0.8231 -0.0351 -0.7625
 8004SOL     OW35644   0.697   0.910   8.314 -0.4974 -0.0492 -0.4166
 8004SOL    HW135645   0.613   0.887   8.352  0.3911 -0.9809  0.9776
 8004SOL    HW235646   0.710   0.823   8.277  0.8495 -1.0394  2.3080
 8005SOL     OW35647   4.338   2.008  17.677 -0.7982 -0.7757 -0.7479
 8005SOL    HW135648   4.295   2.080  17.724 -0.8289  0.6708 -2.9997
 8005SOL    HW235649   4.432   2.027  17.674 -1.4860  2.3629 -3.1198
 8006SOL     OW35650   2.705   4.499   3.647  0.4206 -0.0838  0.0301
 8006SOL    HW135651   2.708   4.539   3.734  1.0289 -1.6629  0.7432
 8006SOL    HW235652   2.703   4.580   3.597  0.0093  1.4008  2.4548
 8007SOL     OW35653   1.093   0.584   3.148 -0.2925  0.0794 -0.4789
 8007SOL    HW135654   1.068   0.578   3.056 -2.6395  0.5197  0.1144
 8007SOL    HW235655   1.175   0.535   3.144 -0.2657  0.0947 -0.1136
 8008SOL     OW35656   3.660   1.366   3.963  0.0288 -0.6474  0.0476
 8008SOL    HW135657   3.737   1.322   3.999  0.4967 -1.1177 -1.5441
 8008SOL    HW235658   3.614   1.291   3.924  1.7365 -1.4558 -0.4041
 8009SOL     OW35659   4.676   0.491   6.319  0.1250  0.3912  0.0853
 8009SOL    HW135660   4.716   0.557   6.262  0.9132  0.3765  0.6276
 8009SOL    HW235661   0.012   0.432   6.332  0.3168  0.4000 -0.9319
 8010SOL     OW35662   2.355   0.244   7.856 -0.2215  0.2395  0.4190
 8010SOL    HW135663   2.348   0.204   7.769 -0.9880 -0.2109  0.6943
 8010SOL    HW235664   2.430   0.197   7.894  1.5493  1.6270 -1.3220
 8011SOL     OW35665   4.558   2.011   3.086 -0.0892 -0.0730  0.1549
 8011SOL    HW135666   4.570   2.015   3.181 -1.5238 -1.4302  0.3924
 8011SOL    HW235667   4.619   2.079   3.058 -0.2000  0.3722  1.0021
 8012SOL     OW35668   0.635   4.430  14.593 -0.0669  0.2666 -0.6675
 8012SOL    HW135669   0.574   4.393  14.529 -2.7088  2.3062  0.6849
 8012SOL    HW235670   0.659   4.351  14.641  1.9294 -0.5900 -3.0312
 8013SOL     OW35671   3.591   2.689  15.506  0.3025  0.0195 -0.0162
 8013SOL    HW135672   3.554   2.764  15.459  0.8369  0.3358  0.0679
 8013SOL    HW235673   3.617   2.629  15.436  1.2136  0.1559  0.2136
 8014SOL     OW35674   0.969   2.154   8.902 -0.0011 -0.3756 -0.1004
 8014SOL    HW135675   0.940   2.115   8.985  0.7191  1.2730  0.9169
 8014SOL    HW235676   1.039   2.098   8.867  0.9960  1.1670 -0.5904
 8015SOL     OW35677   3.208   0.696   6.579  0.3849  1.0121  0.5876
 8015SOL    HW135678   3.137   0.715   6.641 -0.1626 -0.6079  0.4689
 8015SOL    HW235679   3.228   0.788   6.563 -1.6613  1.5400  1.0566
 8016SOL     OW35680   0.600   0.931   3.821  0.0548 -0.2255 -0.4715
 8016SOL    HW135681   0.667   0.888   3.768 -1.9494 -0.9616 -2.3887
 8016SOL    HW235682   0.608   1.026   3.814 -0.5014  0.0862  2.8319
 8017SOL     OW35683   0.486   2.081  15.633 -0.3886  0.1343  0.2390
 8017SOL    HW135684   0.475   2.175  15.643  3.5587  0.7794 -1.4982
 8017SOL    HW235685   0.520   2.069  15.544  0.3585  1.0085  0.4031
 8018SOL     OW35686   0.788   0.743   2.121  0.1865 -0.1595  0.1482
 8018SOL    HW135687   0.832   0.691   2.054 -1.2871  0.7932 -1.5537
 8018SOL    HW235688   0.832   0.825   2.101  0.2888 -0.3908 -0.5623
 8019SOL     OW35689   2.939   2.036   6.222  0.3940 -0.5401  0.8811
 8019SOL    HW135690   3.002   2.102   6.191 -0.0919  1.6944  4.6096
 8019SOL    HW235691   2.979   2.021   6.308  0.1420 -0.5507  0.9948
 8020SOL     OW35692   1.681   4.634   5.112 -0.0096 -0.1074  0.0618
 8020SOL    HW135693   1.718   4.564   5.059  0.5957 -0.5748  1.1112
 8020SOL    HW235694   1.590   4.631   5.082 -0.3772  1.1114  1.0450
 8021SOL     OW35695   3.039   1.827   0.715 -0.6524 -0.0291 -0.0196
 8021SOL    HW135696   2.993   1.883   0.779 -0.6355 -0.3929  0.3107
 8021SOL    HW235697   3.091   1.897   0.676 -4.5744  2.1910 -1.2707
 8022SOL     OW35698   4.089   0.536   6.819  0.1078  0.1004  0.2763
 8022SOL    HW135699   4.183   0.532   6.802  0.0519 -2.2073  0.4700
 8022SOL    HW235700   4.082   0.631   6.827  0.0612  0.1601 -0.4398
 8023SOL     OW35701   4.088   3.206   6.057  0.1399  0.1841 -0.8784
 8023SOL    HW135702   4.078   3.140   5.988  1.6971 -1.5104  0.5178
 8023SOL    HW235703   4.182   3.221   6.063 -0.0367  0.7826  0.3635
 8024SOL     OW35704   1.195   1.933   3.678 -0.5009 -0.2583  0.0882
 8024SOL    HW135705   1.169   1.964   3.765  0.9141 -0.6762  0.6518
 8024SOL    HW235706   1.135   1.979   3.618 -0.5230 -0.0841  0.2415
 8025SOL     OW35707   2.037   4.640  10.239  0.7534  0.3585  0.1925
 8025SOL    HW135708   2.123   4.658  10.277  1.4387  1.5705 -1.9083
 8025SOL    HW235709   2.003   4.580  10.305  0.3122 -0.2337 -0.5729
 8026SOL     OW35710   1.137   0.582   9.022  0.3713  0.1493  0.3289
 8026SOL    HW135711   1.053   0.580   9.069 -0.6952 -1.2913 -1.6284
 8026SOL    HW235712   1.189   0.646   9.069  0.3122  0.0827  0.4845
 8027SOL     OW35713   0.530   3.123   9.767  0.3937 -1.1786  0.0606
 8027SOL    HW135714   0.608   3.168   9.800 -0.8528  1.8372 -1.1865
 8027SOL    HW235715   0.490   3.103   9.852  0.3416 -2.2389 -0.2176
 8028SOL     OW35716   2.784   3.611  13.785  0.0172  0.1342 -0.3270
 8028SOL    HW135717   2.841   3.648  13.717  0.2077 -0.4788 -0.4999
 8028SOL    HW235718   2.701   3.654  13.765 -0.1827  0.3294  0.9269
 8029SOL     OW35719   4.225   2.548  13.886  0.0180  0.6177  0.1411
 8029SOL    HW135720   4.215   2.635  13.926 -0.6416  0.7990 -0.4308
 8029SOL    HW235721   4.229   2.569  13.793  1.9306 -1.9438 -0.3525
 8030SOL     OW35722   0.940   0.988   5.428  0.1200  0.0598 -0.5436
 8030SOL    HW135723   1.000   1.020   5.362 -0.0481  0.8112 -0.3294
 8030SOL    HW235724   1.003   0.965   5.497 -0.8874 -0.6590  0.1402
 8031SOL     OW35725   2.043   2.947   6.552 -0.0875 -0.4447  0.2726
 8031SOL    HW135726   2.137   2.955   6.571 -0.2005  0.2364  0.5444
 8031SOL    HW235727   1.998   2.996   6.621 -1.2148 -0.3948 -0.5024
 8032SOL     OW35728   0.991   3.649  15.997  0.4537 -0.4740 -0.6156
 8032SOL    HW135729   1.002   3.558  15.972 -0.8091 -1.0424  0.9263
 8032SOL    HW235730   1.075   3.696  15.994 -0.5839  1.3348 -1.5185
 8033SOL     OW35731   3.191   2.110   2.967 -0.1032  0.0250  0.1119
 8033SOL    HW135732   3.262   2.134   2.908 -1.2804  0.4783 -1.1121
 8033SOL    HW235733   3.115   2.114   2.909  1.8107 -0.4647 -2.4141
 8034SOL     OW35734   3.540   4.615   6.439 -0.3133  0.0299  0.2920
 8034SOL    HW135735   3.566   4.565   6.516 -0.7360  0.2612  0.5826
 8034SOL    HW235736   3.447   4.625   6.458 -0.1780 -0.0440  0.9729
 8035SOL     OW35737   4.031   2.648   6.912 -0.1224 -0.3766  0.8530
 8035SOL    HW135738   4.118   2.686   6.925 -0.7790  0.5906  2.4639
 8035SOL    HW235739   4.050   2.561   6.949 -0.6381 -1.2414 -0.9556
 8036SOL     OW35740   1.999   4.195   7.412 -0.3785  0.7229  0.3047
 8036SOL    HW135741   1.961   4.236   7.490  0.2876  1.5310  0.2100
 8036SOL    HW235742   1.943   4.237   7.347 -3.2692 -1.0280  1.6504
 8037SOL     OW35743   3.645   2.953   5.362 -0.0033  0.4382 -0.2030
 8037SOL    HW135744   3.635   2.884   5.428 -1.7216  2.1991  1.3892
 8037SOL    HW235745   3.580   2.940   5.293 -1.2600 -1.4042  1.3305
 8038SOL     OW35746   4.654   0.683  13.008  0.0354  0.0285  0.2274
 8038SOL    HW135747   4.701   0.652  13.086 -0.9577  0.2601  0.9180
 8038SOL    HW235748   4.706   0.648  12.935 -1.7109 -0.3085 -0.8615
 8039SOL     OW35749   0.873   3.155   2.614 -0.0364  0.6663  0.0148
 8039SOL    HW135750   0.968   3.161   2.600  0.2894  1.7509  2.8907
 8039SOL    HW235751   0.873   3.214   2.689  0.2170 -0.2624  0.7467
 8040SOL     OW35752   4.406   3.423   9.696 -0.1234 -0.1968  0.2066
 8040SOL    HW135753   4.410   3.337   9.736  1.2062 -0.8747 -1.3707
 8040SOL    HW235754   4.492   3.438   9.657  0.2730  2.1518  1.9779
 8041SOL     OW35755   2.309   2.413  13.172  0.2905  0.1893  0.4831
 8041SOL    HW135756   2.271   2.498  13.193 -0.8074  0.0257 -0.7845
 8041SOL    HW235757   2.244   2.356  13.212  1.9919 -2.1265 -0.0402
 8042SOL     OW35758   0.913   1.994  16.440 -0.0067 -0.0225  0.0173
 8042SOL    HW135759   0.983   1.953  16.491  0.2504  1.2582  0.7066
 8042SOL    HW235760   0.964   2.020  16.364 -1.7659  2.3985 -0.3319
 8043SOL     OW35761   2.151   0.267   5.882  0.3091 -0.3949  0.3867
 8043SOL    HW135762   2.164   0.278   5.788  2.0039  1.0913  0.7976
 8043SOL    HW235763   2.240   0.283   5.912  0.4742 -0.9968  0.2269
 8044SOL     OW35764   4.187   0.855   2.850 -0.4356  0.3333 -0.4460
 8044SOL    HW135765   4.250   0.802   2.803  0.4760  2.9604 -2.1786
 8044SOL    HW235766   4.210   0.946   2.829 -1.0624  0.9333  1.4513
 8045SOL     OW35767   3.222   1.841   6.578  0.1454 -0.3635  0.0727
 8045SOL    HW135768   3.300   1.886   6.609  1.3325 -2.7053  0.4960
 8045SOL    HW235769   3.200   1.901   6.506 -0.1464  0.0759  0.5310
 8046SOL     OW35770   3.205   1.821   8.798  0.3598  0.2727 -0.1301
 8046SOL    HW135771   3.152   1.831   8.878 -1.3962 -1.0345 -1.1310
 8046SOL    HW235772   3.143   1.846   8.729 -1.4032  0.0696  1.3731
 8047SOL     OW35773   4.478   2.087   6.383 -0.3816  0.1570  0.0041
 8047SOL    HW135774   4.536   2.054   6.314 -0.4931 -1.7963  0.8552
 8047SOL    HW235775   4.534   2.083   6.460  1.1488  0.1321 -1.1240
 8048SOL     OW35776   2.961   4.284   4.911 -0.5346  0.1266 -0.0593
 8048SOL    HW135777   2.980   4.208   4.966  1.8109  1.1737  0.5465
 8048SOL    HW235778   3.048   4.321   4.896  0.3699 -2.3366 -0.9665
 8049SOL     OW35779   2.104   1.752  12.899  0.4401  0.2959  0.1561
 8049SOL    HW135780   2.142   1.665  12.911  2.4510  1.4706  2.3700
 8049SOL    HW235781   2.107   1.788  12.987  0.4184 -0.2323  0.3722
 8050SOL     OW35782   3.067   3.208   4.746 -0.5258 -0.0466 -0.0699
 8050SOL    HW135783   2.990   3.257   4.717 -0.2727 -0.0626 -0.7823
 8050SOL    HW235784   3.033   3.140   4.803  0.0586  0.0391  0.3785
 8051SOL     OW35785   0.996   3.377   7.246 -0.0326 -0.2936 -0.1299
 8051SOL    HW135786   1.087   3.384   7.219  0.1136  1.1876  0.7423
 8051SOL    HW235787   0.987   3.426   7.328  0.0559 -0.9720  0.2907
 8052SOL     OW35788   0.122   3.336  16.739  0.2329 -0.0206 -0.6394
 8052SOL    HW135789   0.201   3.334  16.685  0.3830 -0.3822 -0.4006
 8052SOL    HW235790   0.075   3.273  16.685 -0.1963 -1.1855  1.0950
 8053SOL     OW35791   1.518   3.627  13.323 -0.0917  0.0329 -0.1941
 8053SOL    HW135792   1.466   3.703  13.349  2.6889  1.9706 -0.4120
 8053SOL    HW235793   1.463   3.549  13.336  0.1307 -0.1486 -0.3448
 8054SOL     OW35794   1.244   1.220   3.828 -0.5841  0.0093  0.1823
 8054SOL    HW135795   1.156   1.248   3.804 -0.4674 -0.9555 -1.3315
 8054SOL    HW235796   1.282   1.300   3.866 -2.1193  0.5514  0.6032
 8055SOL     OW35797   0.674   4.669   8.836 -0.5510  0.4649  0.3965
 8055SOL    HW135798   0.728   4.669   8.915  0.9946 -0.4511 -0.6665
 8055SOL    HW235799   0.735   4.665   8.762  0.7134  4.3606  1.1716
 8056SOL     OW35800   4.402   3.283   0.188  0.3641  0.3450 -0.0631
 8056SOL    HW135801   4.408   3.214   0.254  0.0268  1.2705  0.9363
 8056SOL    HW235802   4.310   3.308   0.195 -0.5500 -2.5184 -1.8942
 8057SOL     OW35803   2.423   2.548   7.854 -0.5035  0.6615 -0.0574
 8057SOL    HW135804   2.451   2.587   7.771  0.8327 -2.3681 -1.0654
 8057SOL    HW235805   2.471   2.596   7.921  2.6169  2.1248 -3.3200
 8058SOL     OW35806   4.021   2.605   9.415 -0.2862  0.3442 -0.0035
 8058SOL    HW135807   3.942   2.613   9.361 -0.2776 -1.6420 -0.3395
 8058SOL    HW235808   4.072   2.681   9.390  1.7181 -1.0960 -0.2712
 8059SOL     OW35809   0.488   2.184   9.379  0.1174 -0.0157 -0.5942
 8059SOL    HW135810   0.423   2.127   9.338 -1.7899  0.6693  1.4818
 8059SOL    HW235811   0.547   2.121   9.420 -1.9038  0.1334  2.5167
 8060SOL     OW35812   4.533   3.872   8.915  0.6276 -0.3348 -0.0188
 8060SOL    HW135813   4.596   3.945   8.914  2.5863 -2.0453 -0.5288
 8060SOL    HW235814   4.488   3.884   8.999  0.0774  2.0521 -0.6536
 8061SOL     OW35815   3.571   0.916   3.494 -0.1683  0.0332 -0.8016
 8061SOL    HW135816   3.581   0.888   3.403 -1.0535 -0.8690 -0.6154
 8061SOL    HW235817   3.539   1.005   3.477 -0.8553  0.4691  2.7073
 8062SOL     OW35818   3.857   4.536   8.469 -0.3928  0.5028 -0.3296
 8062SOL    HW135819   3.918   4.528   8.543 -0.6963 -0.1601 -0.1535
 8062SOL    HW235820   3.817   4.450   8.479 -0.7564  0.5867 -1.1006
 8063SOL     OW35821   4.711   3.649   0.131  0.6111 -0.4381  0.0156
 8063SOL    HW135822   4.733   3.611   0.216  1.0074 -1.1097 -0.3780
 8063SOL    HW235823   4.646   3.592   0.090  0.9980 -0.4140 -0.6381
 8064SOL     OW35824   2.247   0.321  13.893  1.0143 -0.1707 -0.0389
 8064SOL    HW135825   2.281   0.410  13.887 -2.1632  0.9900 -0.3539
 8064SOL    HW235826   2.184   0.320  13.821  2.1509 -2.6884 -0.9899
 8065SOL     OW35827   0.873   3.323   8.082  0.2511 -0.0576 -0.2577
 8065SOL    HW135828   0.795   3.313   8.136  0.9767  0.5704  0.9208
 8065SOL    HW235829   0.849   3.298   7.993  0.0037  0.4629 -0.3383
 8066SOL     OW35830   1.296   1.141  12.721 -0.9192  0.6072  0.2384
 8066SOL    HW135831   1.294   1.233  12.697  3.3242  1.1415  1.7957
 8066SOL    HW235832   1.278   1.136  12.815 -1.1657  0.3876  0.1801
 8067SOL     OW35833   2.578   3.448   0.359 -0.4252  0.2954 -0.2024
 8067SOL    HW135834   2.660   3.487   0.388 -0.6601  0.3282  0.4325
 8067SOL    HW235835   2.523   3.526   0.367 -1.1960 -0.2417 -0.2970
 8068SOL     OW35836   3.654   1.588   3.359  0.1686 -0.2086  0.3045
 8068SOL    HW135837   3.739   1.626   3.336  0.6226 -0.5917  1.3510
 8068SOL    HW235838   3.681   1.521   3.422 -0.4417 -1.6891 -0.9872
 8069SOL     OW35839   1.169   3.089   5.116 -0.4307 -0.1750  0.1731
 8069SOL    HW135840   1.135   3.009   5.157  0.2558 -0.2617  0.5843
 8069SOL    HW235841   1.093   3.144   5.130  0.4079  0.8106  0.8499
 8070SOL     OW35842   1.408   0.957   6.284  0.0675 -0.3931 -0.1273
 8070SOL    HW135843   1.376   0.961   6.374 -1.4476  0.4886 -0.7083
 8070SOL    HW235844   1.325   0.958   6.235 -0.4226 -0.0556  0.7072
 8071SOL     OW35845   3.613   3.829   9.605 -0.0557 -0.2020 -0.2651
 8071SOL    HW135846   3.520   3.806   9.602 -0.4488  1.3248  0.4285
 8071SOL    HW235847   3.643   3.772   9.534 -0.4675  0.1682 -0.7431
 8072SOL     OW35848   3.923   4.376  12.741 -0.3909  0.3985  0.2069
 8072SOL    HW135849   3.886   4.360  12.654  2.0466 -3.0209 -0.2104
 8072SOL    HW235850   3.859   4.399  12.808 -2.6236 -0.1196 -1.7340
 8073SOL     OW35851   2.084   1.902   4.107  0.4097  0.1961  0.0105
 8073SOL    HW135852   2.107   1.988   4.143  1.9739 -0.8506  1.5414
 8073SOL    HW235853   2.142   1.849   4.162 -0.3674 -1.0784 -0.4045
 8074SOL     OW35854   0.797   1.327   4.565  0.4633  0.2251  0.1482
 8074SOL    HW135855   0.786   1.360   4.476  0.2070 -1.8227 -0.5904
 8074SOL    HW235856   0.715   1.360   4.602  0.1381  0.7582 -1.0679
 8075SOL     OW35857   1.172   3.131   3.304 -0.6989 -0.4730 -0.3230
 8075SOL    HW135858   1.093   3.085   3.331 -1.5990  2.0896  1.3617
 8075SOL    HW235859   1.157   3.176   3.221  1.8862  2.5504  0.8590
 8076SOL     OW35860   4.289   1.699   9.288  0.4093  0.0015  0.7110
 8076SOL    HW135861   4.279   1.640   9.213  0.2434 -1.6417  2.0241
 8076SOL    HW235862   4.363   1.753   9.260 -2.1789  1.7786 -2.6563
 8077SOL     OW35863   1.253   1.568   3.287 -0.2620 -0.4464  0.1950
 8077SOL    HW135864   1.225   1.539   3.373 -3.7831  0.1846 -0.7426
 8077SOL    HW235865   1.330   1.512   3.275 -0.1053 -0.0769 -0.5779
 8078SOL     OW35866   4.643   0.793   4.917  0.1709  0.0263 -0.4464
 8078SOL    HW135867   4.626   0.702   4.943  0.8370 -0.5144 -1.8695
 8078SOL    HW235868   4.588   0.802   4.840 -1.5123 -0.9813  0.6377
 8079SOL     OW35869   3.927   2.115  12.322  0.2964 -0.0599  0.0697
 8079SOL    HW135870   3.905   2.029  12.359  0.0207  0.7998  1.9225
 8079SOL    HW235871   3.973   2.097  12.240  1.2484 -0.1216  0.6196
 8080SOL     OW35872   2.471   3.228   9.662 -0.7345 -0.5999 -0.5012
 8080SOL    HW135873   2.488   3.266   9.576  0.0088 -1.3041 -0.6632
 8080SOL    HW235874   2.442   3.309   9.705 -0.4106 -0.3009 -0.8489
 8081SOL     OW35875   0.120   4.435   7.673  0.5655 -0.6155  0.1977
 8081SOL    HW135876   0.044   4.492   7.684 -0.3188 -1.6697 -0.4612
 8081SOL    HW235877   0.159   4.445   7.760  1.3124  1.2865 -0.3544
 8082SOL     OW35878   3.405   2.383  15.529  0.2602 -0.1447  0.4788
 8082SOL    HW135879   3.325   2.408  15.482 -0.1126  0.2508  1.3270
 8082SOL    HW235880   3.460   2.355  15.456  2.8921 -0.0101  2.4248
 8083SOL     OW35881   0.344   1.028  17.191 -0.0765 -0.0756  0.3056
 8083SOL    HW135882   0.293   1.018  17.110  2.1270 -1.1675 -0.9670
 8083SOL    HW235883   0.276   1.024  17.258 -0.0372 -0.1980  0.3375
 8084SOL     OW35884   2.771   1.014   5.346  0.0290  0.5653 -0.3532
 8084SOL    HW135885   2.728   0.964   5.416  1.0319 -0.0056 -0.1431
 8084SOL    HW235886   2.764   0.951   5.274  0.8018  0.5192 -0.3867
 8085SOL     OW35887   0.366   2.679   4.628  0.3413  0.5283  0.0692
 8085SOL    HW135888   0.283   2.700   4.585  1.4590 -0.5534 -2.6235
 8085SOL    HW235889   0.361   2.739   4.703 -1.3891 -0.6603  0.9026
 8086SOL     OW35890   4.312   1.602   3.931  0.6816 -0.5604 -0.2350
 8086SOL    HW135891   4.344   1.548   3.858  0.9797 -1.2546  0.4112
 8086SOL    HW235892   4.400   1.629   3.959  0.3620  2.4933 -2.1181
 8087SOL     OW35893   0.687   1.551   7.443 -0.3348 -0.4720  0.4500
 8087SOL    HW135894   0.728   1.563   7.358 -3.8797 -0.2611 -1.2498
 8087SOL    HW235895   0.763   1.547   7.501  2.3460 -0.4752 -3.1438
 8088SOL     OW35896   1.020   3.918   6.788  0.1351 -0.2141 -0.9388
 8088SOL    HW135897   0.931   3.948   6.809  0.8448  1.6488 -0.6322
 8088SOL    HW235898   1.065   3.997   6.759 -2.2449 -0.0503 -4.1480
 8089SOL     OW35899   2.204   0.702  10.232 -0.2267 -0.1019 -0.1257
 8089SOL    HW135900   2.277   0.720  10.173  1.2572 -1.4883  1.2917
 8089SOL    HW235901   2.180   0.617  10.195 -1.4346  0.4480 -0.6073
 8090SOL     OW35902   4.141   0.630   5.882  0.1850 -0.5745 -0.4114
 8090SOL    HW135903   4.133   0.622   5.977 -0.7790  0.1180 -0.4318
 8090SOL    HW235904   4.232   0.656   5.872  0.1373 -0.0289  0.6345
 8091SOL     OW35905   4.096   1.633  14.194 -0.8846  0.2471 -0.5181
 8091SOL    HW135906   4.165   1.700  14.199  0.3526 -1.0489 -0.3002
 8091SOL    HW235907   4.065   1.647  14.105 -1.1592 -0.9988 -0.6097
 8092SOL     OW35908   2.394   3.044   8.293  0.6722  0.0407 -0.3777
 8092SOL    HW135909   2.481   3.065   8.257  2.3029  1.1184  4.1591
 8092SOL    HW235910   2.360   3.134   8.295 -0.1306 -0.2837  0.2079
 8093SOL     OW35911   4.625   2.284  13.136 -0.9621  0.0384  0.0617
 8093SOL    HW135912   4.603   2.372  13.107 -1.0589 -0.2897 -0.8782
 8093SOL    HW235913   4.714   2.265  13.104 -0.3676  2.1280  0.4976
 8094SOL     OW35914   3.167   4.383   5.161  0.1502 -0.4081 -0.5371
 8094SOL    HW135915   3.219   4.306   5.140 -0.8293 -1.5196  1.0986
 8094SOL    HW235916   3.188   4.439   5.086 -1.3416  0.5578 -0.2459
 8095SOL     OW35917   3.699   1.679   0.385  0.1016 -0.2135 -0.0046
 8095SOL    HW135918   3.746   1.762   0.383  0.9114 -0.7032 -1.3446
 8095SOL    HW235919   3.769   1.621   0.415 -0.7536 -0.7990  0.8626
 8096SOL     OW35920   2.756   2.137   5.053 -0.4579 -0.0191  0.1142
 8096SOL    HW135921   2.836   2.136   5.001  0.4100  1.8624  1.3728
 8096SOL    HW235922   2.700   2.190   4.997  0.6348  1.5440  0.5045
 8097SOL     OW35923   2.643   4.393   9.162  0.0897  0.0525 -0.2065
 8097SOL    HW135924   2.628   4.347   9.244  3.2457 -0.7950 -0.1085
 8097SOL    HW235925   2.628   4.484   9.186  0.8069 -0.2947  1.5606
 8098SOL     OW35926   1.249   1.028   2.902 -0.0675 -0.1538  0.0200
 8098SOL    HW135927   1.319   1.093   2.913  1.1106 -1.6086  1.1004
 8098SOL    HW235928   1.245   0.995   2.991 -0.3100  0.6750  0.3189
 8099SOL     OW35929   3.047   0.285   3.023 -0.1577 -0.0770  0.2548
 8099SOL    HW135930   3.058   0.360   3.081 -0.8903  1.3015 -1.4138
 8099SOL    HW235931   3.028   0.215   3.086 -2.0583  0.0142 -0.2160
 8100SOL     OW35932   2.061   1.947   7.167  0.6082 -0.0339  0.6622
 8100SOL    HW135933   1.991   2.009   7.188  0.1423  0.0064 -1.0075
 8100SOL    HW235934   2.027   1.865   7.201  0.3884  0.1201  0.8156
 8101SOL     OW35935   2.128   2.873   4.102 -0.0976 -0.0178  0.3017
 8101SOL    HW135936   2.203   2.913   4.145  0.3231  0.9840 -1.3609
 8101SOL    HW235937   2.142   2.889   4.008 -1.5310  1.2591  0.3050
 8102SOL     OW35938   3.680   4.259   5.355 -0.4247  0.3605 -0.0859
 8102SOL    HW135939   3.684   4.333   5.295 -1.5351  0.8209  0.4225
 8102SOL    HW235940   3.697   4.186   5.296  0.0243  0.2588  0.1659
 8103SOL     OW35941   3.234   3.406  17.356  0.5491 -0.0938  0.1403
 8103SOL    HW135942   3.238   3.497  17.386  1.4411  0.1556 -0.7283
 8103SOL    HW235943   3.322   3.387  17.325 -1.0613 -3.0744 -2.6705
 8104SOL     OW35944   3.250   1.064  15.012  0.5372 -0.6527  0.0243
 8104SOL    HW135945   3.157   1.087  15.018  0.6682  0.0008 -0.4198
 8104SOL    HW235946   3.274   1.111  14.932 -2.4026  1.1528  0.2049
 8105SOL     OW35947   1.494   3.473  12.380  0.5413 -0.2359  0.6156
 8105SOL    HW135948   1.535   3.559  12.375  1.0148 -0.5711 -1.2117
 8105SOL    HW235949   1.404   3.490  12.353  0.5691  1.0329  1.3414
 8106SOL     OW35950   1.110   3.289   7.841  0.0839 -0.8474 -0.1081
 8106SOL    HW135951   1.079   3.369   7.885  0.9225 -0.2891 -0.5332
 8106SOL    HW235952   1.197   3.286   7.880  0.0849  0.6972  0.0127
 8107SOL     OW35953   4.300   3.841   2.451  0.3807 -0.4420 -0.1751
 8107SOL    HW135954   4.246   3.789   2.391  0.3407  1.0932 -1.4654
 8107SOL    HW235955   4.274   3.802   2.534 -0.4373  0.4836 -0.0037
 8108SOL     OW35956   4.309   4.158   8.702  0.1094  0.1760 -0.1559
 8108SOL    HW135957   4.376   4.209   8.748 -0.9733  1.3530  0.1221
 8108SOL    HW235958   4.247   4.134   8.772  0.2735  0.1195 -0.0304
 8109SOL     OW35959   2.710   2.884   1.971  0.2204 -0.0473 -0.2825
 8109SOL    HW135960   2.782   2.897   1.909 -1.1086  1.8747 -1.4340
 8109SOL    HW235961   2.649   2.955   1.951 -1.1576 -0.7409  1.4596
 8110SOL     OW35962   0.637   2.134   5.855 -0.5982 -0.0357 -0.1592
 8110SOL    HW135963   0.703   2.161   5.791  1.2958  0.2138  1.8848
 8110SOL    HW235964   0.570   2.194   5.824 -1.3590 -0.8863 -0.1620
 8111SOL     OW35965   0.485   3.631   3.650  0.1393 -0.1998 -0.2368
 8111SOL    HW135966   0.554   3.596   3.595  0.9079  0.0284  0.5908
 8111SOL    HW235967   0.425   3.557   3.638 -1.2120  1.1138 -1.6785
 8112SOL     OW35968   0.034   1.471   7.600 -0.1675 -0.2314  0.3566
 8112SOL    HW135969   0.104   1.467   7.535 -0.7895  3.6780 -0.5698
 8112SOL    HW235970   4.728   1.555   7.583 -0.0102 -0.2506 -0.1238
 8113SOL     OW35971   3.849   1.497  14.576  0.6550 -0.4256  0.1580
 8113SOL    HW135972   3.810   1.443  14.644  1.6759 -0.7705  0.4638
 8113SOL    HW235973   3.836   1.438  14.502  1.7089  0.5109 -0.7759
 8114SOL     OW35974   3.522   0.066   0.795 -0.4402  0.2160 -0.2962
 8114SOL    HW135975   3.610   0.051   0.829 -1.3864 -1.3757  1.4606
 8114SOL    HW235976   3.533   0.142   0.737 -0.2230  1.5127  1.4232
 8115SOL     OW35977   0.331   1.263  12.249 -0.7312 -0.1147 -0.1534
 8115SOL    HW135978   0.269   1.333  12.229  0.7305  0.7610 -1.5306
 8115SOL    HW235979   0.364   1.298  12.331 -0.5207  0.8185 -0.6326
 8116SOL     OW35980   3.932   2.906   4.475 -0.0779 -0.1993  0.5200
 8116SOL    HW135981   3.919   2.879   4.384  0.1215 -0.4009  0.5509
 8116SOL    HW235982   3.839   2.915   4.495  0.0290 -2.4448  2.0103
 8117SOL     OW35983   3.801   0.296   2.932  0.5250  0.3993 -0.3472
 8117SOL    HW135984   3.807   0.269   3.023  2.3961  0.5181 -0.4196
 8117SOL    HW235985   3.711   0.275   2.909  0.7880 -1.1036  0.0426
 8118SOL     OW35986   3.167   1.208   5.487 -0.8452  0.2776  0.2500
 8118SOL    HW135987   3.088   1.259   5.467 -2.2499 -1.2684  1.9191
 8118SOL    HW235988   3.233   1.276   5.501  0.8685 -1.1248 -0.9680
 8119SOL     OW35989   2.982   4.276  15.924 -0.1081 -0.9263  0.2967
 8119SOL    HW135990   3.022   4.189  15.923 -2.5895 -2.0651 -0.3309
 8119SOL    HW235991   2.953   4.268  15.833  0.7196  0.4237 -0.0770
 8120SOL     OW35992   1.167   2.642   2.095  0.3750  0.3928 -0.2700
 8120SOL    HW135993   1.189   2.621   2.186 -1.6342 -0.2709  0.0602
 8120SOL    HW235994   1.085   2.593   2.091  0.1123  0.8807 -0.7505
 8121SOL     OW35995   1.880   3.858  14.947  0.0326 -0.5734 -0.2067
 8121SOL    HW135996   1.802   3.912  14.939 -1.0398 -1.7457  2.6204
 8121SOL    HW235997   1.888   3.809  14.865 -1.0445 -2.6264  0.9302
 8122SOL     OW35998   2.688   1.967   1.094 -0.1222 -0.0698 -0.2849
 8122SOL    HW135999   2.609   1.990   1.144  1.2196  2.8553  0.5182
 8122SOL    HW236000   2.747   1.927   1.157  1.7469  2.5066 -0.3836
 8123SOL     OW36001   4.735   4.497  16.949  0.3389  0.4057 -0.5880
 8123SOL    HW136002   4.657   4.451  16.918  1.8796 -1.4828 -1.6568
 8123SOL    HW236003   4.732   4.471  17.041 -1.8880  1.4741 -0.3526
 8124SOL     OW36004   2.174   3.461   7.778  0.5361  0.5572  0.3251
 8124SOL    HW136005   2.100   3.401   7.782 -0.5630  1.9552  1.1486
 8124SOL    HW236006   2.178   3.482   7.872 -1.4157 -2.5124  1.0743
 8125SOL     OW36007   3.124   1.963   4.322  0.1893 -0.4985  0.0832
 8125SOL    HW136008   3.032   1.974   4.298 -0.3468 -0.4915  2.1825
 8125SOL    HW236009   3.123   1.883   4.374  0.8471 -0.4709  0.1419
 8126SOL     OW36010   2.286   2.082   6.036 -0.5045 -0.0291  0.1265
 8126SOL    HW136011   2.203   2.050   6.071 -1.6022 -0.2552 -2.7397
 8126SOL    HW236012   2.315   1.998   5.999 -2.0666 -1.4896  2.1951
 8127SOL     OW36013   2.584   0.914   6.291  0.0270 -0.2586  0.4011
 8127SOL    HW136014   2.586   0.943   6.200  1.0275  1.9801  1.1434
 8127SOL    HW236015   2.494   0.923   6.322 -0.6803  0.1629 -1.7861
 8128SOL     OW36016   3.188   0.555   6.259  0.4428 -0.6886 -0.3583
 8128SOL    HW136017   3.115   0.545   6.321  1.8042 -1.8917  1.0498
 8128SOL    HW236018   3.252   0.497   6.300 -0.4668 -0.4387  1.3851
 8129SOL     OW36019   0.248   0.957   9.919 -0.1104  0.2119 -0.2786
 8129SOL    HW136020   0.318   1.022   9.915 -1.6491  1.8102 -1.1644
 8129SOL    HW236021   0.275   0.897   9.988 -3.9394  1.3052  2.1755
 8130SOL     OW36022   2.159   0.244   8.244  0.5281 -0.4180  0.0080
 8130SOL    HW136023   2.071   0.218   8.216  0.7573  1.0447 -2.1271
 8130SOL    HW236024   2.172   0.315   8.180 -1.3739  0.4715  0.6056
 8131SOL     OW36025   1.750   3.700   8.615 -0.0213  0.3589  0.1054
 8131SOL    HW136026   1.655   3.697   8.610 -0.0935 -1.0903  2.2568
 8131SOL    HW236027   1.765   3.784   8.571 -2.6760  0.5720 -0.3692
 8132SOL     OW36028   0.070   0.612  13.456 -0.1350 -0.2647 -0.6390
 8132SOL    HW136029   0.133   0.678  13.485 -1.0612  0.0143  0.7504
 8132SOL    HW236030   4.734   0.673  13.452  0.6598  0.6159 -1.8689
 8133SOL     OW36031   1.032   3.041   7.947 -0.6565 -0.1666  0.1579
 8133SOL    HW136032   1.065   3.123   7.909 -0.5005 -0.8055 -1.0941
 8133SOL    HW236033   1.053   3.035   8.040 -0.3925  1.1339  0.1862
 8134SOL     OW36034   0.863   4.095  10.416  0.2311  0.4506 -0.5112
 8134SOL    HW136035   0.852   4.177  10.368 -1.2820 -0.5362 -1.8314
 8134SOL    HW236036   0.898   4.134  10.497 -2.4740  1.2970  0.2258
 8135SOL     OW36037   4.699   3.489   5.653 -0.2269 -0.2941  0.1469
 8135SOL    HW136038   4.654   3.569   5.681 -0.9146 -0.1548 -1.3988
 8135SOL    HW236039   0.042   3.497   5.704 -0.8579  1.1937  0.9249
 8136SOL     OW36040   2.418   0.910   1.166 -0.3709 -0.3172  0.2499
 8136SOL    HW136041   2.360   0.960   1.109  1.4776  1.7272  0.1637
 8136SOL    HW236042   2.445   0.836   1.111 -1.8261 -0.7263  0.0913
 8137SOL     OW36043   1.423   2.174  17.566  0.4221  0.3949  0.3518
 8137SOL    HW136044   1.513   2.163  17.596  0.2416  0.6695  0.9972
 8137SOL    HW236045   1.401   2.259  17.603  0.7040  0.5988  0.0524
 8138SOL     OW36046   1.254   0.507   2.537  0.3558 -0.5662  0.0891
 8138SOL    HW136047   1.319   0.570   2.505 -2.5273  2.5048  0.2722
 8138SOL    HW236048   1.270   0.525   2.630  0.9909  0.7581 -0.2746
 8139SOL     OW36049   2.856   0.550  12.153  0.4753 -0.1158 -0.2189
 8139SOL    HW136050   2.794   0.536  12.081  1.0362 -0.1463 -0.6909
 8139SOL    HW236051   2.898   0.626  12.113  0.8518 -0.1060  0.1926
 8140SOL     OW36052   4.138   3.593   1.093  0.2770  0.1381  0.7263
 8140SOL    HW136053   4.075   3.522   1.078  0.9455 -0.5200  0.9971
 8140SOL    HW236054   4.086   3.666   1.060  0.2709 -0.3764 -0.3864
 8141SOL     OW36055   0.127   4.052   6.139  0.2719  0.7192  0.2123
 8141SOL    HW136056   0.051   4.052   6.197 -1.1926  1.4295 -1.7062
 8141SOL    HW236057   0.081   4.033   6.057 -1.4925 -1.3604  1.6877
 8142SOL     OW36058   2.646   4.705   9.485  0.5774 -0.0205  0.3801
 8142SOL    HW136059   2.676   0.027   9.554 -2.8594  1.6164  0.4750
 8142SOL    HW236060   2.613   4.640   9.546 -1.0186  0.8745  0.4588
 8143SOL     OW36061   1.408   2.584   4.551  0.4233 -0.1251  0.1835
 8143SOL    HW136062   1.448   2.574   4.638 -0.1660 -3.0693  0.1364
 8143SOL    HW236063   1.475   2.543   4.497  0.7821 -0.3461  0.7897
 8144SOL     OW36064   1.668   2.053   5.339  0.0547 -0.1008 -0.0532
 8144SOL    HW136065   1.714   2.016   5.414 -2.2492 -0.2614  1.2957
 8144SOL    HW236066   1.673   2.146   5.360  2.8969 -0.0756 -0.9349
 8145SOL     OW36067   4.167   1.322   5.593  0.0242 -0.1090 -0.8748
 8145SOL    HW136068   4.140   1.234   5.616 -0.3165 -0.0135 -0.9191
 8145SOL    HW236069   4.245   1.319   5.649 -0.9974  3.1167  0.7548
 8146SOL     OW36070   2.869   0.619   6.829  0.5190  0.0802 -0.2976
 8146SOL    HW136071   2.781   0.649   6.803  0.4572 -0.5357 -0.7795
 8146SOL    HW236072   2.917   0.702   6.833 -1.8497  1.5197 -1.4342
 8147SOL     OW36073   4.142   3.198  12.135 -0.0835 -0.0354 -0.1034
 8147SOL    HW136074   4.093   3.175  12.057  1.2952  2.2970 -1.6615
 8147SOL    HW236075   4.075   3.178  12.200  1.4562  0.1479  1.5289
 8148SOL     OW36076   2.971   0.485   6.063 -0.2807 -0.1772  0.2399
 8148SOL    HW136077   3.026   0.465   6.139  0.0883  0.0276  0.0240
 8148SOL    HW236078   2.902   0.420   6.074 -0.3691 -0.0015  0.7654
 8149SOL     OW36079   4.471   4.592   4.153  0.2343  0.0447  0.2954
 8149SOL    HW136080   4.444   4.525   4.091  0.5056  1.6081 -1.5073
 8149SOL    HW236081   4.382   4.594   4.189 -0.0999  0.6447 -0.5823
 8150SOL     OW36082   3.219   2.541  11.800 -0.2044  0.1816  0.1713
 8150SOL    HW136083   3.270   2.494  11.866 -0.8919  1.8377  1.8868
 8150SOL    HW236084   3.246   2.494  11.722 -1.2494 -0.4197  0.1699
 8151SOL     OW36085   0.124   0.588   6.122 -0.1139 -0.4684 -0.2263
 8151SOL    HW136086   0.133   0.680   6.147 -0.9966 -0.0619 -1.3705
 8151SOL    HW236087   0.211   0.592   6.081  0.2268 -1.5073  0.3943
 8152SOL     OW36088   3.423   1.618  14.864 -0.4801  0.2067 -0.2054
 8152SOL    HW136089   3.411   1.558  14.938 -2.9026  1.4249  0.3936
 8152SOL    HW236090   3.334   1.644  14.841 -0.4873  1.4806  1.2483
 8153SOL     OW36091   1.185   0.253   2.648  1.1806  0.4561  0.3539
 8153SOL    HW136092   1.169   0.273   2.740  1.4157  0.3335  0.4196
 8153SOL    HW236093   1.187   0.338   2.603  2.5439  0.5626  0.6321
 8154SOL     OW36094   3.420   1.599   4.126  0.0048  0.1817  0.2483
 8154SOL    HW136095   3.407   1.692   4.108 -0.0298 -0.0351 -0.8516
 8154SOL    HW236096   3.468   1.562   4.052 -2.1037 -2.0068 -0.0233
 8155SOL     OW36097   0.393   1.346   2.888 -0.0809  0.0668 -0.2834
 8155SOL    HW136098   0.372   1.265   2.936 -0.1539  0.5795  0.5415
 8155SOL    HW236099   0.362   1.411   2.950  0.9645  0.0706  0.2217
 8156SOL     OW36100   2.494   0.456   3.208 -0.2779  0.2734 -0.2715
 8156SOL    HW136101   2.412   0.406   3.202 -1.4920  2.1265  0.7425
 8156SOL    HW236102   2.520   0.442   3.117  3.1369  2.5815  0.3696
 8157SOL     OW36103   1.680   3.189   5.125 -0.2166 -0.3245  0.0540
 8157SOL    HW136104   1.690   3.239   5.044 -2.2534 -0.7986 -0.5019
 8157SOL    HW236105   1.614   3.126   5.098 -0.8293  0.4027 -0.1573
 8158SOL     OW36106   2.005   2.332   8.297  0.0107  0.5444 -0.3684
 8158SOL    HW136107   2.068   2.322   8.226 -0.1636 -1.2336 -0.2743
 8158SOL    HW236108   2.041   2.404   8.349 -0.8713  0.5434  0.2426
 8159SOL     OW36109   3.535   2.117  17.070  0.6019  0.0462  0.1630
 8159SOL    HW136110   3.581   2.040  17.036  1.2071 -0.0949  1.3138
 8159SOL    HW236111   3.606   2.162  17.116  0.9629 -1.3299  0.9289
 8160SOL     OW36112   0.908   1.684   0.125  0.4854 -0.5362  0.2715
 8160SOL    HW136113   0.961   1.644   0.056 -1.1865  1.3274 -2.1056
 8160SOL    HW236114   0.918   1.779   0.124  0.2038 -0.5063  0.4121
 8161SOL     OW36115   2.192   1.717   7.010 -0.1061 -0.7091  0.3383
 8161SOL    HW136116   2.138   1.796   7.013  1.5173  0.4288 -0.2143
 8161SOL    HW236117   2.263   1.747   6.953 -0.7430 -1.5504 -0.8732
 8162SOL     OW36118   3.469   4.436  13.927  0.3269  0.3017 -1.0662
 8162SOL    HW136119   3.412   4.432  13.850  0.9966 -3.6417 -1.3739
 8162SOL    HW236120   3.439   4.520  13.963 -1.4623 -0.0864 -1.6283
 8163SOL     OW36121   0.168   1.224   3.450 -0.0419 -0.2270  0.3145
 8163SOL    HW136122   0.257   1.216   3.417  0.4258  0.1294  1.4686
 8163SOL    HW236123   0.182   1.221   3.545  0.3161 -2.2503  0.2018
 8164SOL     OW36124   3.887   4.129   2.357 -0.8628 -0.3000 -0.7589
 8164SOL    HW136125   3.792   4.123   2.356 -0.8800  0.3284 -2.7478
 8164SOL    HW236126   3.904   4.223   2.364 -0.3278 -0.4861  0.6093
 8165SOL     OW36127   1.190   1.041  13.042  0.3298 -0.0116 -0.1528
 8165SOL    HW136128   1.146   1.044  13.127 -0.7312  0.5724 -0.7133
 8165SOL    HW236129   1.249   0.966  13.049 -0.0199 -0.0245  2.3594
 8166SOL     OW36130   0.248   2.836   1.620  0.0641 -0.0242 -0.3863
 8166SOL    HW136131   0.275   2.925   1.639  0.6320 -0.9743  3.3381
 8166SOL    HW236132   0.233   2.803   1.709  0.9961 -0.2246 -0.3077
 8167SOL     OW36133   2.017   1.461   5.836 -0.6915  0.3884 -0.1639
 8167SOL    HW136134   2.091   1.406   5.863 -1.0058 -0.2122 -0.5243
 8167SOL    HW236135   2.010   1.430   5.745 -2.6032 -1.0922  0.5177
 8168SOL     OW36136   0.804   3.327   7.561 -0.3074  0.2755 -1.2188
 8168SOL    HW136137   0.814   3.419   7.536 -1.1241  0.7843  0.3009
 8168SOL    HW236138   0.745   3.307   7.488 -1.9432 -0.3687  0.2625
 8169SOL     OW36139   2.197   3.867  10.053  0.5853  0.0678  0.6506
 8169SOL    HW136140   2.137   3.880   9.980  1.4741  0.8027  0.0648
 8169SOL    HW236141   2.145   3.906  10.123  0.2430  0.6937  0.0355
 8170SOL     OW36142   1.130   2.237   8.499 -0.6873  0.5946 -0.3264
 8170SOL    HW136143   1.128   2.165   8.562 -0.2186  1.6057  0.8471
 8170SOL    HW236144   1.061   2.218   8.436 -0.4322  1.0978 -0.7624
 8171SOL     OW36145   0.287   4.708   8.216  0.0501 -0.0213  0.1084
 8171SOL    HW136146   0.247   0.054   8.240 -0.4428  0.6736 -3.0981
 8171SOL    HW236147   0.285   4.724   8.122  0.3700  0.0408  0.1109
 8172SOL     OW36148   2.758   2.113  15.509 -0.2567  0.0501  0.6089
 8172SOL    HW136149   2.815   2.160  15.449 -2.1704 -1.4905 -2.4344
 8172SOL    HW236150   2.693   2.181  15.521 -0.0056  0.5541 -0.8139
 8173SOL     OW36151   1.104   1.254  12.005  0.3794 -0.2771  0.2461
 8173SOL    HW136152   1.048   1.325  12.037  1.3322  0.2807  0.6595
 8173SOL    HW236153   1.129   1.203  12.082  1.7434  0.5441  0.3403
 8174SOL     OW36154   2.342   0.927   9.958  0.5814  0.4213  0.0820
 8174SOL    HW136155   2.386   0.850   9.994 -2.8112 -1.9881 -0.8687
 8174SOL    HW236156   2.402   0.996   9.984  0.1714  0.2327  1.4974
 8175SOL     OW36157   2.079   4.684   0.778  0.0130  0.1288 -0.2407
 8175SOL    HW136158   2.082   4.644   0.692 -0.5340  0.3162 -0.3497
 8175SOL    HW236159   2.117   4.622   0.839 -1.5511 -1.4037 -0.8301
 8176SOL     OW36160   2.077   3.505   5.961 -0.4466 -0.2150  0.3154
 8176SOL    HW136161   2.069   3.467   6.048  2.3324  0.0377  0.6641
 8176SOL    HW236162   2.059   3.433   5.900  3.0621 -0.6020 -0.2639
 8177SOL     OW36163   1.525   0.029   2.801  0.4735 -0.1671  0.4179
 8177SOL    HW136164   1.614   4.736   2.784 -0.1909 -2.4414  0.9509
 8177SOL    HW236165   1.488   0.049   2.715  1.9026 -1.2621 -0.4548
 8178SOL     OW36166   3.520   3.222   0.892  0.7253  1.0228  0.1768
 8178SOL    HW136167   3.517   3.135   0.852  2.4368  0.3776  1.4396
 8178SOL    HW236168   3.429   3.249   0.898 -0.1269 -2.4440  2.5117
 8179SOL     OW36169   2.744   4.125  16.685  0.5755  0.3215 -0.2245
 8179SOL    HW136170   2.793   4.070  16.624 -1.1462  0.8460 -2.0561
 8179SOL    HW236171   2.662   4.140  16.639 -0.0870 -1.3402  0.4345
 8180SOL     OW36172   0.542   3.534   9.864  0.3746  0.0589  0.5387
 8180SOL    HW136173   0.458   3.506   9.901  0.7755 -0.5033  1.0340
 8180SOL    HW236174   0.596   3.455   9.861  1.1883  0.7365 -2.4151
 8181SOL     OW36175   0.152   1.954   8.452 -0.0486 -0.1787  0.7685
 8181SOL    HW136176   0.107   1.906   8.382 -1.2935  1.1834  0.6489
 8181SOL    HW236177   0.219   2.007   8.408 -1.8693  2.6663  1.4512
 8182SOL     OW36178   3.633   3.494   7.782  0.4963  0.7574 -0.5077
 8182SOL    HW136179   3.683   3.415   7.765  0.8162  1.0731 -1.0193
 8182SOL    HW236180   3.554   3.480   7.730  1.3674 -0.3193 -1.5253
 8183SOL     OW36181   3.858   1.844   5.511 -0.7245 -0.1645 -0.2603
 8183SOL    HW136182   3.869   1.939   5.520  0.4582 -0.3373  0.0825
 8183SOL    HW236183   3.787   1.850   5.446 -0.0168 -0.2458 -1.0350
 8184SOL     OW36184   1.064   2.401  10.580  0.0714 -0.7129 -0.5453
 8184SOL    HW136185   1.018   2.331  10.533 -0.2665 -0.7456 -0.1657
 8184SOL    HW236186   1.125   2.351  10.635 -0.8532 -0.5207  0.6644
 8185SOL     OW36187   1.424   2.594   7.401 -0.6236  0.3145 -0.3193
 8185SOL    HW136188   1.432   2.647   7.321  0.7111  0.1181 -0.2984
 8185SOL    HW236189   1.379   2.647   7.467  1.0497  1.1154  0.1778
 8186SOL     OW36190   1.484   1.197   8.608  0.1470 -0.2703 -0.1261
 8186SOL    HW136191   1.395   1.232   8.615 -0.3286 -1.2516 -1.3389
 8186SOL    HW236192   1.468   1.136   8.536  0.9103 -0.9851  0.3229
 8187SOL     OW36193   3.762   3.014   6.342  0.3190 -0.1744  0.0177
 8187SOL    HW136194   3.838   2.996   6.397 -0.2032 -1.1337  0.4307
 8187SOL    HW236195   3.690   3.000   6.403  1.4208  1.1702  1.6311
 8188SOL     OW36196   0.585   1.225   2.475 -0.2833 -0.4097  0.1527
 8188SOL    HW136197   0.636   1.191   2.401  0.8215  1.2727  0.1455
 8188SOL    HW236198   0.503   1.179   2.458 -0.1403 -0.4256 -0.5091
 8189SOL     OW36199   0.253   2.312   7.764  0.7094  0.4559 -0.4481
 8189SOL    HW136200   0.330   2.368   7.775  1.8787 -1.0690 -0.8628
 8189SOL    HW236201   0.176   2.356   7.798  1.7611  2.4489 -0.6497
 8190SOL     OW36202   1.781   4.200  11.467 -0.2385  0.3188  0.2596
 8190SOL    HW136203   1.727   4.186  11.390 -1.8901 -2.6578  1.9289
 8190SOL    HW236204   1.836   4.122  11.476  1.1254  1.3090  0.5250
 8191SOL     OW36205   2.831   1.588   2.287 -0.2894 -0.6042 -0.7115
 8191SOL    HW136206   2.862   1.523   2.224  2.9623  0.7161 -0.4852
 8191SOL    HW236207   2.824   1.661   2.225  1.1138 -1.0895 -1.4337
 8192SOL     OW36208   4.097   2.116  10.756  0.4436 -0.2140 -0.2677
 8192SOL    HW136209   4.013   2.098  10.800  1.0445 -0.5179  0.7650
 8192SOL    HW236210   4.075   2.172  10.681 -1.5638  2.5359  2.3709
 8193SOL     OW36211   2.935   4.292   7.476  0.1552  0.2065 -0.4693
 8193SOL    HW136212   2.866   4.342   7.517 -0.5576 -0.9023 -0.3285
 8193SOL    HW236213   3.016   4.320   7.519 -1.4042  0.6000  2.1476
 8194SOL     OW36214   2.329   3.560  17.413  0.2880  0.4284 -0.0176
 8194SOL    HW136215   2.268   3.627  17.381 -0.7232 -0.5279 -0.0974
 8194SOL    HW236216   2.404   3.605  17.451 -2.0042  4.1590  0.1160
 8195SOL     OW36217   2.293   2.991   3.208  0.1862  0.0463 -0.3188
 8195SOL    HW136218   2.292   3.080   3.173 -1.0473 -0.2772 -1.1192
 8195SOL    HW236219   2.237   2.941   3.148 -0.8746 -1.4329  1.9208
 8196SOL     OW36220   3.383   3.411   6.148  0.1472 -0.4079 -0.1898
 8196SOL    HW136221   3.452   3.356   6.185 -1.0539 -0.1177  2.4333
 8196SOL    HW236222   3.426   3.428   6.064 -0.2615  1.2653 -0.0556
 8197SOL     OW36223   0.981   2.775   0.870 -0.7773 -0.0472 -0.4104
 8197SOL    HW136224   1.018   2.838   0.933  1.9581 -1.1627 -0.8957
 8197SOL    HW236225   0.932   2.718   0.929 -0.8661  1.5025  1.0323
 8198SOL     OW36226   0.501   2.322   2.982  0.4065 -0.3496  0.2938
 8198SOL    HW136227   0.512   2.416   2.966 -2.9271  0.0842  0.6721
 8198SOL    HW236228   0.594   2.298   2.981  0.8558  1.2768  2.0449
 8199SOL     OW36229   3.953   3.017  12.777 -0.0933  0.4901  0.0919
 8199SOL    HW136230   4.010   2.941  12.771  0.4921  0.8470  1.2107
 8199SOL    HW236231   3.865   2.981  12.794 -0.0230 -0.1190 -0.7899
 8200SOL     OW36232   0.265   1.952   6.168 -0.1441 -0.0911  0.1157
 8200SOL    HW136233   0.343   2.001   6.144  0.0219 -0.1105  0.6038
 8200SOL    HW236234   0.209   2.018   6.209  1.1614  0.6012  0.7628
 8201SOL     OW36235   0.859   3.457  15.777 -0.2278  0.1684 -0.5446
 8201SOL    HW136236   0.906   3.381  15.811 -0.8632 -0.8975 -2.0053
 8201SOL    HW236237   0.769   3.428  15.761 -0.2116 -0.1436 -0.0790
 8202SOL     OW36238   3.054   1.176   2.617  0.0046 -0.2837 -0.8406
 8202SOL    HW136239   3.093   1.262   2.633  0.0742 -0.4057 -0.3489
 8202SOL    HW236240   2.990   1.180   2.689  0.7618 -0.7346 -0.1529
 8203SOL     OW36241   2.450   4.707   1.247 -0.1789 -0.0829 -0.5684
 8203SOL    HW136242   2.406   4.659   1.318  0.7525 -0.9344 -0.5734
 8203SOL    HW236243   2.380   4.714   1.182 -2.0500  0.9712  1.5520
 8204SOL     OW36244   3.480   3.364  16.646  0.4194  0.4371  0.1069
 8204SOL    HW136245   3.550   3.306  16.674  0.0054  0.4899  1.2173
 8204SOL    HW236246   3.402   3.309  16.635  1.3224 -0.2867 -2.7491
 8205SOL     OW36247   4.677   2.836   9.385 -0.0301  0.4502  0.3404
 8205SOL    HW136248   4.606   2.893   9.357 -1.7859 -2.0376 -0.2557
 8205SOL    HW236249   4.695   2.863   9.475 -1.3183  1.0221  0.4240
 8206SOL     OW36250   2.364   1.297   7.360 -0.4739  0.3212  0.4128
 8206SOL    HW136251   2.357   1.378   7.410  1.6095  1.2499 -0.8116
 8206SOL    HW236252   2.418   1.330   7.288  0.3122  0.7905  1.2337
 8207SOL     OW36253   0.138   4.068   3.850  0.1152  0.0556 -0.0795
 8207SOL    HW136254   0.176   4.000   3.906 -1.4073 -1.7307 -1.1980
 8207SOL    HW236255   0.047   4.058   3.879  0.6225 -0.1093  1.4934
 8208SOL     OW36256   1.803   4.296   6.366  0.2102  0.4651  0.0808
 8208SOL    HW136257   1.811   4.348   6.446 -0.1833 -0.7947  0.9346
 8208SOL    HW236258   1.861   4.221   6.382  0.1276  0.2713 -0.5234
 8209SOL     OW36259   3.438   1.744   3.384 -0.1849 -0.7295  0.2055
 8209SOL    HW136260   3.428   1.754   3.289 -0.7059 -3.6697 -0.0574
 8209SOL    HW236261   3.514   1.687   3.372 -0.6791 -1.4983  0.7037
 8210SOL     OW36262   1.308   2.172   9.506 -0.3969 -0.1981 -0.2600
 8210SOL    HW136263   1.303   2.139   9.416 -1.6979  1.6630 -0.8728
 8210SOL    HW236264   1.296   2.092   9.557  0.3981 -0.9880 -1.2884
 8211SOL     OW36265   2.924   0.834   6.513  0.0247  0.7878  0.6528
 8211SOL    HW136266   2.919   0.903   6.446 -0.0721 -1.1183 -1.3048
 8211SOL    HW236267   2.951   0.886   6.588  0.4077  2.6649 -0.7687
 8212SOL     OW36268   4.435   2.315   3.699  0.3665  0.0189  0.4338
 8212SOL    HW136269   4.354   2.264   3.690 -0.0605  0.3229  2.5426
 8212SOL    HW236270   4.448   2.283   3.788 -2.6393  3.1285  1.9766
 8213SOL     OW36271   0.846   0.964  13.995 -0.7456 -0.4781  0.2694
 8213SOL    HW136272   0.837   1.059  13.996 -0.7758 -0.4569 -1.2432
 8213SOL    HW236273   0.838   0.946  14.088 -0.2734  1.2906  0.6474
 8214SOL     OW36274   2.814   2.524   7.708 -0.1945  0.0939 -0.3330
 8214SOL    HW136275   2.885   2.469   7.742 -0.6658 -0.6626 -0.5913
 8214SOL    HW236276   2.805   2.493   7.618  0.0747  0.9342 -0.6585
 8215SOL     OW36277   3.600   4.599  16.885 -0.6673  0.0823 -0.0616
 8215SOL    HW136278   3.626   4.637  16.969 -0.5310 -0.1237 -0.0106
 8215SOL    HW236279   3.615   4.506  16.902  2.1459  0.1837 -1.8914
 8216SOL     OW36280   1.489   1.589  12.657  0.0130  0.0881 -0.4264
 8216SOL    HW136281   1.541   1.670  12.654 -0.5125  0.4661  0.5645
 8216SOL    HW236282   1.554   1.536  12.703 -0.0264  0.8299  0.5035
 8217SOL     OW36283   4.403   1.498   8.807 -0.2940 -0.1319  0.0248
 8217SOL    HW136284   4.453   1.557   8.750 -1.3318  1.5493  0.8783
 8217SOL    HW236285   4.424   1.527   8.896  4.1235 -0.7242 -0.7959
 8218SOL     OW36286   1.689   2.190   7.854  0.8393 -0.4063 -0.5208
 8218SOL    HW136287   1.760   2.241   7.814  1.3137 -1.4551 -1.0435
 8218SOL    HW236288   1.615   2.228   7.807  2.4910  0.4340 -2.4566
 8219SOL     OW36289   4.067   1.943   4.945 -0.2551  0.8039  0.1738
 8219SOL    HW136290   4.120   2.021   4.962  0.0481  0.4818  0.6985
 8219SOL    HW236291   4.128   1.872   4.921 -0.5007  0.8205 -0.5093
 8220SOL     OW36292   1.201   2.549   7.973  1.0174  0.1635 -0.0034
 8220SOL    HW136293   1.209   2.643   7.984  1.5368  0.0947  0.2140
 8220SOL    HW236294   1.154   2.525   8.053 -2.9236 -1.0111 -2.6811
 8221SOL     OW36295   1.172   1.821   4.585 -0.1391 -0.5415  0.3312
 8221SOL    HW136296   1.207   1.909   4.575  0.5921 -0.9845 -1.0302
 8221SOL    HW236297   1.173   1.799   4.678 -0.4807  0.9799  0.6824
 8222SOL     OW36298   0.861   0.525   9.119 -0.3836  0.0760  0.4326
 8222SOL    HW136299   0.892   0.533   9.209  0.3074  1.7516  0.0486
 8222SOL    HW236300   0.796   0.594   9.109  0.2053  0.5053 -0.4643
 8223SOL     OW36301   2.473   0.190   4.916  0.1213 -0.0059 -0.3001
 8223SOL    HW136302   2.462   0.101   4.882 -1.2570 -0.0252  0.1770
 8223SOL    HW236303   2.395   0.205   4.970  0.3971  0.4362 -0.0227
 8224SOL     OW36304   2.541   2.166   3.744 -0.1665  0.4483  0.3764
 8224SOL    HW136305   2.619   2.204   3.785 -0.2055  0.6563  0.2573
 8224SOL    HW236306   2.480   2.156   3.817  1.2568  0.2386  1.5349
 8225SOL     OW36307   0.150   3.470  11.041  0.0332  0.1487  0.4688
 8225SOL    HW136308   0.089   3.528  11.085  0.9598  1.6469 -0.2236
 8225SOL    HW236309   0.106   3.386  11.055 -1.1605  0.8120  0.6672
 8226SOL     OW36310   3.986   2.113   7.955  0.0770 -0.4366  0.0766
 8226SOL    HW136311   4.000   2.044   7.890 -1.3154 -1.7972  1.2261
 8226SOL    HW236312   4.008   2.070   8.038  2.3546  1.1432  0.3067
 8227SOL     OW36313   3.532   1.804   2.917 -0.2003 -0.0931 -0.6370
 8227SOL    HW136314   3.610   1.859   2.915  0.5378 -1.1292  0.0758
 8227SOL    HW236315   3.489   1.857   2.849 -0.6680  2.7442  1.8892
 8228SOL     OW36316   3.599   0.987  14.339  0.3254 -0.1333  0.4890
 8228SOL    HW136317   3.683   0.946  14.320  0.7542 -0.0742  2.2779
 8228SOL    HW236318   3.542   0.910  14.337 -1.4405  1.1492  2.0359
 8229SOL     OW36319   1.887   4.372   7.217  0.0262  0.4647 -0.3902
 8229SOL    HW136320   1.879   4.410   7.129  1.5368  2.6929  0.4132
 8229SOL    HW236321   1.930   4.446   7.260  2.9583 -0.2019 -2.1494
 8230SOL     OW36322   4.169   1.848  17.397 -0.1755  1.1027 -0.4030
 8230SOL    HW136323   4.241   1.827  17.456 -0.7514  1.0875  0.2878
 8230SOL    HW236324   4.158   1.759  17.363  0.3278  1.9405 -2.7615
 8231SOL     OW36325   2.069   4.249   0.372  0.2269  0.4159 -0.5010
 8231SOL    HW136326   1.983   4.211   0.352  1.1905 -2.3757  0.6963
 8231SOL    HW236327   2.108   4.272   0.288 -0.3437  0.8282 -0.6523
 8232SOL     OW36328   4.717   4.678  15.102 -0.0844 -0.4816 -0.1998
 8232SOL    HW136329   0.069   4.692  15.133  0.8030 -1.3035 -2.4033
 8232SOL    HW236330   4.676   0.013  15.149 -0.7760 -1.3667  0.5564
 8233SOL     OW36331   3.015   2.566   5.296  0.3310 -0.2682  0.2575
 8233SOL    HW136332   2.949   2.559   5.365  0.9812  0.6529  0.9748
 8233SOL    HW236333   3.074   2.500   5.331  0.3683 -1.0105 -1.2194
 8234SOL     OW36334   0.546   4.271   4.960 -0.7142 -0.1285  0.0569
 8234SOL    HW136335   0.524   4.316   5.042  1.8440  1.2555  0.0021
 8234SOL    HW236336   0.510   4.327   4.892  0.0251  0.6047  0.2637
 8235SOL     OW36337   4.193   2.780   6.148  0.3732 -0.3224  0.3834
 8235SOL    HW136338   4.152   2.707   6.194  1.3222 -1.6509 -0.9181
 8235SOL    HW236339   4.250   2.817   6.216 -1.1555  1.7865  0.5455
 8236SOL     OW36340   1.682   2.467   7.396 -0.0896 -0.1131 -0.0078
 8236SOL    HW136341   1.622   2.538   7.373 -2.0468 -0.8652  2.7576
 8236SOL    HW236342   1.657   2.446   7.486  0.1930 -0.8225 -0.0961
 8237SOL     OW36343   0.583   2.840   7.013  0.2229 -0.6049  0.4392
 8237SOL    HW136344   0.546   2.864   6.928 -0.2619  1.5000  1.2321
 8237SOL    HW236345   0.633   2.761   6.990 -1.0863 -1.7055  1.3851
 8238SOL     OW36346   0.990   4.458   6.313 -0.0381  0.7126  0.0242
 8238SOL    HW136347   0.993   4.528   6.379 -2.8169 -1.1689  2.1531
 8238SOL    HW236348   1.078   4.422   6.324 -1.2891 -2.2408  0.3539
 8239SOL     OW36349   4.245   3.819  12.322 -0.3243  0.7846 -0.1333
 8239SOL    HW136350   4.204   3.798  12.238  1.3439 -0.4115 -0.6406
 8239SOL    HW236351   4.253   3.913  12.307  3.0661  0.8027  1.7805
 8240SOL     OW36352   0.776   4.451   8.440  0.4585 -0.4048  0.3672
 8240SOL    HW136353   0.710   4.452   8.371  3.0216 -0.0275 -2.1067
 8240SOL    HW236354   0.824   4.370   8.423 -0.5735 -0.3086 -2.9369
 8241SOL     OW36355   3.093   2.995   7.626  0.1274  0.4059  0.2718
 8241SOL    HW136356   3.057   2.910   7.598 -1.9174  0.3457  2.9860
 8241SOL    HW236357   3.019   3.055   7.633  0.2128  0.5637 -0.2112
 8242SOL     OW36358   3.752   3.159  15.686  0.0126 -1.0647 -0.0685
 8242SOL    HW136359   3.680   3.121  15.735 -0.0070  0.6313  1.1863
 8242SOL    HW236360   3.703   3.196  15.613 -1.5878 -0.5711  1.2764
 8243SOL     OW36361   4.384   2.808  15.894  0.0043 -0.5659  0.1369
 8243SOL    HW136362   4.434   2.882  15.929 -0.5258  0.1734 -0.6799
 8243SOL    HW236363   4.329   2.776  15.966 -0.4845  0.5527  0.2576
 8244SOL     OW36364   2.377   0.724   3.342  0.1282 -0.9963  0.3361
 8244SOL    HW136365   2.309   0.658   3.331 -1.5053  0.3460  2.3428
 8244SOL    HW236366   2.323   0.804   3.346  2.1797  0.4325 -0.5713
 8245SOL     OW36367   0.584   1.949   1.905 -0.1311  0.8902  0.1597
 8245SOL    HW136368   0.512   2.003   1.873 -0.1236  2.4041  2.7275
 8245SOL    HW236369   0.620   1.923   1.820 -1.0720  1.2542 -0.3526
 8246SOL     OW36370   1.325   2.985   8.076  0.0843  0.7373 -0.2890
 8246SOL    HW136371   1.386   3.013   8.007 -1.5077  1.3912 -1.4198
 8246SOL    HW236372   1.304   3.062   8.128  0.2021  1.2989 -1.0702
 8247SOL     OW36373   1.226   0.369  16.038 -0.2154 -0.0881 -0.1579
 8247SOL    HW136374   1.202   0.329  15.954 -1.8468 -0.7568  0.6163
 8247SOL    HW236375   1.177   0.452  16.040 -0.1585 -0.0833  1.0309
 8248SOL     OW36376   2.926   3.189  16.508 -0.3085 -0.3775 -0.1693
 8248SOL    HW136377   2.887   3.122  16.564  2.4890 -0.2625  1.9009
 8248SOL    HW236378   2.938   3.258  16.572 -0.7462 -1.4319  1.0501
 8249SOL     OW36379   3.577   3.542   1.661  0.4722  0.1879  0.5649
 8249SOL    HW136380   3.636   3.598   1.611  1.5889 -0.6076  0.9892
 8249SOL    HW236381   3.561   3.593   1.740  1.1400 -0.7804  1.3303
 8250SOL     OW36382   0.467   2.038   7.786  0.4982 -0.1361 -0.2091
 8250SOL    HW136383   0.471   1.973   7.856 -4.9394  1.6142  1.6629
 8250SOL    HW236384   0.480   2.123   7.826  0.7994 -0.1394 -0.3011
 8251SOL     OW36385   2.193   3.126   5.014  0.4255  0.6201 -0.3172
 8251SOL    HW136386   2.245   3.203   5.037  1.1541  0.3097 -0.9169
 8251SOL    HW236387   2.251   3.098   4.943  1.8744  2.0468  0.3006
 8252SOL     OW36388   3.207   0.600  17.315 -0.3723  0.3786  0.1184
 8252SOL    HW136389   3.206   0.585  17.409 -0.5955  2.4374  0.4554
 8252SOL    HW236390   3.153   0.678  17.304  1.1559  1.4759  0.3968
 8253SOL     OW36391   2.274   4.251  16.360 -0.0065 -0.0734 -0.1223
 8253SOL    HW136392   2.341   4.213  16.417  1.7114 -0.2599 -2.2497
 8253SOL    HW236393   2.201   4.189  16.361  1.2655 -1.6098 -1.0055
 8254SOL     OW36394   3.989   3.404   2.830 -0.0714  0.0614  0.3461
 8254SOL    HW136395   3.932   3.480   2.821 -2.4106 -1.9757 -2.2460
 8254SOL    HW236396   3.959   3.366   2.913  1.0292  1.1464  1.2348
 8255SOL     OW36397   4.070   0.313   4.114 -0.5894  0.0177  0.5717
 8255SOL    HW136398   4.087   0.406   4.128 -0.6967  0.0798  0.2890
 8255SOL    HW236399   4.061   0.292   4.207 -0.5146 -0.9423  0.3603
 8256SOL     OW36400   1.697   4.227   0.606  0.2016  0.0492 -0.1918
 8256SOL    HW136401   1.748   4.158   0.648  1.0512  1.7665  1.6061
 8256SOL    HW236402   1.612   4.185   0.588 -0.9679  3.2127 -2.1125
 8257SOL     OW36403   1.637   2.410   3.520 -0.1223  0.2656  0.3558
 8257SOL    HW136404   1.547   2.392   3.492  0.2876 -0.6824 -0.3739
 8257SOL    HW236405   1.636   2.389   3.613 -1.8728 -2.1014 -0.1909
 8258SOL     OW36406   2.650   0.865   8.620  0.4861 -0.6611  0.0168
 8258SOL    HW136407   2.617   0.851   8.531  2.5514 -0.7933 -0.7280
 8258SOL    HW236408   2.637   0.774   8.648  0.2174 -0.0725  1.8088
 8259SOL     OW36409   1.194   2.104   1.584  0.2065  0.4424  0.1076
 8259SOL    HW136410   1.224   2.195   1.583  0.4318  0.3552 -0.8127
 8259SOL    HW236411   1.105   2.109   1.618 -0.0718 -1.1750 -0.4181
 8260SOL     OW36412   3.161   3.927   6.155  0.4126  0.3679  0.3268
 8260SOL    HW136413   3.113   3.869   6.096  0.1961  1.4638 -0.5829
 8260SOL    HW236414   3.247   3.884   6.157  0.7336  0.9026 -1.1547
 8261SOL     OW36415   0.404   1.162  10.991  0.0992  0.0725 -0.1397
 8261SOL    HW136416   0.382   1.248  10.954 -0.6318 -0.3025 -0.5861
 8261SOL    HW236417   0.330   1.155  11.051  0.4359  1.7046  0.4690
 8262SOL     OW36418   4.083   0.134   6.874 -0.0018  0.2343 -0.4727
 8262SOL    HW136419   4.138   0.060   6.851 -1.8414 -1.3851  0.3142
 8262SOL    HW236420   4.098   0.188   6.796  1.0091 -1.2180 -1.2667
 8263SOL     OW36421   1.711   3.654   3.458  0.5154  0.0747  0.1439
 8263SOL    HW136422   1.739   3.563   3.447 -0.2373 -0.2219  0.6759
 8263SOL    HW236423   1.746   3.683   3.542  0.6631 -0.2120  0.1850
 8264SOL     OW36424   2.157   2.969   7.724 -0.2078 -0.8154 -0.4583
 8264SOL    HW136425   2.203   2.899   7.678 -0.9366 -1.5492 -0.0798
 8264SOL    HW236426   2.090   2.984   7.657  0.2956 -1.2608 -1.0575
 8265SOL     OW36427   1.637   2.907   3.102 -0.2860 -0.3684  0.0303
 8265SOL    HW136428   1.720   2.859   3.104  0.4367  0.9527  1.9992
 8265SOL    HW236429   1.592   2.847   3.163 -2.3538  1.8434  0.6759
 8266SOL     OW36430   1.911   1.327   2.769 -0.1275  0.6370 -0.8502
 8266SOL    HW136431   1.846   1.296   2.706  0.3713 -1.7028 -0.2182
 8266SOL    HW236432   1.863   1.376   2.836 -1.2290 -0.5166 -0.7917
 8267SOL     OW36433   3.722   1.788   6.754  0.0782  0.0543  0.2935
 8267SOL    HW136434   3.752   1.863   6.703 -1.2583 -1.1974 -2.3259
 8267SOL    HW236435   3.708   1.721   6.687 -1.0709 -1.1967  1.7906
 8268SOL     OW36436   4.537   2.935   8.494  0.3129  0.4736  0.1354
 8268SOL    HW136437   4.454   2.958   8.536  0.2191  1.6090 -0.6739
 8268SOL    HW236438   4.595   2.931   8.569 -0.3131 -1.2726  0.5281
 8269SOL     OW36439   0.450   2.299   5.769  0.1418  0.7973  0.7074
 8269SOL    HW136440   0.484   2.351   5.696 -0.4304 -0.7677 -0.6662
 8269SOL    HW236441   0.401   2.351   5.832 -0.7225  0.1162  0.5874
 8270SOL     OW36442   2.283   3.805  11.529  0.0051 -0.0449 -0.8483
 8270SOL    HW136443   2.272   3.746  11.604 -1.9259  0.1148 -1.0132
 8270SOL    HW236444   2.367   3.775  11.495  1.6469  2.7865  0.7448
 8271SOL     OW36445   2.011   0.732   8.482  0.5851 -0.2483  0.2026
 8271SOL    HW136446   2.102   0.706   8.464  0.4183  0.8184 -2.1595
 8271SOL    HW236447   2.032   0.806   8.539  0.4625 -0.3862  0.4241
 8272SOL     OW36448   2.522   2.730   5.992  0.1347 -0.0714  0.5453
 8272SOL    HW136449   2.508   2.821   5.965 -1.2083 -0.4591 -0.0910
 8272SOL    HW236450   2.553   2.755   6.079 -1.1958  0.7323  0.7782
 8273SOL     OW36451   4.073   1.936   6.751 -0.2717 -0.3500  0.2925
 8273SOL    HW136452   4.104   1.847   6.769  0.2403 -0.2287  0.0155
 8273SOL    HW236453   4.065   1.974   6.838 -0.6240  0.5549 -0.1430
 8274SOL     OW36454   0.796   0.965  14.275  0.2040 -0.0684  0.6048
 8274SOL    HW136455   0.727   1.031  14.284  0.3323  0.6386 -3.6080
 8274SOL    HW236456   0.803   0.930  14.363 -0.4916 -1.9908 -0.1134
 8275SOL     OW36457   4.367   1.113  11.041  0.4240  0.0951  0.0034
 8275SOL    HW136458   4.405   1.106  10.954 -2.7628 -1.0957 -1.3139
 8275SOL    HW236459   4.446   1.136  11.089  0.7012 -0.3537 -0.2326
 8276SOL     OW36460   0.590   2.631   4.089  0.9241  0.0092  0.0625
 8276SOL    HW136461   0.636   2.701   4.136 -0.6323 -0.7186  2.6733
 8276SOL    HW236462   0.532   2.587   4.151  0.1926 -0.2818 -0.8428
 8277SOL     OW36463   0.666   3.075   1.590 -0.1445  0.3876 -0.3616
 8277SOL    HW136464   0.572   3.091   1.579 -0.0874  0.4911 -0.6956
 8277SOL    HW236465   0.674   2.980   1.592  0.0192  0.3752 -1.5627
 8278SOL     OW36466   0.591   1.465   7.911 -0.4028 -0.2635 -0.0135
 8278SOL    HW136467   0.608   1.499   7.999  0.8136 -2.1664  0.4790
 8278SOL    HW236468   0.538   1.538   7.879 -0.4785 -0.0898  0.5026
 8279SOL     OW36469   3.213   1.892   1.473  0.0908  0.1647 -0.0918
 8279SOL    HW136470   3.176   1.850   1.551  0.7594 -2.4949 -1.1913
 8279SOL    HW236471   3.179   1.835   1.404 -2.6847  2.4458 -0.5883
 8280SOL     OW36472   1.643   0.341   2.832  0.4887 -0.4046  0.3088
 8280SOL    HW136473   1.699   0.305   2.763  1.7269 -2.5940  2.4607
 8280SOL    HW236474   1.700   0.389   2.893 -2.9215  0.8865  2.4395
 8281SOL     OW36475   2.709   0.658   5.889 -0.3014  0.2601 -0.1428
 8281SOL    HW136476   2.616   0.670   5.869 -0.4332 -0.2537  0.1499
 8281SOL    HW236477   2.710   0.562   5.889  1.9803  0.3090  2.0803
 8282SOL     OW36478   1.192   2.505   5.752  0.0653  1.1525 -0.1772
 8282SOL    HW136479   1.257   2.448   5.712 -0.8031 -1.6199  2.3327
 8282SOL    HW236480   1.159   2.449   5.822 -0.3652  0.9302 -0.5570
 8283SOL     OW36481   3.833   0.515   2.587  0.2490  0.7048  0.7027
 8283SOL    HW136482   3.750   0.551   2.619 -0.7230 -0.0282 -0.9740
 8283SOL    HW236483   3.798   0.444   2.533  3.5466  0.3879 -0.9829
 8284SOL     OW36484   1.627   1.824   4.390  0.0253  0.4289  0.5885
 8284SOL    HW136485   1.615   1.731   4.373 -2.0474  0.2429  2.9869
 8284SOL    HW236486   1.720   1.832   4.371 -0.0092 -1.4477 -0.3916
 8285SOL     OW36487   1.341   3.984   4.967  0.0430 -0.4730  0.4850
 8285SOL    HW136488   1.401   4.043   4.921  1.4796 -1.8413  0.6129
 8285SOL    HW236489   1.256   3.981   4.923  0.6945  0.7913 -0.8621
 8286SOL     OW36490   3.741   3.689   7.064 -0.0935 -0.2636 -0.0303
 8286SOL    HW136491   3.671   3.738   7.020 -1.1894 -0.4679  1.4626
 8286SOL    HW236492   3.785   3.639   6.995  2.5183  2.1729 -0.1240
 8287SOL     OW36493   2.760   1.560   8.971  0.3471 -0.6235 -0.1749
 8287SOL    HW136494   2.750   1.616   9.048  2.0200 -0.4987 -0.0629
 8287SOL    HW236495   2.674   1.517   8.975  0.9377 -1.5362  2.2391
 8288SOL     OW36496   0.320   3.747   2.300  0.4865 -0.0639 -0.0882
 8288SOL    HW136497   0.392   3.693   2.268 -0.0097  0.4509 -2.0947
 8288SOL    HW236498   0.288   3.686   2.366  0.9578 -0.2168 -0.0025
 8289SOL     OW36499   1.807   2.265   5.700  0.3882  0.2078  0.2992
 8289SOL    HW136500   1.855   2.233   5.777  0.0023  2.6924  1.5858
 8289SOL    HW236501   1.820   2.360   5.705  0.7229  0.1991 -0.5052
 8290SOL     OW36502   3.803   2.235  14.382  0.0361 -0.3570  0.3438
 8290SOL    HW136503   3.798   2.150  14.426  0.3972  0.3055  1.6602
 8290SOL    HW236504   3.712   2.243  14.351  0.4578  2.3026 -0.2500
 8291SOL     OW36505   4.718   4.668   8.950 -0.1022 -0.2253 -0.2436
 8291SOL    HW136506   4.722   0.025   8.965 -2.5220 -0.4488  1.7545
 8291SOL    HW236507   0.068   4.647   8.918  0.2935  0.9839  0.0564
 8292SOL     OW36508   4.668   0.514   8.511  0.0490  0.3622 -0.0236
 8292SOL    HW136509   4.633   0.467   8.587  1.6824 -0.0015  0.5031
 8292SOL    HW236510   0.011   0.472   8.481 -1.8949 -2.8314 -0.8167
 8293SOL     OW36511   3.269   1.086  14.393 -0.4524  0.1788 -0.4188
 8293SOL    HW136512   3.181   1.050  14.383  0.0891 -1.2792  0.0452
 8293SOL    HW236513   3.277   1.094  14.489  2.3440  2.9037 -0.8366
 8294SOL     OW36514   0.422   4.540  10.128 -0.3613 -0.7621  0.0170
 8294SOL    HW136515   0.390   4.477  10.192  0.7787  0.7107  2.0226
 8294SOL    HW236516   0.503   4.501  10.095 -0.9898 -0.3424 -2.0360
 8295SOL     OW36517   4.723   3.005   6.723 -1.2952  0.0886  0.8131
 8295SOL    HW136518   0.028   2.936   6.774  2.4074  0.9659 -1.0657
 8295SOL    HW236519   4.708   3.067   6.794  1.6481  2.1634 -0.3756
 8296SOL     OW36520   3.733   1.145   1.436  0.2161 -0.3668  0.0327
 8296SOL    HW136521   3.762   1.151   1.345  0.1347  1.0213  0.0913
 8296SOL    HW236522   3.729   1.238   1.459  3.2327  0.3233 -2.2004
 8297SOL     OW36523   4.484   1.670   4.859  0.1342  0.7029 -1.0103
 8297SOL    HW136524   4.414   1.735   4.857 -0.8505 -0.3340 -0.3481
 8297SOL    HW236525   4.550   1.717   4.808 -1.3420  2.2621 -1.4825
 8298SOL     OW36526   4.280   2.241  11.644 -0.1612 -0.7736  0.2289
 8298SOL    HW136527   4.258   2.315  11.701 -2.2481 -0.5282 -0.8895
 8298SOL    HW236528   4.364   2.208  11.677 -0.5667  0.1558  2.2077
 8299SOL     OW36529   4.615   1.087   7.006  0.5633 -0.5437  0.5051
 8299SOL    HW136530   4.645   1.049   7.089 -0.8011 -1.1825  0.7079
 8299SOL    HW236531   4.578   1.013   6.958  0.6065  0.5804 -1.2349
 8300SOL     OW36532   3.191   2.163   7.127 -0.5227  0.4264 -0.5065
 8300SOL    HW136533   3.111   2.113   7.144  0.1743 -0.3903  0.3233
 8300SOL    HW236534   3.251   2.108   7.078  0.9060  0.4472  1.2109
 8301SOL     OW36535   0.974   1.354   7.275  0.2020 -0.0335 -0.6372
 8301SOL    HW136536   0.949   1.267   7.244 -0.6977 -0.2284  0.6259
 8301SOL    HW236537   1.068   1.340   7.262  0.6057 -0.0353  2.2491
 8302SOL     OW36538   1.208   4.530   7.563  0.8034  0.1970  0.5640
 8302SOL    HW136539   1.254   4.497   7.640 -0.0830 -1.6977  0.2848
 8302SOL    HW236540   1.135   4.468   7.551  0.1445  1.2823 -1.1747
 8303SOL     OW36541   2.960   2.541   8.958 -0.0005 -0.0908  0.1819
 8303SOL    HW136542   2.940   2.453   8.926  0.1939  0.5106 -1.5684
 8303SOL    HW236543   2.935   2.596   8.885  0.9501  1.5396  1.0822
 8304SOL     OW36544   0.719   4.212  15.805  0.0404  0.7089 -0.2128
 8304SOL    HW136545   0.649   4.195  15.868  0.7074  1.2126  0.6635
 8304SOL    HW236546   0.754   4.123  15.795  0.4691  0.7999  0.4171
 8305SOL     OW36547   2.439   0.046   7.241 -0.0999 -0.4632  0.7470
 8305SOL    HW136548   2.451   0.069   7.334  1.7463  1.6778 -0.0241
 8305SOL    HW236549   2.532   0.056   7.219  0.2120 -1.9955  1.3297
 8306SOL     OW36550   3.574   0.222  12.924  0.0369 -0.2391  0.1536
 8306SOL    HW136551   3.558   0.197  12.834 -3.2083 -0.0481  0.6695
 8306SOL    HW236552   3.520   0.162  12.975  0.2029  0.4626  1.1755
 8307SOL     OW36553   0.576   0.985  13.264 -0.2623 -0.0646 -0.2754
 8307SOL    HW136554   0.656   0.946  13.229  0.4671 -0.2952  1.6273
 8307SOL    HW236555   0.547   1.049  13.199  1.1470  2.4661  1.5794
 8308SOL     OW36556   0.139   2.366   3.585  0.1166  0.8120  0.3524
 8308SOL    HW136557   0.160   2.449   3.629  1.5416 -0.1611  1.4847
 8308SOL    HW236558   0.051   2.389   3.555  1.1429  1.9501 -1.7346
 8309SOL     OW36559   3.731   0.389   2.142  0.5518  0.0482  0.0147
 8309SOL    HW136560   3.812   0.375   2.094 -0.0221 -2.1554 -0.3322
 8309SOL    HW236561   3.672   0.349   2.078  0.4426  0.3921 -0.0980
 8310SOL     OW36562   1.644   3.656   2.965  0.7904  0.0150 -0.2821
 8310SOL    HW136563   1.566   3.641   2.912 -0.4238  0.8527  1.2444
 8310SOL    HW236564   1.637   3.584   3.028 -0.0984 -0.2703 -0.7136
 8311SOL     OW36565   1.314   1.323   6.281 -0.3962  0.4597  0.3389
 8311SOL    HW136566   1.405   1.305   6.303  0.0328 -0.6403 -2.3902
 8311SOL    HW236567   1.315   1.418   6.287  1.5800  0.5985 -2.2219
 8312SOL     OW36568   2.926   1.798   6.079 -0.3075  0.1597  0.0345
 8312SOL    HW136569   3.000   1.808   6.019 -0.1742 -0.3022  0.1260
 8312SOL    HW236570   2.929   1.869   6.143 -0.4875  0.3724 -0.1962
 8313SOL     OW36571   1.004   4.428   2.836  0.3430 -0.0987 -0.2421
 8313SOL    HW136572   0.989   4.365   2.765 -0.7530 -0.4643  0.3285
 8313SOL    HW236573   1.026   4.507   2.786 -0.8266  1.3349  1.5418
 8314SOL     OW36574   3.240   3.261   5.490  0.0808 -1.0032 -0.2990
 8314SOL    HW136575   3.328   3.233   5.463  0.1529 -1.7349  0.6826
 8314SOL    HW236576   3.220   3.332   5.429  1.2567 -0.7738 -0.4188
 8315SOL     OW36577   4.380   1.538   6.075  0.4414 -0.5662  0.1377
 8315SOL    HW136578   4.455   1.479   6.073  0.3080 -0.7857  1.5585
 8315SOL    HW236579   4.353   1.521   6.165  0.7128 -0.4173  0.2472
 8316SOL     OW36580   0.950   2.280  14.162  0.0766  0.6087 -0.3347
 8316SOL    HW136581   1.031   2.232  14.178 -0.0471  0.0343 -1.4227
 8316SOL    HW236582   0.947   2.257  14.070 -0.4070 -0.7752  0.0344
 8317SOL     OW36583   4.009   0.663   4.863 -0.5355  0.4358  0.8261
 8317SOL    HW136584   4.064   0.741   4.859 -1.8826  1.3285 -0.0680
 8317SOL    HW236585   4.053   0.616   4.793 -1.8465 -1.0318  0.9770
 8318SOL     OW36586   0.571   3.832   3.202 -0.3330 -0.1162 -0.4241
 8318SOL    HW136587   0.567   3.802   3.293  1.4003 -0.3085 -0.4025
 8318SOL    HW236588   0.480   3.824   3.175 -0.6193  2.4166 -0.2603
 8319SOL     OW36589   4.349   2.345  15.372 -0.0603 -0.2543  0.6904
 8319SOL    HW136590   4.273   2.345  15.314  2.0245  0.4362 -2.0629
 8319SOL    HW236591   4.423   2.332  15.313 -1.8322 -1.9449 -1.1278
 8320SOL     OW36592   2.643   1.255   4.879  0.2086  0.1714 -0.4471
 8320SOL    HW136593   2.639   1.350   4.864  0.2530  0.4968  1.5552
 8320SOL    HW236594   2.616   1.231   4.967  1.1679 -5.0312 -1.5974
 8321SOL     OW36595   0.415   0.089   9.800  0.4801 -0.2952  0.3823
 8321SOL    HW136596   0.400   0.020   9.736  0.9156  0.6210 -0.7237
 8321SOL    HW236597   0.376   0.165   9.756  2.4634 -0.2822 -1.3324
 8322SOL     OW36598   0.134   0.669   2.754 -0.0572 -0.0709 -0.9676
 8322SOL    HW136599   0.073   0.612   2.706  1.1025 -0.2609 -2.2190
 8322SOL    HW236600   0.216   0.627   2.730  0.2507  1.1480 -2.0426
 8323SOL     OW36601   0.766   1.145   2.214  1.1736 -0.1905  0.3684
 8323SOL    HW136602   0.786   1.055   2.238  0.2215  0.2381  2.8342
 8323SOL    HW236603   0.851   1.184   2.235  1.0689  0.1287  0.2061
 8324SOL     OW36604   0.091   1.908  16.142  0.1669  0.0888 -0.2991
 8324SOL    HW136605   0.118   1.993  16.109  0.2088  0.4841  0.7403
 8324SOL    HW236606   0.069   1.854  16.066  1.4284  2.5605 -2.4274
 8325SOL     OW36607   3.937   1.951   7.751 -0.1246 -0.0510 -0.3387
 8325SOL    HW136608   3.909   1.860   7.762 -0.0554  0.0499  0.7150
 8325SOL    HW236609   3.903   1.969   7.664 -0.0774  2.8682  0.2549
 8326SOL     OW36610   4.219   4.695   0.312  0.1677  0.3264  0.1773
 8326SOL    HW136611   4.286   4.646   0.361 -0.9531  0.8599  2.2302
 8326SOL    HW236612   4.144   4.636   0.322  1.8033 -1.7537  0.2913
 8327SOL     OW36613   2.848   0.537   2.413  0.2604 -0.2543 -0.3994
 8327SOL    HW136614   2.769   0.591   2.410  0.7304  0.3060 -2.1214
 8327SOL    HW236615   2.894   0.572   2.489 -1.0345 -0.9080  0.6976
 8328SOL     OW36616   0.526   1.133   5.649  0.3166 -0.8721 -0.1290
 8328SOL    HW136617   0.496   1.219   5.618 -1.0559 -0.8596  1.1906
 8328SOL    HW236618   0.616   1.132   5.618  0.3261  1.0600 -0.1369
 8329SOL     OW36619   1.950   3.949   8.954 -0.2101  0.1847 -0.2999
 8329SOL    HW136620   1.950   3.892   8.876  1.3110 -0.1078 -0.0935
 8329SOL    HW236621   1.880   3.915   9.009  1.7197 -2.6691  0.4028
 8330SOL     OW36622   3.159   3.257  11.429  0.0828 -0.5024 -0.0896
 8330SOL    HW136623   3.203   3.177  11.459  3.2539  0.4537 -2.2446
 8330SOL    HW236624   3.096   3.228  11.364  1.2178  1.7817 -2.2176
 8331SOL     OW36625   0.539   4.542  12.471 -0.4193 -0.5966  0.2625
 8331SOL    HW136626   0.485   4.589  12.535  1.9281  1.1766  0.9428
 8331SOL    HW236627   0.471   4.500  12.418  0.2431 -0.9158 -0.3310
 8332SOL     OW36628   0.437   3.686   5.340 -0.1246  0.3997  0.2832
 8332SOL    HW136629   0.497   3.690   5.265 -0.1310 -2.6781  0.1246
 8332SOL    HW236630   0.376   3.754   5.311  0.8310  1.3516  0.4815
 8333SOL     OW36631   4.165   3.746  17.284  0.4310  0.1668  0.3174
 8333SOL    HW136632   4.216   3.678  17.328 -1.0123 -0.6899  0.6673
 8333SOL    HW236633   4.072   3.729  17.299 -0.2008  2.9857 -0.3891
 8334SOL     OW36634   3.634   4.676   7.463  0.2203  0.2351 -1.0378
 8334SOL    HW136635   3.722   4.678   7.425 -0.3528 -0.4357 -2.3902
 8334SOL    HW236636   3.593   4.725   7.391  1.3345  0.4366 -1.5371
 8335SOL     OW36637   4.304   0.882   8.050 -0.2349  0.1553  0.3877
 8335SOL    HW136638   4.267   0.935   7.979 -1.2362 -3.4600 -1.7777
 8335SOL    HW236639   4.224   0.837   8.079  0.8431  0.0289  3.1950
 8336SOL     OW36640   3.159   2.074   0.646  0.3752  0.6060  0.0993
 8336SOL    HW136641   3.194   2.074   0.736  1.9000  0.3909 -0.4866
 8336SOL    HW236642   3.242   2.092   0.602  1.3881 -2.5096  0.7109
 8337SOL     OW36643   4.586   3.103   2.447 -0.3617  0.1133  0.1568
 8337SOL    HW136644   4.575   3.198   2.449  3.0240  0.5362 -0.5662
 8337SOL    HW236645   4.660   3.097   2.507 -0.4573 -0.1278  0.2519
 8338SOL     OW36646   0.206   1.340   5.188 -0.1056  0.2748  0.2451
 8338SOL    HW136647   0.137   1.275   5.201 -0.2007  0.6762  1.6892
 8338SOL    HW236648   0.162   1.407   5.239 -2.8163 -0.5876 -0.9413
 8339SOL     OW36649   3.961   3.351   8.424  0.2221  0.3456 -0.3691
 8339SOL    HW136650   3.908   3.272   8.411  2.7106 -1.1658 -1.4691
 8339SOL    HW236651   3.912   3.411   8.369  0.2370  2.3376  1.7904
 8340SOL     OW36652   3.710   4.247   4.430 -0.5244 -0.1490  0.2991
 8340SOL    HW136653   3.681   4.157   4.414  1.8555 -0.6575 -1.1505
 8340SOL    HW236654   3.628   4.293   4.445 -1.4877 -1.1242 -2.0677
 8341SOL     OW36655   1.972   4.618  10.675  0.4279 -0.4306  0.5589
 8341SOL    HW136656   1.905   4.655  10.733  0.0569  1.5484 -1.1656
 8341SOL    HW236657   2.039   4.684  10.689 -1.1404  1.2744  0.0085
 8342SOL     OW36658   1.186   4.513  15.895  0.2272  0.3029 -0.2146
 8342SOL    HW136659   1.223   4.434  15.933 -1.0213 -0.1126  0.1652
 8342SOL    HW236660   1.155   4.489  15.808 -0.5547  1.0785 -0.1581
 8343SOL     OW36661   0.628   4.168   2.648  0.2193  0.9363  0.2438
 8343SOL    HW136662   0.542   4.193   2.682 -0.6081 -1.1110 -0.3942
 8343SOL    HW236663   0.654   4.089   2.695 -0.9378  1.0590  1.0844
 8344SOL     OW36664   0.531   1.745  10.774 -0.3377  0.3792 -0.3107
 8344SOL    HW136665   0.568   1.691  10.843  1.4683  1.2085 -0.6405
 8344SOL    HW236666   0.544   1.682  10.704  0.3638  1.0125 -0.7489
 8345SOL     OW36667   2.817   2.894  17.694 -0.0895 -0.2460  0.8033
 8345SOL    HW136668   2.881   2.826  17.671 -0.4082  1.1819 -4.1059
 8345SOL    HW236669   2.737   2.842  17.694  2.4353 -4.1776 -1.2066
 8346SOL     OW36670   0.583   2.169   5.279 -0.4268 -0.4432 -0.3763
 8346SOL    HW136671   0.545   2.175   5.191  0.1951  2.5058 -0.4445
 8346SOL    HW236672   0.544   2.244   5.324  0.1310 -0.0555 -0.5434
 8347SOL     OW36673   1.296   0.041   3.182  0.4125  0.0445 -0.0479
 8347SOL    HW136674   1.287   4.685   3.162 -0.3705 -0.0529  0.7305
 8347SOL    HW236675   1.205   0.060   3.160  0.4657 -0.1610 -0.4492
 8348SOL     OW36676   2.698   0.950   3.479 -0.3073  0.0784  0.0052
 8348SOL    HW136677   2.603   0.948   3.473 -0.3386  0.0096  0.5695
 8348SOL    HW236678   2.702   0.950   3.575  1.1071 -0.2349 -0.0526
 8349SOL     OW36679   2.323   0.275   5.109  0.4453  0.4951 -0.2900
 8349SOL    HW136680   2.338   0.369   5.096 -0.8593  0.9942  1.7915
 8349SOL    HW236681   2.314   0.275   5.205 -0.1607  0.2585 -0.3474
 8350SOL     OW36682   3.330   1.022   7.971  0.4070  0.2311  0.4518
 8350SOL    HW136683   3.394   1.032   7.900 -1.0521  1.9524 -0.6149
 8350SOL    HW236684   3.288   1.107   7.963 -1.9447 -0.9306  0.4524
 8351SOL     OW36685   2.583   1.087   4.695 -0.0628  0.2741  0.3324
 8351SOL    HW136686   2.586   1.158   4.759  1.3315  2.2442 -1.9217
 8351SOL    HW236687   2.645   1.024   4.732 -1.8647 -2.5181 -1.4848
 8352SOL     OW36688   0.460   0.111   8.959 -0.3646 -0.0702 -0.1813
 8352SOL    HW136689   0.539   0.147   8.998 -0.6050  0.1470  0.1047
 8352SOL    HW236690   0.504   0.046   8.904 -3.6335 -1.5976 -1.0257
 8353SOL     OW36691   2.946   0.617  11.258 -0.6721 -0.2243 -0.0574
 8353SOL    HW136692   2.951   0.679  11.186  2.1326 -1.3366 -0.8186
 8353SOL    HW236693   2.973   0.676  11.328  1.7942 -1.6270  0.1953
 8354SOL     OW36694   3.012   0.254   0.109  0.2161 -0.0252 -0.3968
 8354SOL    HW136695   2.987   0.279   0.020 -0.7734 -3.2122 -0.9812
 8354SOL    HW236696   3.024   0.160   0.098  1.1511  0.1435 -0.8175
 8355SOL     OW36697   0.861   4.304   5.697 -0.2655 -0.8594  0.0156
 8355SOL    HW136698   0.909   4.376   5.658  0.0841 -1.1081 -0.0079
 8355SOL    HW236699   0.905   4.298   5.782  3.0475 -1.2959 -1.7620
 8356SOL     OW36700   4.252   3.184   8.074  0.1016  0.4809  0.1771
 8356SOL    HW136701   4.310   3.158   8.145 -0.5338  0.7793  0.7971
 8356SOL    HW236702   4.291   3.268   8.048 -0.8170  1.3074  1.4919
 8357SOL     OW36703   2.194   1.383   8.671 -0.1959  0.1926 -0.3517
 8357SOL    HW136704   2.273   1.437   8.662 -0.3066  0.1781 -1.4998
 8357SOL    HW236705   2.132   1.438   8.717  0.4784  0.1623  0.5876
 8358SOL     OW36706   3.010   3.197   5.937  0.4543  0.1259  0.0640
 8358SOL    HW136707   3.072   3.128   5.915 -1.2366 -1.4010  0.1012
 8358SOL    HW236708   2.951   3.197   5.862  1.2449 -1.6680 -0.5682
 8359SOL     OW36709   1.108   3.574   2.614  0.9894 -0.3359  0.0632
 8359SOL    HW136710   1.106   3.655   2.665  0.6451 -0.3326  0.0428
 8359SOL    HW236711   1.114   3.608   2.525 -2.0674  0.9092  0.3281
 8360SOL     OW36712   3.484   1.061   8.595  0.2663 -0.4472  0.2161
 8360SOL    HW136713   3.430   1.037   8.520 -1.4901 -0.3195  1.4412
 8360SOL    HW236714   3.463   0.998   8.664 -1.9760 -0.7003 -0.7214
 8361SOL     OW36715   1.460   4.433   5.009  0.1871  0.3092 -0.4181
 8361SOL    HW136716   1.406   4.509   5.031 -0.8276 -0.7198  0.6481
 8361SOL    HW236717   1.475   4.446   4.916  0.0711  0.0969 -0.4659
 8362SOL     OW36718   4.309   3.807   5.558  0.0925 -0.0501  0.6518
 8362SOL    HW136719   4.304   3.741   5.628  0.4973  1.0029  1.6647
 8362SOL    HW236720   4.401   3.834   5.557 -0.0136  0.3849  3.0585
 8363SOL     OW36721   3.436   3.437   3.703 -0.6015 -0.4156  1.0417
 8363SOL    HW136722   3.422   3.422   3.610  0.1722  0.8051  0.7209
 8363SOL    HW236723   3.505   3.503   3.693 -0.9727  0.0902  1.7638
 8364SOL     OW36724   0.936   0.145  17.272  0.3412  0.2176  0.1661
 8364SOL    HW136725   0.861   0.092  17.246 -0.2308  0.7594  0.7008
 8364SOL    HW236726   0.969   0.176  17.188  0.0156  0.6001  0.1771
 8365SOL     OW36727   2.192   3.924   3.053  0.0025  0.2577  0.2904
 8365SOL    HW136728   2.148   3.968   3.126 -1.0062 -0.7330  0.2742
 8365SOL    HW236729   2.128   3.937   2.983 -0.2556  1.8175  0.8182
 8366SOL     OW36730   0.412   4.629   7.812 -0.0255  0.4370 -0.2743
 8366SOL    HW136731   0.423   4.703   7.871  1.8499 -0.5128  0.5724
 8366SOL    HW236732   0.487   4.637   7.754  1.2063 -0.9438  1.1249
 8367SOL     OW36733   3.722   1.698   1.129  0.2319  0.0641  0.1444
 8367SOL    HW136734   3.631   1.726   1.125 -0.8039 -3.1308  0.9642
 8367SOL    HW236735   3.753   1.747   1.053  1.2286 -1.7602 -0.6256
 8368SOL     OW36736   2.758   2.964   4.891 -0.2832  0.1527  0.4801
 8368SOL    HW136737   2.758   2.962   4.795 -0.3446 -2.5019  0.5394
 8368SOL    HW236738   2.827   2.905   4.920  1.8476  1.9885 -0.8494
 8369SOL     OW36739   3.336   0.604   1.653 -0.3572  0.0532 -0.2332
 8369SOL    HW136740   3.353   0.522   1.698 -0.4605 -0.1743 -0.6084
 8369SOL    HW236741   3.422   0.641   1.632  0.5778 -1.6398  0.6924
 8370SOL     OW36742   1.598   4.084  12.236  0.1144  0.5256 -0.1588
 8370SOL    HW136743   1.553   4.024  12.295  1.8979  0.5732  1.2937
 8370SOL    HW236744   1.687   4.050  12.226  0.4651  0.6332  2.4840
 8371SOL     OW36745   4.000   1.722  12.803 -0.0308  0.6345 -0.7303
 8371SOL    HW136746   3.985   1.796  12.861 -1.6858 -1.4600  1.4979
 8371SOL    HW236747   4.052   1.659  12.852 -0.7653  1.1455  0.6929
 8372SOL     OW36748   0.810   3.757   3.860 -0.0447  0.1940  0.0534
 8372SOL    HW136749   0.821   3.796   3.773  2.5684 -0.7095 -0.0062
 8372SOL    HW236750   0.874   3.803   3.914  1.4401 -1.4759 -0.2759
 8373SOL     OW36751   1.033   4.266  17.558 -0.6779 -0.0336  0.1068
 8373SOL    HW136752   1.041   4.359  17.578 -1.1553  0.3667 -1.5515
 8373SOL    HW236753   0.982   4.271  17.477 -0.7956  0.4879  0.2118
 8374SOL     OW36754   4.564   2.024  13.465  0.1630 -0.2790  0.1841
 8374SOL    HW136755   4.569   2.120  13.467  2.5089 -0.3087 -3.3256
 8374SOL    HW236756   4.630   1.997  13.400  0.1934 -0.6751  0.3815
 8375SOL     OW36757   3.332   1.406   8.433  0.3688  0.0010 -0.0546
 8375SOL    HW136758   3.417   1.447   8.416 -0.3494  1.6896  0.4535
 8375SOL    HW236759   3.306   1.460   8.507 -1.6558  0.3226 -1.0012
 8376SOL     OW36760   1.893   0.995   6.082  0.1732  0.2775  0.0491
 8376SOL    HW136761   1.845   0.935   6.139  0.1718  0.2399  0.0080
 8376SOL    HW236762   1.951   1.033   6.148  1.1746 -1.7608  0.3404
 8377SOL     OW36763   4.070   4.198   7.796  0.1944  0.1063 -0.1926
 8377SOL    HW136764   4.154   4.195   7.843  0.6700  0.9102 -0.9744
 8377SOL    HW236765   4.005   4.203   7.866 -1.3063 -0.3903 -1.5815
 8378SOL     OW36766   0.509   4.132   7.912  0.9471 -0.0607 -0.1683
 8378SOL    HW136767   0.494   4.110   8.004 -0.9080 -0.9181 -0.6759
 8378SOL    HW236768   0.463   4.056   7.877  1.3333 -0.6158  0.5265
 8379SOL     OW36769   3.752   1.943   2.934 -0.2586 -0.2620 -0.6008
 8379SOL    HW136770   3.747   1.960   3.028 -0.9254 -1.1419 -0.4772
 8379SOL    HW236771   3.798   1.859   2.938  1.3015  0.5484 -1.5197
 8380SOL     OW36772   2.519   0.036   5.723 -0.0033 -0.3252  0.3420
 8380SOL    HW136773   2.525   0.065   5.814 -0.9530  1.5012 -0.1735
 8380SOL    HW236774   2.428   0.052   5.698 -0.2816 -0.1880  1.4663
 8381SOL     OW36775   3.427   4.318   3.853  0.5804  0.6894 -0.3059
 8381SOL    HW136776   3.513   4.279   3.837 -0.3954 -0.4242 -2.8485
 8381SOL    HW236777   3.381   4.276   3.780  0.5811 -0.2725  0.2521
 8382SOL     OW36778   1.515   2.480   8.253  0.1841 -0.5533  0.4387
 8382SOL    HW136779   1.462   2.417   8.301  0.1505 -0.7058  0.2027
 8382SOL    HW236780   1.525   2.435   8.169  2.8327  1.7358 -0.4794
 8383SOL     OW36781   3.189   3.565   3.477  0.4032 -0.2028 -0.1184
 8383SOL    HW136782   3.108   3.559   3.527  0.7983  2.1816  0.7841
 8383SOL    HW236783   3.175   3.631   3.409  2.7162 -0.5409 -0.9273
 8384SOL     OW36784   2.247   1.311   5.472 -0.0578 -0.0952 -0.4606
 8384SOL    HW136785   2.207   1.326   5.387  1.2168  2.8750 -0.5332
 8384SOL    HW236786   2.179   1.264   5.520  0.1293 -0.5225 -0.6142
 8385SOL     OW36787   1.444   1.267   2.432 -0.3319  0.3413 -0.3633
 8385SOL    HW136788   1.402   1.198   2.381 -0.1499 -0.3476  0.4274
 8385SOL    HW236789   1.537   1.263   2.412  0.2393  1.3720  2.0543
 8386SOL     OW36790   0.038   3.110  12.208  0.0522 -0.5114 -0.3557
 8386SOL    HW136791   4.701   3.148  12.161  0.6243  1.2128  0.1384
 8386SOL    HW236792   0.111   3.171  12.196 -1.1862  1.1643  0.5111
 8387SOL     OW36793   1.263   0.563   2.796  0.4460  0.5358  0.1252
 8387SOL    HW136794   1.272   0.482   2.847  2.3479  0.1983 -0.7702
 8387SOL    HW236795   1.309   0.617   2.860  2.0526  0.2525 -0.8250
 8388SOL     OW36796   1.549   1.619   2.318 -0.1391  0.4867 -0.8231
 8388SOL    HW136797   1.530   1.712   2.331 -0.6598  0.3930 -0.9148
 8388SOL    HW236798   1.499   1.585   2.392 -0.1791 -0.3241 -1.2193
 8389SOL     OW36799   0.663   1.527   4.041  0.1103 -0.1930  0.4366
 8389SOL    HW136800   0.636   1.560   3.956 -1.3611 -3.0513 -0.1972
 8389SOL    HW236801   0.757   1.515   4.028  0.2718  0.7520  0.6801
 8390SOL     OW36802   2.432   0.412   5.453 -0.6062  0.5797 -0.1503
 8390SOL    HW136803   2.508   0.367   5.490 -0.4925  1.2503  0.4173
 8390SOL    HW236804   2.459   0.445   5.367 -0.1935 -0.8800 -0.5749
 8391SOL     OW36805   2.996   2.067   0.392  0.3100  0.4159 -0.8150
 8391SOL    HW136806   2.918   2.114   0.421  1.7696  1.4504  1.3656
 8391SOL    HW236807   3.067   2.089   0.452 -2.5584  0.9549  2.3526
 8392SOL     OW36808   1.620   1.622   5.720 -0.3456 -0.7654  0.3262
 8392SOL    HW136809   1.693   1.610   5.781 -0.4025 -1.8535  0.1752
 8392SOL    HW236810   1.645   1.569   5.644  0.7358  1.0137 -0.5643
 8393SOL     OW36811   2.725   3.627   5.950  0.6339  0.5682  0.2212
 8393SOL    HW136812   2.739   3.703   5.894 -1.9421  1.1137  0.3085
 8393SOL    HW236813   2.802   3.578   5.922  1.5450  0.3190  3.1939
 8394SOL     OW36814   3.418   1.853   7.247 -0.4184 -0.0245  0.1113
 8394SOL    HW136815   3.415   1.949   7.255  1.9699  0.0597  0.0114
 8394SOL    HW236816   3.388   1.849   7.156  1.2636 -2.1889 -0.3399
 8395SOL     OW36817   2.282   3.869   8.081 -0.4077 -0.1342  0.5358
 8395SOL    HW136818   2.226   3.911   8.146  2.3080  1.9097  1.5228
 8395SOL    HW236819   2.325   3.945   8.041  2.0103 -1.4352  0.6998
 8396SOL     OW36820   0.676   3.937  13.216  0.4371  0.0637 -0.0770
 8396SOL    HW136821   0.625   3.914  13.138  0.7779  0.1292 -0.3165
 8396SOL    HW236822   0.750   3.978  13.173 -0.1055  0.6634 -0.4483
 8397SOL     OW36823   2.378   1.860   0.787 -0.1544 -0.0300 -0.3544
 8397SOL    HW136824   2.351   1.836   0.875  1.0945  0.0687  0.0572
 8397SOL    HW236825   2.304   1.910   0.754  0.2310 -0.1918 -1.4702
 8398SOL     OW36826   1.748   1.051   3.138  0.2716  0.1600 -0.7306
 8398SOL    HW136827   1.838   1.080   3.154  0.3377  0.0787 -0.9532
 8398SOL    HW236828   1.764   0.995   3.062 -1.1702  3.3969 -3.4227
 8399SOL     OW36829   4.296   1.414   2.407 -0.1491  0.2632  0.4350
 8399SOL    HW136830   4.342   1.468   2.471  1.1656  2.1509 -2.0667
 8399SOL    HW236831   4.325   1.329   2.441  1.7067  0.7567  0.0925
 8400SOL     OW36832   1.665   4.690   7.359 -0.4335  0.2055 -0.4061
 8400SOL    HW136833   1.669   0.040   7.399 -0.7128  0.0716 -0.0935
 8400SOL    HW236834   1.723   4.706   7.284  0.5080  0.1733  0.3119
 8401SOL     OW36835   2.582   4.463   8.300 -0.0017 -0.1100 -0.4020
 8401SOL    HW136836   2.591   4.501   8.387 -0.4361 -2.2635  0.5663
 8401SOL    HW236837   2.660   4.410   8.280  0.6018  0.4066  0.5800
 8402SOL     OW36838   0.645   0.385  12.830 -0.0790  0.1701  0.0546
 8402SOL    HW136839   0.712   0.439  12.873  0.5577 -0.6653  0.1204
 8402SOL    HW236840   0.687   0.298  12.832 -1.4643 -0.4614  2.0587
 8403SOL     OW36841   1.296   4.142   5.776  0.5838 -0.5811  0.0516
 8403SOL    HW136842   1.289   4.199   5.852  0.1140  1.0708 -1.2321
 8403SOL    HW236843   1.247   4.193   5.711 -0.5156 -0.9751  0.5847
 8404SOL     OW36844   2.546   2.343   0.027  0.0044 -0.0222 -0.0633
 8404SOL    HW136845   2.521   2.256  17.744 -0.2624  0.0704 -0.1137
 8404SOL    HW236846   2.477   2.374   0.086 -1.4317 -1.9047 -0.7181
 8405SOL     OW36847   1.632   0.249   5.000 -0.1716  0.0243  0.2915
 8405SOL    HW136848   1.636   0.156   4.978 -2.4116 -0.0515  0.1666
 8405SOL    HW236849   1.568   0.259   4.930 -0.5607  1.0854  0.8074
 8406SOL     OW36850   2.110   4.004   5.705 -0.2058  0.3205 -0.3150
 8406SOL    HW136851   2.127   3.969   5.618  1.8179 -0.1723  0.2785
 8406SOL    HW236852   2.098   3.931   5.766  1.3926  0.1794 -0.1615
 8407SOL     OW36853   1.820   2.361  10.361  0.5415  0.4536  0.6720
 8407SOL    HW136854   1.759   2.431  10.384  1.6819  1.4486  0.6672
 8407SOL    HW236855   1.897   2.408  10.331  2.0626 -0.3824  3.2581
 8408SOL     OW36856   0.349   2.217   8.731 -0.0571  0.1948 -0.0128
 8408SOL    HW136857   0.271   2.218   8.676  0.8505 -0.2937 -1.2928
 8408SOL    HW236858   0.333   2.136   8.781 -1.1230  0.3129 -0.1571
 8409SOL     OW36859   4.285   2.674   6.680 -0.4679 -0.1724 -0.1277
 8409SOL    HW136860   4.216   2.736   6.658 -0.3409 -0.0420 -0.1558
 8409SOL    HW236861   4.237   2.598   6.714 -1.3453  0.8205  0.8393
 8410SOL     OW36862   1.187   3.016   1.437 -0.4714 -0.1693  0.0823
 8410SOL    HW136863   1.142   3.033   1.355 -1.3500  0.4407  0.6839
 8410SOL    HW236864   1.123   3.048   1.501  0.2450  1.5070 -0.0396
 8411SOL     OW36865   2.996   0.519   2.703  0.2861 -0.3241 -0.3019
 8411SOL    HW136866   3.064   0.585   2.716 -0.4707  0.3321  0.3999
 8411SOL    HW236867   3.035   0.432   2.694  1.3252  0.3003 -1.7651
 8412SOL     OW36868   2.952   0.237   7.742  0.4368 -0.2321  0.3304
 8412SOL    HW136869   2.904   0.318   7.758  3.2707  1.7362 -1.0232
 8412SOL    HW236870   3.047   0.251   7.739 -0.1418  3.4596 -1.3014
 8413SOL     OW36871   3.656   4.511   2.227  0.2324 -0.8349 -0.4100
 8413SOL    HW136872   3.705   4.540   2.304 -2.7350 -0.6472  1.3936
 8413SOL    HW236873   3.593   4.463   2.280  1.3353  1.2190  2.7644
 8414SOL     OW36874   2.877   2.226   0.850  0.3762  0.1712 -0.1372
 8414SOL    HW136875   2.889   2.306   0.799  0.4299  0.5844  0.5308
 8414SOL    HW236876   2.785   2.240   0.871  0.5974  0.8300  0.3983
 8415SOL     OW36877   0.019   1.574   5.045 -0.1957  0.0024 -0.1775
 8415SOL    HW136878   0.031   1.547   5.136  3.4757  0.2122 -0.5694
 8415SOL    HW236879   0.001   1.490   5.003 -0.4175  1.1045 -2.2888
 8416SOL     OW36880   1.816   0.499   7.685 -0.2907  0.1404  0.4052
 8416SOL    HW136881   1.881   0.515   7.616  2.4290 -0.1344  2.9180
 8416SOL    HW236882   1.842   0.559   7.755  1.7342 -0.4244  0.1314
 8417SOL     OW36883   2.870   2.871   9.024  0.2852  0.4908  1.2231
 8417SOL    HW136884   2.885   2.837   9.113  2.4072  0.0083  0.6641
 8417SOL    HW236885   2.857   2.792   8.971 -0.1438  0.4136  1.4386
 8418SOL     OW36886   1.509   3.451  17.045 -0.1285 -0.0096 -0.0451
 8418SOL    HW136887   1.568   3.510  17.092 -1.8535 -0.7745  3.0574
 8418SOL    HW236888   1.488   3.502  16.967 -0.5988  0.4433  0.3811
 8419SOL     OW36889   2.866   1.887   6.859  0.6535  0.1385 -0.2556
 8419SOL    HW136890   2.883   1.979   6.837 -0.9910  0.4424 -0.3274
 8419SOL    HW236891   2.773   1.881   6.837  0.6084 -1.2209  0.3661
 8420SOL     OW36892   1.372   1.990   4.809  0.0474 -0.2656 -0.6323
 8420SOL    HW136893   1.342   2.010   4.720  0.6566 -1.1028 -1.0215
 8420SOL    HW236894   1.303   2.030   4.861  0.8547 -0.5594  0.6721
 8421SOL     OW36895   2.395   1.264  12.048  0.2819  0.1149  0.1119
 8421SOL    HW136896   2.368   1.277  12.139 -0.8354 -1.7512  0.0595
 8421SOL    HW236897   2.322   1.211  12.016  1.4020 -1.4099  0.0635
 8422SOL     OW36898   4.145   4.589  11.216 -0.6427 -0.0940 -0.4553
 8422SOL    HW136899   4.111   4.526  11.152 -1.9704  1.8711 -1.6962
 8422SOL    HW236900   4.067   4.608  11.268 -0.3546  0.7258 -0.3211
 8423SOL     OW36901   1.581   1.849   8.597 -0.9596  0.4090  0.2753
 8423SOL    HW136902   1.676   1.851   8.601 -0.8809 -1.7397 -0.7601
 8423SOL    HW236903   1.559   1.776   8.654  1.6898 -0.7525 -0.2241
 8424SOL     OW36904   4.452   4.401   0.141 -0.2862 -0.2126 -0.8551
 8424SOL    HW136905   4.478   4.312   0.164 -1.5303  0.1217  1.8417
 8424SOL    HW236906   4.431   4.395   0.048  0.0895 -1.5095 -0.8523
 8425SOL     OW36907   0.075   0.500  10.326 -0.4864 -0.1771  0.2225
 8425SOL    HW136908   0.156   0.549  10.340  0.0378 -0.2658 -2.4719
 8425SOL    HW236909   0.091   0.455  10.243 -1.0826 -0.2485  0.1472
 8426SOL     OW36910   4.344   2.630  12.255  0.2496 -0.0965 -0.6024
 8426SOL    HW136911   4.426   2.677  12.268  0.0534  0.0801 -0.0075
 8426SOL    HW236912   4.295   2.668  12.327 -1.2276 -1.8619 -0.6749
 8427SOL     OW36913   1.451   0.796   6.856  0.0495  0.4276 -0.2011
 8427SOL    HW136914   1.521   0.852   6.889  1.5260 -0.8632 -1.1096
 8427SOL    HW236915   1.492   0.711   6.837  0.1304  0.0707  1.5893
 8428SOL     OW36916   4.539   4.095  10.680  0.0952 -0.2809  0.2645
 8428SOL    HW136917   4.581   4.014  10.654  1.2579  1.0648 -1.9920
 8428SOL    HW236918   4.531   4.078  10.774 -0.5078  0.0273  0.2694
 8429SOL     OW36919   0.062   1.310   5.740 -0.0772  0.3778  0.5967
 8429SOL    HW136920   0.019   1.388   5.705 -2.5630 -0.4391  1.8209
 8429SOL    HW236921   0.105   1.280   5.660 -2.5070 -1.0581 -0.1757
 8430SOL     OW36922   0.585   2.465   3.575  0.4457 -0.4911  0.2983
 8430SOL    HW136923   0.586   2.560   3.570  2.3192 -0.6791 -2.8263
 8430SOL    HW236924   0.674   2.442   3.599 -0.0905 -1.0696  1.7491
 8431SOL     OW36925   4.635   2.266   7.697 -0.0897  0.5384 -0.6156
 8431SOL    HW136926   4.666   2.330   7.633  0.1056  0.0146 -1.0537
 8431SOL    HW236927   4.692   2.192   7.673 -2.0845 -1.5222  0.9500
 8432SOL     OW36928   1.628   0.019   4.840  0.2134 -0.5992 -0.5093
 8432SOL    HW136929   1.615   4.737   4.748 -0.0025  0.2766 -0.6627
 8432SOL    HW236930   1.724   0.019   4.845  0.1299  1.6044  0.9391
 8433SOL     OW36931   3.940   0.960   9.496 -0.0341  0.4653  0.2612
 8433SOL    HW136932   3.866   0.911   9.458 -0.2495 -0.1279  1.4173
 8433SOL    HW236933   3.954   1.028   9.431 -5.7805  1.9994  0.6028
 8434SOL     OW36934   1.456   2.284   6.737  0.0381 -0.0389  0.5054
 8434SOL    HW136935   1.503   2.352   6.689  1.4403  0.7646  3.0274
 8434SOL    HW236936   1.524   2.217   6.747 -0.3606 -0.7611 -1.5539
 8435SOL     OW36937   4.452   0.148   1.619 -0.2713  0.7711  0.1163
 8435SOL    HW136938   4.534   0.151   1.667  0.3364 -1.4738 -0.8183
 8435SOL    HW236939   4.479   0.187   1.536 -1.7933  0.0381 -0.7240
 8436SOL     OW36940   2.937   1.456  17.368  0.1699 -0.0434 -0.2329
 8436SOL    HW136941   2.943   1.519  17.296 -1.1766  0.9075  0.4674
 8436SOL    HW236942   2.981   1.501  17.439 -2.7224 -0.7204  1.9962
 8437SOL     OW36943   2.523   4.243  15.080  0.2022 -0.1461 -0.2498
 8437SOL    HW136944   2.535   4.161  15.031 -4.7008 -1.2714  0.4222
 8437SOL    HW236945   2.437   4.263  15.043  0.0134 -1.5682 -0.5878
 8438SOL     OW36946   2.937   3.688   1.337 -0.0349  0.7546 -0.2065
 8438SOL    HW136947   2.867   3.733   1.290 -2.0242 -2.2604 -0.1817
 8438SOL    HW236948   3.016   3.737   1.316  1.2153 -1.4254 -0.6519
 8439SOL     OW36949   0.303   4.543   9.026 -0.1445  0.2622  0.4621
 8439SOL    HW136950   0.225   4.501   9.062  0.3585 -1.3808 -0.3622
 8439SOL    HW236951   0.324   4.493   8.947  1.2237  0.0233  0.9827
 8440SOL     OW36952   0.498   0.462  12.572  0.5228  0.9284  0.1906
 8440SOL    HW136953   0.403   0.472  12.577  0.1764 -1.5843 -1.1368
 8440SOL    HW236954   0.513   0.431  12.661 -0.9844  0.5612  0.3302
 8441SOL     OW36955   0.942   4.575   1.857 -0.7491 -0.4561  0.0156
 8441SOL    HW136956   0.971   4.566   1.767 -0.8563 -0.6671  0.0011
 8441SOL    HW236957   0.848   4.575   1.840 -0.4777 -3.8829 -1.5978
 8442SOL     OW36958   0.181   3.293  10.653  0.0511 -0.2190  0.1131
 8442SOL    HW136959   0.117   3.233  10.689 -0.1949  0.6510  1.1033
 8442SOL    HW236960   0.263   3.266  10.694  0.0504 -0.0157  0.2481
 8443SOL     OW36961   2.863   1.165   2.809  0.1505  0.0603 -0.4504
 8443SOL    HW136962   2.772   1.178   2.782 -0.2001 -1.7170 -0.1317
 8443SOL    HW236963   2.852   1.177   2.904  0.7127 -1.3440 -0.2109
 8444SOL     OW36964   2.430   4.629   1.664 -0.1091 -0.1553 -0.2362
 8444SOL    HW136965   2.487   4.702   1.687  0.0827 -0.5135  0.4235
 8444SOL    HW236966   2.454   4.562   1.729 -0.3130  0.0837  0.0808
 8445SOL     OW36967   0.043   3.453   5.401  0.2209  0.6480  0.0073
 8445SOL    HW136968   4.726   3.376   5.384  0.6274  0.3979 -0.1689
 8445SOL    HW236969   0.020   3.460   5.494 -1.8469 -0.6645 -0.3968
 8446SOL     OW36970   2.977   0.043  10.848 -0.0234  0.1316 -0.1980
 8446SOL    HW136971   3.043   0.016  10.911  0.1355 -2.3339 -1.4324
 8446SOL    HW236972   3.039   0.082  10.786 -1.7249  1.0259 -1.3407
 8447SOL     OW36973   2.276   2.119   7.589  0.1870  0.6090  0.2897
 8447SOL    HW136974   2.350   2.161   7.632 -0.2958  0.2566  1.4429
 8447SOL    HW236975   2.324   2.040   7.565 -1.1561  0.1522 -0.9143
 8448SOL     OW36976   3.037   4.277  10.570  0.1285 -0.0409  0.2384
 8448SOL    HW136977   3.109   4.285  10.632  0.7361  0.6901 -0.5655
 8448SOL    HW236978   2.977   4.328  10.625  1.9699  0.9372  1.3434
 8449SOL     OW36979   1.039   4.455   8.123 -0.0298 -0.2000 -0.5265
 8449SOL    HW136980   0.972   4.523   8.125 -0.5709 -0.7505  0.3639
 8449SOL    HW236981   1.113   4.493   8.076  0.7034 -0.8288  0.1062
 8450SOL     OW36982   0.884   3.164  15.626  0.4397 -0.5775 -0.1978
 8450SOL    HW136983   0.886   3.163  15.722 -2.6821 -0.9326 -0.1414
 8450SOL    HW236984   0.825   3.091  15.607 -2.2523  1.0350  2.0480
 8451SOL     OW36985   1.983   0.559   5.275 -0.1252  0.1083  0.0075
 8451SOL    HW136986   1.897   0.595   5.255 -0.1122 -0.0552 -0.3528
 8451SOL    HW236987   1.971   0.574   5.368 -0.7906  3.3213 -0.6153
 8452SOL     OW36988   3.418   1.655   8.895  0.4514 -0.5804  0.2198
 8452SOL    HW136989   3.335   1.689   8.860  2.0173  1.9936 -0.9596
 8452SOL    HW236990   3.444   1.610   8.814 -0.3301  0.7783 -0.8055
 8453SOL     OW36991   4.565   4.368   7.047  0.5272  0.2793  0.1952
 8453SOL    HW136992   4.554   4.273   7.054 -0.2635  0.4199  0.8625
 8453SOL    HW236993   4.640   4.389   6.993 -1.1489  0.6209 -1.9940
 8454SOL     OW36994   1.682   1.099   8.142 -0.7281  0.3861 -0.0063
 8454SOL    HW136995   1.683   1.049   8.223  0.2101 -0.8771 -0.8018
 8454SOL    HW236996   1.622   1.054   8.082  1.9242 -0.4361 -2.0459
 8455SOL     OW36997   0.003   0.942  12.265 -0.7865  0.4317 -0.0590
 8455SOL    HW136998   4.711   0.858  12.230  1.2545 -0.5957  0.7012
 8455SOL    HW236999   4.660   0.978  12.304  0.1460  2.0454  0.4038
 8456SOL     OW37000   0.612   1.710   3.775  0.5510 -0.3714  0.4929
 8456SOL    HW137001   0.622   1.775   3.844  2.0874  0.5432 -0.5834
 8456SOL    HW237002   0.594   1.774   3.705  0.6750  0.4829  1.2448
 8457SOL     OW37003   1.757   4.463   8.575 -0.0094 -0.2258 -0.1072
 8457SOL    HW137004   1.804   4.518   8.512 -2.4956  0.2167 -1.5492
 8457SOL    HW237005   1.761   4.515   8.656  0.6949 -0.5317  0.0595
 8458SOL     OW37006   3.435   2.461   7.629  0.5880 -0.2010 -0.1145
 8458SOL    HW137007   3.513   2.508   7.658  1.4536 -1.4382 -0.4263
 8458SOL    HW237008   3.393   2.424   7.707 -2.3427  0.5819 -1.3185
 8459SOL     OW37009   2.930   2.528   1.794  0.8567  0.8415 -0.3746
 8459SOL    HW137010   2.863   2.488   1.738  1.3059 -1.6563  0.8461
 8459SOL    HW237011   3.010   2.477   1.778  0.0864 -0.9221  1.3806
 8460SOL     OW37012   1.230   3.539   5.883 -0.0256  0.5569  0.0488
 8460SOL    HW137013   1.297   3.559   5.818 -0.2917 -1.9543 -0.9985
 8460SOL    HW237014   1.176   3.618   5.884 -0.0600  0.5258  1.2557
 8461SOL     OW37015   1.268   2.435   9.011 -0.2256  0.4209  0.5156
 8461SOL    HW137016   1.324   2.380   8.956  0.4919  1.9922 -0.3208
 8461SOL    HW237017   1.184   2.439   8.967 -0.6754 -0.6190  1.2882
 8462SOL     OW37018   3.183   2.091  17.571 -0.0292 -0.2360  0.5665
 8462SOL    HW137019   3.267   2.137  17.568 -0.4748  0.5021 -0.5997
 8462SOL    HW237020   3.143   2.147  17.505 -0.6387 -2.2777 -0.7889
 8463SOL     OW37021   2.832   2.237  16.714 -0.1812 -0.4892  0.0279
 8463SOL    HW137022   2.762   2.248  16.649 -0.2433 -0.5569  0.0831
 8463SOL    HW237023   2.887   2.314  16.698  1.2057 -1.2405  1.2507
 8464SOL     OW37024   4.172   0.058  16.960  0.2901 -0.1001 -0.3888
 8464SOL    HW137025   4.217   0.031  17.040 -0.8520  1.9539  0.9646
 8464SOL    HW237026   4.101   4.734  16.941  0.0948  0.6100 -1.9515
 8465SOL     OW37027   3.265   2.419   7.250 -0.4976  0.1589  0.2915
 8465SOL    HW137028   3.232   2.346   7.197 -2.7111  1.0665  0.3892
 8465SOL    HW237029   3.225   2.402   7.336  2.3072  3.3201  2.1794
 8466SOL     OW37030   4.577   2.982   9.879  0.1189 -0.0963  0.2526
 8466SOL    HW137031   4.511   2.974   9.948 -2.0008  2.4736 -1.4861
 8466SOL    HW237032   4.589   2.888   9.861 -1.5716 -0.4823  1.1271
 8467SOL     OW37033   2.310   4.089   3.614  0.9215  0.1604  0.4085
 8467SOL    HW137034   2.390   4.111   3.662  1.1975  0.5084 -0.2097
 8467SOL    HW237035   2.268   4.035   3.682 -0.2961  0.8100  0.1641
 8468SOL     OW37036   3.050   3.445   6.325 -0.3838  0.5657 -0.0954
 8468SOL    HW137037   3.019   3.512   6.263  3.7047  1.2295 -1.4732
 8468SOL    HW237038   3.115   3.385   6.288 -1.0968  0.0454 -0.4842
 8469SOL     OW37039   0.626   0.018   4.587 -0.2286  0.3487 -0.1880
 8469SOL    HW137040   0.564   0.087   4.564 -0.8857 -0.8268 -1.9075
 8469SOL    HW237041   0.574   4.677   4.573 -2.7630  1.6179  2.1209
 8470SOL     OW37042   3.670   2.024   3.440 -0.1698  0.3382  0.1176
 8470SOL    HW137043   3.615   2.093   3.480  0.4086 -0.1524  1.7613
 8470SOL    HW237044   3.756   2.065   3.437  0.2518 -0.5533  0.1417
 8471SOL     OW37045   3.809   2.107   5.498 -0.4291  0.1010 -0.2950
 8471SOL    HW137046   3.849   2.158   5.568 -1.3215  0.8633 -0.3470
 8471SOL    HW237047   3.827   2.153   5.416 -0.0746 -1.4623 -1.1091
 8472SOL     OW37048   2.878   2.227  16.981 -0.0232  0.0052  0.0339
 8472SOL    HW137049   2.784   2.213  16.978  0.2770 -2.5191  1.8154
 8472SOL    HW237050   2.906   2.217  16.890 -2.8484  2.5612 -1.0780
 8473SOL     OW37051   0.308   2.054   9.252 -0.5555 -0.2062 -0.6294
 8473SOL    HW137052   0.221   2.080   9.222 -0.5548 -0.2028 -0.6285
 8473SOL    HW237053   0.309   1.959   9.248  1.6724 -0.1492 -1.1064
 8474SOL     OW37054   3.129   3.391   7.492  0.6212 -0.3181 -0.4140
 8474SOL    HW137055   3.069   3.434   7.552  1.8367  0.6934  0.0816
 8474SOL    HW237056   3.126   3.456   7.422 -1.9112 -1.4472 -1.3585
 8475SOL     OW37057   4.231   1.589   9.056 -0.3071 -0.1550  0.2413
 8475SOL    HW137058   4.200   1.524   8.992  0.0797 -0.9344  0.8501
 8475SOL    HW237059   4.259   1.654   8.991  1.1918 -2.4279 -1.3696
 8476SOL     OW37060   3.261   1.974   3.480  0.1320  0.5244 -0.7991
 8476SOL    HW137061   3.323   1.911   3.443 -1.2081 -1.3130  0.0815
 8476SOL    HW237062   3.194   2.000   3.417 -1.1257 -0.6720  0.0323
 8477SOL     OW37063   1.404   0.497   2.021  0.1032 -0.7101  0.0449
 8477SOL    HW137064   1.430   0.453   1.941  1.2223  0.1133 -0.0432
 8477SOL    HW237065   1.337   0.436   2.051  0.0951  0.0721  1.6399
 8478SOL     OW37066   0.748   1.944   7.898 -0.2538  0.3770  0.1676
 8478SOL    HW137067   0.652   1.944   7.899 -0.2589  1.1020  0.2062
 8478SOL    HW237068   0.768   1.865   7.847  3.6106  0.7314  1.1625
 8479SOL     OW37069   3.540   3.074   1.877 -0.3443 -0.2825  0.1421
 8479SOL    HW137070   3.492   3.009   1.827  0.6661 -0.9496  0.0256
 8479SOL    HW237071   3.629   3.037   1.873 -0.6567 -0.9040 -0.9262
 8480SOL     OW37072   0.929   1.576   9.504  0.0412 -0.5854 -0.1262
 8480SOL    HW137073   0.868   1.522   9.554  0.1495 -0.4867  0.1123
 8480SOL    HW237074   0.917   1.530   9.421 -2.9331 -0.4163  0.2259
 8481SOL     OW37075   1.022   2.289   4.488 -0.0778  0.5595 -0.1995
 8481SOL    HW137076   0.993   2.272   4.577 -0.2593 -1.0840 -0.5588
 8481SOL    HW237077   1.066   2.373   4.498 -1.4665  1.1726  0.7325
 8482SOL     OW37078   4.643   4.239  15.878  0.7240  0.1367 -0.6279
 8482SOL    HW137079   4.700   4.167  15.903  0.3712  0.6581  1.6649
 8482SOL    HW237080   4.657   4.233  15.783  0.1734 -0.2292 -0.6846
 8483SOL     OW37081   2.628   0.122   9.712 -0.4816 -0.3902  0.2615
 8483SOL    HW137082   2.600   0.212   9.729  0.7347 -0.5975  3.3201
 8483SOL    HW237083   2.625   0.092   9.803 -2.2361 -0.5557  0.1658
 8484SOL     OW37084   1.126   1.091   5.242 -0.5039 -0.4794  0.1965
 8484SOL    HW137085   1.198   1.125   5.295  0.5704 -0.4493 -1.2768
 8484SOL    HW237086   1.177   1.027   5.193 -2.3355 -1.1403 -0.8684
 8485SOL     OW37087   1.015   2.822   7.652 -0.6296 -0.3416  0.3723
 8485SOL    HW137088   0.969   2.896   7.613 -1.9325 -1.7575 -0.7376
 8485SOL    HW237089   1.042   2.768   7.578 -0.3472 -0.2404  0.3980
 8486SOL     OW37090   3.833   1.915   1.688 -0.5245  0.1745 -0.1373
 8486SOL    HW137091   3.860   1.950   1.773 -0.2181  1.0637 -0.6007
 8486SOL    HW237092   3.921   1.918   1.651 -0.2299  1.7631  0.6598
 8487SOL     OW37093   3.170   3.249   1.819 -0.3747  0.0689  0.3499
 8487SOL    HW137094   3.253   3.296   1.816 -0.6976  0.6263  0.2793
 8487SOL    HW237095   3.147   3.259   1.911  2.0193  0.1467  0.9203
 8488SOL     OW37096   1.303   2.274   6.993  0.4803  0.5084 -0.3062
 8488SOL    HW137097   1.346   2.297   6.911 -1.7411  2.5275 -0.9330
 8488SOL    HW237098   1.276   2.364   7.013  0.4950  0.2510  0.8718
 8489SOL     OW37099   1.790   0.635   3.842  0.0193  0.0813  0.4286
 8489SOL    HW137100   1.829   0.690   3.774 -0.3381 -1.9361 -1.3985
 8489SOL    HW237101   1.758   0.557   3.797  0.3659 -1.3090  2.5939
 8490SOL     OW37102   3.459   4.506   5.788 -0.1899  0.1567 -0.0543
 8490SOL    HW137103   3.469   4.518   5.882  0.6420  0.7553 -0.2219
 8490SOL    HW237104   3.545   4.525   5.750  0.1094 -1.2211 -0.0966
 8491SOL     OW37105   3.284   1.798   7.677  0.3948 -0.4327  0.6071
 8491SOL    HW137106   3.376   1.810   7.701  1.0142 -2.0308 -0.9973
 8491SOL    HW237107   3.259   1.886   7.704  0.8788 -0.6473  1.7612
 8492SOL     OW37108   0.608   0.218   3.073 -0.2623 -0.1553 -0.0054
 8492SOL    HW137109   0.572   0.186   3.156  2.1205 -0.0993  1.0450
 8492SOL    HW237110   0.564   0.154   3.017 -0.2641  0.7974 -1.0844
 8493SOL     OW37111   1.854   3.433   2.710 -0.8724 -0.1175 -0.0248
 8493SOL    HW137112   1.931   3.395   2.668  0.3659  0.8317  1.4356
 8493SOL    HW237113   1.884   3.507   2.763 -0.2793 -0.9805  0.8417
 8494SOL     OW37114   2.289   2.599   5.629 -0.3136 -0.2984 -0.1403
 8494SOL    HW137115   2.286   2.600   5.724 -2.3922  0.2221 -0.2219
 8494SOL    HW237116   2.250   2.513   5.612  0.9774 -0.4375 -2.5293
 8495SOL     OW37117   0.452   2.305   1.178  0.0979  0.0447 -0.3244
 8495SOL    HW137118   0.431   2.344   1.094  2.8926 -0.7661 -1.3910
 8495SOL    HW237119   0.547   2.295   1.173  0.1020 -0.2231  0.2589
 8496SOL     OW37120   4.225   2.457   5.508 -0.2663  0.5421  0.1757
 8496SOL    HW137121   4.287   2.478   5.438  0.0555 -0.0934  0.2762
 8496SOL    HW237122   4.264   2.377   5.543 -0.8338  0.1736 -0.0303
 8497SOL     OW37123   4.634   0.240   4.198  0.0763  0.1976 -0.1065
 8497SOL    HW137124   4.631   0.144   4.202  0.0121  0.2155  0.2562
 8497SOL    HW237125   4.574   0.258   4.270 -0.8173 -0.3220 -0.7191
 8498SOL     OW37126   2.174   3.729   4.321 -0.3736 -0.0170  0.0207
 8498SOL    HW137127   2.148   3.759   4.408 -0.0351  0.1431  0.0683
 8498SOL    HW237128   2.112   3.657   4.307 -0.7495 -0.0671  1.8769
 8499SOL     OW37129   0.728   4.435   9.525 -0.2177  0.2412 -0.4756
 8499SOL    HW137130   0.818   4.455   9.551 -0.3400 -0.4784  0.5211
 8499SOL    HW237131   0.685   4.504   9.576  0.1893  1.2962 -1.5780
 8500SOL     OW37132   3.549   1.789   9.322  0.1861 -0.2685  0.6148
 8500SOL    HW137133   3.632   1.743   9.312  0.8253  0.9909  0.1015
 8500SOL    HW237134   3.494   1.730   9.271 -0.0043  0.3229  0.1335
 8501SOL     OW37135   3.091   0.723   3.486  0.1101 -0.4899 -0.3295
 8501SOL    HW137136   3.026   0.731   3.417  0.2638  0.7360 -0.3331
 8501SOL    HW237137   3.165   0.778   3.458 -0.2172 -1.0453 -2.2767
 8502SOL     OW37138   2.485   0.530   8.177  0.0806  0.3941  0.8337
 8502SOL    HW137139   2.495   0.586   8.254 -3.0953  0.5490  1.1359
 8502SOL    HW237140   2.513   0.586   8.104 -1.7863  0.4375  0.1364
 8503SOL     OW37141   1.752   4.299  16.310  0.3345  0.0954  0.2685
 8503SOL    HW137142   1.837   4.296  16.265  0.6652  0.5066  0.8709
 8503SOL    HW237143   1.774   4.376  16.363 -0.4566  0.1475  0.5139
 8504SOL     OW37144   0.007   0.871   5.661  0.5449  0.0127  0.1350
 8504SOL    HW137145   0.068   0.813   5.616  1.2968 -0.0519  1.2313
 8504SOL    HW237146   4.669   0.814   5.663  1.8514 -1.7296 -0.5798
 8505SOL     OW37147   2.265   1.956   2.719  0.6145 -0.3581  0.3476
 8505SOL    HW137148   2.351   1.943   2.759  1.9927  2.9723 -1.5307
 8505SOL    HW237149   2.226   2.029   2.768 -1.7024 -0.9029 -0.6753
 8506SOL     OW37150   1.994   0.365   6.542  0.5056 -0.3763 -0.1229
 8506SOL    HW137151   2.079   0.322   6.555  1.1095  0.8199 -0.1477
 8506SOL    HW237152   2.004   0.386   6.449  0.0419  1.4700  0.2447
 8507SOL     OW37153   1.461   3.048   5.113  0.4500  0.5020 -0.8292
 8507SOL    HW137154   1.463   2.959   5.078  0.2830  0.1788 -0.0192
 8507SOL    HW237155   1.367   3.068   5.114  1.1350  3.7741 -1.9132
 8508SOL     OW37156   1.166   0.165   5.316 -0.5632 -0.2165 -0.1506
 8508SOL    HW137157   1.258   0.163   5.287 -0.6635 -2.9091 -0.2756
 8508SOL    HW237158   1.151   0.071   5.309  0.2599 -0.4600  1.2942
 8509SOL     OW37159   3.169   2.084   6.784  0.1108 -0.6581 -0.6783
 8509SOL    HW137160   3.229   2.043   6.846 -0.2344  0.4133  0.3518
 8509SOL    HW237161   3.208   2.171   6.791  1.6126 -1.4148  0.4776
 8510SOL     OW37162   4.718   0.465   3.852  0.0091  0.6571 -0.3657
 8510SOL    HW137163   0.046   0.423   3.908 -1.0833 -0.3008  0.2072
 8510SOL    HW237164   4.728   0.558   3.871 -0.6326  0.8786 -1.1201
 8511SOL     OW37165   0.521   2.297   3.294 -0.5333  0.0144  0.0184
 8511SOL    HW137166   0.434   2.295   3.332 -0.6641  0.1999 -0.2699
 8511SOL    HW237167   0.498   2.291   3.201  0.2513 -2.3294 -0.0102
 8512SOL     OW37168   2.636   1.175   5.631 -0.1217  0.2646 -0.3002
 8512SOL    HW137169   2.645   1.256   5.681  2.4454 -0.9828  1.2767
 8512SOL    HW237170   2.710   1.121   5.660 -1.2894 -1.5601 -0.6989
 8513SOL     OW37171   2.065   3.605   7.112  0.6744 -0.3316 -0.0179
 8513SOL    HW137172   1.970   3.594   7.115  1.0421 -3.4658 -0.2184
 8513SOL    HW237173   2.073   3.591   7.018 -2.5561  0.6081 -0.4200
 8514SOL     OW37174   1.720   4.085   9.779 -0.4434 -0.5536  0.3093
 8514SOL    HW137175   1.777   4.008   9.771  1.3901  0.7755  0.6462
 8514SOL    HW237176   1.637   4.037   9.775 -0.7863 -0.2371  3.4729
 8515SOL     OW37177   4.405   3.163   9.749  0.2129 -0.2719 -0.1339
 8515SOL    HW137178   4.332   3.118   9.792  0.4968 -0.7259 -0.1359
 8515SOL    HW237179   4.476   3.114   9.791  1.4727  1.5180 -0.1565
 8516SOL     OW37180   0.922   0.666   6.333 -0.2391 -0.0604  0.5323
 8516SOL    HW137181   0.910   0.656   6.427 -2.0669  0.6072  0.3555
 8516SOL    HW237182   1.008   0.708   6.328 -0.4779  0.3483 -0.0536
 8517SOL     OW37183   1.452   1.152   4.470  0.9975 -0.6502  0.7804
 8517SOL    HW137184   1.433   1.174   4.561 -0.5069  0.6928  0.1468
 8517SOL    HW237185   1.419   1.062   4.476  0.7136 -0.5723  0.3862
 8518SOL     OW37186   1.615   4.481   5.360 -0.1680 -0.0460 -0.0761
 8518SOL    HW137187   1.638   4.541   5.289  0.8534  0.7970  0.9683
 8518SOL    HW237188   1.549   4.424   5.321  0.8085 -0.2380 -1.4591
 8519SOL     OW37189   1.397   0.299   8.400  1.2640 -0.4509  0.0208
 8519SOL    HW137190   1.470   0.299   8.462  0.6531 -0.2137  0.7524
 8519SOL    HW237191   1.373   0.391   8.411  1.7751  0.1205 -3.7641
 8520SOL     OW37192   0.290   3.825  17.265  0.3665  0.6173 -0.1002
 8520SOL    HW137193   0.243   3.745  17.290  0.2964  0.2257 -1.4541
 8520SOL    HW237194   0.372   3.793  17.228  0.8007 -1.4158  2.5823
 8521SOL     OW37195   3.259   1.405   4.550 -0.5360 -0.2423 -0.4857
 8521SOL    HW137196   3.169   1.424   4.575 -0.6468  0.5024 -1.4274
 8521SOL    HW237197   3.265   1.437   4.460 -1.3519  1.3830  0.0419
 8522SOL     OW37198   4.348   3.190   5.292 -0.8741  0.2656 -0.0149
 8522SOL    HW137199   4.346   3.132   5.216 -1.9680  1.5833 -0.9988
 8522SOL    HW237200   4.286   3.146   5.350 -0.4568  0.8928  0.9178
 8523SOL     OW37201   3.972   3.926   5.763 -0.5214  0.1361  0.3869
 8523SOL    HW137202   4.033   3.999   5.774 -0.1671 -0.1687  0.4166
 8523SOL    HW237203   3.988   3.896   5.674 -2.4215  4.5028 -1.4414
 8524SOL     OW37204   2.011   3.248   7.724 -0.0789  0.7070 -0.1121
 8524SOL    HW137205   2.073   3.189   7.766  0.5425  2.9701  2.2263
 8524SOL    HW237206   1.990   3.195   7.648 -2.3486  0.7615  0.4652
 8525SOL     OW37207   4.010   3.527   0.332 -0.2217  0.1983 -0.5500
 8525SOL    HW137208   3.967   3.471   0.268  1.5444  1.0426 -2.4770
 8525SOL    HW237209   4.005   3.614   0.291 -1.8303  0.1284 -0.4925
 8526SOL     OW37210   4.166   0.130   4.312 -0.1452 -0.0765 -0.3665
 8526SOL    HW137211   4.155   0.140   4.406  0.7973  0.7052 -0.3312
 8526SOL    HW237212   4.114   0.053   4.291 -0.1335 -0.4832  1.1446
 8527SOL     OW37213   2.194   1.994  17.506  0.0452 -0.3868  0.0672
 8527SOL    HW137214   2.227   1.916  17.462 -1.5116  0.0070 -1.8208
 8527SOL    HW237215   2.159   1.958  17.587 -0.8337 -1.1967 -0.6687
 8528SOL     OW37216   4.589   2.024   4.409  0.3172 -0.4859  0.7467
 8528SOL    HW137217   4.568   1.963   4.480 -0.1407  0.3480  1.3247
 8528SOL    HW237218   4.682   2.037   4.423  0.5044 -1.6762  0.6212
 8529SOL     OW37219   1.376   2.922   9.502  0.0005  0.7695 -0.0778
 8529SOL    HW137220   1.327   2.842   9.485 -1.6268  1.4044  1.5777
 8529SOL    HW237221   1.381   2.919   9.598  1.1283 -0.1806 -0.1684
 8530SOL     OW37222   1.921   0.183   7.877 -0.0034  0.1867 -0.0406
 8530SOL    HW137223   1.934   0.105   7.931  0.0415  0.5248  0.4311
 8530SOL    HW237224   1.893   0.241   7.947 -0.9732 -0.0380 -0.2354
 8531SOL     OW37225   4.488   0.650   2.875 -0.1692 -0.2012  0.6671
 8531SOL    HW137226   4.446   0.689   2.799 -0.7814  0.7451  1.4976
 8531SOL    HW237227   4.474   0.556   2.862  3.2606 -0.3444 -2.1037
 8532SOL     OW37228   4.511   1.729   0.882  0.0042 -0.0088 -0.6260
 8532SOL    HW137229   4.494   1.690   0.797  2.8322 -0.7062 -0.8723
 8532SOL    HW237230   4.437   1.715   0.941  2.5179 -0.2010  2.4900
 8533SOL     OW37231   3.687   0.011   9.961 -0.5934  0.2136  0.3092
 8533SOL    HW137232   3.756   4.683   9.976 -0.3672  0.2794 -0.4504
 8533SOL    HW237233   3.620   4.709  10.017  0.0107 -0.1486  0.7874
 8534SOL     OW37234   4.697   2.757   0.794  0.6053 -0.5024 -0.1456
 8534SOL    HW137235   4.608   2.792   0.784  1.1568  0.9261 -0.0865
 8534SOL    HW237236   0.002   2.768   0.709  0.4130  0.4612 -0.1270
 8535SOL     OW37237   0.473   2.193   9.066 -0.0077  0.7539 -0.0727
 8535SOL    HW137238   0.445   2.135   8.994 -1.2742 -0.4460  1.3773
 8535SOL    HW237239   0.398   2.166   9.120 -0.4439 -1.1985 -1.6349
 8536SOL     OW37240   4.539   3.272   8.451  0.3840 -0.4964  0.6124
 8536SOL    HW137241   4.520   3.202   8.513  0.0003 -1.6467 -0.8117
 8536SOL    HW237242   4.477   3.252   8.381  0.1719 -0.2208  0.7207
 8537SOL     OW37243   4.677   4.220   9.286 -0.5498 -0.0997 -0.6019
 8537SOL    HW137244   4.662   4.301   9.334 -0.3510 -0.9749  0.9569
 8537SOL    HW237245   4.588   4.203   9.255  0.0694 -0.4726 -2.1693
 8538SOL     OW37246   1.258   2.699   3.633  0.2494  0.0620 -0.2928
 8538SOL    HW137247   1.320   2.770   3.614 -1.9839  2.2038  0.3370
 8538SOL    HW237248   1.182   2.735   3.587  0.3021  3.0796  1.9772
 8539SOL     OW37249   2.766   2.871  10.428 -0.0916 -0.3949 -0.9746
 8539SOL    HW137250   2.795   2.786  10.462 -0.8165 -0.3269 -0.1910
 8539SOL    HW237251   2.677   2.857  10.397 -0.4089 -0.5109 -0.0033
 8540SOL     OW37252   0.891   0.417   2.534 -0.1806  0.5697 -0.1973
 8540SOL    HW137253   0.967   0.458   2.575 -1.1019  0.0800  1.9946
 8540SOL    HW237254   0.834   0.492   2.520 -0.0034  0.6598 -0.4320
 8541SOL     OW37255   4.402   1.843  17.151  0.3546 -0.3428  0.3767
 8541SOL    HW137256   4.473   1.823  17.213 -0.5248 -0.0373  1.4870
 8541SOL    HW237257   4.373   1.928  17.183  0.5973  0.0753 -0.5254
 8542SOL     OW37258   0.971   4.432   8.962 -0.8146  0.6295  0.3312
 8542SOL    HW137259   0.917   4.499   9.004 -1.3573  0.7839 -0.5869
 8542SOL    HW237260   1.029   4.491   8.913 -1.8519 -0.3007 -2.0088
 8543SOL     OW37261   0.824   3.361   3.684 -0.3342  0.4347 -0.5390
 8543SOL    HW137262   0.729   3.349   3.690 -0.3997  0.1745 -2.0242
 8543SOL    HW237263   0.842   3.416   3.760 -0.2173  0.4618 -0.5864
 8544SOL     OW37264   1.009   1.666   2.566  0.4922  0.1682  0.1850
 8544SOL    HW137265   1.047   1.725   2.501  2.8381  0.4714  1.8081
 8544SOL    HW237266   1.076   1.660   2.635  0.9969  0.6283 -0.2651
 8545SOL     OW37267   0.855   4.645   8.087  0.4526 -0.2307  0.3480
 8545SOL    HW137268   0.768   4.658   8.126  0.0120 -2.2149  0.0165
 8545SOL    HW237269   0.905   4.684   8.158 -1.1782  3.0899 -0.2998
 8546SOL     OW37270   4.498   4.014   7.788  0.0439 -0.0749  0.3998
 8546SOL    HW137271   4.469   4.103   7.803 -1.0853 -0.3717 -0.0418
 8546SOL    HW237272   4.415   3.973   7.809 -1.4889  3.2717  0.8104
 8547SOL     OW37273   1.905   2.566   8.815  0.6245  0.6100 -0.0461
 8547SOL    HW137274   1.909   2.593   8.906 -1.2646  2.8469 -0.6115
 8547SOL    HW237275   1.992   2.596   8.788  1.2094 -0.8510  0.1907
 8548SOL     OW37276   4.111   4.722   3.570 -0.2873 -0.3201  0.2193
 8548SOL    HW137277   4.069   0.070   3.577  0.9262  0.2611  0.2235
 8548SOL    HW237278   4.154   4.733   3.486  0.5937 -1.2022  0.5449
 8549SOL     OW37279   3.120   1.213   7.234 -0.0239  0.5700  0.0141
 8549SOL    HW137280   3.071   1.141   7.195 -0.0255  1.2817 -1.2921
 8549SOL    HW237281   3.189   1.168   7.283 -0.9225 -2.1203 -1.2071
 8550SOL     OW37282   2.911   0.737  11.992  0.2785  0.2331 -0.2847
 8550SOL    HW137283   2.873   0.821  11.966 -2.2334 -0.6556  0.4791
 8550SOL    HW237284   2.963   0.710  11.916 -0.2987  0.2272 -0.6802
 8551SOL     OW37285   4.287   1.781   8.871  0.4890  0.5195 -0.0329
 8551SOL    HW137286   4.330   1.845   8.814  1.5913 -1.6071 -1.5957
 8551SOL    HW237287   4.202   1.778   8.826 -0.0267 -0.3292  0.9964
 8552SOL     OW37288   1.588   0.988   5.519 -0.1920  0.3366 -0.0747
 8552SOL    HW137289   1.549   0.975   5.605  0.6124 -0.1025  0.2238
 8552SOL    HW237290   1.518   0.960   5.461  0.2126  1.2677 -1.0262
 8553SOL     OW37291   0.673   4.001   7.497 -0.0059 -0.9768  0.3657
 8553SOL    HW137292   0.717   3.923   7.532  0.3472 -0.8485  0.1972
 8553SOL    HW237293   0.742   4.062   7.522  0.4455 -0.5706 -1.8691
 8554SOL     OW37294   1.503   0.308   4.763 -0.0801  0.0040  0.0727
 8554SOL    HW137295   1.580   0.321   4.708 -0.0888 -2.6650 -0.5763
 8554SOL    HW237296   1.472   0.397   4.782  2.2647  0.6846  0.7391
 8555SOL     OW37297   3.177   2.232   4.308  0.4795 -0.0607 -0.0639
 8555SOL    HW137298   3.178   2.136   4.312 -1.7353 -0.0986 -0.4721
 8555SOL    HW237299   3.145   2.243   4.218 -0.1394  0.7250  0.2499
 8556SOL     OW37300   1.014   3.295  17.437 -0.5587  0.2332  0.4751
 8556SOL    HW137301   1.095   3.246  17.428 -1.5757 -1.4226  0.2570
 8556SOL    HW237302   1.048   3.365  17.493  1.9040  0.6094 -1.4936
 8557SOL     OW37303   2.044   3.461  10.414  0.2763  0.2688  0.1192
 8557SOL    HW137304   1.982   3.525  10.379  0.8778  1.2644  0.8594
 8557SOL    HW237305   2.081   3.506  10.490  0.6249  1.2157 -0.6008
 8558SOL     OW37306   3.266   1.474   8.167 -0.6171  0.0021  0.3532
 8558SOL    HW137307   3.265   1.570   8.173  0.9119  0.0958 -0.9295
 8558SOL    HW237308   3.294   1.449   8.255  2.3250  3.5416  0.4439
 8559SOL     OW37309   3.540   3.861  16.687  0.6516  0.2819  0.1807
 8559SOL    HW137310   3.587   3.779  16.671  1.6364  0.8705  0.0805
 8559SOL    HW237311   3.459   3.851  16.637  0.5197  1.0632  0.2305
 8560SOL     OW37312   1.375   3.246   7.475 -0.3026  0.2062 -0.0934
 8560SOL    HW137313   1.351   3.323   7.423 -0.5557  0.3267  0.2043
 8560SOL    HW237314   1.290   3.230   7.516  0.4415 -2.0879  0.5779
 8561SOL     OW37315   1.434   3.651   3.363 -0.7913  0.0502  0.5257
 8561SOL    HW137316   1.522   3.633   3.394 -0.6835 -0.1501  0.1046
 8561SOL    HW237317   1.388   3.621   3.441 -0.9834 -0.4910  0.2059
 8562SOL     OW37318   1.450   1.796   9.320  0.1448  0.1458  0.4457
 8562SOL    HW137319   1.540   1.765   9.332 -0.3655 -1.1887  0.9021
 8562SOL    HW237320   1.400   1.735   9.375  0.8833 -3.1056 -2.4536
 8563SOL     OW37321   2.821   3.168   5.743  0.9701 -0.3241  0.0834
 8563SOL    HW137322   2.889   3.142   5.681  1.7995  0.1019  0.8030
 8563SOL    HW237323   2.747   3.128   5.700  0.1975 -1.0257  2.0412
 8564SOL     OW37324   0.157   1.382   3.830 -0.0376 -0.1356 -0.2521
 8564SOL    HW137325   0.090   1.428   3.779  0.9346 -0.1466 -1.5184
 8564SOL    HW237326   0.232   1.439   3.813  0.5607 -1.3132 -1.5115
 8565SOL     OW37327   1.696   0.409   8.263 -0.6326 -0.1125 -0.0657
 8565SOL    HW137328   1.781   0.450   8.277 -0.9778  0.4494  0.3751
 8565SOL    HW237329   1.669   0.386   8.352  1.1505 -0.4398  0.3991
 8566SOL     OW37330   3.018   1.670  17.207  0.4870 -0.0932 -0.4261
 8566SOL    HW137331   3.048   1.674  17.116 -0.6510 -2.2439 -0.8863
 8566SOL    HW237332   2.968   1.751  17.207 -0.8509 -0.9209 -0.8001
 8567SOL     OW37333   3.280   2.666   2.329  0.2484  0.4798  0.0952
 8567SOL    HW137334   3.200   2.623   2.297  2.2132 -2.5663 -0.6984
 8567SOL    HW237335   3.271   2.759   2.311 -1.9360  0.2278 -0.1121
 8568SOL     OW37336   4.271   1.987   9.592 -0.6011  0.5282  0.1748
 8568SOL    HW137337   4.314   1.974   9.508 -2.7499  1.4692 -1.0735
 8568SOL    HW237338   4.340   1.969   9.656  1.3739 -0.3487 -2.1943
 8569SOL     OW37339   3.499   0.877   9.439 -0.2196 -0.3132 -0.0863
 8569SOL    HW137340   3.514   0.879   9.534 -0.2326 -0.4515 -0.0813
 8569SOL    HW237341   3.452   0.795   9.424 -1.5468  0.2223  1.2156
 8570SOL     OW37342   2.849   1.253   5.252  0.2401 -0.2252 -0.2421
 8570SOL    HW137343   2.849   1.165   5.289  0.3138  0.1957  0.7549
 8570SOL    HW237344   2.880   1.302   5.328 -3.0718 -0.9886  1.6234
 8571SOL     OW37345   3.358   0.865  10.320 -0.6945  0.1888  0.2293
 8571SOL    HW137346   3.405   0.795  10.366 -0.4601 -0.6285 -1.2493
 8571SOL    HW237347   3.331   0.821  10.239  0.2319  0.8416 -0.4388
 8572SOL     OW37348   3.265   3.583  17.040 -0.0740 -0.3256 -0.3647
 8572SOL    HW137349   3.260   3.676  17.021  1.1627 -0.4479 -1.3191
 8572SOL    HW237350   3.342   3.577  17.096 -1.0897  0.4144  1.1146
 8573SOL     OW37351   1.767   3.764   8.206 -0.0130  0.1261 -0.2124
 8573SOL    HW137352   1.805   3.677   8.212 -1.0807 -0.3440 -0.3105
 8573SOL    HW237353   1.721   3.764   8.122 -1.8463  2.1373  0.7819
 8574SOL     OW37354   1.547   2.196   3.322  0.0274 -0.1307  0.0921
 8574SOL    HW137355   1.591   2.274   3.286 -2.2263 -0.2908 -2.9474
 8574SOL    HW237356   1.460   2.204   3.284  0.5630  1.1537 -0.8860
 8575SOL     OW37357   4.130   4.363   7.589  0.2569  0.6495  0.1050
 8575SOL    HW137358   4.150   4.298   7.521 -1.2471  2.3165 -1.9101
 8575SOL    HW237359   4.098   4.301   7.655 -1.3822  1.6500  0.2201
 8576SOL     OW37360   0.854   2.221   0.666  0.4735  0.4233 -0.5803
 8576SOL    HW137361   0.861   2.130   0.636 -2.4139  0.5907 -1.7165
 8576SOL    HW237362   0.945   2.250   0.655  0.8653 -0.5440  0.1064
 8577SOL     OW37363   2.994   2.977   2.636  0.1711 -0.2459 -0.1409
 8577SOL    HW137364   3.025   3.020   2.557 -0.8343  0.4212 -0.1685
 8577SOL    HW237365   2.900   2.966   2.621  0.1038  1.1301 -0.7237
 8578SOL     OW37366   3.090   4.558   8.529 -0.4746 -0.4807 -0.8387
 8578SOL    HW137367   3.035   4.636   8.541 -0.9880 -1.0215  0.2517
 8578SOL    HW237368   3.119   4.574   8.438 -3.5833 -0.1397 -1.7615
 8579SOL     OW37369   3.125   2.694  17.435  0.1382 -0.5005  0.6041
 8579SOL    HW137370   3.123   2.751  17.358  0.1718 -0.4743  0.6225
 8579SOL    HW237371   3.033   2.669  17.436  0.4681 -1.5343  5.2318
 8580SOL     OW37372   2.199   3.600  16.048 -0.0239 -0.4266  0.0770
 8580SOL    HW137373   2.272   3.612  16.109  1.0508 -0.2630 -1.2578
 8580SOL    HW237374   2.147   3.531  16.089 -1.6317 -0.1114 -1.4368
 8581SOL     OW37375   0.085   2.792   4.569  0.1838 -0.0457 -0.6208
 8581SOL    HW137376   0.078   2.885   4.590  0.4775 -0.5104  1.4696
 8581SOL    HW237377   0.010   2.749   4.610 -0.2926  0.4850 -0.9428
 8582SOL     OW37378   1.061   0.965  15.431  0.1113  0.0146 -0.3911
 8582SOL    HW137379   0.980   1.015  15.420  0.1054 -0.7086 -3.5672
 8582SOL    HW237380   1.098   0.994  15.347 -0.2091 -0.4276 -0.6826
 8583SOL     OW37381   4.273   3.058   8.526  0.2294  0.7219 -0.4959
 8583SOL    HW137382   4.186   3.058   8.568  0.5590 -0.1345  0.1901
 8583SOL    HW237383   4.272   3.136   8.471 -0.7010  0.2511 -1.1573
 8584SOL     OW37384   0.700   1.462  11.380 -0.2751 -0.1575 -0.5827
 8584SOL    HW137385   0.653   1.379  11.377  1.0431 -0.9078 -0.3743
 8584SOL    HW237386   0.626   1.523  11.375 -0.4556 -0.4227 -1.0284
 8585SOL     OW37387   0.244   4.292   8.123  0.4111 -0.1441  0.4315
 8585SOL    HW137388   0.197   4.221   8.079  1.4721 -1.3280  1.2463
 8585SOL    HW237389   0.256   4.356   8.053 -0.5923 -1.1809 -0.6818
 8586SOL     OW37390   1.129   1.488   5.888  0.5742 -0.1420  0.4201
 8586SOL    HW137391   1.211   1.476   5.841  1.0402  0.5427  1.0790
 8586SOL    HW237392   1.136   1.432   5.966  1.5914 -0.6437 -0.0308
 8587SOL     OW37393   0.051   1.973   2.746  0.0857  0.2142 -0.2594
 8587SOL    HW137394   0.057   1.910   2.818 -2.7213 -1.5766 -1.6174
 8587SOL    HW237395   4.710   1.945   2.700  1.8223 -2.0206 -1.8404
 8588SOL     OW37396   0.083   1.681   6.716  0.7104 -0.6006  0.0186
 8588SOL    HW137397   0.003   1.723   6.686  0.9725  1.1228  1.7788
 8588SOL    HW237398   0.102   1.630   6.637 -0.4053 -1.0495  0.0438
 8589SOL     OW37399   2.150   3.240   3.966  0.1681  0.1836 -0.1468
 8589SOL    HW137400   2.080   3.183   3.997  0.4991  1.0476  2.2176
 8589SOL    HW237401   2.137   3.243   3.871  0.6133 -0.0436 -0.2174
 8590SOL     OW37402   0.686   0.198   5.405  0.2147 -0.4889  0.3176
 8590SOL    HW137403   0.663   0.277   5.454 -0.0300 -0.3499 -0.0266
 8590SOL    HW237404   0.600   0.155   5.403  0.7545 -1.5622  0.4087
 8591SOL     OW37405   4.460   1.171   6.539 -0.0322 -0.0840  0.2786
 8591SOL    HW137406   4.420   1.187   6.625  0.3851 -0.4798  0.5427
 8591SOL    HW237407   4.547   1.209   6.546 -0.4652  1.3665 -1.9213
 8592SOL     OW37408   1.067   0.297   7.828 -0.1349  0.2010 -0.2360
 8592SOL    HW137409   1.100   0.222   7.877 -0.9709  0.5800  0.8919
 8592SOL    HW237410   0.983   0.273   7.790  0.4975 -0.8874 -0.9714
 8593SOL     OW37411   2.946   4.522   0.222 -0.4849 -0.0971 -0.4429
 8593SOL    HW137412   3.009   4.458   0.188  1.2103  0.1038  2.2476
 8593SOL    HW237413   2.871   4.465   0.207 -0.8759 -0.0321  1.2734
 8594SOL     OW37414   3.411   0.970  11.158  0.3850 -0.5622  0.6929
 8594SOL    HW137415   3.371   1.056  11.168  0.4623 -0.4520  0.0925
 8594SOL    HW237416   3.457   0.969  11.242  0.9623  0.8529  0.3962
 8595SOL     OW37417   4.190   0.054  15.773  0.4998 -0.5495 -0.5159
 8595SOL    HW137418   4.208   0.143  15.743  0.6278 -0.3298  0.2150
 8595SOL    HW237419   4.265   0.057  15.833 -0.3197 -0.9093  0.5359
 8596SOL     OW37420   4.347   3.646  13.522 -0.0789  0.3710  0.1872
 8596SOL    HW137421   4.365   3.552  13.522  2.6711  0.8773 -0.7077
 8596SOL    HW237422   4.432   3.683  13.497 -1.0001  0.7301 -2.3197
 8597SOL     OW37423   2.320   3.477  12.940 -0.2206  0.5752 -0.4105
 8597SOL    HW137424   2.229   3.482  12.909 -0.4965  2.0784  0.6395
 8597SOL    HW237425   2.316   3.531  13.019  1.7021  2.9281 -1.9101
 8598SOL     OW37426   4.502   4.508   8.998  0.4606 -0.0828 -0.3228
 8598SOL    HW137427   4.565   4.572   8.963 -0.4378  1.1998  0.4215
 8598SOL    HW237428   4.502   4.438   8.932 -0.7097 -0.4518  0.0811
 8599SOL     OW37429   0.235   1.463   7.384 -0.1424 -0.9134  0.1439
 8599SOL    HW137430   0.208   1.508   7.304  0.7317 -0.9621 -0.1789
 8599SOL    HW237431   0.299   1.522   7.424 -1.5384  1.0054 -0.4647
 8600SOL     OW37432   1.834   2.042   8.553 -0.1460  0.2241 -0.0755
 8600SOL    HW137433   1.804   2.125   8.515 -1.8888 -0.0653  0.6766
 8600SOL    HW237434   1.786   2.041   8.636 -0.7060 -4.5658 -0.5050
 8601SOL     OW37435   1.936   0.115   4.279  0.3476  0.0817  0.3982
 8601SOL    HW137436   1.946   0.074   4.193  3.6724 -0.0866  0.8742
 8601SOL    HW237437   1.871   0.180   4.253  0.0233 -0.7260 -0.8378
 8602SOL     OW37438   1.146   3.928   4.780  0.4489  0.3384  0.0008
 8602SOL    HW137439   1.149   3.841   4.740 -0.7926  0.5571 -0.5892
 8602SOL    HW237440   1.136   3.984   4.703 -0.3884 -0.4163 -0.4542
 8603SOL     OW37441   2.870   3.921  12.097  0.2727  0.0790 -0.3746
 8603SOL    HW137442   2.932   3.947  12.165  1.2349 -0.4442 -1.0477
 8603SOL    HW237443   2.848   3.832  12.125  0.8846 -1.0734 -3.4924
 8604SOL     OW37444   3.063   0.876   3.787 -0.3365 -0.2426 -0.0800
 8604SOL    HW137445   3.111   0.949   3.747  0.8518 -0.5890  0.7250
 8604SOL    HW237446   3.093   0.809   3.725  1.3371  2.1480 -1.8136
 8605SOL     OW37447   2.071   0.645   1.371 -0.1540  0.2380 -0.2826
 8605SOL    HW137448   2.005   0.713   1.357 -0.0362  0.5674  0.7826
 8605SOL    HW237449   2.021   0.566   1.351  0.6533  0.3109 -2.6253
 8606SOL     OW37450   3.015   0.372   8.753 -0.1871  0.3922  0.1376
 8606SOL    HW137451   3.023   0.459   8.791 -1.9261  0.4060  0.4389
 8606SOL    HW237452   3.063   0.387   8.672 -1.6210  1.4009 -0.5128
 8607SOL     OW37453   1.992   4.473  16.299  0.2559  0.4691 -0.1882
 8607SOL    HW137454   2.071   4.525  16.315  0.3078 -0.0001  1.0090
 8607SOL    HW237455   1.957   4.524  16.226 -0.9858  1.0271  0.7963
 8608SOL     OW37456   2.668   4.709   2.498  0.4677 -0.0192  0.2395
 8608SOL    HW137457   2.657   0.026   2.576  0.8906  0.6641 -0.1811
 8608SOL    HW237458   2.579   4.681   2.477  1.7049 -2.3856 -1.8034
 8609SOL     OW37459   4.204   1.126  15.197 -0.2156 -0.0967 -0.2943
 8609SOL    HW137460   4.196   1.155  15.106 -0.3661 -2.1662 -0.9369
 8609SOL    HW237461   4.166   1.198  15.249  0.0951 -0.0755 -0.0968
 8610SOL     OW37462   0.793   3.869   3.489  0.0127  0.6397 -0.0194
 8610SOL    HW137463   0.861   3.910   3.436  3.2093 -1.6159  2.3099
 8610SOL    HW237464   0.852   3.849   3.562 -1.2020 -0.8145  0.5519
 8611SOL     OW37465   0.467   1.252   3.374 -0.0381 -0.4280 -0.2960
 8611SOL    HW137466   0.555   1.237   3.337 -1.1633 -1.4434 -2.5536
 8611SOL    HW237467   0.473   1.321   3.440 -0.1448 -0.4556 -0.2586
 8612SOL     OW37468   2.436   1.576   4.132  0.4188 -0.4074  0.6665
 8612SOL    HW137469   2.460   1.656   4.086 -2.3823 -0.0457 -0.1378
 8612SOL    HW237470   2.447   1.526   4.051 -0.9078 -2.3724  1.6874
 8613SOL     OW37471   2.533   4.379   1.176  0.6438  0.0941 -0.0758
 8613SOL    HW137472   2.619   4.338   1.180  0.7520  0.2424 -0.8784
 8613SOL    HW237473   2.505   4.359   1.265 -1.0573 -1.3410 -0.9392
 8614SOL     OW37474   4.635   0.739   8.338 -0.0244 -0.0580 -0.3661
 8614SOL    HW137475   4.546   0.724   8.307  0.0057 -0.1550 -0.4046
 8614SOL    HW237476   4.641   0.665   8.399  0.1772  0.2468 -0.0185
 8615SOL     OW37477   4.264   1.208   6.064  0.3142  0.2365 -0.1367
 8615SOL    HW137478   4.275   1.168   6.150 -0.9259  1.2525  0.4910
 8615SOL    HW237479   4.176   1.246   6.058 -0.4283 -1.0703  2.6742
 8616SOL     OW37480   0.201   3.787   6.572  0.1501  0.6535  0.1775
 8616SOL    HW137481   0.201   3.692   6.571 -0.6299  0.6883 -2.2766
 8616SOL    HW237482   0.245   3.799   6.657 -1.2492  1.2614  0.8214
 8617SOL     OW37483   3.750   2.320  12.285 -0.7955  0.5224  0.6079
 8617SOL    HW137484   3.817   2.253  12.277 -1.2978  0.0792  0.0717
 8617SOL    HW237485   3.696   2.290  12.358 -0.3054 -1.3652  0.2050
 8618SOL     OW37486   1.442   0.405   3.214 -0.4165  0.3232 -0.0807
 8618SOL    HW137487   1.464   0.342   3.146 -1.7067 -0.3410  0.1275
 8618SOL    HW237488   1.347   0.396   3.211 -0.6485  2.2282  2.1066
 8619SOL     OW37489   1.835   0.312   5.797  0.1969  0.0350 -0.0507
 8619SOL    HW137490   1.767   0.373   5.826  0.4753  0.3906 -0.1465
 8619SOL    HW237491   1.807   0.312   5.706 -2.4804  1.4158  0.7705
 8620SOL     OW37492   0.519   2.563  16.724  0.2063  0.0950 -0.0954
 8620SOL    HW137493   0.576   2.487  16.728  0.0626  0.0744  1.2856
 8620SOL    HW237494   0.537   2.607  16.806 -0.6094 -1.8757  1.1344
 8621SOL     OW37495   3.688   2.285  11.934 -0.3112 -0.3614 -0.4863
 8621SOL    HW137496   3.784   2.287  11.932 -0.2801 -0.7041  0.8777
 8621SOL    HW237497   3.672   2.197  11.967 -0.6723 -0.3867 -0.7344
 8622SOL     OW37498   4.056   2.384   8.169 -0.1693 -0.0001 -0.1057
 8622SOL    HW137499   4.028   2.304   8.125  0.3634  0.3535 -1.0783
 8622SOL    HW237500   4.122   2.416   8.108  0.1013  0.2122  0.2955
 8623SOL     OW37501   0.689   1.492   5.925 -0.6251 -0.4306 -0.3027
 8623SOL    HW137502   0.697   1.486   6.020 -2.1125  1.5830 -0.0592
 8623SOL    HW237503   0.611   1.441   5.901 -0.1815 -1.1795 -0.1678
 8624SOL     OW37504   1.096   3.841   2.604 -0.4654 -0.2928 -0.1826
 8624SOL    HW137505   1.181   3.872   2.573 -0.9283  1.3829  0.2350
 8624SOL    HW237506   1.075   3.919   2.656  2.7594  0.2692  0.2861
 8625SOL     OW37507   4.226   3.909   9.664  0.0419 -0.0347  0.1144
 8625SOL    HW137508   4.310   3.875   9.632 -0.6482  0.6602 -2.4452
 8625SOL    HW237509   4.261   3.965   9.733  1.4667  0.8134 -1.2911
 8626SOL     OW37510   2.249   2.359   3.768 -0.1951  0.0932  0.0649
 8626SOL    HW137511   2.154   2.371   3.769  0.0989  2.1830  1.0323
 8626SOL    HW237512   2.285   2.441   3.799  0.6169  0.1391 -0.9979
 8627SOL     OW37513   1.525   1.224   4.982 -0.4176 -0.7290  0.4335
 8627SOL    HW137514   1.527   1.315   4.951  1.8256 -0.7430  0.5287
 8627SOL    HW237515   1.473   1.189   4.909  1.2894 -0.7485 -0.7902
 8628SOL     OW37516   4.384   4.284   5.660  0.2775 -0.0849 -0.3771
 8628SOL    HW137517   4.419   4.373   5.650 -0.6572 -0.0177 -2.9841
 8628SOL    HW237518   4.447   4.248   5.723  1.1015  0.5668 -0.8344
 8629SOL     OW37519   0.857   3.908   4.084 -0.4222  0.6022 -0.3060
 8629SOL    HW137520   0.826   3.994   4.113  1.2466  0.5146  1.6758
 8629SOL    HW237521   0.777   3.858   4.102  0.5021 -0.9139 -0.4478
 8630SOL     OW37522   2.101   4.686  17.544  0.5701 -0.2299 -0.1193
 8630SOL    HW137523   2.184   4.716  17.581  0.0670  1.9032 -0.7109
 8630SOL    HW237524   2.089   4.609  17.600 -0.0399  0.0979  0.1959
 8631SOL     OW37525   0.268   0.771   4.166  0.3184  0.0702  0.3931
 8631SOL    HW137526   0.175   0.788   4.153  0.3162  1.7326  2.6264
 8631SOL    HW237527   0.297   0.710   4.098  0.5033  1.1731 -0.5186
 8632SOL     OW37528   2.394   2.805   8.184  0.3067 -0.3065  0.1352
 8632SOL    HW137529   2.333   2.841   8.120 -0.3914  0.0312  1.0107
 8632SOL    HW237530   2.405   2.885   8.235 -0.4669 -0.3730  0.4081
 8633SOL     OW37531   4.368   3.379   6.370  0.4012 -0.2797  0.1631
 8633SOL    HW137532   4.408   3.457   6.332  0.3376 -1.1656 -1.6796
 8633SOL    HW237533   4.396   3.390   6.461 -0.1403  2.3209  0.0121
 8634SOL     OW37534   1.780   4.627   8.799  0.0318  0.3559  0.1593
 8634SOL    HW137535   1.707   4.603   8.856  0.8822 -1.4161  0.4854
 8634SOL    HW237536   1.849   4.648   8.862 -0.7177  2.5530  0.2651
 8635SOL     OW37537   2.305   0.125   2.749 -0.1543 -0.0337 -0.2029
 8635SOL    HW137538   2.309   0.200   2.808  1.4298  2.2417 -3.2929
 8635SOL    HW237539   2.365   0.065   2.794 -0.0466 -0.4190 -0.8554
 8636SOL     OW37540   2.296   3.520   1.898 -0.0875  0.4392  0.1271
 8636SOL    HW137541   2.317   3.614   1.896 -0.9946  0.6033 -1.8059
 8636SOL    HW237542   2.206   3.526   1.931 -0.1092  0.6743  0.0302
 8637SOL     OW37543   1.664   3.030   4.571  1.3232 -0.2309 -0.2695
 8637SOL    HW137544   1.598   2.982   4.521 -0.1943  1.4544  0.1064
 8637SOL    HW237545   1.666   2.979   4.652  1.1851 -0.0335 -0.1416
 8638SOL     OW37546   0.112   1.953   2.424 -0.2088 -0.1070  0.4643
 8638SOL    HW137547   0.101   1.971   2.517 -1.6707  5.0332 -0.7001
 8638SOL    HW237548   0.207   1.942   2.425 -0.0788  0.7314 -1.5047
 8639SOL     OW37549   0.244   2.645   8.160 -0.5969 -0.7467  0.3886
 8639SOL    HW137550   0.192   2.702   8.104  0.1206  0.7849  1.2435
 8639SOL    HW237551   0.310   2.705   8.196 -0.0484 -1.2022  0.1493
 8640SOL     OW37552   1.993   1.471   8.809 -0.4663 -0.0057 -0.3390
 8640SOL    HW137553   1.971   1.529   8.883  2.7949  1.4349 -0.5016
 8640SOL    HW237554   1.952   1.518   8.737 -2.2809 -0.6471  0.2670
 8641SOL     OW37555   0.910   4.338   3.559 -0.0411 -0.1764 -0.2290
 8641SOL    HW137556   0.937   4.253   3.526  0.9951 -1.0982  3.0239
 8641SOL    HW237557   0.995   4.375   3.584  1.1380 -3.5467  0.7241
 8642SOL     OW37558   3.811   1.174   6.003 -0.3241  0.0467 -0.0493
 8642SOL    HW137559   3.737   1.137   6.052 -0.4446  1.0087  0.4895
 8642SOL    HW237560   3.861   1.094   5.985 -1.0907 -0.2643 -0.7741
 8643SOL     OW37561   0.161   1.379  11.814  0.3284  0.3226  0.1802
 8643SOL    HW137562   0.256   1.380  11.827 -0.0706  0.8558  3.1930
 8643SOL    HW237563   0.155   1.286  11.834 -0.3894  0.7306  1.9141
 8644SOL     OW37564   1.868   2.702   2.834  0.0958  0.4083 -0.9927
 8644SOL    HW137565   1.927   2.775   2.816 -0.6819  1.3267  0.1517
 8644SOL    HW237566   1.860   2.715   2.929 -2.4540  1.9439 -1.4161
 8645SOL     OW37567   1.675   0.304  10.440  0.1510 -0.2205  0.2050
 8645SOL    HW137568   1.698   0.302  10.347 -1.5703 -0.8337 -0.2005
 8645SOL    HW237569   1.599   0.246  10.442 -0.3903  0.3809 -2.9917
 8646SOL     OW37570   2.092   2.787   5.652  0.0548 -0.5076 -0.4437
 8646SOL    HW137571   2.123   2.810   5.739 -1.7856 -1.0367  0.3602
 8646SOL    HW237572   2.160   2.733   5.612  1.7181 -0.1939  1.9165
 8647SOL     OW37573   0.110   4.106   7.380  0.2528 -0.4116  0.1547
 8647SOL    HW137574   0.121   4.011   7.379  2.3238 -0.1747  0.4739
 8647SOL    HW237575   0.128   4.127   7.471 -0.8918 -0.1247  0.3217
 8648SOL     OW37576   0.579   0.877   9.489  0.1713 -0.1922  0.4206
 8648SOL    HW137577   0.519   0.808   9.518 -0.5188  1.0106  1.8882
 8648SOL    HW237578   0.643   0.883   9.559 -0.8445  0.4511  1.2926
 8649SOL     OW37579   1.146   4.531   4.679  1.1177  0.0247 -0.8823
 8649SOL    HW137580   1.125   4.483   4.759 -0.3702  0.8507 -0.7611
 8649SOL    HW237581   1.123   4.468   4.610 -2.1870 -0.8712  1.0283
 8650SOL     OW37582   1.223   3.871  15.238  0.5020 -0.2701 -0.1693
 8650SOL    HW137583   1.211   3.939  15.171  2.2405  1.7208  1.5373
 8650SOL    HW237584   1.217   3.790  15.187 -0.8096  0.7509 -1.6446
 8651SOL     OW37585   3.595   3.832   2.769 -0.5991 -0.2098 -0.0221
 8651SOL    HW137586   3.518   3.774   2.768  0.3140 -1.4613  2.8401
 8651SOL    HW237587   3.579   3.885   2.847 -0.0480  0.1177 -0.1346
 8652SOL     OW37588   1.025   4.724   4.258 -0.4952  0.1301  0.1002
 8652SOL    HW137589   0.992   0.073   4.233  0.1897  0.8368  1.6450
 8652SOL    HW237590   1.082   0.020   4.327 -1.1457  1.7042 -0.1130
 8653SOL     OW37591   1.016   3.365  16.097 -0.4711 -0.1428 -0.1847
 8653SOL    HW137592   1.078   3.395  16.163 -0.1314 -0.8746 -0.1757
 8653SOL    HW237593   0.939   3.407  16.136 -0.8445 -0.8626 -0.1354
 8654SOL     OW37594   3.434   2.906   2.228 -0.2485 -0.0754  0.2677
 8654SOL    HW137595   3.391   2.872   2.150 -2.2095  0.5019  1.1059
 8654SOL    HW237596   3.511   2.850   2.221  0.3003  0.7611 -0.4692
 8655SOL     OW37597   0.645   1.062   8.015  0.0959  0.6241 -0.5777
 8655SOL    HW137598   0.720   1.004   8.027 -0.8580 -0.2856  0.9609
 8655SOL    HW237599   0.692   1.137   7.978  2.6599 -0.8027 -0.1998
 8656SOL     OW37600   0.068   0.678   2.055 -0.2810  0.0807  0.3942
 8656SOL    HW137601   0.039   0.741   2.120  2.9701  0.7904  1.1661
 8656SOL    HW237602   0.140   0.729   2.018 -2.3290  3.9210  1.6154
 8657SOL     OW37603   0.681   2.727   3.609 -0.6409 -0.3442  0.1734
 8657SOL    HW137604   0.619   2.765   3.670  0.5410  2.1978 -0.2328
 8657SOL    HW237605   0.744   2.674   3.659 -0.0477 -1.4859 -1.7452
 8658SOL     OW37606   1.229   3.331   4.494  0.1859  0.6834  0.1869
 8658SOL    HW137607   1.143   3.370   4.482  0.6844  1.8603  0.4677
 8658SOL    HW237608   1.252   3.306   4.405 -0.5188 -2.9916  1.0067
 8659SOL     OW37609   0.715   0.951   6.505  0.0723  0.0949 -0.2085
 8659SOL    HW137610   0.630   0.967   6.546  0.5444 -1.8574  1.5106
 8659SOL    HW237611   0.768   0.965   6.584  1.1486  1.6721 -1.2018
 8660SOL     OW37612   0.671   1.491   3.016  0.2821  0.3060 -0.3819
 8660SOL    HW137613   0.726   1.433   3.069 -1.1808 -0.4060  0.3434
 8660SOL    HW237614   0.619   1.427   2.968  0.0136 -0.8096  1.4062
 8661SOL     OW37615   3.346   4.187  16.030  0.5804  0.0428 -0.0900
 8661SOL    HW137616   3.403   4.195  16.107  0.6854 -2.0866  0.0417
 8661SOL    HW237617   3.415   4.184  15.964  2.2096  0.3675  1.5803
 8662SOL     OW37618   3.094   2.461   6.346 -0.2135 -0.7345  0.5415
 8662SOL    HW137619   3.079   2.447   6.252  0.0356 -0.3123  0.4382
 8662SOL    HW237620   3.054   2.547   6.362  1.3242  0.0790  0.0378
 8663SOL     OW37621   4.012   4.654   4.247  0.1109 -0.2230  0.2490
 8663SOL    HW137622   3.926   4.687   4.221  0.6699 -0.9952 -2.5542
 8663SOL    HW237623   4.001   4.588   4.315 -0.1656 -0.9975 -0.5555
 8664SOL     OW37624   2.951   1.217   7.596 -0.0168  0.3307 -0.1572
 8664SOL    HW137625   2.963   1.292   7.654 -2.2434  0.8237 -0.3295
 8664SOL    HW237626   2.913   1.263   7.520  0.0771  2.1786  0.9236
 8665SOL     OW37627   0.893   0.690  12.470 -0.3421  0.5357  0.5389
 8665SOL    HW137628   0.880   0.723  12.382  0.6037 -0.9318 -0.1408
 8665SOL    HW237629   0.866   0.598  12.468 -1.6848  0.9199  0.7006
 8666SOL     OW37630   0.259   2.527   5.394 -0.8669 -0.6861 -0.3469
 8666SOL    HW137631   0.266   2.448   5.341 -0.6067  0.2408 -1.6729
 8666SOL    HW237632   0.174   2.522   5.437 -0.9398  0.8258 -0.3019
 8667SOL     OW37633   0.647   1.776   2.907  0.5156 -0.4562 -0.1409
 8667SOL    HW137634   0.658   1.681   2.921  2.2949  0.1340  2.4151
 8667SOL    HW237635   0.650   1.785   2.812 -0.4375 -0.1744 -0.1424
 8668SOL     OW37636   0.720   0.943   7.222  0.4225 -0.5513 -0.4630
 8668SOL    HW137637   0.650   0.918   7.282  1.3009 -1.3516  0.2128
 8668SOL    HW237638   0.794   0.887   7.245  1.2883  0.0636 -1.7499
 8669SOL     OW37639   4.422   0.974   3.747  0.0218  0.1416 -0.3943
 8669SOL    HW137640   4.408   0.937   3.833  0.5478  0.9323  0.0333
 8669SOL    HW237641   4.339   0.966   3.700  0.9199 -0.5109 -1.8881
 8670SOL     OW37642   0.638   0.634   8.258  0.0477  0.1167  0.1933
 8670SOL    HW137643   0.584   0.593   8.325 -1.4920  2.2477  0.2752
 8670SOL    HW237644   0.573   0.646   8.188 -0.5957  1.4819  1.0307
 8671SOL     OW37645   3.773   0.365  10.644  0.2870 -0.1322  0.1729
 8671SOL    HW137646   3.865   0.338  10.639 -0.1610 -1.7774  0.9347
 8671SOL    HW237647   3.777   0.448  10.693  0.6494  0.4747 -0.8850
 8672SOL     OW37648   1.772   1.249   6.025 -0.6984  0.6487 -0.0684
 8672SOL    HW137649   1.832   1.175   6.035 -0.9277  0.5103  0.2917
 8672SOL    HW237650   1.707   1.253   6.094 -0.0018  1.3158  0.5459
 8673SOL     OW37651   4.564   3.639   7.559 -0.0534  0.0151 -0.5196
 8673SOL    HW137652   4.545   3.732   7.545 -2.3855 -0.2019  1.1900
 8673SOL    HW237653   4.473   3.610   7.546 -0.7245  1.2967  1.3597
 8674SOL     OW37654   0.161   1.300   3.169  0.7842  0.0342  0.3997
 8674SOL    HW137655   0.150   1.235   3.238  0.3151  0.0291  0.3225
 8674SOL    HW237656   0.091   1.276   3.108  0.8382  0.4385  0.1755
 8675SOL     OW37657   2.290   1.640  16.478  0.3074 -0.0917 -0.0266
 8675SOL    HW137658   2.370   1.664  16.431  1.3939  0.5712  2.1376
 8675SOL    HW237659   2.251   1.727  16.473 -3.7905 -1.8899  1.1533
 8676SOL     OW37660   3.730   1.206   5.478  0.0725  0.3641  0.2286
 8676SOL    HW137661   3.644   1.172   5.504  0.8898 -0.9116  1.2672
 8676SOL    HW237662   3.783   1.127   5.476 -0.2479  0.2507 -2.8000
 8677SOL     OW37663   0.333   0.037   5.113 -0.2073  0.9159  0.5130
 8677SOL    HW137664   0.373   0.070   5.033 -2.9263  1.2108 -0.7530
 8677SOL    HW237665   0.301   4.686   5.091 -2.5432  2.0513 -0.6888
 8678SOL     OW37666   2.617   1.890   7.937 -0.1828  0.9186 -0.2507
 8678SOL    HW137667   2.541   1.832   7.929  0.6976 -0.2452 -0.0657
 8678SOL    HW237668   2.662   1.874   7.854  0.0313 -0.9360  0.2372
 8679SOL     OW37669   1.453   3.874   6.464  0.1461  0.7944 -0.9880
 8679SOL    HW137670   1.488   3.962   6.452  0.0567  0.6400 -2.3556
 8679SOL    HW237671   1.361   3.901   6.464 -0.5365 -1.4798  3.2519
 8680SOL     OW37672   2.009   0.945   0.722 -0.3031  0.0488  0.2538
 8680SOL    HW137673   2.054   1.028   0.704 -1.0000  0.5151  0.6413
 8680SOL    HW237674   1.922   0.980   0.743 -0.4551 -0.2972  0.1971
 8681SOL     OW37675   3.527   0.579   9.695  0.4333  0.2477  0.0507
 8681SOL    HW137676   3.463   0.596   9.626 -1.3951 -0.9699  1.4391
 8681SOL    HW237677   3.515   0.484   9.704  0.1283  0.3626  0.8157
 8682SOL     OW37678   1.670   0.305   6.874 -0.3855 -0.4116 -0.0090
 8682SOL    HW137679   1.650   0.399   6.874 -1.9253 -0.7320 -0.8665
 8682SOL    HW237680   1.653   0.281   6.965  1.7283 -1.4631  0.1036
 8683SOL     OW37681   0.236   4.567   2.705 -0.2611 -0.2403  0.6874
 8683SOL    HW137682   0.292   4.527   2.639  0.3464 -1.6766  2.0480
 8683SOL    HW237683   0.218   4.491   2.760  0.5785  1.0150  2.7119
 8684SOL     OW37684   2.611   3.055   2.612  0.4995  0.7579  0.0292
 8684SOL    HW137685   2.529   3.045   2.660  0.1539  0.0942 -0.6897
 8684SOL    HW237686   2.605   3.148   2.591  0.0602  0.3614 -1.6534
 8685SOL     OW37687   0.916   2.173   8.326  0.4512 -0.1535 -0.1709
 8685SOL    HW137688   0.854   2.149   8.394 -1.8025  2.8537 -1.1541
 8685SOL    HW237689   0.921   2.097   8.267  0.7696  0.7386 -1.3065
 8686SOL     OW37690   1.135   3.553   9.573  0.0771  0.2675 -0.3750
 8686SOL    HW137691   1.197   3.619   9.603 -0.0077  0.7272 -1.1997
 8686SOL    HW237692   1.194   3.503   9.517 -0.4965 -0.9231  0.0864
 8687SOL     OW37693   3.092   0.305   9.362 -0.0378  0.3705  0.1027
 8687SOL    HW137694   3.099   0.302   9.267  2.1331  2.9789  0.1713
 8687SOL    HW237695   3.185   0.283   9.374 -0.1222  0.3960  0.8274
 8688SOL     OW37696   1.934   3.338   4.445  0.6078 -0.1623  0.4019
 8688SOL    HW137697   1.998   3.277   4.408 -1.1034 -3.0217  2.2025
 8688SOL    HW237698   1.901   3.283   4.516 -0.9153 -0.0940 -0.2577
 8689SOL     OW37699   2.254   2.573   2.965  0.4827 -0.4234  0.1385
 8689SOL    HW137700   2.171   2.568   3.014  0.2044  0.3402 -0.2562
 8689SOL    HW237701   2.309   2.625   3.024  0.7490 -0.8974  0.3098
 8690SOL     OW37702   4.412   0.608   6.175 -0.2433  0.4061  0.3026
 8690SOL    HW137703   4.450   0.630   6.260 -2.3361  0.2361  1.2787
 8690SOL    HW237704   4.472   0.642   6.109  0.5875 -0.9527  0.3510
 8691SOL     OW37705   2.173   4.262   4.006  0.4903  0.0083 -0.2662
 8691SOL    HW137706   2.262   4.227   3.997 -0.4824 -1.8908 -2.6437
 8691SOL    HW237707   2.193   4.352   4.032  1.0685 -0.9534  2.6530
 8692SOL     OW37708   2.747   0.192   3.573 -0.0227 -0.5869  0.1710
 8692SOL    HW137709   2.817   0.235   3.524 -0.5257 -0.1975 -0.2131
 8692SOL    HW237710   2.779   0.169   3.660 -0.2074  3.7300  1.3772
 8693SOL     OW37711   1.341   0.165  14.965  0.1714 -0.0172 -0.0776
 8693SOL    HW137712   1.317   0.105  14.895  0.7410 -1.3428  0.8464
 8693SOL    HW237713   1.257   0.208  14.979  1.1230  2.2717 -1.5211
 8694SOL     OW37714   4.084   1.942   6.200 -0.4512  0.0988  0.3205
 8694SOL    HW137715   4.069   1.925   6.107  2.0819 -0.0808 -0.0632
 8694SOL    HW237716   4.006   1.989   6.230  0.5949  1.1334  1.4314
 8695SOL     OW37717   0.735   1.667   2.639 -0.0268  0.1078 -0.0212
 8695SOL    HW137718   0.714   1.575   2.657  0.7748 -0.3288 -1.3570
 8695SOL    HW237719   0.829   1.662   2.621  0.2457  1.8954  0.9514
 8696SOL     OW37720   0.835   0.947  16.643 -0.6865  0.1960 -0.3948
 8696SOL    HW137721   0.746   0.926  16.616 -1.1997  1.4587  0.3124
 8696SOL    HW237722   0.816   1.010  16.713  1.9858  0.7559 -0.1579
 8697SOL     OW37723   0.609   1.681  15.348  0.1085 -0.4186  0.0975
 8697SOL    HW137724   0.654   1.672  15.432 -0.6583  1.8283  0.7446
 8697SOL    HW237725   0.518   1.663  15.375  0.1971 -2.0229 -0.6675
 8698SOL     OW37726   3.117   3.241  14.922  0.1925 -0.1274  0.7547
 8698SOL    HW137727   3.123   3.159  14.972 -2.1756 -1.2716 -0.8534
 8698SOL    HW237728   3.029   3.270  14.946 -1.1904 -2.8274 -1.1230
 8699SOL     OW37729   4.510   0.292   1.379  0.1583 -0.1461  0.6561
 8699SOL    HW137730   4.603   0.290   1.355 -0.1033 -0.5111 -0.3104
 8699SOL    HW237731   4.476   0.223   1.323  4.0090 -1.5661  0.0882
 8700SOL     OW37732   3.566   2.833   0.012 -0.0703 -0.1270  0.1541
 8700SOL    HW137733   3.490   2.815   0.068 -0.4623 -1.7202 -0.8934
 8700SOL    HW237734   3.597   2.743   0.001 -0.6122 -0.2816 -0.1124
 8701SOL     OW37735   2.791   1.350   2.407  0.2792  0.5413  0.4362
 8701SOL    HW137736   2.811   1.442   2.392 -1.5878  1.0741  1.1464
 8701SOL    HW237737   2.698   1.346   2.432  0.2430  2.5859  0.5903
 8702SOL     OW37738   1.357   4.537   6.563  0.2510  0.2431 -0.5872
 8702SOL    HW137739   1.352   4.632   6.564 -2.2657  0.0957 -0.8733
 8702SOL    HW237740   1.406   4.523   6.644  1.5705  2.1752 -1.0502
 8703SOL     OW37741   0.186   2.190  12.055 -0.3127 -0.0588  0.7346
 8703SOL    HW137742   0.255   2.139  12.097 -0.0090 -1.3436 -1.3680
 8703SOL    HW237743   0.114   2.163  12.112 -1.8465  0.9109 -0.7368
 8704SOL     OW37744   1.866   0.907   1.834  0.3063 -0.1916 -0.8770
 8704SOL    HW137745   1.947   0.870   1.799  0.4254  0.3980 -1.2104
 8704SOL    HW237746   1.817   0.925   1.754 -2.0287 -2.4768  0.0220
 8705SOL     OW37747   1.491   3.971   5.758 -0.7868  0.0211 -0.0182
 8705SOL    HW137748   1.529   4.013   5.681  0.9372  2.5242  2.1923
 8705SOL    HW237749   1.415   4.023   5.784 -2.2713 -0.8158 -2.6937
 8706SOL     OW37750   1.176   2.059   0.965  0.2044  0.3324  0.1685
 8706SOL    HW137751   1.145   1.972   0.941  2.0377 -0.3557  0.2784
 8706SOL    HW237752   1.098   2.099   1.004 -1.5085 -1.4998 -1.4130
 8707SOL     OW37753   2.595   1.836   1.887 -0.4391  0.8358 -0.1633
 8707SOL    HW137754   2.625   1.927   1.897 -1.2868  1.0089  0.8793
 8707SOL    HW237755   2.619   1.822   1.795  3.3580  1.4828  0.7311
 8708SOL     OW37756   4.584   0.505   1.958  0.1508  0.9678 -0.0383
 8708SOL    HW137757   4.636   0.576   1.995 -0.2929  1.3828 -0.2139
 8708SOL    HW237758   4.553   0.551   1.881 -1.1065 -0.3328 -0.3060
 8709SOL     OW37759   3.903   3.149   2.746 -0.1697 -0.0239  0.1614
 8709SOL    HW137760   3.988   3.120   2.780 -1.6519 -1.1335  2.9358
 8709SOL    HW237761   3.926   3.228   2.697  0.5321 -0.0101  0.5116
 8710SOL     OW37762   1.649   1.051   7.355  0.2481  0.1036  0.1751
 8710SOL    HW137763   1.556   1.028   7.356  0.0244  0.9846 -0.5720
 8710SOL    HW237764   1.680   0.960   7.359 -2.3882 -0.8124 -0.2151
 8711SOL     OW37765   2.982   3.861   8.604 -0.0929  0.6340  0.3172
 8711SOL    HW137766   2.923   3.823   8.539 -0.0153 -0.6997  1.0291
 8711SOL    HW237767   3.054   3.886   8.547  0.8812 -0.1742  1.1751
 8712SOL     OW37768   1.350   2.115  16.800  0.2047  0.2996 -0.7982
 8712SOL    HW137769   1.404   2.194  16.789  0.7347  0.0910  0.2891
 8712SOL    HW237770   1.339   2.119  16.895 -1.2488 -1.3310 -0.8999
 8713SOL     OW37771   4.495   0.018  11.373 -0.1572 -0.3307 -0.0617
 8713SOL    HW137772   4.584   0.051  11.364 -0.7862  1.7041  1.1302
 8713SOL    HW237773   4.435   0.093  11.372 -3.5368 -3.0288 -0.0328
 8714SOL     OW37774   2.594   1.068  12.001 -0.5008 -0.0305 -0.1063
 8714SOL    HW137775   2.575   1.092  12.092  0.2133 -1.0572  0.3197
 8714SOL    HW237776   2.535   1.134  11.964  2.2960  2.2475 -0.5138
 8715SOL     OW37777   0.379   0.173  16.755  0.3124 -0.3298 -0.2756
 8715SOL    HW137778   0.394   0.211  16.842  2.6550  1.4079 -1.4350
 8715SOL    HW237779   0.315   0.105  16.776  1.0337 -0.5511  1.1968
 8716SOL     OW37780   4.433   2.602   2.388  0.0692 -0.2480 -0.1250
 8716SOL    HW137781   4.406   2.513   2.411  1.0491 -0.3627  0.5524
 8716SOL    HW237782   4.524   2.593   2.417  0.5897  0.0843 -1.6726
 8717SOL     OW37783   3.778   3.145   3.541 -0.1831 -0.1128 -0.2230
 8717SOL    HW137784   3.729   3.168   3.462 -0.3516 -2.4292 -0.8035
 8717SOL    HW237785   3.743   3.057   3.556 -2.0688  0.8533  0.9073
 8718SOL     OW37786   1.903   4.456  17.249 -0.4909  0.0597 -0.2342
 8718SOL    HW137787   1.893   4.485  17.158  0.4621 -0.7625 -0.5942
 8718SOL    HW237788   1.810   4.448  17.270 -0.0287 -2.3061  0.9385
 8719SOL     OW37789   0.749   4.371   3.992  0.7634  0.1197  1.1293
 8719SOL    HW137790   0.824   4.322   3.958 -2.5836 -1.9501 -3.1674
 8719SOL    HW237791   0.797   4.413   4.064  0.3988 -0.1027  1.4987
 8720SOL     OW37792   2.485   1.244   4.448  0.5649  0.3713 -0.2919
 8720SOL    HW137793   2.477   1.236   4.543 -3.3163 -0.4140 -0.6878
 8720SOL    HW237794   2.429   1.320   4.433  0.2752  0.1565 -0.3027
 8721SOL     OW37795   1.068   0.524  12.641 -0.3771 -0.5345 -0.0541
 8721SOL    HW137796   1.035   0.594  12.698 -0.2975 -0.3119 -0.2823
 8721SOL    HW237797   1.054   0.551  12.550 -0.7336  1.3137  0.5377
 8722SOL     OW37798   3.264   0.151   7.415  0.6733 -0.2737 -0.1441
 8722SOL    HW137799   3.344   0.114   7.379  1.2627 -0.1385  1.0235
 8722SOL    HW237800   3.295   0.205   7.488  0.1816 -0.9240  0.5447
 8723SOL     OW37801   0.786   0.570   0.507  0.3468  0.1070  0.0623
 8723SOL    HW137802   0.825   0.551   0.421  1.1035 -2.2615  0.9511
 8723SOL    HW237803   0.766   0.487   0.549 -0.8525  0.6862  0.6205
 8724SOL     OW37804   2.829   4.526   4.152 -0.4696 -0.7105 -0.3980
 8724SOL    HW137805   2.818   4.436   4.180 -1.7106 -0.3616  0.2410
 8724SOL    HW237806   2.737   4.540   4.130 -0.1020  2.0593 -0.1989
 8725SOL     OW37807   2.114   2.713   1.741  0.5161  0.1679  0.0424
 8725SOL    HW137808   2.146   2.623   1.749 -0.2672  0.0547  1.9735
 8725SOL    HW237809   2.192   2.759   1.773  1.4143 -1.0176 -0.4448
 8726SOL     OW37810   0.882   3.477   6.431  0.6029  0.2454  0.1803
 8726SOL    HW137811   0.941   3.408   6.400  1.3848  0.6300  0.8200
 8726SOL    HW237812   0.937   3.513   6.500  1.1377 -1.7711  0.8203
 8727SOL     OW37813   3.251   4.713   2.912  0.3279  0.4323  0.0709
 8727SOL    HW137814   3.192   4.637   2.920  0.2962  0.5053  0.5428
 8727SOL    HW237815   3.334   4.672   2.885  0.6199  0.6146  0.6898
 8728SOL     OW37816   1.632   2.049   4.524 -0.2923  0.5355 -0.0086
 8728SOL    HW137817   1.721   2.049   4.560  0.0232 -2.6815 -0.7480
 8728SOL    HW237818   1.630   1.959   4.492  3.0856  0.0729  1.0432
 8729SOL     OW37819   1.650   1.010   0.684 -0.5474  0.0000 -0.2175
 8729SOL    HW137820   1.618   1.024   0.594 -1.5768 -0.4799  0.0770
 8729SOL    HW237821   1.703   1.088   0.700  0.8346 -1.0869  0.4395
 8730SOL     OW37822   3.528   0.949   2.030  0.2876 -0.1665  0.0759
 8730SOL    HW137823   3.512   1.020   2.093  3.0430  0.7580 -0.2534
 8730SOL    HW237824   3.554   0.999   1.952  0.7992  1.4085  1.2601
 8731SOL     OW37825   2.780   3.062   1.592  0.2749  0.3592 -0.3041
 8731SOL    HW137826   2.781   3.149   1.554 -2.0365  0.7805  0.5567
 8731SOL    HW237827   2.820   3.019   1.517  1.7992  0.6766  0.3439
 8732SOL     OW37828   3.065   1.582   3.997 -0.6266 -0.0100 -0.3294
 8732SOL    HW137829   3.096   1.669   3.970 -2.9874  0.8603 -0.2839
 8732SOL    HW237830   2.987   1.567   3.943 -0.4471 -2.2688  0.0483
 8733SOL     OW37831   1.271   4.378   5.916 -0.1841 -0.6550  0.5152
 8733SOL    HW137832   1.304   4.406   6.001  0.2838  0.9406 -0.2055
 8733SOL    HW237833   1.193   4.434   5.913  0.3023 -0.0392 -0.3630
 8734SOL     OW37834   2.066   0.444  12.172 -0.1485  0.2602 -0.4787
 8734SOL    HW137835   2.081   0.483  12.258 -1.8080  1.4240 -0.7185
 8734SOL    HW237836   2.153   0.413  12.145  0.0515 -0.3708  0.9337
 8735SOL     OW37837   3.786   0.632  14.891 -0.7296  0.5145 -0.0674
 8735SOL    HW137838   3.729   0.706  14.869 -0.3935  0.1932 -2.0384
 8735SOL    HW237839   3.850   0.666  14.953 -1.6711  0.5712  0.8720
 8736SOL     OW37840   1.877   0.339  13.919 -0.1139 -0.2246  0.4983
 8736SOL    HW137841   1.903   0.248  13.906 -3.0691 -1.0808  0.4947
 8736SOL    HW237842   1.908   0.383  13.840 -1.4592 -1.5413 -0.7681
 8737SOL     OW37843   0.199   0.446   8.417  0.1328 -0.4178 -0.6346
 8737SOL    HW137844   0.199   0.503   8.340 -0.6939  1.4879  0.7708
 8737SOL    HW237845   0.283   0.402   8.410 -0.5358 -1.6831 -0.6678
 8738SOL     OW37846   3.685   3.738   4.222  0.3847 -0.0828 -0.2623
 8738SOL    HW137847   3.647   3.652   4.241  0.8705  0.1820  1.9766
 8738SOL    HW237848   3.676   3.738   4.127 -0.1161  2.5660 -0.2236
 8739SOL     OW37849   2.692   2.089   9.509 -0.0514 -0.3797  0.2195
 8739SOL    HW137850   2.657   2.169   9.469 -0.1690 -0.7758 -0.4674
 8739SOL    HW237851   2.773   2.099   9.459  1.0802  1.1592  2.3657
 8740SOL     OW37852   3.381   3.396   7.658  0.5337  0.2422  0.4848
 8740SOL    HW137853   3.410   3.314   7.620 -3.2659 -0.7514 -0.2404
 8740SOL    HW237854   3.306   3.414   7.601 -1.1503 -1.7543  2.1021
 8741SOL     OW37855   1.153   1.924   8.809 -0.7741 -0.4213  0.6015
 8741SOL    HW137856   1.065   1.904   8.778  0.3638  0.6487 -3.3437
 8741SOL    HW237857   1.198   1.847   8.774 -0.2391  0.2414 -0.1549
 8742SOL     OW37858   2.054   4.688  13.300 -0.2029 -0.4746  0.2604
 8742SOL    HW137859   2.129   4.642  13.261  0.9797  1.0188  0.7491
 8742SOL    HW237860   2.025   4.620  13.361  0.7855 -1.5293 -0.4613
 8743SOL     OW37861   3.319   2.976  17.388  0.4188  0.1186  0.4875
 8743SOL    HW137862   3.382   2.907  17.367 -2.6738 -2.0254 -1.7705
 8743SOL    HW237863   3.367   3.054  17.416  1.8241 -0.7949  0.6418
 8744SOL     OW37864   1.661   3.019   8.240 -0.4327 -0.1993  0.0012
 8744SOL    HW137865   1.659   2.950   8.307 -1.2691 -0.9369 -0.7749
 8744SOL    HW237866   1.578   3.002   8.194 -0.6582  0.9303  0.0053
 8745SOL     OW37867   0.198   3.319  12.155  0.0519  0.1674  0.0027
 8745SOL    HW137868   0.151   3.392  12.114  1.3991  0.3758 -1.1637
 8745SOL    HW237869   0.278   3.357  12.190 -0.3085 -1.2169  2.3007
 8746SOL     OW37870   0.694   3.785  10.547 -0.0990 -0.0709  0.6554
 8746SOL    HW137871   0.721   3.773  10.456  1.0278 -0.0316  0.9781
 8746SOL    HW237872   0.689   3.696  10.581 -1.5705  0.3711  1.5982
 8747SOL     OW37873   4.019   2.460  11.409 -0.0201 -0.2880 -0.0980
 8747SOL    HW137874   4.085   2.392  11.392  0.8818  0.7210 -0.6224
 8747SOL    HW237875   3.946   2.401  11.390  0.3195 -1.3545  1.8824
 8748SOL     OW37876   1.267   2.938   7.745 -0.2959 -0.6695 -0.3097
 8748SOL    HW137877   1.197   2.904   7.690  0.5000  0.0794 -1.7850
 8748SOL    HW237878   1.228   2.931   7.832 -1.7997  0.0531 -0.9308
 8749SOL     OW37879   0.915   2.966   6.361  0.3505  0.2823  0.1891
 8749SOL    HW137880   0.826   2.932   6.351  1.1425 -1.4826 -0.8171
 8749SOL    HW237881   0.894   3.016   6.439 -1.4727  1.6267 -1.1772
 8750SOL     OW37882   0.611   4.694   6.202  0.7334 -0.1711  0.1041
 8750SOL    HW137883   0.579   4.720   6.288 -0.6052  0.7465 -0.6727
 8750SOL    HW237884   0.537   4.651   6.159  0.7755 -1.1433  0.9872
 8751SOL     OW37885   3.337   2.154   1.269 -0.4151 -0.1556  0.1358
 8751SOL    HW137886   3.262   2.172   1.212  0.1294  0.8321 -0.2666
 8751SOL    HW237887   3.299   2.156   1.356 -0.0050 -1.2205  0.3408
 8752SOL     OW37888   3.320   3.119   3.611 -0.4251  0.1183 -0.4941
 8752SOL    HW137889   3.287   3.194   3.563  2.6620  0.9499 -1.3362
 8752SOL    HW237890   3.271   3.116   3.693  0.2080 -0.5507 -0.1360
 8753SOL     OW37891   0.227   2.205   7.521  0.4483 -0.1708  0.5109
 8753SOL    HW137892   0.225   2.275   7.586 -0.2130  0.1378  0.1559
 8753SOL    HW237893   0.296   2.241   7.466  0.1496 -3.5207 -2.0440
 8754SOL     OW37894   1.893   3.004   8.866  0.3756 -0.3670 -0.1465
 8754SOL    HW137895   1.896   2.979   8.774 -1.1786  0.9336 -0.5489
 8754SOL    HW237896   1.803   2.978   8.888 -0.3706  0.4891 -2.1912
 8755SOL     OW37897   0.147   4.331   2.861 -0.3279 -0.1886 -0.1486
 8755SOL    HW137898   0.053   4.333   2.876  0.2671 -0.9735  3.6473
 8755SOL    HW237899   0.178   4.354   2.949  0.0886 -0.4056 -0.2361
 8756SOL     OW37900   4.715   2.534   2.400  0.0532 -0.2758  0.3221
 8756SOL    HW137901   4.727   2.440   2.413 -0.6159 -0.3719  0.2701
 8756SOL    HW237902   0.023   2.580   2.470 -0.8228  0.6327  0.3000
 8757SOL     OW37903   1.982   3.059   7.539 -0.4077 -0.0328 -0.0027
 8757SOL    HW137904   1.981   3.085   7.446 -1.1557 -0.7606 -0.1972
 8757SOL    HW237905   1.889   3.053   7.560 -0.2398  0.6869  0.9126
 8758SOL     OW37906   4.579   0.816  10.111 -0.2464 -0.3571  0.3686
 8758SOL    HW137907   4.496   0.855  10.140  0.6065  1.2391  0.6826
 8758SOL    HW237908   4.624   0.785  10.190  1.3255 -1.8262 -1.1113
 8759SOL     OW37909   2.232   2.478   1.741  0.5250 -0.2773  0.5874
 8759SOL    HW137910   2.194   2.391   1.736  1.0693 -0.4511 -0.7254
 8759SOL    HW237911   2.309   2.471   1.798  0.5947  2.0718  0.7969
 8760SOL     OW37912   3.125   0.419   6.697  0.1607  0.0978  0.5742
 8760SOL    HW137913   3.149   0.334   6.662 -1.3008 -0.0502 -0.0578
 8760SOL    HW237914   3.066   0.396   6.770 -1.4663 -0.3060 -0.8692
 8761SOL     OW37915   0.428   1.374   9.268 -0.6549 -0.5988 -0.0853
 8761SOL    HW137916   0.389   1.379   9.356 -2.3872 -0.4976 -0.8592
 8761SOL    HW237917   0.468   1.287   9.270  0.5415 -0.0439 -0.2102
 8762SOL     OW37918   1.754   2.038   3.153  0.0063 -0.2455  0.1897
 8762SOL    HW137919   1.829   2.087   3.188  2.2804 -2.2412 -1.8199
 8762SOL    HW237920   1.698   2.040   3.230  1.8076  0.0895  1.4976
 8763SOL     OW37921   2.657   0.710   3.320  0.3073  0.0330  0.2596
 8763SOL    HW137922   2.688   0.788   3.367 -2.2051  0.5358  1.0591
 8763SOL    HW237923   2.563   0.713   3.336  0.2285  1.7085 -0.4957
 8764SOL     OW37924   3.897   0.554   8.892  0.4787 -0.1299  0.1713
 8764SOL    HW137925   3.804   0.568   8.871 -0.0626 -2.3748  1.1474
 8764SOL    HW237926   3.906   0.471   8.938 -2.5816 -0.2595  0.5257
 8765SOL     OW37927   1.306   1.770  15.759 -0.6598  0.2833  0.5256
 8765SOL    HW137928   1.352   1.716  15.694 -0.4922 -0.8283  1.5842
 8765SOL    HW237929   1.373   1.808  15.816 -0.7786 -0.4103  1.1139
 8766SOL     OW37930   3.408   2.089  11.954  0.3272  0.1799  0.6140
 8766SOL    HW137931   3.354   2.162  11.982  2.6951  1.3596  2.0887
 8766SOL    HW237932   3.444   2.075  12.041  1.1708  0.0070  0.2365
 8767SOL     OW37933   3.359   1.152   9.463 -0.1014 -0.0487  0.1263
 8767SOL    HW137934   3.358   1.186   9.374 -1.4008 -3.8647 -1.3441
 8767SOL    HW237935   3.447   1.115   9.461 -1.0052 -2.2811  1.3584
 8768SOL     OW37936   1.843   0.583   6.650  0.0091  0.3415 -0.1471
 8768SOL    HW137937   1.880   0.655   6.701 -0.5136  1.1872 -0.9614
 8768SOL    HW237938   1.921   0.531   6.628 -0.4431 -1.0491  1.5731
 8769SOL     OW37939   0.908   4.008   5.209 -0.3979  0.1933 -0.0387
 8769SOL    HW137940   0.940   4.049   5.128 -0.7789  1.0628  0.2417
 8769SOL    HW237941   0.893   3.919   5.177 -0.7777  0.7273 -1.3701
 8770SOL     OW37942   0.817   2.891   0.314 -0.1772 -0.3093 -0.2012
 8770SOL    HW137943   0.778   2.806   0.296 -0.2090 -0.5344  0.9577
 8770SOL    HW237944   0.740   2.936   0.349  0.9319  0.3381  1.4276
 8771SOL     OW37945   0.892   3.283   2.264 -0.1968 -0.1149 -0.3603
 8771SOL    HW137946   0.837   3.206   2.260 -0.9048  0.3078  1.1686
 8771SOL    HW237947   0.979   3.247   2.283 -0.2966 -1.9661 -3.5850
 8772SOL     OW37948   3.882   0.617   5.742 -0.0240 -0.1327 -0.0921
 8772SOL    HW137949   3.952   0.666   5.785 -0.9207  0.5926  0.5295
 8772SOL    HW237950   3.858   0.548   5.803  0.0172 -0.3600 -0.3288
 8773SOL     OW37951   0.489   2.610   6.600  1.2580 -0.5934 -0.0457
 8773SOL    HW137952   0.453   2.523   6.582  0.3032 -0.0630 -0.7177
 8773SOL    HW237953   0.509   2.606   6.694  1.7125 -2.0435 -0.1976
 8774SOL     OW37954   3.904   1.207   3.597  0.7072 -0.1024  0.4345
 8774SOL    HW137955   3.838   1.155   3.644  1.0098 -0.6503  0.2514
 8774SOL    HW237956   3.977   1.205   3.659  1.4149 -2.7423 -0.4834
 8775SOL     OW37957   1.607   3.277   4.225 -0.1676 -0.0828  0.1120
 8775SOL    HW137958   1.560   3.217   4.167 -3.5460  1.2916  1.4126
 8775SOL    HW237959   1.621   3.225   4.304 -0.0368  1.4885  1.1201
 8776SOL     OW37960   0.365   3.227   6.859  0.9664 -0.5011 -0.2202
 8776SOL    HW137961   0.382   3.281   6.781  1.0091 -0.8750 -0.4677
 8776SOL    HW237962   0.323   3.287   6.920  0.0893 -0.5107 -0.8136
 8777SOL     OW37963   1.088   2.119   6.861  0.0556  0.2437  0.3043
 8777SOL    HW137964   1.153   2.175   6.903  1.2698  1.5094 -3.2520
 8777SOL    HW237965   1.055   2.068   6.934 -1.7087  1.0968  0.0978
 8778SOL     OW37966   4.580   3.437  12.228 -0.2473  0.0955  0.0656
 8778SOL    HW137967   4.486   3.426  12.216  0.0390 -1.0564 -0.9722
 8778SOL    HW237968   4.603   3.469  12.141  3.8602 -0.0192  1.0718
 8779SOL     OW37969   1.816   2.478  10.112 -0.1606 -0.7028  0.2059
 8779SOL    HW137970   1.786   2.405  10.165  0.0627 -1.4119 -0.6550
 8779SOL    HW237971   1.898   2.440  10.080 -0.0434 -1.3531  1.2957
 8780SOL     OW37972   3.819   1.039   4.312  0.2666 -0.0905  0.1068
 8780SOL    HW137973   3.865   0.959   4.286  0.5847  0.4043 -0.8602
 8780SOL    HW237974   3.845   1.060   4.402  2.0090  0.5629 -0.5360
 8781SOL     OW37975   3.957   2.345  16.040  0.4126  0.1476 -0.1052
 8781SOL    HW137976   4.025   2.279  16.024 -1.8310 -2.3713  0.7594
 8781SOL    HW237977   3.920   2.352  15.952  0.0923  1.2187  0.1185
 8782SOL     OW37978   4.546   0.713   5.578  0.5068  0.0661  0.5446
 8782SOL    HW137979   4.479   0.646   5.591  1.4178 -0.8391  0.6013
 8782SOL    HW237980   4.583   0.694   5.491  0.1684  0.8822  0.2205
 8783SOL     OW37981   4.097   3.691   3.563 -0.2257  0.1029 -0.0719
 8783SOL    HW137982   4.148   3.754   3.512 -1.2883 -0.7231 -2.1828
 8783SOL    HW237983   4.143   3.684   3.646  1.8252 -1.0545 -1.3112
 8784SOL     OW37984   2.190   3.060  11.153 -0.5345 -0.0140 -0.9185
 8784SOL    HW137985   2.232   2.983  11.114 -1.0544 -1.1305  0.7120
 8784SOL    HW237986   2.202   3.126  11.084  2.4304 -0.4061 -0.7698
 8785SOL     OW37987   3.759   1.007  17.365 -0.2810  0.1147  0.8144
 8785SOL    HW137988   3.823   1.078  17.376  1.2448 -0.2937 -5.5717
 8785SOL    HW237989   3.744   0.985  17.457  2.1841 -0.3074  1.1166
 8786SOL     OW37990   1.644   1.675   5.285 -0.0718 -1.3923  0.5155
 8786SOL    HW137991   1.722   1.731   5.288  0.3551 -2.0235  1.1967
 8786SOL    HW237992   1.569   1.724   5.252  1.2731  1.1812  1.3211
 8787SOL     OW37993   3.731   3.571   2.804 -0.2556  0.0900 -0.1936
 8787SOL    HW137994   3.664   3.527   2.856 -0.0109 -1.5338 -1.2181
 8787SOL    HW237995   3.713   3.662   2.825  2.2446  0.5548 -0.0348
 8788SOL     OW37996   0.594   0.079   3.333 -0.2262 -0.3956  0.3359
 8788SOL    HW137997   0.613   4.724   3.349  0.9559 -0.4680 -1.4751
 8788SOL    HW237998   0.543   0.105   3.410 -0.3881  1.1268 -0.2883
 8789SOL     OW37999   2.268   1.824   3.861 -0.4360  0.1131 -0.2256
 8789SOL    HW138000   2.208   1.898   3.861  0.1807  0.6059 -1.3798
 8789SOL    HW238001   2.208   1.751   3.880 -0.3523  0.1546  0.1987
 8790SOL     OW38002   0.508   3.371   7.314 -0.3447 -0.2295 -0.4718
 8790SOL    HW138003   0.559   3.441   7.273 -1.0784  1.4713  1.5508
 8790SOL    HW238004   0.544   3.296   7.265 -2.6205 -1.4596 -0.2670
 8791SOL     OW38005   2.122   0.696  16.788 -0.1771  0.6363  0.8826
 8791SOL    HW138006   2.027   0.690  16.790 -0.0403 -1.7382  0.6379
 8791SOL    HW238007   2.141   0.771  16.844 -1.5675  0.4166  1.6467
 8792SOL     OW38008   4.543   3.556   9.361 -0.0951  0.1530  0.3546
 8792SOL    HW138009   4.574   3.647   9.356 -0.0530  0.0828 -0.7457
 8792SOL    HW238010   4.549   3.543   9.456  0.1388  3.6963  0.8400
 8793SOL     OW38011   3.905   0.027  17.179  0.1480 -0.3820  0.7124
 8793SOL    HW138012   3.856   0.094  17.131  2.1127  1.4017  1.1967
 8793SOL    HW238013   3.934   4.706  17.110 -0.7806  2.4786 -2.1119
 8794SOL     OW38014   1.542   1.242   0.457  0.0160  0.1203  0.3874
 8794SOL    HW138015   1.475   1.234   0.524 -1.1031 -1.6704 -0.9401
 8794SOL    HW238016   1.578   1.327   0.482  2.1509 -0.6530 -0.0635
 8795SOL     OW38017   4.520   0.111   9.933 -0.3399 -0.4167 -0.4144
 8795SOL    HW138018   4.589   0.113  10.000 -1.1199 -0.5577  0.4050
 8795SOL    HW238019   4.459   0.179   9.961  0.3444  0.3799 -0.8646
 8796SOL     OW38020   2.282   0.418   8.035 -0.5031  0.2762 -0.5057
 8796SOL    HW138021   2.312   0.358   7.967 -1.0583 -1.3607  0.7242
 8796SOL    HW238022   2.366   0.422   8.079 -1.1391  3.2087  0.4948
 8797SOL     OW38023   4.207   0.929   9.253  0.3596 -0.2351 -0.3269
 8797SOL    HW138024   4.277   0.864   9.261 -0.3568 -0.7949  1.5522
 8797SOL    HW238025   4.138   0.881   9.206 -0.2334  3.1015 -2.8693
 8798SOL     OW38026   3.274   3.626   2.484  0.0860  0.1368 -0.4505
 8798SOL    HW138027   3.276   3.572   2.562 -0.0286  1.1393  0.2456
 8798SOL    HW238028   3.245   3.708   2.524  1.9403  0.6368 -0.1308
 8799SOL     OW38029   1.940   0.995   4.331 -0.7146 -0.1505  0.4201
 8799SOL    HW138030   2.028   0.980   4.296 -0.6883 -0.3412  0.5706
 8799SOL    HW238031   1.933   0.909   4.372  0.4323 -0.6154 -0.3550
 8800SOL     OW38032   1.454   3.215  15.277 -0.0179  0.4386  0.0063
 8800SOL    HW138033   1.528   3.225  15.216 -1.1175  2.3066 -1.0086
 8800SOL    HW238034   1.496   3.156  15.340 -0.4930 -1.4960 -1.4750
 8801SOL     OW38035   0.602   3.993  11.409 -0.4791 -0.1753  0.0083
 8801SOL    HW138036   0.550   4.039  11.344 -1.1211  1.6010  1.7773
 8801SOL    HW238037   0.527   3.967  11.464  0.5922 -3.5288 -0.1260
 8802SOL     OW38038   4.040   4.120  12.719  0.2958  0.2319 -0.2122
 8802SOL    HW138039   4.012   4.211  12.727  0.7886  0.4103 -0.5105
 8802SOL    HW238040   4.038   4.094  12.811  1.2612  1.8981  0.2872
 8803SOL     OW38041   3.031   3.652   2.295  0.1345  0.8018  0.0286
 8803SOL    HW138042   3.005   3.561   2.313 -0.2006  0.5460 -1.7782
 8803SOL    HW238043   3.118   3.658   2.335  0.1281 -0.7257  0.2849
 8804SOL     OW38044   4.520   0.589   1.079  0.6807  0.3596 -0.2385
 8804SOL    HW138045   4.445   0.647   1.091 -0.2530 -0.2062 -3.2660
 8804SOL    HW238046   4.562   0.576   1.164 -1.5659 -0.0471  0.8171
 8805SOL     OW38047   1.583   2.812   3.554  0.3331 -0.4101 -0.2462
 8805SOL    HW138048   1.513   2.855   3.603 -1.0184 -0.7682 -1.8683
 8805SOL    HW238049   1.635   2.773   3.624 -1.1943 -1.8303  0.0993
 8806SOL     OW38050   4.727   4.050   8.931  0.7052  0.3004 -1.0762
 8806SOL    HW138051   0.042   4.043   8.851  0.9488  2.5096 -1.1057
 8806SOL    HW238052   0.055   4.060   9.000  0.1637 -0.1781 -0.4975
 8807SOL     OW38053   4.727   0.786   5.332  0.2159 -0.0722 -0.4421
 8807SOL    HW138054   0.056   0.825   5.274  0.2738 -0.6450 -0.7593
 8807SOL    HW238055   4.645   0.819   5.295 -0.3019  0.9823  1.6485
 8808SOL     OW38056   4.262   2.101  17.273 -0.3352  0.1559 -0.1221
 8808SOL    HW138057   4.236   2.011  17.296  1.1316  0.0472  1.1175
 8808SOL    HW238058   4.272   2.110  17.178  1.5381  0.3769  0.0847
 8809SOL     OW38059   2.653   2.713  13.322 -0.2442  0.0178  0.2422
 8809SOL    HW138060   2.661   2.805  13.295 -0.0538  0.0704  0.4749
 8809SOL    HW238061   2.741   2.700  13.359  0.8930  1.5467 -1.8817
 8810SOL     OW38062   1.619   0.039   6.801  0.0766  0.0372 -0.3194
 8810SOL    HW138063   1.674   0.116   6.819  0.6117 -0.4215  0.0215
 8810SOL    HW238064   1.565   0.068   6.727  1.8123  2.5545 -0.6314
 8811SOL     OW38065   4.725   3.106   7.251  0.4148 -0.4507 -0.4518
 8811SOL    HW138066   4.632   3.086   7.240  0.1699 -0.8478  2.1288
 8811SOL    HW238067   4.725   3.198   7.278  1.8815  0.4538 -3.6276
 8812SOL     OW38068   1.756   4.693   1.477 -0.1873  0.5167 -0.0766
 8812SOL    HW138069   1.831   4.735   1.434  0.9082 -0.1173  1.2372
 8812SOL    HW238070   1.754   4.619   1.416 -1.5831 -0.1462  0.7875
 8813SOL     OW38071   0.180   0.375  14.892 -0.2356  0.0828  0.8469
 8813SOL    HW138072   0.229   0.410  14.966  2.2244 -2.0926  0.2708
 8813SOL    HW238073   0.094   0.375  14.933 -0.7389  0.8985 -0.1992
 8814SOL     OW38074   2.999   2.295   3.781 -0.0120  0.3298  0.3035
 8814SOL    HW138075   3.076   2.287   3.724  0.3598 -1.0687  0.9987
 8814SOL    HW238076   2.932   2.278   3.714  1.4593  2.0450 -1.6195
 8815SOL     OW38077   1.756   3.898   8.448  0.4205  0.0022 -0.1544
 8815SOL    HW138078   1.745   3.991   8.430  1.4630  0.1877  0.1934
 8815SOL    HW238079   1.747   3.861   8.360 -2.3103 -2.1067  1.0086
 8816SOL     OW38080   3.314   2.628   8.004 -0.2209  0.4559 -0.7623
 8816SOL    HW138081   3.316   2.680   8.085  1.1193 -0.3112 -0.3102
 8816SOL    HW238082   3.352   2.547   8.036 -0.3758  0.3831 -0.7610
 8817SOL     OW38083   1.584   0.979   1.040 -0.4138 -0.4604 -0.0188
 8817SOL    HW138084   1.638   0.904   1.018 -0.1620  0.1098 -1.3350
 8817SOL    HW238085   1.534   0.932   1.107 -1.4304  0.7261  0.0767
 8818SOL     OW38086   0.613   2.485   5.301  0.1378 -0.4396  0.1356
 8818SOL    HW138087   0.633   2.488   5.207 -0.8128 -2.3552 -0.1266
 8818SOL    HW238088   0.673   2.556   5.324 -1.1382  0.5979  0.2993
 8819SOL     OW38089   3.473   2.367   5.514  0.6013  0.0330  0.3704
 8819SOL    HW138090   3.532   2.367   5.589  0.2246 -2.0422  0.6576
 8819SOL    HW238091   3.527   2.408   5.446  1.9959 -0.9903  0.8463
 8820SOL     OW38092   3.166   2.559   7.805  0.4567  0.2709 -0.2030
 8820SOL    HW138093   3.243   2.569   7.860  0.7197  0.4421 -0.6066
 8820SOL    HW238094   3.137   2.649   7.795  3.0157  1.0895 -0.2092
 8821SOL     OW38095   4.128   2.013   8.164  0.0451  0.6139 -0.0694
 8821SOL    HW138096   4.168   2.088   8.206  0.8360  1.3845 -2.1885
 8821SOL    HW238097   4.147   1.945   8.229 -0.8194  0.3039 -0.1335
 8822SOL     OW38098   0.932   1.475   7.510 -0.9094 -0.6010  0.7535
 8822SOL    HW138099   1.022   1.472   7.543  0.1990  2.8595 -2.0026
 8822SOL    HW238100   0.955   1.440   7.424  0.4448  0.0851  0.8370
 8823SOL     OW38101   3.034   0.735  11.503  0.2414  0.1306  0.4938
 8823SOL    HW138102   3.127   0.723  11.483  0.1043 -0.0764 -0.0178
 8823SOL    HW238103   3.040   0.782  11.586  2.1554 -0.4350  0.6680
 8824SOL     OW38104   4.278   2.046  13.425 -0.2625 -0.2387  0.5142
 8824SOL    HW138105   4.283   2.141  13.427 -0.9954 -0.1533 -2.1217
 8824SOL    HW238106   4.365   2.031  13.461  0.6273  2.7893 -0.4095
 8825SOL     OW38107   3.825   2.714   6.289 -0.1171  0.1313  0.7301
 8825SOL    HW138108   3.786   2.795   6.322  0.4818  0.8085 -0.2553
 8825SOL    HW238109   3.750   2.665   6.256 -0.7657  0.0820  2.2639
 8826SOL     OW38110   2.819   3.328   1.212  0.0286  0.8138  0.9667
 8826SOL    HW138111   2.848   3.254   1.159 -0.4317  1.0813  0.3499
 8826SOL    HW238112   2.904   3.370   1.229  0.0370  2.0101 -1.9520
 8827SOL     OW38113   3.524   1.348  17.119  0.1085 -0.2688  0.2107
 8827SOL    HW138114   3.483   1.315  17.199  2.5419  1.2703  2.0819
 8827SOL    HW238115   3.608   1.307  17.139 -0.3431 -1.2552  0.0958
 8828SOL     OW38116   0.002   2.342   6.808 -0.1509 -0.7144  0.6224
 8828SOL    HW138117   0.009   2.403   6.881  2.1087 -1.5244  1.0691
 8828SOL    HW238118   4.649   2.358   6.781 -0.9935 -1.5021  3.0608
 8829SOL     OW38119   0.635   1.184   9.690 -0.4562  0.2624  0.2553
 8829SOL    HW138120   0.627   1.089   9.680 -0.4137  0.2495  0.3421
 8829SOL    HW238121   0.729   1.200   9.703  0.0640 -0.7185 -2.3419
 8830SOL     OW38122   2.828   0.619   8.679 -0.2628 -0.1790  0.3265
 8830SOL    HW138123   2.852   0.555   8.612  1.6108 -0.2236  1.0407
 8830SOL    HW238124   2.882   0.692   8.649 -1.8983  0.5609 -0.8256
 8831SOL     OW38125   2.902   0.405   9.514  0.2368 -0.5610 -0.1527
 8831SOL    HW138126   2.986   0.381   9.474 -0.2456 -1.7071 -0.4895
 8831SOL    HW238127   2.886   0.337   9.579 -2.1318  0.5305  0.3939
 8832SOL     OW38128   0.696   3.035  14.816  0.8162 -0.4391  0.1984
 8832SOL    HW138129   0.601   3.033  14.830  0.7542  0.0916 -0.1599
 8832SOL    HW238130   0.724   2.954  14.858  0.6254 -0.3609  0.4767
 8833SOL     OW38131   3.644   1.228   8.485  0.8323 -0.6400  0.4149
 8833SOL    HW138132   3.616   1.316   8.512  1.0685 -1.1351  2.2745
 8833SOL    HW238133   3.578   1.177   8.533 -0.5776  1.4344  0.7035
 8834SOL     OW38134   3.966   2.154   9.863  0.4643 -0.2973  0.1174
 8834SOL    HW138135   3.933   2.072   9.827  1.5323 -0.3891 -0.6305
 8834SOL    HW238136   3.889   2.205   9.891 -0.8342 -1.6359 -0.9903
 8835SOL     OW38137   0.517   0.312  11.631  0.3802 -0.2356  0.4385
 8835SOL    HW138138   0.598   0.354  11.661 -0.7861  1.5516  1.1019
 8835SOL    HW238139   0.501   0.250  11.702 -0.9739  1.0874  1.2802
 8836SOL     OW38140   0.721   1.398  11.754 -0.1710 -0.3657  0.2156
 8836SOL    HW138141   0.739   1.479  11.801 -3.4668  0.4163  0.1333
 8836SOL    HW238142   0.800   1.384  11.703 -1.9527 -1.0809 -2.3499
 8837SOL     OW38143   0.834   1.932   0.625  0.3053  0.1843  0.5161
 8837SOL    HW138144   0.805   1.937   0.717 -0.8721 -1.1400  0.2253
 8837SOL    HW238145   0.756   1.903   0.578 -0.8316  0.0179  2.4704
 8838SOL     OW38146   3.407   2.058   0.553 -0.2157 -0.2978 -0.6189
 8838SOL    HW138147   3.421   2.118   0.480 -0.0302  0.2317 -0.1451
 8838SOL    HW238148   3.446   1.978   0.517  0.4245 -0.2641 -0.0026
 8839SOL     OW38149   4.238   3.303   7.119  0.2477 -0.1280 -0.1792
 8839SOL    HW138150   4.303   3.350   7.169 -0.4821 -1.7352  2.2615
 8839SOL    HW238151   4.177   3.374   7.098  1.6803  1.6509  1.7546
 8840SOL     OW38152   0.090   0.349  11.423  0.2974 -0.4330 -0.7863
 8840SOL    HW138153   0.083   0.329  11.517 -0.0518  0.9381 -0.5224
 8840SOL    HW238154   0.125   0.269  11.384 -0.0078 -0.8051 -0.3002
 8841SOL     OW38155   2.423   2.433   2.021 -0.2417 -0.0848  0.2967
 8841SOL    HW138156   2.349   2.375   2.041  1.3416 -1.9512  0.7668
 8841SOL    HW238157   2.399   2.516   2.062  0.6964 -0.2881  1.2545
 8842SOL     OW38158   3.446   2.461   7.018 -0.2793  0.5156 -0.0094
 8842SOL    HW138159   3.392   2.478   7.096  1.5912 -2.0074  1.8465
 8842SOL    HW238160   3.458   2.549   6.985  1.4315 -0.1234 -1.0680
 8843SOL     OW38161   1.689   4.419  11.622  0.3051 -0.5640  0.3005
 8843SOL    HW138162   1.711   4.343  11.568 -0.3650  0.7241 -1.7721
 8843SOL    HW238163   1.611   4.403  11.675 -0.6420  2.3252 -0.2428
 8844SOL     OW38164   4.132   4.287   2.692 -0.0129 -0.2840 -0.7016
 8844SOL    HW138165   4.083   4.272   2.612  0.8491  1.1963 -1.4935
 8844SOL    HW238166   4.183   4.207   2.704  0.8801  0.1149 -1.8051
 8845SOL     OW38167   3.817   2.442   6.922  0.1057 -0.5362 -0.3153
 8845SOL    HW138168   3.740   2.492   6.947  0.5437 -1.0040  1.8905
 8845SOL    HW238169   3.868   2.502   6.867 -0.5888 -0.5810 -1.0156
 8846SOL     OW38170   0.064   0.808   6.464 -0.1849 -0.3456  0.3093
 8846SOL    HW138171   0.114   0.823   6.544  1.2815  1.1249 -0.8870
 8846SOL    HW238172   4.709   0.811   6.490 -1.1582 -0.9580 -3.1559
 8847SOL     OW38173   1.527   3.588   6.428 -0.5649  0.2571 -0.2325
 8847SOL    HW138174   1.494   3.678   6.440  0.9436  0.5131  1.9483
 8847SOL    HW238175   1.604   3.597   6.372 -0.3705 -3.7946 -0.6136
 8848SOL     OW38176   0.395   4.164   4.308 -0.6006  0.2507  0.3334
 8848SOL    HW138177   0.460   4.172   4.238 -1.9145 -0.1545 -0.9225
 8848SOL    HW238178   0.451   4.178   4.384 -0.4411 -0.3431  0.3251
 8849SOL     OW38179   0.867   2.656   1.073 -0.0324  0.0571  0.0470
 8849SOL    HW138180   0.903   2.642   1.161  1.9685 -0.7175 -0.9083
 8849SOL    HW238181   0.773   2.658   1.093 -0.1565  1.6723 -0.7242
 8850SOL     OW38182   0.177   1.128  11.870  0.5126 -0.0725  0.1962
 8850SOL    HW138183   0.144   1.039  11.864 -0.1973  0.1426  0.7827
 8850SOL    HW238184   0.213   1.114  11.958  1.1033  2.4525  0.3827
 8851SOL     OW38185   3.714   3.284  17.673  0.2845 -0.1032 -0.5623
 8851SOL    HW138186   3.631   3.329  17.653  0.5594  1.8378  2.7426
 8851SOL    HW238187   3.750   3.274  17.585  1.1252  0.0674 -0.2364
 8852SOL     OW38188   2.197   1.392   6.103  0.7966  0.3374 -0.3595
 8852SOL    HW138189   2.205   1.298   6.087 -0.8520  0.2643 -0.7722
 8852SOL    HW238190   2.111   1.405   6.142  1.2216  1.3446  0.2467
 8853SOL     OW38191   2.398   0.794  15.586  0.2379 -0.3505 -0.0058
 8853SOL    HW138192   2.330   0.799  15.518 -1.8461  0.1013  2.1270
 8853SOL    HW238193   2.345   0.806  15.664  0.8677 -1.1279  0.5490
 8854SOL     OW38194   1.643   3.501   2.006 -0.3912  0.1506 -0.8540
 8854SOL    HW138195   1.624   3.418   2.049  0.2337  1.3176  1.6624
 8854SOL    HW238196   1.726   3.481   1.962  0.0631 -0.7757  0.4369
 8855SOL     OW38197   3.139   1.948  11.668  0.8310  0.3064  1.0396
 8855SOL    HW138198   3.049   1.927  11.643  0.4237  2.4339  0.7518
 8855SOL    HW238199   3.127   2.039  11.695 -1.3088 -0.4256  2.5351
 8856SOL     OW38200   0.435   3.283  10.184  0.3687  0.0596 -0.0181
 8856SOL    HW138201   0.373   3.286  10.257 -1.9271  1.7848 -2.0186
 8856SOL    HW238202   0.476   3.369  10.192  0.6982 -0.1009  0.0331
 8857SOL     OW38203   0.807   0.160   7.816 -0.5608 -0.2970 -0.1175
 8857SOL    HW138204   0.859   0.090   7.778  1.4006  0.6865  0.7711
 8857SOL    HW238205   0.778   0.210   7.739 -2.3726 -1.0973  0.0491
 8858SOL     OW38206   4.170   3.175   3.921  0.0144 -0.3891  0.0609
 8858SOL    HW138207   4.105   3.158   3.853  0.8040  0.0048 -0.7825
 8858SOL    HW238208   4.253   3.151   3.878 -1.0806 -1.8084 -1.2720
 8859SOL     OW38209   2.953   1.335   9.484  0.2803 -0.6212  1.4236
 8859SOL    HW138210   3.014   1.404   9.509  0.7416 -1.2827  2.1151
 8859SOL    HW238211   2.975   1.321   9.392 -3.0805  0.6356  0.4276
 8860SOL     OW38212   1.949   4.177   0.774 -0.0965 -0.5389 -0.0731
 8860SOL    HW138213   2.003   4.099   0.762  0.6191  0.1672 -1.3687
 8860SOL    HW238214   1.880   4.153   0.836 -0.1811  1.8429  0.7757
 8861SOL     OW38215   2.960   1.141  14.956 -0.1401 -0.1792 -0.0501
 8861SOL    HW138216   2.936   1.198  14.884 -1.1244  1.3302  1.4744
 8861SOL    HW238217   2.902   1.165  15.029 -0.5263 -1.4672  0.0630
 8862SOL     OW38218   3.646   2.668   3.821 -0.5665  0.2971 -0.4650
 8862SOL    HW138219   3.637   2.762   3.829 -0.7453  0.1611  0.8820
 8862SOL    HW238220   3.701   2.654   3.898 -1.4913 -1.5593 -0.1389
 8863SOL     OW38221   1.262   1.758   8.236 -0.0827 -0.1458 -0.7513
 8863SOL    HW138222   1.187   1.765   8.177 -1.5641  1.7141  1.3620
 8863SOL    HW238223   1.305   1.843   8.221  0.3455 -0.3585 -0.7274
 8864SOL     OW38224   0.021   3.190   2.660 -0.4920 -0.6434  0.1433
 8864SOL    HW138225   4.729   3.110   2.704  1.8429 -0.7464  1.5388
 8864SOL    HW238226   4.732   3.259   2.721  2.5924  0.1802  0.5458
 8865SOL     OW38227   4.463   0.301   7.361  0.2000 -0.7012  0.2450
 8865SOL    HW138228   4.403   0.226   7.362  2.0500 -2.1848 -0.1989
 8865SOL    HW238229   4.546   0.256   7.376  0.2469 -0.0956  1.8549
 8866SOL     OW38230   2.312   3.961   7.727 -0.3202  0.0229  0.8033
 8866SOL    HW138231   2.373   3.902   7.682 -0.7765  0.4956 -0.4509
 8866SOL    HW238232   2.230   3.918   7.705  0.4564  0.5750 -3.1618
 8867SOL     OW38233   3.853   1.534   4.768 -0.4534 -0.0532 -0.1383
 8867SOL    HW138234   3.917   1.463   4.773  0.9330  1.3377  1.9320
 8867SOL    HW238235   3.787   1.485   4.818  0.0364  0.8976  1.4302
 8868SOL     OW38236   3.596   0.143   9.742 -0.0079 -0.0726 -0.0789
 8868SOL    HW138237   3.572   0.226   9.783  0.0651 -0.8072  1.4491
 8868SOL    HW238238   3.654   0.106   9.809 -1.6449 -1.1547  0.7750
 8869SOL     OW38239   4.492   4.449   2.290  0.1489  0.0841  0.1468
 8869SOL    HW138240   4.459   4.537   2.272  1.8619  0.5216 -0.9186
 8869SOL    HW238241   4.409   4.408   2.312  0.9114 -1.1638  0.7039
 8870SOL     OW38242   1.945   1.366   5.559 -0.2250  0.2252  0.2497
 8870SOL    HW138243   1.933   1.431   5.490 -0.7792  2.0025  2.0450
 8870SOL    HW238244   1.881   1.299   5.534 -0.2153  1.2469 -2.4833
 8871SOL     OW38245   3.328   0.744   5.113 -0.4220 -0.2717 -0.6127
 8871SOL    HW138246   3.310   0.836   5.131  1.6304  0.1423 -0.6922
 8871SOL    HW238247   3.248   0.716   5.068 -1.1198 -1.0494  1.1137
 8872SOL     OW38248   4.006   4.549   6.652 -0.3352 -0.3600  0.0551
 8872SOL    HW138249   3.938   4.605   6.690 -0.9104 -1.1467  0.1710
 8872SOL    HW238250   4.084   4.584   6.694  0.3436 -2.6831  0.7161
 8873SOL     OW38251   3.624   1.007   6.106 -0.5570 -0.0242  0.2317
 8873SOL    HW138252   3.607   0.916   6.081 -1.5010  0.6974 -1.7467
 8873SOL    HW238253   3.538   1.048   6.101 -0.5310  0.2198  1.9533
 8874SOL     OW38254   2.792   0.983   4.362  0.1774  0.5555  0.4265
 8874SOL    HW138255   2.708   0.942   4.344  0.0572  0.3868  1.3990
 8874SOL    HW238256   2.857   0.951   4.298 -0.4514 -2.0926  1.1251
 8875SOL     OW38257   3.007   0.845  13.445 -0.2199 -0.4353 -0.2071
 8875SOL    HW138258   3.098   0.872  13.450 -1.1435  2.5763  0.3735
 8875SOL    HW238259   2.986   0.841  13.538 -1.7615 -1.8803 -0.6103
 8876SOL     OW38260   4.662   4.321   8.021  0.1981 -0.6550 -0.6357
 8876SOL    HW138261   4.688   4.413   8.026  0.8231 -0.9849  1.9360
 8876SOL    HW238262   4.727   4.289   7.958  0.2068  0.4419 -1.1920
 8877SOL     OW38263   0.961   0.904  11.583  0.1434  0.1170  0.5514
 8877SOL    HW138264   0.948   0.978  11.524 -1.9239 -0.3044  0.4650
 8877SOL    HW238265   0.965   0.951  11.666  1.1067 -0.0828  0.6073
 8878SOL     OW38266   1.598   1.544   0.997  0.0764 -0.8032 -0.0652
 8878SOL    HW138267   1.549   1.619   0.962 -0.4099 -1.2069 -0.2440
 8878SOL    HW238268   1.545   1.478   0.953  0.8223 -0.4772 -1.4473
 8879SOL     OW38269   0.221   1.220   2.677 -0.5457  0.4111 -0.3152
 8879SOL    HW138270   0.210   1.306   2.718  0.1843  0.4636 -0.2359
 8879SOL    HW238271   0.253   1.162   2.746  2.4554  1.4835 -0.8325
 8880SOL     OW38272   1.156   2.901   7.165  0.3818  0.2378 -0.2576
 8880SOL    HW138273   1.172   2.847   7.088 -2.1339  1.1547 -1.4312
 8880SOL    HW238274   1.065   2.876   7.180  0.2378 -0.5817 -2.5253
 8881SOL     OW38275   2.536   1.857  16.493 -0.4541  0.0231  0.0328
 8881SOL    HW138276   2.521   1.868  16.399  3.0756 -0.7561 -0.6388
 8881SOL    HW238277   2.631   1.854  16.508 -0.0533  1.4677 -2.3280
 8882SOL     OW38278   1.751   0.205   3.822 -0.5043 -0.3429  0.1866
 8882SOL    HW138279   1.845   0.205   3.844 -0.2974 -0.1534 -0.7041
 8882SOL    HW238280   1.746   0.126   3.768 -1.6258 -0.1285 -0.0178
 8883SOL     OW38281   2.360   3.344   4.893 -0.5785  0.2324 -0.6422
 8883SOL    HW138282   2.409   3.264   4.876  1.0101  0.8629  1.0377
 8883SOL    HW238283   2.364   3.371   4.801 -0.5809  2.7775  0.1079
 8884SOL     OW38284   2.643   4.125   8.310 -0.0045  0.8137 -0.4587
 8884SOL    HW138285   2.623   4.036   8.341 -0.5615  1.2787  0.5019
 8884SOL    HW238286   2.562   4.141   8.262  0.6529 -0.0476 -1.8583
 8885SOL     OW38287   0.545   1.716  15.641  0.0623  0.5716 -0.4098
 8885SOL    HW138288   0.459   1.725  15.681  0.2658  0.9471 -0.0658
 8885SOL    HW238289   0.614   1.739  15.703  0.6365  2.5683 -1.7937
 8886SOL     OW38290   0.788   1.092   4.848  0.4564  0.3417  0.2340
 8886SOL    HW138291   0.817   1.044   4.771  1.7631  1.9552 -0.2741
 8886SOL    HW238292   0.709   1.133   4.813  0.8040  1.2048  0.4587
 8887SOL     OW38293   1.765   3.141  17.593 -0.1783  0.0368  0.0902
 8887SOL    HW138294   1.711   3.114  17.519 -1.4362  0.5998  0.7907
 8887SOL    HW238295   1.838   3.187  17.553 -1.0792  1.3464 -0.0532
 8888SOL     OW38296   0.876   2.688   1.397 -0.6200 -0.0441  0.0929
 8888SOL    HW138297   0.885   2.611   1.454 -1.2078 -0.8813 -0.9423
 8888SOL    HW238298   0.960   2.693   1.352 -0.6139 -0.2267  0.0834
 8889SOL     OW38299   0.825   4.566  16.656 -0.0528 -0.0158 -0.2420
 8889SOL    HW138300   0.885   4.512  16.708 -0.9742 -1.0913 -0.3025
 8889SOL    HW238301   0.785   4.501  16.598  0.4869  0.6326 -1.3374
 8890SOL     OW38302   3.257   3.412  15.548 -0.3361 -0.4255  0.0382
 8890SOL    HW138303   3.232   3.498  15.581 -0.3177 -0.6208  0.5528
 8890SOL    HW238304   3.197   3.409  15.473  1.8660 -1.6449 -1.6678
 8891SOL     OW38305   2.344   2.128   3.969 -0.1989  0.4165 -0.5597
 8891SOL    HW138306   2.373   2.104   4.057  0.8633 -0.5116 -1.1761
 8891SOL    HW238307   2.376   2.217   3.958 -1.6263  1.0402  0.2956
 8892SOL     OW38308   2.534   2.237   7.303 -0.0793  0.1598 -0.0187
 8892SOL    HW138309   2.523   2.150   7.264  1.5281  0.2682 -0.7213
 8892SOL    HW238310   2.459   2.234   7.363 -0.6311 -1.0629 -0.7531
 8893SOL     OW38311   4.523   1.527   1.633 -0.4740 -0.4457  0.1140
 8893SOL    HW138312   4.532   1.621   1.622 -0.9650 -0.6192 -1.7692
 8893SOL    HW238313   4.467   1.526   1.711 -0.1422 -0.1391  0.3538
 8894SOL     OW38314   0.061   0.307   5.106 -0.2439 -0.1789  0.4159
 8894SOL    HW138315   4.705   0.286   5.107 -0.0078 -1.2831 -1.8249
 8894SOL    HW238316   0.076   0.341   5.195 -0.2974  1.5432 -0.2314
 8895SOL     OW38317   2.465   3.271  12.307 -0.3113 -0.1099 -0.2931
 8895SOL    HW138318   2.474   3.248  12.215 -0.3675 -1.1589 -0.0457
 8895SOL    HW238319   2.529   3.214  12.351 -1.6039 -2.1482 -1.0475
 8896SOL     OW38320   0.813   0.783   8.905 -0.3521 -0.0615 -0.6279
 8896SOL    HW138321   0.831   0.874   8.884  0.3383 -0.5519 -2.1850
 8896SOL    HW238322   0.721   0.789   8.931 -0.4359  1.7703 -1.3691
 8897SOL     OW38323   3.729   0.382   7.393  0.2140 -0.1248 -0.0484
 8897SOL    HW138324   3.796   0.358   7.330  1.5028  0.6319  1.0203
 8897SOL    HW238325   3.671   0.410   7.323  2.2579  1.1761 -1.2193
 8898SOL     OW38326   0.297   4.017   2.960 -0.2594 -0.5052  0.1287
 8898SOL    HW138327   0.241   3.973   2.896  2.1540 -0.5260 -1.9531
 8898SOL    HW238328   0.386   3.992   2.935  0.5949  2.1174  0.5090
 8899SOL     OW38329   4.715   0.823   8.650 -0.1931 -0.3589  0.0092
 8899SOL    HW138330   4.649   0.779   8.702 -0.4583  0.2036  0.1453
 8899SOL    HW238331   4.671   0.824   8.565  0.4398 -0.0813 -0.3167
 8900SOL     OW38332   0.382   2.598   9.177  0.0956  0.3985  0.1989
 8900SOL    HW138333   0.311   2.534   9.171 -0.6410  1.3020 -0.5619
 8900SOL    HW238334   0.348   2.668   9.121 -2.2265 -1.5867 -0.8714
 8901SOL     OW38335   0.828   3.035   5.403 -0.4479  0.6714  0.0314
 8901SOL    HW138336   0.751   2.979   5.412 -0.4081  0.3958 -1.2867
 8901SOL    HW238337   0.854   3.044   5.494 -1.1372  0.2106  0.2690
 8902SOL     OW38338   3.984   4.061  11.892 -0.3601 -0.4242 -0.1513
 8902SOL    HW138339   4.031   4.091  11.814 -0.3028 -1.5049 -0.5285
 8902SOL    HW238340   3.900   4.067  11.847 -2.3111  0.8483  3.6857
 8903SOL     OW38341   1.074   0.130   5.993 -0.1085 -0.3883  0.2291
 8903SOL    HW138342   0.985   0.166   5.991  0.2562  0.4409 -2.1909
 8903SOL    HW238343   1.077   0.048   5.943  2.3040 -0.1515 -0.0014
 8904SOL     OW38344   1.839   4.668   6.441 -0.4876 -0.4397 -0.2105
 8904SOL    HW138345   1.754   4.694   6.478 -0.7006 -2.9740  1.1056
 8904SOL    HW238346   1.861   4.595   6.499 -3.2457 -0.5963  0.6774
 8905SOL     OW38347   3.386   4.482   7.569  0.3537  0.3313 -0.3081
 8905SOL    HW138348   3.421   4.482   7.480  1.3793 -0.9599  0.1075
 8905SOL    HW238349   3.445   4.421   7.613 -1.5299 -1.9409 -0.9063
 8906SOL     OW38350   1.224   0.721   8.324  0.5827  0.3771  0.0711
 8906SOL    HW138351   1.239   0.638   8.370  1.5873  0.4350 -0.1486
 8906SOL    HW238352   1.296   0.776   8.353  0.8435 -0.5285  1.1331
 8907SOL     OW38353   2.995   2.942   9.880  0.4517 -0.2810  0.3709
 8907SOL    HW138354   3.029   2.863   9.838 -1.1025  0.7861 -2.9071
 8907SOL    HW238355   2.951   2.908   9.958 -1.1031 -1.6730 -1.1073
 8908SOL     OW38356   4.642   1.103   3.642 -0.0238 -0.1235 -0.7297
 8908SOL    HW138357   4.571   1.047   3.674  0.3849  0.2044  0.7461
 8908SOL    HW238358   4.672   1.128   3.729  0.0287  1.7252 -1.2811
 8909SOL     OW38359   3.656   0.901   8.320 -0.5912 -0.4406 -0.0599
 8909SOL    HW138360   3.588   0.968   8.306 -1.2986 -1.1704 -0.1227
 8909SOL    HW238361   3.728   0.953   8.355  0.6057 -3.3714  1.8738
 8910SOL     OW38362   1.206   0.338   8.947  0.4417  0.1966 -0.6297
 8910SOL    HW138363   1.275   0.334   8.881  2.3760 -0.5882  1.4202
 8910SOL    HW238364   1.190   0.429   8.969 -1.5223 -0.4926  0.7813
 8911SOL     OW38365   2.795   1.508   7.977  0.3984  0.0323 -0.1778
 8911SOL    HW138366   2.709   1.471   8.000  1.0367 -1.1448  0.3169
 8911SOL    HW238367   2.850   1.435   8.007  0.0362  0.5996  1.9077
 8912SOL     OW38368   4.296   4.356   6.868  0.5076  0.5959  0.1789
 8912SOL    HW138369   4.340   4.368   6.952 -0.9342  0.0900  1.0047
 8912SOL    HW238370   4.279   4.262   6.876  0.7283  0.4085 -1.5657
 8913SOL     OW38371   2.120   3.565   6.836  0.3634  0.3502  0.7637
 8913SOL    HW138372   2.061   3.527   6.771 -0.2270 -1.3560  2.3070
 8913SOL    HW238373   2.169   3.628   6.782  0.2535  0.5992  0.9553
 8914SOL     OW38374   4.710   0.458   2.358 -0.3009  0.1680 -0.6526
 8914SOL    HW138375   4.711   0.369   2.322 -0.9349  0.1149 -0.5383
 8914SOL    HW238376   4.633   0.499   2.317 -0.7793  1.3620  1.4523
 8915SOL     OW38377   0.188   1.914  13.040 -0.5628 -0.5555 -0.0352
 8915SOL    HW138378   0.258   1.970  13.006 -1.7678  0.7506 -0.3625
 8915SOL    HW238379   0.154   1.879  12.958  1.0453 -2.3662  0.0760
 8916SOL     OW38380   0.538   4.543   8.172 -0.0004  0.6072 -0.2059
 8916SOL    HW138381   0.444   4.546   8.190 -0.0644 -3.3998  0.2007
 8916SOL    HW238382   0.563   4.633   8.150  1.5482 -0.2936 -2.0996
 8917SOL     OW38383   1.815   1.800   7.815  0.5069 -0.7866 -0.0759
 8917SOL    HW138384   1.862   1.747   7.750 -0.1389 -0.8504 -0.4967
 8917SOL    HW238385   1.870   1.878   7.825 -2.3508  1.2171  0.1111
 8918SOL     OW38386   3.981   1.800  17.104  0.0140 -0.1232  0.0249
 8918SOL    HW138387   4.053   1.859  17.084 -0.1027 -0.2617 -0.7852
 8918SOL    HW238388   3.920   1.849  17.159  1.6956  0.5163  1.3304
 8919SOL     OW38389   1.979   0.805   6.416  0.2216 -0.5131  0.1996
 8919SOL    HW138390   1.903   0.750   6.395  0.6877 -0.1744 -2.3620
 8919SOL    HW238391   2.046   0.750   6.375  1.0898  0.9625 -0.3381
 8920SOL     OW38392   3.272   2.033   5.846  0.0147 -0.1740 -0.7165
 8920SOL    HW138393   3.349   2.006   5.795  1.5849  1.8750  0.5910
 8920SOL    HW238394   3.235   1.948   5.871 -2.8769  1.4290  0.3696
 8921SOL     OW38395   3.514   0.112   8.647 -0.1381 -0.0697 -0.1794
 8921SOL    HW138396   3.420   0.104   8.664  0.4601  0.2620  3.3189
 8921SOL    HW238397   3.547   0.193   8.685  1.8697 -0.3221 -1.3860
 8922SOL     OW38398   3.357   0.171   4.311  0.0256  0.1390  0.0756
 8922SOL    HW138399   3.322   0.082   4.302  2.7680 -0.8578 -0.6291
 8922SOL    HW238400   3.388   0.185   4.222  0.5822  0.1387  0.2700
 8923SOL     OW38401   3.190   3.132   3.912  0.2309  0.3095 -0.8844
 8923SOL    HW138402   3.138   3.052   3.919 -0.9274  1.1680  0.2482
 8923SOL    HW238403   3.270   3.106   3.959 -1.1332 -1.2751  0.5431
 8924SOL     OW38404   4.244   1.334   1.628 -0.3702 -0.4172  0.3736
 8924SOL    HW138405   4.222   1.241   1.638 -0.2810 -0.5950 -1.0274
 8924SOL    HW238406   4.234   1.365   1.718 -1.2013  3.0779 -0.9293
 8925SOL     OW38407   0.297   3.166   7.398 -0.2441  0.3466 -0.5552
 8925SOL    HW138408   0.314   3.157   7.304  1.6894 -0.3299 -0.1444
 8925SOL    HW238409   0.275   3.078   7.430  2.3851  0.3939  1.3683
 8926SOL     OW38410   2.959   1.720   5.689  0.1801  0.3838  0.2587
 8926SOL    HW138411   2.899   1.761   5.626 -0.8456 -1.3126  0.1547
 8926SOL    HW238412   2.941   1.629   5.666  0.7225  1.0737 -2.9881
 8927SOL     OW38413   3.973   0.101  12.282  0.2597 -0.6235 -0.2187
 8927SOL    HW138414   4.035   0.028  12.284  1.3803  0.3793  1.3381
 8927SOL    HW238415   3.977   0.123  12.375  0.0612  1.0769 -0.6113
 8928SOL     OW38416   1.704   2.009   6.477  0.2093  0.0998 -1.0623
 8928SOL    HW138417   1.623   2.043   6.438 -0.0699  1.0393  0.3562
 8928SOL    HW238418   1.710   2.068   6.552  2.0161 -0.8508 -0.4608
 8929SOL     OW38419   1.132   3.167   2.355  0.6257  0.5523 -0.2292
 8929SOL    HW138420   1.135   3.199   2.445 -1.9439  1.5224 -0.5008
 8929SOL    HW238421   1.216   3.204   2.326  0.3454  0.9396 -0.5401
 8930SOL     OW38422   4.292   3.598   3.727  0.2397  0.8071  0.5072
 8930SOL    HW138423   4.348   3.600   3.649  1.1510 -0.8303  1.1347
 8930SOL    HW238424   4.327   3.529   3.783 -1.0248  0.0253  0.3366
 8931SOL     OW38425   1.736   3.175   2.494  0.1543 -0.0185 -0.1686
 8931SOL    HW138426   1.755   3.263   2.462  2.1491  0.2391  1.7331
 8931SOL    HW238427   1.780   3.119   2.429 -0.4481 -0.2332 -0.3966
 8932SOL     OW38428   4.046   1.724   2.648 -0.6163 -0.0398  0.0536
 8932SOL    HW138429   3.968   1.771   2.620  0.4240  1.2374 -0.7359
 8932SOL    HW238430   4.011   1.649   2.601 -1.5699 -1.6940  3.4320
 8933SOL     OW38431   2.317   1.875  12.762 -0.2778  0.2608 -0.5925
 8933SOL    HW138432   2.358   1.924  12.834 -0.1786 -1.6784  0.6593
 8933SOL    HW238433   2.256   1.819  12.809 -0.8538  0.0801 -1.5606
 8934SOL     OW38434   0.464   3.761   7.567  0.2131 -0.1987 -0.2336
 8934SOL    HW138435   0.537   3.780   7.625 -0.9543 -1.5091  1.6577
 8934SOL    HW238436   0.467   3.666   7.559  0.0905 -0.2669  0.5478
 8935SOL     OW38437   3.761   0.248   1.687  0.3935 -0.4335  0.0870
 8935SOL    HW138438   3.842   0.217   1.645 -0.6381  1.4346 -3.2355
 8935SOL    HW238439   3.741   0.325   1.634  1.7087 -0.2674 -0.1816
 8936SOL     OW38440   3.483   1.836   1.524  0.3606  0.0136  0.6554
 8936SOL    HW138441   3.387   1.840   1.525  0.3841  0.9347 -0.9933
 8936SOL    HW238442   3.499   1.843   1.430 -3.1574  0.9903  0.1226
 8937SOL     OW38443   3.478   2.269   4.320  0.0455  0.2907 -0.5816
 8937SOL    HW138444   3.447   2.269   4.411  1.2043 -0.9029 -0.1810
 8937SOL    HW238445   3.433   2.336   4.269  0.6195  0.9210 -0.2557
 8938SOL     OW38446   1.373   1.632   6.565 -0.1283 -0.1271  0.2909
 8938SOL    HW138447   1.301   1.569   6.565  1.5989 -2.0855  0.5420
 8938SOL    HW238448   1.316   1.709   6.565  0.1489  0.0761 -0.0485
 8939SOL     OW38449   1.968   4.205  12.626 -0.3564  0.4958 -0.0768
 8939SOL    HW138450   2.006   4.292  12.633  0.5466 -0.0014  1.2565
 8939SOL    HW238451   1.877   4.233  12.621 -0.6491 -0.5397 -0.5919
 8940SOL     OW38452   0.846   3.169   3.136  0.2171  0.2044  0.6291
 8940SOL    HW138453   0.773   3.141   3.081  1.0746 -1.1366  0.1981
 8940SOL    HW238454   0.847   3.264   3.122  2.4568 -0.2526 -2.2091
 8941SOL     OW38455   0.507   0.399   6.258 -0.2610 -0.1478  0.0580
 8941SOL    HW138456   0.473   0.365   6.341  1.8833  1.6064  1.6810
 8941SOL    HW238457   0.587   0.346   6.258  0.5307  1.0918 -2.1397
 8942SOL     OW38458   3.104   1.770  13.802 -0.6531 -0.2090  0.4594
 8942SOL    HW138459   3.077   1.850  13.756  0.6163  0.5109  0.9528
 8942SOL    HW238460   3.032   1.710  13.780  0.3444 -1.7629  1.5317
 8943SOL     OW38461   4.155   3.161  12.709  0.0579  0.1518 -0.4271
 8943SOL    HW138462   4.079   3.107  12.727 -0.0883  1.1726  2.0913
 8943SOL    HW238463   4.111   3.242  12.733 -0.5724 -0.4206  0.3214
 8944SOL     OW38464   3.076   0.595   9.062  0.1722 -0.2772  0.2725
 8944SOL    HW138465   2.994   0.633   9.033  0.2853  1.4233  2.1864
 8944SOL    HW238466   3.064   0.623   9.153  1.8595 -0.0495  0.4292
 8945SOL     OW38467   2.463   4.644   5.340 -0.5361  0.3436  0.2708
 8945SOL    HW138468   2.424   4.680   5.261 -0.6747  0.2536  0.2975
 8945SOL    HW238469   2.552   4.677   5.343 -0.5185  0.3852 -0.7191
 8946SOL     OW38470   2.861   1.037   8.147 -0.1854  0.6870  0.2119
 8946SOL    HW138471   2.914   0.957   8.144 -1.5342 -0.1221 -2.2488
 8946SOL    HW238472   2.886   1.083   8.226 -3.1471 -0.7841  1.9947
 8947SOL     OW38473   3.564   4.729   2.741  0.1592  0.0235 -0.0199
 8947SOL    HW138474   3.571   0.086   2.758  2.4957 -0.0363 -0.7143
 8947SOL    HW238475   3.555   4.735   2.646  3.8288  1.5111 -0.2826
 8948SOL     OW38476   4.118   0.094   5.632  0.7699  0.2847  0.1265
 8948SOL    HW138477   4.072   0.011   5.617 -2.2071  2.0780 -0.5751
 8948SOL    HW238478   4.118   0.134   5.545  0.1271 -0.6356 -0.2988
 8949SOL     OW38479   3.748   2.632   6.615  0.8034  0.0681  0.1019
 8949SOL    HW138480   3.729   2.707   6.559  1.2310  0.9255  1.1086
 8949SOL    HW238481   3.837   2.659   6.634  0.6831 -0.5657  1.5655
 8950SOL     OW38482   0.595   4.110  16.473  0.3784  0.0849  0.1789
 8950SOL    HW138483   0.636   4.069  16.397 -1.6582 -1.8042  0.0869
 8950SOL    HW238484   0.522   4.160  16.437  1.1949  2.2282  1.4937
 8951SOL     OW38485   1.027   4.622   6.914  0.1886  0.0554  0.4986
 8951SOL    HW138486   1.120   4.634   6.893  0.0881 -0.0368 -0.0036
 8951SOL    HW238487   1.034   4.550   6.976 -2.1849 -0.6869 -0.0985
 8952SOL     OW38488   1.676   1.368   8.030  0.4137 -0.0181  0.3032
 8952SOL    HW138489   1.679   1.426   8.106  3.1620  0.8047 -0.4274
 8952SOL    HW238490   1.695   1.284   8.071 -1.8504  0.5537  2.5178
 8953SOL     OW38491   1.442   0.206   4.324  0.3467 -0.6145 -0.0070
 8953SOL    HW138492   1.471   0.127   4.279 -0.0437 -1.6472  1.5240
 8953SOL    HW238493   1.348   0.199   4.342  0.4934 -1.6719  0.3704
 8954SOL     OW38494   3.012   2.017  17.159  0.2945  0.1016  0.5308
 8954SOL    HW138495   3.104   2.024  17.133  0.3653  0.9188  0.9919
 8954SOL    HW238496   2.974   2.086  17.106  0.8351  0.7607  0.9972
 8955SOL     OW38497   3.523   0.385   8.775  0.2213 -0.2866 -0.2886
 8955SOL    HW138498   3.552   0.401   8.685  1.2850  0.1340  0.1253
 8955SOL    HW238499   3.574   0.451   8.821  0.8309 -1.2681  0.4446
 8956SOL     OW38500   0.229   0.053   5.728 -0.0311  0.1001 -0.1742
 8956SOL    HW138501   0.213   0.071   5.635 -0.6953  0.2659 -0.0257
 8956SOL    HW238502   0.138   0.066   5.755  0.0857  0.4181  0.0647
 8957SOL     OW38503   1.006   1.688   1.115  0.2947 -0.0433  0.3969
 8957SOL    HW138504   1.088   1.686   1.164  0.6363  2.2660 -0.0449
 8957SOL    HW238505   0.939   1.697   1.184  0.3684 -1.1518  0.6105
 8958SOL     OW38506   4.478   3.419   3.840  0.1740  0.1243 -0.2282
 8958SOL    HW138507   4.528   3.392   3.917 -1.4129 -3.1856 -0.3511
 8958SOL    HW238508   4.428   3.338   3.831  1.6036 -0.6772 -0.8421
 8959SOL     OW38509   4.531   4.104   7.062 -0.1043 -0.4004 -0.1867
 8959SOL    HW138510   4.510   4.052   6.985 -1.4299  1.0483 -0.7933
 8959SOL    HW238511   4.562   4.033   7.119  0.6002  0.9188  1.0794
 8960SOL     OW38512   1.813   0.082  16.659 -0.0659 -0.1337 -0.4410
 8960SOL    HW138513   1.795   0.120  16.745  0.2039 -2.7510  0.7765
 8960SOL    HW238514   1.832   0.159  16.606 -1.6622  1.1440  0.8787
 8961SOL     OW38515   0.070   1.458   8.198 -0.6422 -0.1919 -0.0013
 8961SOL    HW138516   0.004   1.499   8.142 -0.6451 -0.4290 -0.1724
 8961SOL    HW238517   0.110   1.384   8.153  0.8689  0.5360  0.1345
 8962SOL     OW38518   1.621   0.314   5.613 -0.0826 -0.5180  0.2603
 8962SOL    HW138519   1.612   0.376   5.541  1.3867  1.4493  1.7631
 8962SOL    HW238520   1.537   0.305   5.657  0.1734 -1.0804  0.6383
 8963SOL     OW38521   1.946   1.634   4.814  0.3088 -0.5088 -0.5515
 8963SOL    HW138522   1.896   1.664   4.890 -0.5966 -0.4702 -1.1628
 8963SOL    HW238523   2.037   1.658   4.834  1.4668 -2.6977 -3.1573
 8964SOL     OW38524   0.863   2.690  17.649 -0.0389  0.0702 -0.3248
 8964SOL    HW138525   0.929   2.641  17.699 -0.1959 -0.1916 -0.3735
 8964SOL    HW238526   0.823   2.615  17.605  1.9042 -0.2651 -1.5469
 8965SOL     OW38527   0.910   2.415   1.480 -0.1809  0.0587 -0.1935
 8965SOL    HW138528   0.837   2.365   1.517  0.9730 -0.6962  1.0328
 8965SOL    HW238529   0.991   2.390   1.523  1.1001  0.8978 -2.1107
 8966SOL     OW38530   2.613   3.090   7.016  0.0998  0.0686 -0.7675
 8966SOL    HW138531   2.599   3.001   7.048 -0.5536  1.5396  3.0609
 8966SOL    HW238532   2.579   3.136   7.093 -2.3341 -1.4084 -0.9778
 8967SOL     OW38533   2.979   0.972  14.372 -0.5404 -0.5198 -0.5339
 8967SOL    HW138534   2.994   0.972  14.277 -0.6709 -2.0614 -0.5532
 8967SOL    HW238535   2.921   1.048  14.367 -0.5105 -0.4289  0.5499
 8968SOL     OW38536   2.793   2.611  10.274  0.2706  0.3151  0.0047
 8968SOL    HW138537   2.704   2.579  10.288 -0.2191  0.5950 -2.5075
 8968SOL    HW238538   2.837   2.593  10.357  0.1622 -2.4843 -0.5495
 8969SOL     OW38539   2.797   1.620   8.694  0.0551 -0.3208  0.5596
 8969SOL    HW138540   2.770   1.579   8.777 -1.1916  0.6059  0.6068
 8969SOL    HW238541   2.757   1.706   8.708 -1.3111 -0.9754  0.6820
 8970SOL     OW38542   0.006   4.551   3.758  0.1430 -0.3081  0.3950
 8970SOL    HW138543   0.043   4.466   3.737  1.3092  0.2085  0.3875
 8970SOL    HW238544   4.689   4.538   3.836 -0.4714 -2.9203 -0.4915
 8971SOL     OW38545   3.329   2.385   8.984  0.7464 -0.0065  0.3209
 8971SOL    HW138546   3.419   2.353   8.977  1.4432  2.0604 -0.0750
 8971SOL    HW238547   3.281   2.332   9.049 -1.4528 -0.7289 -1.8759
 8972SOL     OW38548   2.536   0.281   7.037 -0.6288 -0.4502  0.0585
 8972SOL    HW138549   2.584   0.262   7.118  1.5157  0.7010 -0.9497
 8972SOL    HW238550   2.449   0.277   7.075 -0.8159 -0.9514 -0.4144
 8973SOL     OW38551   2.736   1.761  12.375  0.2645  0.0214 -0.0569
 8973SOL    HW138552   2.694   1.843  12.347 -1.2128 -0.8784 -0.4988
 8973SOL    HW238553   2.752   1.705  12.299 -0.6726 -0.4794  0.1151
 8974SOL     OW38554   2.585   0.419   2.954  0.7209 -0.5147  0.1138
 8974SOL    HW138555   2.616   0.489   2.897 -0.7741  0.4177  0.4547
 8974SOL    HW238556   2.639   0.342   2.936  1.0776 -0.1689 -0.3049
 8975SOL     OW38557   3.014   1.501   4.674  0.5493  1.0155 -0.1271
 8975SOL    HW138558   3.017   1.562   4.600 -0.2433  0.3134 -0.7388
 8975SOL    HW238559   3.032   1.562   4.745  1.1906  0.3468  0.2809
 8976SOL     OW38560   4.288   3.579  12.411 -0.1749 -0.0375  0.2162
 8976SOL    HW138561   4.270   3.673  12.409  2.8030  0.5148 -0.0119
 8976SOL    HW238562   4.271   3.545  12.323  0.7327  0.5762 -0.1935
 8977SOL     OW38563   1.556   1.180   3.389 -0.7484  0.5127 -0.0760
 8977SOL    HW138564   1.530   1.272   3.395  0.8326  0.9713 -0.2437
 8977SOL    HW238565   1.566   1.167   3.294 -0.8232  0.1277 -0.0304
 8978SOL     OW38566   3.969   3.611   4.326  0.5137 -0.7274  0.5364
 8978SOL    HW138567   3.881   3.647   4.313  0.5480 -0.7045  0.3773
 8978SOL    HW238568   3.968   3.603   4.422  0.0588  0.4585  0.6335
 8979SOL     OW38569   2.046   0.781   2.844 -0.0365  0.1284  0.3609
 8979SOL    HW138570   2.062   0.686   2.838 -0.2042  0.2501 -1.7008
 8979SOL    HW238571   2.134   0.817   2.834  0.5591 -1.3198  0.3027
 8980SOL     OW38572   1.208   0.766   8.061  0.4497 -0.5219  0.1125
 8980SOL    HW138573   1.191   0.730   8.149 -0.9665  1.3238  0.6209
 8980SOL    HW238574   1.175   0.698   8.003 -0.3555  0.3310 -0.4381
 8981SOL     OW38575   4.336   3.041   2.648 -0.3140 -0.3799  0.5549
 8981SOL    HW138576   4.396   3.076   2.582 -2.0327  0.7026 -0.4368
 8981SOL    HW238577   4.352   2.947   2.644 -2.3123 -0.6590 -0.6260
 8982SOL     OW38578   0.360   3.349   0.927  0.0940  0.2792  0.0881
 8982SOL    HW138579   0.278   3.387   0.957  0.0766  0.6690 -0.4681
 8982SOL    HW238580   0.334   3.289   0.858  1.9516  1.6889 -1.8241
 8983SOL     OW38581   4.516   3.061   8.816  0.3764  0.1289 -0.1646
 8983SOL    HW138582   4.528   3.155   8.826  2.3867  0.0225 -1.5743
 8983SOL    HW238583   4.421   3.050   8.821  0.4995 -1.3414 -0.9829
 8984SOL     OW38584   2.169   2.258  10.251 -0.1821 -0.4400 -0.0732
 8984SOL    HW138585   2.189   2.324  10.318  0.7297  1.5040 -2.2469
 8984SOL    HW238586   2.216   2.294  10.175 -0.3587 -1.5918 -0.7179
 8985SOL     OW38587   2.887   0.225  15.009  0.3899  0.3760  0.1117
 8985SOL    HW138588   2.842   0.144  15.034 -0.9189  1.1473  0.1912
 8985SOL    HW238589   2.809   0.280  15.018  0.3968  0.4232 -0.1113
 8986SOL     OW38590   0.321   1.841   3.663 -0.2455  0.4648  0.3200
 8986SOL    HW138591   0.290   1.811   3.748  1.2478  2.1798  1.4672
 8986SOL    HW238592   0.330   1.936   3.667 -0.0229  0.4890 -0.6434
 8987SOL     OW38593   0.473   3.559   4.146 -0.1696  0.1027  0.2317
 8987SOL    HW138594   0.406   3.564   4.214  1.8586  2.3352  2.0566
 8987SOL    HW238595   0.438   3.499   4.080  0.9968 -0.4076  0.0920
 8988SOL     OW38596   2.904   4.059   4.284  0.0746  0.4996 -0.0077
 8988SOL    HW138597   2.947   4.065   4.199  0.9573 -1.2247  0.3065
 8988SOL    HW238598   2.851   4.137   4.272 -1.0397 -0.4414 -1.1957
 8989SOL     OW38599   1.150   2.666   6.408 -0.3771  0.2147  0.1378
 8989SOL    HW138600   1.091   2.698   6.476  0.8411 -2.2019  2.3126
 8989SOL    HW238601   1.103   2.705   6.334 -0.6674  0.6094  0.5282
 8990SOL     OW38602   2.697   3.381   5.651 -0.4483  0.2037  0.0040
 8990SOL    HW138603   2.747   3.319   5.704  0.9028  0.6870 -0.6932
 8990SOL    HW238604   2.724   3.377   5.559  2.4141  1.3376  0.7796
 8991SOL     OW38605   1.227   1.818   1.222  0.7269  0.3007 -0.2472
 8991SOL    HW138606   1.158   1.879   1.247  1.4922  0.4955  1.3982
 8991SOL    HW238607   1.222   1.762   1.300  0.0751 -1.2660 -1.4158
 8992SOL     OW38608   2.879   4.334   3.503  0.1610  0.1555  0.3155
 8992SOL    HW138609   2.827   4.411   3.528  0.6796  0.9558 -1.0870
 8992SOL    HW238610   2.842   4.270   3.564  0.1544  0.9617  1.1622
 8993SOL     OW38611   0.240   4.066   9.626 -0.0592  0.0557  0.0698
 8993SOL    HW138612   0.245   4.120   9.546 -0.7453  0.1371  0.0755
 8993SOL    HW238613   0.146   4.049   9.626  0.0699 -0.6745 -1.7608
 8994SOL     OW38614   4.323   0.362   3.912 -0.5862 -0.4475 -0.3022
 8994SOL    HW138615   4.245   0.308   3.924  0.4737 -1.5477  1.6479
 8994SOL    HW238616   4.384   0.302   3.953  0.4065  1.9161  1.6691
 8995SOL     OW38617   2.953   0.987   8.556  0.2877 -0.0545 -0.4822
 8995SOL    HW138618   2.879   0.949   8.602  0.4798  0.1415 -0.0166
 8995SOL    HW238619   3.029   0.944   8.596 -1.9939 -4.3017 -0.6482
 8996SOL     OW38620   0.334   3.018   6.546  0.1047 -0.3024 -0.0616
 8996SOL    HW138621   0.298   3.065   6.470  1.3033 -0.2225 -0.5915
 8996SOL    HW238622   0.263   2.959   6.570 -0.1824  0.0970  0.0658
 8997SOL     OW38623   2.608   0.546  14.582  0.4844 -1.0360 -0.1528
 8997SOL    HW138624   2.577   0.531  14.492  2.5658 -0.9413 -0.8898
 8997SOL    HW238625   2.588   0.639  14.591  0.7679 -0.9464 -0.4237
 8998SOL     OW38626   4.258   0.432  16.736 -0.3992 -0.2012  0.1609
 8998SOL    HW138627   4.234   0.517  16.700  1.4665  0.0753 -0.4357
 8998SOL    HW238628   4.329   0.408  16.677  1.6707  1.8484  1.8082
 8999SOL     OW38629   1.644   2.076   0.706  0.0625 -0.2302 -0.0339
 8999SOL    HW138630   1.690   2.064   0.623  1.0176  0.9461  0.3212
 8999SOL    HW238631   1.555   2.089   0.674 -0.4741 -0.7452  1.2449
 9000SOL     OW38632   0.823   2.469  11.556 -0.2386  0.3259 -0.5473
 9000SOL    HW138633   0.877   2.548  11.547 -0.6004  0.9042  2.3755
 9000SOL    HW238634   0.888   2.411  11.597  0.6771  0.3743 -1.9070
 9001SOL     OW38635   2.351   3.603   1.036 -0.3429 -0.6127  0.4279
 9001SOL    HW138636   2.335   3.535   1.101 -1.6215 -0.9135 -0.2060
 9001SOL    HW238637   2.411   3.557   0.978 -0.9736 -2.7116  1.4318
 9002SOL     OW38638   1.662   4.651  13.194  0.2714 -0.0124 -0.0502
 9002SOL    HW138639   1.745   4.696  13.180 -0.1609  1.0536  0.7719
 9002SOL    HW238640   1.679   4.581  13.131 -0.5801  0.2427 -0.5725
 9003SOL     OW38641   3.367   3.824   5.226 -0.3554 -0.2311  0.5463
 9003SOL    HW138642   3.321   3.779   5.155 -0.9311  0.6565  0.3671
 9003SOL    HW238643   3.461   3.809   5.217 -0.4511  0.6699 -2.0099
 9004SOL     OW38644   0.178   1.187   4.821 -0.3917 -0.3492 -0.9959
 9004SOL    HW138645   0.214   1.099   4.824 -1.2015 -0.6735 -0.6502
 9004SOL    HW238646   0.142   1.178   4.733 -1.3502 -1.4461 -0.4936
 9005SOL     OW38647   0.183   1.432  12.112  0.4975  0.2216 -0.3480
 9005SOL    HW138648   0.103   1.473  12.080 -0.1715 -0.2972  0.6807
 9005SOL    HW238649   0.241   1.505  12.088  0.5088 -0.1125 -1.3339
 9006SOL     OW38650   3.078   3.032  11.214  0.5191 -0.6526 -0.6083
 9006SOL    HW138651   2.985   3.029  11.191  0.7255 -2.7144 -1.1783
 9006SOL    HW238652   3.118   3.060  11.132  0.4386  1.8586  0.2187
 9007SOL     OW38653   3.781   2.923  11.860  0.1534 -0.2277 -0.8112
 9007SOL    HW138654   3.772   2.829  11.876  1.3622 -0.1256  0.4640
 9007SOL    HW238655   3.690   2.950  11.875  0.5064  1.5077 -1.8121
 9008SOL     OW38656   1.156   3.477   6.609  0.0015  0.1429  0.0903
 9008SOL    HW138657   1.184   3.565   6.634  0.6382  0.0808 -0.4064
 9008SOL    HW238658   1.153   3.438   6.697 -1.9346 -1.8023 -0.8248
 9009SOL     OW38659   2.334   3.663  16.932 -0.5298  0.2837  0.0747
 9009SOL    HW138660   2.361   3.695  17.018 -1.3793 -0.8511  0.7601
 9009SOL    HW238661   2.320   3.746  16.886 -2.5714  0.4197  0.9631
 9010SOL     OW38662   4.445   0.855   1.907 -0.2094  0.2101 -0.3350
 9010SOL    HW138663   4.363   0.857   1.858  0.5666  1.2473 -1.5687
 9010SOL    HW238664   4.409   0.864   1.995 -1.0982  0.1449 -0.6969
 9011SOL     OW38665   3.327   0.930   3.974 -0.0025 -0.7158 -0.0767
 9011SOL    HW138666   3.321   0.909   4.067  2.5229  0.4819  0.3513
 9011SOL    HW238667   3.233   0.946   3.967  0.3713  1.7473  0.6661
 9012SOL     OW38668   2.201   3.245   2.918  0.4661 -0.5832 -0.4245
 9012SOL    HW138669   2.146   3.170   2.896 -2.0135  0.3730  2.4713
 9012SOL    HW238670   2.208   3.286   2.832 -0.0160  0.8469  0.2142
 9013SOL     OW38671   1.072   1.406   4.910 -1.0156  0.1485 -0.2814
 9013SOL    HW138672   1.083   1.311   4.911  0.2021  0.2806 -1.0343
 9013SOL    HW238673   1.018   1.423   4.987 -0.4836  4.0718 -0.7745
 9014SOL     OW38674   4.678   4.573   2.667 -0.9720  0.3652 -0.5764
 9014SOL    HW138675   4.682   4.511   2.594  0.7703  0.1753 -0.3252
 9014SOL    HW238676   0.032   4.582   2.693 -0.9375 -0.2819 -0.4826
 9015SOL     OW38677   4.731   0.676   7.131  0.1010 -0.4953  0.0230
 9015SOL    HW138678   0.018   0.646   7.219 -1.6598  2.6421  1.6136
 9015SOL    HW238679   4.638   0.694   7.139 -0.1400 -1.0214 -1.6637
 9016SOL     OW38680   3.524   2.253   9.880  0.4861 -0.5480 -0.1867
 9016SOL    HW138681   3.607   2.247   9.927  1.1491 -0.2211 -1.3223
 9016SOL    HW238682   3.514   2.159   9.864 -0.5796 -0.2425 -1.3227
 9017SOL     OW38683   0.279   2.527   3.118 -0.2940 -0.7428 -0.0994
 9017SOL    HW138684   0.265   2.514   3.024  2.1296  0.0850 -0.5905
 9017SOL    HW238685   0.206   2.473   3.147  1.0485 -2.8940 -0.6802
 9018SOL     OW38686   0.108   2.937   5.438 -0.1912  0.1250  0.0467
 9018SOL    HW138687   0.147   2.973   5.518  1.1221  0.2119 -0.6333
 9018SOL    HW238688   0.141   2.998   5.372  1.7285 -0.4211  0.4958
 9019SOL     OW38689   3.315   4.292  14.324 -0.0024  0.3813  0.6944
 9019SOL    HW138690   3.307   4.243  14.242  0.0714 -0.1202  0.9870
 9019SOL    HW238691   3.343   4.226  14.387 -0.3326 -0.1812  0.2480
 9020SOL     OW38692   0.092   3.464   3.785 -0.8105  0.1547 -0.3374
 9020SOL    HW138693   0.023   3.529   3.786  1.2688  2.3698 -0.0496
 9020SOL    HW238694   0.151   3.516   3.841 -2.2922  1.3926  0.0544
 9021SOL     OW38695   4.605   1.600   7.982 -0.0324 -0.5528  0.2447
 9021SOL    HW138696   4.675   1.662   7.962 -1.5436  0.9294 -0.4201
 9021SOL    HW238697   4.531   1.634   7.932 -0.7741 -0.0281  1.6975
 9022SOL     OW38698   1.393   1.547   8.123  0.1742  0.5525  0.3150
 9022SOL    HW138699   1.460   1.547   8.192 -0.9925 -1.9330  1.4732
 9022SOL    HW238700   1.356   1.635   8.130  1.2742  1.0947 -0.6496
 9023SOL     OW38701   1.976   1.162   7.490 -0.2792  0.2377 -0.0864
 9023SOL    HW138702   2.033   1.223   7.538  1.3757 -1.2445 -0.1456
 9023SOL    HW238703   2.044   1.124   7.433 -0.0025  0.6533 -0.0332
 9024SOL     OW38704   2.718   3.300   1.450 -0.1273  0.1847  0.3440
 9024SOL    HW138705   2.725   3.305   1.355 -0.1562 -1.2832  0.2619
 9024SOL    HW238706   2.794   3.350   1.481  0.8067 -0.2466 -1.2151
 9025SOL     OW38707   4.519   4.316  11.818 -0.1016  0.3547  0.2660
 9025SOL    HW138708   4.428   4.314  11.790  0.2903 -2.8404 -0.8299
 9025SOL    HW238709   4.506   4.336  11.911  2.6147  1.4077  0.4213
 9026SOL     OW38710   3.652   0.624   8.848 -0.8120 -0.4752 -0.2897
 9026SOL    HW138711   3.661   0.695   8.785 -0.8910  0.9893  1.3656
 9026SOL    HW238712   3.574   0.654   8.895 -0.6131 -0.5986  0.1186
 9027SOL     OW38713   3.740   2.145   2.716  0.4083  0.0973  0.2519
 9027SOL    HW138714   3.781   2.126   2.800 -1.6520  0.0154  1.2431
 9027SOL    HW238715   3.749   2.239   2.701 -0.3223  0.0223 -0.7248
 9028SOL     OW38716   2.638   1.844   9.849 -0.3212  0.0946 -0.0170
 9028SOL    HW138717   2.638   1.748   9.851 -2.7606  0.0851 -0.2820
 9028SOL    HW238718   2.707   1.874   9.908 -0.3803  1.5897 -0.6992
 9029SOL     OW38719   1.107   1.503  16.048  0.0642 -0.7868  0.2430
 9029SOL    HW138720   1.142   1.487  16.136 -1.8382  2.0106  1.4871
 9029SOL    HW238721   1.191   1.507  16.001 -1.6768 -0.6416 -2.8104
 9030SOL     OW38722   2.161   4.021   8.375 -0.4256 -0.5356 -0.2923
 9030SOL    HW138723   2.239   4.062   8.338 -0.0085 -1.6620 -0.6648
 9030SOL    HW238724   2.170   4.034   8.469  0.1696  1.3005 -0.5854
 9031SOL     OW38725   0.349   0.577   4.424 -0.3538  0.2167 -0.8809
 9031SOL    HW138726   0.379   0.664   4.399 -0.5085 -0.0330 -1.9187
 9031SOL    HW238727   0.262   0.579   4.385 -1.2469 -0.6058  1.0308
 9032SOL     OW38728   2.200   1.785   8.699 -0.0676 -0.0076  0.2166
 9032SOL    HW138729   2.164   1.868   8.670 -0.4609  0.0365  0.8371
 9032SOL    HW238730   2.200   1.800   8.793  1.2913  1.7298 -0.0704
 9033SOL     OW38731   1.056   3.192  11.639  0.0675  0.5896  0.0299
 9033SOL    HW138732   1.033   3.278  11.605  2.4726  0.3564 -2.1999
 9033SOL    HW238733   1.057   3.211  11.733  1.1969  0.2487  0.0965
 9034SOL     OW38734   3.258   2.790   3.415 -0.0088  0.0367  0.5183
 9034SOL    HW138735   3.323   2.727   3.383 -0.8915 -1.3769  1.5054
 9034SOL    HW238736   3.187   2.760   3.358 -1.5014  2.0198  1.3475
 9035SOL     OW38737   0.917   4.429  15.832  0.6560  0.4217 -0.1249
 9035SOL    HW138738   0.967   4.434  15.913 -4.4051  2.3160  2.8213
 9035SOL    HW238739   0.879   4.342  15.841  2.0530 -0.3307 -1.4926
 9036SOL     OW38740   4.419   0.603  11.891  0.2972  0.0494 -0.1137
 9036SOL    HW138741   4.363   0.537  11.850 -1.5482  2.2140 -1.0553
 9036SOL    HW238742   4.456   0.647  11.814 -2.1312 -0.2545 -1.4524
 9037SOL     OW38743   3.294   4.489   5.433  0.6471 -0.3411  0.0396
 9037SOL    HW138744   3.269   4.491   5.341  0.4544  1.0830  0.1220
 9037SOL    HW238745   3.331   4.401   5.438 -0.7521 -0.9402  0.0275
 9038SOL     OW38746   3.144   4.099   3.693 -0.7555 -0.0637 -0.8492
 9038SOL    HW138747   3.230   4.080   3.655  0.0008  1.2437  0.1799
 9038SOL    HW238748   3.120   4.024   3.748  0.0871  2.6453  3.2565
 9039SOL     OW38749   2.107   3.938   6.697  0.6799  0.2820 -0.3246
 9039SOL    HW138750   2.159   3.980   6.629 -0.4917  0.9673 -0.7932
 9039SOL    HW238751   2.144   3.851   6.685 -1.7487 -0.8045  0.1065
 9040SOL     OW38752   1.777   1.708   5.027  0.3575 -0.2791  0.3479
 9040SOL    HW138753   1.715   1.746   4.964  0.3887  0.1667  0.5804
 9040SOL    HW238754   1.720   1.669   5.093 -0.4552 -1.0052 -0.7942
 9041SOL     OW38755   0.663   2.332   6.703 -0.3107 -0.4372 -0.5439
 9041SOL    HW138756   0.716   2.278   6.762 -1.9823  0.3034  1.6259
 9041SOL    HW238757   0.601   2.363   6.769  0.5171 -0.9458  0.4717
 9042SOL     OW38758   4.466   2.768   5.122  0.4445 -0.0970 -0.4191
 9042SOL    HW138759   4.523   2.820   5.178  0.2819 -0.8771  0.4620
 9042SOL    HW238760   4.386   2.819   5.126 -0.8056 -2.0815  0.0254
 9043SOL     OW38761   0.151   4.711  16.870 -0.2243 -0.0069  0.2051
 9043SOL    HW138762   0.228   4.691  16.924  0.8472  1.3687 -0.7963
 9043SOL    HW238763   0.084   4.656  16.910  1.2083 -1.7599  0.1838
 9044SOL     OW38764   2.966   0.032   8.709 -0.3726  0.0925  0.4302
 9044SOL    HW138765   2.886   0.079   8.734 -0.2700  0.5195 -0.0433
 9044SOL    HW238766   2.990   4.713   8.782 -0.3953 -1.8822 -1.1113
 9045SOL     OW38767   3.869   2.405   4.984  0.2163  0.8882 -0.1046
 9045SOL    HW138768   3.959   2.437   4.991  0.2601  0.6185  0.5257
 9045SOL    HW238769   3.869   2.360   4.899  1.5947  0.9775 -0.1521
 9046SOL     OW38770   0.399   0.920   4.567  0.0396 -0.2648  0.1021
 9046SOL    HW138771   0.407   1.009   4.532 -2.2803  0.8793  2.4815
 9046SOL    HW238772   0.457   0.867   4.512 -1.8499 -1.9293 -0.3046
 9047SOL     OW38773   3.647   3.373  14.692  0.3883 -0.5991  0.3893
 9047SOL    HW138774   3.554   3.365  14.673  0.7192  1.0554 -1.9757
 9047SOL    HW238775   3.640   3.418  14.776  2.0143  1.1117 -0.3850
 9048SOL     OW38776   0.626   3.736  11.200  0.0102  0.6007  0.3638
 9048SOL    HW138777   0.605   3.795  11.273 -5.0681 -0.2791 -0.3515
 9048SOL    HW238778   0.601   3.652  11.239  1.6385  0.1063  0.3466
 9049SOL     OW38779   2.324   2.795   7.574 -0.2706 -0.0108 -0.3415
 9049SOL    HW138780   2.366   2.855   7.513  0.2885 -1.8281 -1.7481
 9049SOL    HW238781   2.407   2.773   7.617  0.0278  0.6736 -0.5703
 9050SOL     OW38782   3.955   3.381   7.544  0.5092 -0.0337 -0.1252
 9050SOL    HW138783   3.881   3.407   7.490 -0.6180  0.0603  1.4706
 9050SOL    HW238784   3.910   3.372   7.628  0.3994  0.0812 -0.1733
 9051SOL     OW38785   0.536   2.884  11.074  0.7133  0.1385  0.7435
 9051SOL    HW138786   0.490   2.940  11.012  1.1175  0.0591  0.3759
 9051SOL    HW238787   0.535   2.945  11.147 -0.6805  2.2889 -1.0739
 9052SOL     OW38788   0.221   1.923  12.429  0.3378  0.8567  0.6874
 9052SOL    HW138789   0.237   1.961  12.343 -0.9850  0.8954  0.4522
 9052SOL    HW238790   0.177   1.998  12.468 -2.3991  0.4691 -1.6476
 9053SOL     OW38791   2.296   2.180   3.582  0.6316 -0.2145 -0.2283
 9053SOL    HW138792   2.285   2.257   3.638 -0.9723  0.0050 -0.8396
 9053SOL    HW238793   2.387   2.162   3.605 -0.0215 -0.6109  2.0886
 9054SOL     OW38794   2.382   4.344   6.003  0.5783 -0.4785 -0.3935
 9054SOL    HW138795   2.333   4.423   6.026  0.0945 -0.6614 -0.7857
 9054SOL    HW238796   2.317   4.321   5.936  0.0072 -1.4024  0.4787
 9055SOL     OW38797   0.044   1.806  15.894 -0.0215  0.6647 -0.5594
 9055SOL    HW138798   0.021   1.782  15.804  0.8283 -0.5960 -0.4354
 9055SOL    HW238799   4.726   1.744  15.940  0.9760  1.2180  1.4026
 9056SOL     OW38800   2.322   4.160   8.184 -0.1593 -0.1578 -0.6492
 9056SOL    HW138801   2.378   4.115   8.121  1.1020 -0.1398  0.4643
 9056SOL    HW238802   2.248   4.168   8.123 -1.6330 -0.8190  1.0348
 9057SOL     OW38803   4.285   4.053  11.637  0.0280 -0.0214  0.4816
 9057SOL    HW138804   4.313   4.071  11.547 -1.4000 -2.4032 -0.4762
 9057SOL    HW238805   4.294   4.139  11.677 -0.7646  0.0759  0.4624
 9058SOL     OW38806   2.535   4.253   7.784 -1.1692  0.2209  0.4721
 9058SOL    HW138807   2.564   4.323   7.844  1.4891 -1.0303  0.6286
 9058SOL    HW238808   2.538   4.289   7.696 -1.8425  3.3007  1.7114
 9059SOL     OW38809   2.346   1.284   3.931  0.8027 -0.2474 -0.1356
 9059SOL    HW138810   2.346   1.225   3.856 -0.5122 -0.9422  0.3964
 9059SOL    HW238811   2.300   1.361   3.897 -0.0241 -0.8378 -0.3601
 9060SOL     OW38812   3.526   0.945   7.270  0.3646 -0.1697 -0.3204
 9060SOL    HW138813   3.527   0.855   7.240 -0.0648 -0.4262  0.4151
 9060SOL    HW238814   3.616   0.970   7.248  0.7534 -1.3785 -0.0831
 9061SOL     OW38815   0.711   3.757   6.989 -0.4853  0.2763  0.0170
 9061SOL    HW138816   0.748   3.828   6.936  1.0102 -1.2031 -0.8832
 9061SOL    HW238817   0.674   3.696   6.925  0.9314 -0.6400  0.0738
 9062SOL     OW38818   0.981   2.821   3.576 -0.1572 -0.1862 -0.0697
 9062SOL    HW138819   0.907   2.816   3.637  0.0510 -0.9535  0.1168
 9062SOL    HW238820   0.966   2.901   3.526 -1.2110  0.2926  0.9994
 9063SOL     OW38821   3.531   3.431   8.513  0.1061  0.0785  0.3040
 9063SOL    HW138822   3.498   3.368   8.578  1.5935  0.3542  1.3243
 9063SOL    HW238823   3.462   3.496   8.505  1.2853  0.9277 -2.6813
 9064SOL     OW38824   0.823   1.978   4.589 -0.3457  0.1953 -0.1462
 9064SOL    HW138825   0.792   2.009   4.504  1.8209  0.7024 -0.7550
 9064SOL    HW238826   0.885   1.906   4.575  0.3691  0.5930  0.9953
 9065SOL     OW38827   2.798   1.856   4.974 -0.1767 -0.4591 -0.0402
 9065SOL    HW138828   2.760   1.852   5.061  0.8635 -0.2743  0.4232
 9065SOL    HW238829   2.892   1.857   4.992 -0.0646 -0.8691 -0.6087
 9066SOL     OW38830   4.349   0.683  15.841 -0.0713  0.0269 -0.3894
 9066SOL    HW138831   4.341   0.661  15.748 -1.1262 -0.7893 -0.0982
 9066SOL    HW238832   4.317   0.603  15.881  0.6790 -0.9353 -1.7112
 9067SOL     OW38833   4.063   2.924   2.100  0.4232 -0.0498 -0.0624
 9067SOL    HW138834   4.153   2.905   2.128  0.7833 -2.6301 -2.9816
 9067SOL    HW238835   4.074   2.918   2.005  0.4700  1.7372 -0.1696
 9068SOL     OW38836   2.745   3.840   2.167 -0.6615  0.3455 -0.2256
 9068SOL    HW138837   2.832   3.874   2.147 -0.0975 -1.0201 -0.0678
 9068SOL    HW238838   2.703   3.913   2.213  0.7838  0.7425  0.4571
 9069SOL     OW38839   4.046   1.702  13.915 -0.9955 -0.0532  0.1106
 9069SOL    HW138840   4.128   1.730  13.875 -0.5345 -2.1811 -0.4130
 9069SOL    HW238841   4.006   1.788  13.930  3.1290  2.1042 -1.4586
 9070SOL     OW38842   0.548   0.562   9.939 -0.3688  0.7849  0.0840
 9070SOL    HW138843   0.624   0.592   9.888 -1.4073  1.9281 -0.8048
 9070SOL    HW238844   0.555   0.467   9.932  2.8729  0.8924  1.7597
 9071SOL     OW38845   0.366   0.286   2.432  0.7832  0.0602  0.2146
 9071SOL    HW138846   0.296   0.225   2.457 -1.4637  3.0511  1.2445
 9071SOL    HW238847   0.442   0.250   2.478  1.4358 -0.0915 -0.9925
 9072SOL     OW38848   4.023   4.294   7.113 -0.2032 -0.3724 -0.3459
 9072SOL    HW138849   4.006   4.262   7.024  1.6423 -0.7214 -0.5667
 9072SOL    HW238850   4.110   4.265   7.140 -0.0154 -0.0833 -0.6317
 9073SOL     OW38851   2.012   3.467   5.157 -0.1775 -0.1982 -0.3561
 9073SOL    HW138852   2.058   3.485   5.074 -0.4635  2.4385  0.0361
 9073SOL    HW238853   2.021   3.551   5.203  0.6557 -1.4203  1.6801
 9074SOL     OW38854   4.552   1.343   8.015  0.4729  0.1146 -0.0519
 9074SOL    HW138855   4.575   1.435   8.010  1.4580 -0.1401 -0.2595
 9074SOL    HW238856   4.617   1.302   7.958  0.3987 -1.4280  0.9870
 9075SOL     OW38857   3.243   1.711   0.859  0.2638  0.6252  0.3773
 9075SOL    HW138858   3.167   1.714   0.801  1.0962 -0.1249 -0.7469
 9075SOL    HW238859   3.257   1.802   0.884  0.2047  0.0882  2.3873
 9076SOL     OW38860   0.258   0.573   3.996 -0.3035  0.1477  0.7775
 9076SOL    HW138861   0.322   0.544   3.932  0.3240  1.6633  0.7264
 9076SOL    HW238862   0.212   0.493   4.023 -1.7821  1.4408  2.1247
 9077SOL     OW38863   2.953   3.239  11.628  0.6004  0.3890 -0.6381
 9077SOL    HW138864   2.929   3.148  11.612 -1.6976  0.7687  0.6708
 9077SOL    HW238865   3.015   3.254  11.557  0.9510  0.5217 -0.3057
 9078SOL     OW38866   4.575   3.152  13.388 -0.1867 -0.4993 -0.1801
 9078SOL    HW138867   4.582   3.139  13.294 -1.3823 -0.8280 -0.2197
 9078SOL    HW238868   4.634   3.081  13.412 -2.0562 -1.9117  0.1226
 9079SOL     OW38869   3.723   2.084   6.785 -0.6901  0.0434  0.4915
 9079SOL    HW138870   3.773   2.134   6.720 -2.8875  2.7901  0.8971
 9079SOL    HW238871   3.786   2.083   6.857 -0.0412 -0.4267 -0.0815
 9080SOL     OW38872   3.365   1.242   1.090 -0.4724 -0.1713  0.5125
 9080SOL    HW138873   3.435   1.225   1.027  0.1289  0.4450  1.0081
 9080SOL    HW238874   3.292   1.256   1.030 -0.0888 -2.5487 -0.5113
 9081SOL     OW38875   3.373   4.367   4.138 -0.0182  0.3828  0.1150
 9081SOL    HW138876   3.373   4.371   4.042 -1.0613  0.0319  0.0981
 9081SOL    HW238877   3.415   4.281   4.147  0.9256  0.8564  0.2450
 9082SOL     OW38878   1.311   2.506   4.238 -0.2255  0.3448  0.1019
 9082SOL    HW138879   1.289   2.571   4.305 -0.1534 -0.1219  0.5767
 9082SOL    HW238880   1.254   2.534   4.166 -1.3380 -1.7894  0.1468
 9083SOL     OW38881   4.220   4.126   5.472 -0.1415 -0.2214  0.4796
 9083SOL    HW138882   4.253   4.036   5.471 -0.4149 -0.3248  0.6506
 9083SOL    HW238883   4.292   4.165   5.521 -0.2274  0.2408  0.2373
 9084SOL     OW38884   3.475   3.512   6.568 -0.3548  0.0505 -0.1689
 9084SOL    HW138885   3.512   3.538   6.484  1.3383 -0.7451  0.3145
 9084SOL    HW238886   3.470   3.416   6.561  2.7101  0.0531 -2.4705
 9085SOL     OW38887   3.483   2.103   2.383  0.0360  0.2405 -0.2328
 9085SOL    HW138888   3.482   2.109   2.479  0.6907 -0.9937 -0.1472
 9085SOL    HW238889   3.559   2.045   2.374  0.3191  0.6048 -0.1547
 9086SOL     OW38890   2.493   3.045   5.239 -0.3591  0.2372  0.1691
 9086SOL    HW138891   2.410   3.049   5.287 -1.6048 -2.4048 -1.7653
 9086SOL    HW238892   2.534   3.117   5.287  1.2152  1.1011 -2.4990
 9087SOL     OW38893   1.702   1.865   2.743 -0.4817 -0.0366  0.5915
 9087SOL    HW138894   1.749   1.948   2.746 -1.7773  0.7101  0.0958
 9087SOL    HW238895   1.609   1.890   2.744 -0.9882 -1.8082 -1.5988
 9088SOL     OW38896   2.027   0.747  11.418 -0.3643  0.0532 -0.0581
 9088SOL    HW138897   1.980   0.735  11.501  0.6403 -0.4068  0.4501
 9088SOL    HW238898   1.977   0.687  11.363 -0.2437 -0.0365 -0.0694
 9089SOL     OW38899   4.392   4.516   4.441 -0.1059  0.0917  0.3483
 9089SOL    HW138900   4.389   4.421   4.455  1.6538 -0.0829 -0.4556
 9089SOL    HW238901   4.484   4.537   4.427  0.0484 -1.6053 -1.2294
 9090SOL     OW38902   0.646   4.261   6.037 -0.4119  0.0341  0.5520
 9090SOL    HW138903   0.658   4.196   6.106  3.1509  0.7351  0.5515
 9090SOL    HW238904   0.578   4.316   6.076 -2.5320 -1.3744 -1.1116
 9091SOL     OW38905   2.326   3.390  11.372 -0.2136 -0.1255  0.3356
 9091SOL    HW138906   2.295   3.305  11.401 -0.2855 -1.1735 -2.8242
 9091SOL    HW238907   2.247   3.445  11.379  0.0970  0.4091 -0.3314
 9092SOL     OW38908   3.526   3.236   3.856 -0.3159  0.7159  0.0703
 9092SOL    HW138909   3.480   3.308   3.812  0.5601  0.1054 -1.8597
 9092SOL    HW238910   3.615   3.256   3.824  0.7092 -1.3711  1.6842
 9093SOL     OW38911   2.183   2.226  15.342 -0.3924  0.7747  0.2602
 9093SOL    HW138912   2.275   2.248  15.356  0.3693 -1.7256 -0.8053
 9093SOL    HW238913   2.174   2.280  15.264  0.1085 -1.6871 -1.5117
 9094SOL     OW38914   1.477   1.152  13.060 -0.0901 -0.1794  0.1222
 9094SOL    HW138915   1.477   1.230  13.004 -0.4458 -0.0421  0.3101
 9094SOL    HW238916   1.408   1.181  13.120  1.0282  2.6658  0.0399
 9095SOL     OW38917   3.697   1.491  11.456 -0.2380 -0.3873 -0.1714
 9095SOL    HW138918   3.775   1.542  11.477 -1.1071  0.6046  0.5967
 9095SOL    HW238919   3.645   1.528  11.526  0.8135 -1.0229  0.9396
 9096SOL     OW38920   3.278   0.929  13.464  0.0241 -0.2747  0.2800
 9096SOL    HW138921   3.337   0.974  13.525 -0.4472 -0.8966  1.1869
 9096SOL    HW238922   3.279   0.986  13.387  3.1262  0.6541  0.9913
 9097SOL     OW38923   2.576   3.935   8.705  0.1333  0.5064  0.2187
 9097SOL    HW138924   2.640   4.007   8.706 -0.0171  0.6417 -0.0803
 9097SOL    HW238925   2.507   3.973   8.759 -0.6531 -1.1755  0.3632
 9098SOL     OW38926   4.315   1.764  12.769  0.5026  0.4629  0.0826
 9098SOL    HW138927   4.253   1.837  12.773  1.4647  1.2858 -0.3733
 9098SOL    HW238928   4.264   1.688  12.800  2.4306 -1.0793 -0.5640
 9099SOL     OW38929   4.330   2.194   8.215 -0.2280  0.5986  0.3138
 9099SOL    HW138930   4.304   2.244   8.137  1.4371  0.6659 -0.2033
 9099SOL    HW238931   4.342   2.265   8.278 -0.0482 -0.7967  1.8380
 9100SOL     OW38932   2.502   3.808   6.648 -0.1791 -0.6703  0.3197
 9100SOL    HW138933   2.568   3.828   6.713  0.4425 -0.5457 -0.3498
 9100SOL    HW238934   2.530   3.861   6.573  0.6508 -1.1471  0.3016
 9101SOL     OW38935   0.417   1.782   5.959 -0.2610  0.5823  0.0526
 9101SOL    HW138936   0.340   1.725   5.948 -0.5129  0.8302  0.5562
 9101SOL    HW238937   0.379   1.855   6.007 -0.1029  0.5337  0.2493
 9102SOL     OW38938   0.834   2.101  14.431  0.3854 -0.0163 -0.1911
 9102SOL    HW138939   0.840   2.064  14.519 -1.3702  0.2254  0.0404
 9102SOL    HW238940   0.926   2.125  14.423  0.5273 -0.2360  0.7110
 9103SOL     OW38941   2.306   3.448   4.497 -0.4201 -0.4042  0.3391
 9103SOL    HW138942   2.267   3.366   4.526  0.0019 -0.9259 -0.5833
 9103SOL    HW238943   2.268   3.436   4.410 -0.2632 -0.6021  0.2972
 9104SOL     OW38944   3.404   3.808   2.961  0.2081 -0.0581 -0.7165
 9104SOL    HW138945   3.332   3.745   2.953  0.3006  0.2395 -3.7707
 9104SOL    HW238946   3.351   3.887   2.957 -2.2806 -1.5717  1.9462
 9105SOL     OW38947   3.913   1.234  15.372  0.2032  0.1295 -0.2991
 9105SOL    HW138948   3.843   1.283  15.415  0.6751  1.4592 -1.0805
 9105SOL    HW238949   3.905   1.260  15.280  1.8846  0.4840 -0.3391
 9106SOL     OW38950   0.119   2.731   3.071  0.3841  0.0455 -0.2758
 9106SOL    HW138951   0.188   2.684   3.116  0.5781  0.6965  0.0990
 9106SOL    HW238952   0.043   2.683   3.104 -1.0426  2.6998  0.2754
 9107SOL     OW38953   0.845   0.344   8.073  0.0329 -0.4842 -0.0839
 9107SOL    HW138954   0.827   0.266   8.021 -1.4762 -0.1373 -0.0640
 9107SOL    HW238955   0.814   0.424   8.030 -2.3653 -0.6347  1.3923
 9108SOL     OW38956   2.761   3.772   2.544  0.2894 -0.7945  0.2580
 9108SOL    HW138957   2.739   3.860   2.514  0.6440 -1.4881 -2.0296
 9108SOL    HW238958   2.822   3.753   2.472  0.4163 -3.6974  1.1266
 9109SOL     OW38959   1.084   0.297  15.001  0.5226 -0.3638 -0.3940
 9109SOL    HW138960   1.061   0.389  14.994 -2.8174 -0.9700  2.5025
 9109SOL    HW238961   1.006   0.255  14.965 -1.4949  1.3612  2.0026
 9110SOL     OW38962   3.159   4.452  10.963 -0.3809 -0.4563 -0.3722
 9110SOL    HW138963   3.122   4.391  11.027 -1.7513 -0.2717 -0.9801
 9110SOL    HW238964   3.156   4.537  11.008  1.4648  0.1795 -1.4548
 9111SOL     OW38965   1.080   2.930   8.360  0.2818  0.4989 -0.5624
 9111SOL    HW138966   0.992   2.928   8.398  0.7109 -0.4503  0.3935
 9111SOL    HW238967   1.079   2.863   8.291 -0.1575 -0.5109  0.4147
 9112SOL     OW38968   1.781   4.262   8.244  0.2660 -0.3138 -0.0661
 9112SOL    HW138969   1.778   4.251   8.339  3.6777  0.2792  0.1117
 9112SOL    HW238970   1.692   4.285   8.218  0.6198  0.0521 -0.9752
 9113SOL     OW38971   1.677   4.362   4.306 -0.7323 -0.0492 -0.1779
 9113SOL    HW138972   1.741   4.413   4.256 -1.8490  0.5963 -0.9368
 9113SOL    HW238973   1.690   4.270   4.286 -1.9825 -0.5983  1.5026
 9114SOL     OW38974   0.319   3.080  12.920  0.1238 -0.0455  0.2658
 9114SOL    HW138975   0.337   3.050  13.009 -0.5049 -2.1393 -0.3056
 9114SOL    HW238976   0.369   3.162  12.923 -0.4105  0.2347  1.5624
 9115SOL     OW38977   4.295   2.115  16.992 -0.2923 -0.4452  0.7971
 9115SOL    HW138978   4.229   2.096  16.926  1.4707 -1.6823 -0.5831
 9115SOL    HW238979   4.368   2.145  16.938 -0.0744 -0.4958  1.0602
 9116SOL     OW38980   4.327   3.433   8.732  0.4791 -0.3364  0.2889
 9116SOL    HW138981   4.294   3.513   8.774 -2.6836 -0.7115 -1.4580
 9116SOL    HW238982   4.248   3.378   8.733 -0.4981  1.0590 -0.3133
 9117SOL     OW38983   4.323   3.403   0.972 -0.3168  0.1621  0.2677
 9117SOL    HW138984   4.262   3.389   0.900  0.4414 -2.7103  0.1819
 9117SOL    HW238985   4.278   3.474   1.019 -2.5938 -1.1555  0.0795
 9118SOL     OW38986   4.413   2.592   9.020 -0.1433  0.0254 -0.3957
 9118SOL    HW138987   4.488   2.612   9.076 -0.4756  0.4737 -0.1129
 9118SOL    HW238988   4.365   2.674   9.027  0.6550  0.4466  0.1547
 9119SOL     OW38989   2.553   1.510   3.831 -0.7373 -0.5284 -0.5699
 9119SOL    HW138990   2.562   1.442   3.764 -1.3460 -1.5087  0.3496
 9119SOL    HW238991   2.511   1.581   3.783 -2.4554  0.4448  2.3613
 9120SOL     OW38992   2.262   1.361   3.147 -0.4642 -0.3767 -0.2601
 9120SOL    HW138993   2.315   1.331   3.222 -0.7455  2.5008  1.0958
 9120SOL    HW238994   2.175   1.386   3.176 -0.1364  0.8805 -0.3719
 9121SOL     OW38995   3.989   4.613   1.606 -0.0140  0.1574  0.2516
 9121SOL    HW138996   3.951   4.567   1.531 -0.0951  0.7894 -0.0983
 9121SOL    HW238997   4.027   4.682   1.550  0.2105  0.2802  0.5564
 9122SOL     OW38998   1.013   1.867  15.802  0.5869  0.2046 -0.4828
 9122SOL    HW138999   1.058   1.831  15.879 -2.5029  0.9487  1.6695
 9122SOL    HW239000   0.922   1.868  15.832  0.6598 -2.6406 -0.1396
 9123SOL     OW39001   2.400   4.120   4.002  0.2762 -0.9041  0.4866
 9123SOL    HW139002   2.462   4.106   4.073  0.8982  1.8035  0.4531
 9123SOL    HW239003   2.328   4.062   4.027 -0.6000  0.2389  0.6295
 9124SOL     OW39004   3.998   0.356   9.964  0.3534 -0.1050  0.3061
 9124SOL    HW139005   3.905   0.368   9.983 -0.1864 -2.6597 -0.6398
 9124SOL    HW239006   3.989   0.300   9.886 -1.7011 -0.1642  0.5975
 9125SOL     OW39007   3.085   1.856  10.455 -0.3800  0.8123  0.0493
 9125SOL    HW139008   3.023   1.929  10.462 -1.0147  0.2075  0.8121
 9125SOL    HW239009   3.075   1.817  10.542 -0.1181  1.5747  0.4275
 9126SOL     OW39010   2.621   3.211   0.273 -0.6151  0.2772 -0.4042
 9126SOL    HW139011   2.611   3.305   0.286  1.3313  0.6517 -1.7227
 9126SOL    HW239012   2.713   3.207   0.248 -0.1943 -0.1602  1.2414
 9127SOL     OW39013   4.125   4.276   5.953 -0.0302  0.2526 -0.4039
 9127SOL    HW139014   4.172   4.229   5.884  1.1283  1.2180 -0.2688
 9127SOL    HW239015   4.035   4.265   5.924  0.1987  0.5942 -1.2298
 9128SOL     OW39016   3.655   1.000   7.981 -0.0737 -0.1367  0.5940
 9128SOL    HW139017   3.642   0.972   8.072 -0.6158  0.5320  0.7226
 9128SOL    HW239018   3.644   0.918   7.933  1.7636  0.3616 -0.6455
 9129SOL     OW39019   1.107   1.768   9.171 -0.3342  0.7457  0.3169
 9129SOL    HW139020   1.148   1.845   9.130  1.3942  0.3122  1.2565
 9129SOL    HW239021   1.049   1.742   9.099 -0.4466 -0.0247  0.6892
 9130SOL     OW39022   1.628   2.750   7.229  1.1385 -0.0826  0.6209
 9130SOL    HW139023   1.713   2.730   7.269  0.8275 -2.4287  0.1094
 9130SOL    HW239024   1.609   2.836   7.268 -1.5528 -0.2753 -0.2799
 9131SOL     OW39025   2.895   0.759   2.846 -0.3493  0.3947 -0.4857
 9131SOL    HW139026   2.947   0.688   2.885 -1.2079 -0.7518 -1.4245
 9131SOL    HW239027   2.813   0.745   2.893  0.3933 -1.7834  0.1838
 9132SOL     OW39028   0.564   1.327   8.499 -0.6532 -0.6597  0.4261
 9132SOL    HW139029   0.571   1.407   8.552 -1.2509  0.2138 -0.8360
 9132SOL    HW239030   0.474   1.304   8.522 -0.9035 -1.3990 -1.3042
 9133SOL     OW39031   2.635   3.143   7.667 -0.2423  0.3820 -0.1887
 9133SOL    HW139032   2.546   3.150   7.633 -0.0819  3.0260 -0.0043
 9133SOL    HW239033   2.637   3.060   7.715 -4.8147 -0.5947 -1.6855
 9134SOL     OW39034   0.694   2.307  17.249 -0.0376  0.6933  0.1913
 9134SOL    HW139035   0.642   2.286  17.326 -2.0606  2.3206 -0.7151
 9134SOL    HW239036   0.701   2.223  17.204 -0.2629 -0.0186  1.4751
 9135SOL     OW39037   3.109   0.863  17.543 -0.1714  0.7108 -0.6222
 9135SOL    HW139038   3.103   0.775  17.580 -3.1968  0.3734 -1.9944
 9135SOL    HW239039   3.067   0.853  17.458  1.0524  0.8548 -1.2490
 9136SOL     OW39040   2.812   0.481   1.435 -0.2759 -0.1980 -0.2304
 9136SOL    HW139041   2.865   0.405   1.410 -2.4968 -0.9671 -2.6432
 9136SOL    HW239042   2.824   0.477   1.530 -0.5247  1.1938 -0.1413
 9137SOL     OW39043   2.601   3.418  16.647 -0.3964  0.9727 -0.4056
 9137SOL    HW139044   2.623   3.406  16.554 -1.0567 -0.8125 -0.3402
 9137SOL    HW239045   2.527   3.358  16.653  1.3826 -1.0724  1.3001
 9138SOL     OW39046   2.871   4.536   2.586  0.2174  0.1198  0.1322
 9138SOL    HW139047   2.942   4.600   2.595  0.2682 -0.0811  1.1622
 9138SOL    HW239048   2.794   4.584   2.554  0.5850  0.8619  0.3597
 9139SOL     OW39049   1.742   2.258   4.387  0.8828 -0.0984  0.2121
 9139SOL    HW139050   1.692   2.181   4.414  0.3062 -0.0431 -0.7114
 9139SOL    HW239051   1.740   2.262   4.292 -1.6615  0.5678  0.2840
 9140SOL     OW39052   3.492   1.017   9.882 -0.0032  0.6997 -0.5072
 9140SOL    HW139053   3.461   0.952   9.818  1.0283 -0.9356  0.6645
 9140SOL    HW239054   3.545   1.075   9.827 -1.9031  0.7521 -2.2943
 9141SOL     OW39055   2.546   2.604   4.249 -0.2855 -0.6641 -0.2428
 9141SOL    HW139056   2.520   2.528   4.301  1.8009  1.3241  3.6615
 9141SOL    HW239057   2.638   2.605   4.274  0.5702 -0.2659 -3.3920
 9142SOL     OW39058   4.039   3.556  13.429 -0.3903  0.0736 -0.0638
 9142SOL    HW139059   4.109   3.609  13.468  0.0499  0.5653 -1.5051
 9142SOL    HW239060   4.001   3.613  13.362 -1.3228  0.3710  0.7249
 9143SOL     OW39061   3.590   1.620  17.117 -0.1085 -0.2745 -0.0502
 9143SOL    HW139062   3.605   1.566  17.039 -3.7661 -1.3770  0.0525
 9143SOL    HW239063   3.586   1.549  17.180 -2.4167 -1.3445 -1.4220
 9144SOL     OW39064   2.437   0.321  15.544  0.1040 -0.7101  0.2487
 9144SOL    HW139065   2.473   0.392  15.490 -0.5013 -0.0231  0.7452
 9144SOL    HW239066   2.480   0.246  15.504 -1.9879 -0.5064 -2.3813
 9145SOL     OW39067   1.271   4.327   2.785  0.1784  0.2850  0.1443
 9145SOL    HW139068   1.250   4.420   2.796  0.6186  0.1677  1.9506
 9145SOL    HW239069   1.208   4.323   2.713 -0.4188  1.1556  0.6137
 9146SOL     OW39070   0.875   2.674   6.175 -0.0144  0.3834 -0.6549
 9146SOL    HW139071   0.922   2.651   6.095 -0.7110 -0.8495 -0.7032
 9146SOL    HW239072   0.905   2.600   6.227  0.5935  1.6092  0.7289
 9147SOL     OW39073   2.623   0.085   6.832 -0.2916 -0.1006 -0.2120
 9147SOL    HW139074   2.608   0.006   6.882  0.7825 -0.1912 -0.0228
 9147SOL    HW239075   2.583   0.154   6.885 -2.8144 -0.6937 -1.3728
 9148SOL     OW39076   3.487   0.268   3.337  0.4054 -0.0236 -0.4089
 9148SOL    HW139077   3.434   0.265   3.417  0.8789  1.2788 -0.0432
 9148SOL    HW239078   3.435   0.207   3.285 -0.1164 -0.0839  0.1733
 9149SOL     OW39079   1.552   2.862   2.239 -1.0959  0.6512 -0.3017
 9149SOL    HW139080   1.517   2.950   2.253  1.5394  1.5821  0.5312
 9149SOL    HW239081   1.626   2.851   2.299  0.2338 -0.3191 -2.1040
 9150SOL     OW39082   1.007   0.491  13.674  0.0595  0.1698 -0.3329
 9150SOL    HW139083   0.958   0.436  13.613  0.0765 -1.3740  1.0619
 9150SOL    HW239084   0.936   0.540  13.717 -0.1012 -0.1667 -0.2121
 9151SOL     OW39085   3.790   2.376   9.220 -0.1875  0.2467 -0.0736
 9151SOL    HW139086   3.703   2.359   9.184  0.4027  0.1534 -1.4418
 9151SOL    HW239087   3.804   2.315   9.292  1.3192  0.7036  0.0287
 9152SOL     OW39088   1.632   1.051   3.621 -0.1398  0.0255 -0.5284
 9152SOL    HW139089   1.599   1.103   3.548  2.1199 -0.6188 -1.9914
 9152SOL    HW239090   1.686   0.993   3.566  0.2888 -0.7218  0.6738
 9153SOL     OW39091   2.898   1.952   0.919  0.2666  0.8160  0.2790
 9153SOL    HW139092   2.904   2.043   0.887 -0.1726  0.7462 -0.0078
 9153SOL    HW239093   2.836   1.955   0.992 -0.2798 -2.2122 -0.0927
 9154SOL     OW39094   1.729   1.947   6.075 -0.2319 -0.8018 -0.0270
 9154SOL    HW139095   1.727   2.018   6.139 -0.4585 -0.0125 -0.9085
 9154SOL    HW239096   1.745   1.876   6.137  1.7550 -1.1069 -0.8706
 9155SOL     OW39097   3.549   2.264  14.736  0.4815  0.8594 -0.9802
 9155SOL    HW139098   3.622   2.301  14.687  2.8361 -1.8275  0.5124
 9155SOL    HW239099   3.529   2.334  14.798  0.7598  1.4906 -1.6039
 9156SOL     OW39100   4.617   1.135   5.849 -0.2302 -0.2094 -0.4530
 9156SOL    HW139101   4.670   1.197   5.798 -0.3310  1.0598  0.9885
 9156SOL    HW239102   4.690   1.077   5.871 -0.2565  0.3034  1.0064
 9157SOL     OW39103   3.767   4.204  12.494 -0.1504  0.0837  0.2461
 9157SOL    HW139104   3.855   4.222  12.460  1.1053 -0.9034  2.9579
 9157SOL    HW239105   3.712   4.252  12.432 -0.3766 -1.1547 -0.5167
 9158SOL     OW39106   1.013   4.343  16.084 -0.4072 -0.2431 -0.2818
 9158SOL    HW139107   1.077   4.364  16.151 -1.7933 -0.7941  1.2190
 9158SOL    HW239108   1.058   4.284  16.023 -0.6482  0.5264 -1.1960
 9159SOL     OW39109   0.314   1.860   2.902 -0.1689 -0.1256 -0.3178
 9159SOL    HW139110   0.295   1.877   2.810 -0.0984  3.8177  0.3829
 9159SOL    HW239111   0.341   1.946   2.933  2.0703 -1.2875  0.9817
 9160SOL     OW39112   0.852   3.077   6.951  0.2497 -0.2707 -0.4951
 9160SOL    HW139113   0.939   3.112   6.971  0.6900 -0.4652 -2.0285
 9160SOL    HW239114   0.868   2.982   6.953  1.3143 -0.0407  2.0332
 9161SOL     OW39115   4.077   2.440   5.787  0.3243  0.3745  0.3182
 9161SOL    HW139116   4.119   2.408   5.867 -0.9408  2.4072  1.7758
 9161SOL    HW239117   4.150   2.429   5.727  0.5100  1.1922  0.3979
 9162SOL     OW39118   2.787   2.171   3.309  0.3241 -0.6584 -0.6451
 9162SOL    HW139119   2.708   2.225   3.300  0.0699 -0.6661  1.5387
 9162SOL    HW239120   2.850   2.223   3.260  0.5121  0.2427  0.5834
 9163SOL     OW39121   3.699   1.827   3.640 -0.3692 -0.6971  0.0781
 9163SOL    HW139122   3.778   1.775   3.621  0.0923 -0.6031  1.7945
 9163SOL    HW239123   3.702   1.875   3.557  0.9991  2.3097  1.8616
 9164SOL     OW39124   0.335   3.921  15.953  0.0502  0.3410 -0.3029
 9164SOL    HW139125   0.400   3.931  15.883 -0.0072 -1.1484 -0.5658
 9164SOL    HW239126   0.280   3.999  15.951  0.1653  0.3829 -1.8017
 9165SOL     OW39127   2.247   3.916   4.114 -0.9143  0.1833  0.0046
 9165SOL    HW139128   2.182   3.848   4.128  0.3497 -1.5288 -2.5993
 9165SOL    HW239129   2.228   3.982   4.181  1.2408 -0.5255  1.3225
 9166SOL     OW39130   3.252   3.852  15.509  0.0629  0.1437  0.0133
 9166SOL    HW139131   3.189   3.887  15.447  0.3720 -0.2295 -0.5080
 9166SOL    HW239132   3.333   3.898  15.489  1.2443 -1.3139  1.5121
 9167SOL     OW39133   3.417   1.829   3.685 -0.1243  0.1454  0.1349
 9167SOL    HW139134   3.387   1.803   3.599 -0.1064  0.1867  0.1156
 9167SOL    HW239135   3.512   1.822   3.671  0.0063  2.2194 -0.0260
 9168SOL     OW39136   4.704   0.089   5.786 -0.3029 -0.0128 -0.3947
 9168SOL    HW139137   4.649   0.148   5.735 -1.1715 -0.2979  0.2141
 9168SOL    HW239138   4.639   0.030   5.824 -1.3008  0.6397 -1.1150
 9169SOL     OW39139   3.201   1.412   0.167 -0.1667 -0.7708 -0.1251
 9169SOL    HW139140   3.238   1.480   0.110 -3.8119  1.9845  0.7545
 9169SOL    HW239141   3.247   1.334   0.136  2.8341  1.0948 -0.3745
 9170SOL     OW39142   3.635   1.150  13.465  0.8355  0.1424  0.1501
 9170SOL    HW139143   3.597   1.123  13.549 -2.6315  3.5595 -0.3351
 9170SOL    HW239144   3.674   1.068  13.437  1.5769  0.7436 -0.5727
 9171SOL     OW39145   0.192   1.613  16.553  0.1848 -0.8291 -0.2795
 9171SOL    HW139146   0.103   1.591  16.525 -0.3021  0.0290  0.6171
 9171SOL    HW239147   0.244   1.628  16.473 -2.5584  2.0395 -1.5083
 9172SOL     OW39148   0.084   1.139   4.550 -0.3762 -0.5105  0.0235
 9172SOL    HW139149   0.115   1.214   4.500 -0.8163 -1.9033 -2.3639
 9172SOL    HW239150   0.098   1.077   4.478  0.1437 -3.5366  2.7807
 9173SOL     OW39151   0.326   1.299   6.458 -0.2669  0.2660 -0.1218
 9173SOL    HW139152   0.333   1.290   6.363 -0.7493  0.2946 -0.1568
 9173SOL    HW239153   0.390   1.235   6.491 -0.2947 -0.3097 -1.1755
 9174SOL     OW39154   0.072   1.501   5.345  0.5024 -0.2173 -0.3161
 9174SOL    HW139155   0.068   1.483   5.439  0.4880  2.4281  0.1887
 9174SOL    HW239156   0.097   1.593   5.354 -0.4176 -0.1601  1.5496
 9175SOL     OW39157   3.384   0.969   2.370 -0.0489 -0.3668 -0.0597
 9175SOL    HW139158   3.411   0.878   2.358  0.3007 -0.3839  0.8907
 9175SOL    HW239159   3.344   0.954   2.455  0.2994 -2.1812 -0.2128
 9176SOL     OW39160   2.144   2.862  14.858  0.3701 -0.1230  0.4748
 9176SOL    HW139161   2.096   2.910  14.925 -1.1031 -0.8189 -0.0752
 9176SOL    HW239162   2.168   2.934  14.799  1.0326  0.3539  1.3208
 9177SOL     OW39163   2.447   1.717   2.163 -0.4478  0.0117  0.5658
 9177SOL    HW139164   2.493   1.761   2.092 -0.1914  0.6600  1.1388
 9177SOL    HW239165   2.479   1.769   2.237 -0.6883 -0.1552  0.7866
 9178SOL     OW39166   1.877   2.765   5.941 -0.0650 -0.4207  0.7099
 9178SOL    HW139167   1.853   2.858   5.943  0.3648 -0.2678 -1.3810
 9178SOL    HW239168   1.791   2.737   5.973  0.0966 -1.8031 -0.0798
 9179SOL     OW39169   0.321   0.915   3.801 -0.2666  0.0408  0.2510
 9179SOL    HW139170   0.297   0.834   3.756 -2.5572  1.6724 -1.5366
 9179SOL    HW239171   0.414   0.924   3.780 -0.2514 -0.8802 -0.0727
 9180SOL     OW39172   1.116   4.314  12.040 -0.4756 -0.0961  0.2974
 9180SOL    HW139173   1.096   4.250  12.108 -0.9275 -1.7001 -1.3313
 9180SOL    HW239174   1.201   4.346  12.069  0.5791 -0.5711 -2.2190
 9181SOL     OW39175   0.236   1.690   6.262  0.3846  0.1066 -0.7744
 9181SOL    HW139176   0.225   1.646   6.178 -0.8519  0.3593 -0.7478
 9181SOL    HW239177   0.211   1.781   6.250  1.2600  0.5145  0.4247
 9182SOL     OW39178   3.426   2.258   2.847  0.2398  0.0093 -0.2616
 9182SOL    HW139179   3.417   2.353   2.839  0.2674  0.1077  0.8082
 9182SOL    HW239180   3.438   2.248   2.942 -0.1727  3.6228  0.2014
 9183SOL     OW39181   1.890   4.711   4.519  0.4321 -0.3866  0.1723
 9183SOL    HW139182   1.899   4.732   4.426  0.3545 -2.6315 -0.3224
 9183SOL    HW239183   1.909   0.060   4.555 -0.1712  0.4009 -1.3953
 9184SOL     OW39184   1.175   4.343  10.699  0.0372  0.3211  0.1513
 9184SOL    HW139185   1.104   4.279  10.701 -0.2930  0.6364 -1.6189
 9184SOL    HW239186   1.126   4.420  10.729  0.1079  0.7778 -0.8823
 9185SOL     OW39187   1.739   2.699   4.362 -0.1976  0.1687  0.1041
 9185SOL    HW139188   1.661   2.750   4.385 -0.5639 -0.1818 -0.3579
 9185SOL    HW239189   1.800   2.743   4.421  0.2282  0.5329 -0.6171
 9186SOL     OW39190   0.996   3.471   5.030  0.0016  0.0414 -0.6105
 9186SOL    HW139191   1.082   3.429   5.027 -0.9694 -2.1170  2.1733
 9186SOL    HW239192   0.981   3.470   5.124 -0.6811  1.8168 -0.6860
 9187SOL     OW39193   3.240   1.336   8.801  0.2089  0.3955  0.4416
 9187SOL    HW139194   3.147   1.340   8.822  0.1852  0.8412  0.2512
 9187SOL    HW239195   3.243   1.416   8.749 -0.7264  1.0872  1.4624
 9188SOL     OW39196   2.037   2.557   3.165  0.2966 -0.5124  0.8445
 9188SOL    HW139197   2.019   2.465   3.148  2.7927 -0.3852 -2.5261
 9188SOL    HW239198   2.111   2.555   3.226  0.8510 -0.0479  0.1944
 9189SOL     OW39199   1.266   4.539   0.085 -0.7031  1.2328 -0.3060
 9189SOL    HW139200   1.284   4.628   0.054  2.9671  0.2956 -0.7994
 9189SOL    HW239201   1.321   4.530   0.163  0.8800 -0.3264 -1.6260
 9190SOL     OW39202   0.335   0.769   2.997 -0.0618 -0.5414 -0.0086
 9190SOL    HW139203   0.315   0.767   2.904 -1.3486  0.2673  0.2466
 9190SOL    HW239204   0.251   0.787   3.039  1.7181  3.0944  1.9765
 9191SOL     OW39205   1.291   4.302  17.689 -0.4012  0.4406 -0.1046
 9191SOL    HW139206   1.210   4.262  17.722  0.3043 -0.6275  0.3662
 9191SOL    HW239207   1.278   4.391  17.721  0.5069  1.2079 -1.8991
 9192SOL     OW39208   4.388   1.503   1.878 -0.0421 -0.4008  0.2514
 9192SOL    HW139209   4.380   1.458   1.962  2.3587  0.2740  0.8376
 9192SOL    HW239210   4.355   1.590   1.902  3.0370  1.0010 -0.6443
 9193SOL     OW39211   2.862   0.689   8.940  0.0299 -0.6522 -0.4553
 9193SOL    HW139212   2.864   0.785   8.933 -2.0807 -0.4088  2.1521
 9193SOL    HW239213   2.837   0.666   8.851 -2.8357 -0.3085  0.2668
 9194SOL     OW39214   2.169   0.953   4.967 -0.1317  0.3226  0.0498
 9194SOL    HW139215   2.109   0.941   5.042  2.0443  1.4688  1.9775
 9194SOL    HW239216   2.226   1.023   5.000  0.6032 -0.2284 -0.0580
 9195SOL     OW39217   1.111   1.883   0.626  0.3006  0.3871  0.3602
 9195SOL    HW139218   1.100   1.876   0.721 -1.1560 -0.5457  0.1265
 9195SOL    HW239219   1.025   1.915   0.601 -0.2241 -1.4733 -0.2012
 9196SOL     OW39220   4.337   0.719   2.653 -0.1673  0.2008 -0.5136
 9196SOL    HW139221   4.286   0.763   2.585 -1.1441  2.3524  1.6497
 9196SOL    HW239222   4.298   0.632   2.644  0.8463 -0.1788 -1.3369
 9197SOL     OW39223   3.911   1.713   2.907  0.1321  0.6815  0.1120
 9197SOL    HW139224   3.923   1.623   2.936  0.7159  0.5697 -0.4830
 9197SOL    HW239225   3.992   1.734   2.859 -0.1332 -0.3807 -0.7843
 9198SOL     OW39226   3.952   1.771   5.755 -0.3575 -0.4004  0.2400
 9198SOL    HW139227   3.932   1.795   5.664 -0.3865  1.6823  0.7954
 9198SOL    HW239228   3.980   1.681   5.735  1.3594  0.5477 -1.5981
 9199SOL     OW39229   0.696   2.543  16.313  0.2310  0.1515  0.1321
 9199SOL    HW139230   0.672   2.451  16.324  0.4728 -0.1672 -2.0169
 9199SOL    HW239231   0.654   2.565  16.230  0.4281 -0.0390 -0.0196
 9200SOL     OW39232   1.904   1.187  12.487 -0.1841 -0.5676 -0.1645
 9200SOL    HW139233   1.932   1.279  12.485  1.5419 -1.0983 -0.2214
 9200SOL    HW239234   1.990   1.150  12.503 -0.2834 -0.1673  1.2915
 9201SOL     OW39235   1.813   3.363   3.330  0.3146  0.3399 -0.9120
 9201SOL    HW139236   1.888   3.421   3.320 -0.3578  0.9550 -2.3256
 9201SOL    HW239237   1.767   3.403   3.256  0.0523  0.9040 -0.4422
 9202SOL     OW39238   0.649   2.045  17.213  0.0578 -0.3900  0.3135
 9202SOL    HW139239   0.683   1.982  17.276  2.7975  0.1907 -0.5893
 9202SOL    HW239240   0.595   1.990  17.155  0.6444  0.8593 -1.4289
 9203SOL     OW39241   0.142   4.578  14.804 -0.0225 -0.2972  0.4000
 9203SOL    HW139242   0.104   4.665  14.809  3.2620  1.2338 -1.6486
 9203SOL    HW239243   0.230   4.602  14.777  1.0439 -1.1484  3.0829
 9204SOL     OW39244   2.439   1.922   5.147 -0.8370 -0.2866 -0.2897
 9204SOL    HW139245   2.374   1.987   5.173 -0.9509 -0.6752  0.3999
 9204SOL    HW239246   2.462   1.953   5.060  0.5028  0.8971  0.4754
 9205SOL     OW39247   2.341   4.096   7.145 -0.2436  0.1237  0.5430
 9205SOL    HW139248   2.266   4.152   7.127 -0.5137  0.0049  1.3055
 9205SOL    HW239249   2.309   4.007   7.130 -1.1448  0.8392 -1.8246
 9206SOL     OW39250   4.558   1.344   1.436  0.0577  0.0069 -0.1110
 9206SOL    HW139251   4.562   1.419   1.495  1.5900  2.3644 -3.1903
 9206SOL    HW239252   4.490   1.291   1.479  0.3017  0.0540  0.3364
 9207SOL     OW39253   0.863   0.482   1.499 -0.5270  0.0453  0.0277
 9207SOL    HW139254   0.859   0.556   1.437 -0.7821  0.2711  0.3144
 9207SOL    HW239255   0.869   0.414   1.432  0.3333 -0.4744  0.6277
 9208SOL     OW39256   0.867   0.921   3.701  0.2121  0.4293 -0.1966
 9208SOL    HW139257   0.916   0.972   3.767 -0.2882 -0.1608  0.6279
 9208SOL    HW239258   0.923   0.844   3.710 -0.0808  0.3196  0.7544
 9209SOL     OW39259   4.207   0.948  13.807  0.0649  0.4948 -0.0291
 9209SOL    HW139260   4.215   0.855  13.786 -1.0398  0.7073 -1.3490
 9209SOL    HW239261   4.240   0.994  13.730  1.3048  0.4371  0.4529
 9210SOL     OW39262   3.667   3.873   2.477  0.2620 -0.0378  0.3785
 9210SOL    HW139263   3.620   3.850   2.556  2.4818 -1.0682  1.4030
 9210SOL    HW239264   3.645   3.790   2.436  1.6155  0.7229 -1.9153
 9211SOL     OW39265   0.733   1.066  12.775 -0.0494  0.2805 -0.3788
 9211SOL    HW139266   0.825   1.071  12.801 -1.5105  1.2802  4.5729
 9211SOL    HW239267   0.715   1.139  12.716 -2.7424  0.1068  0.2278
 9212SOL     OW39268   2.003   4.344  10.798 -0.0735  0.3644 -0.5095
 9212SOL    HW139269   1.989   4.325  10.891  0.7269 -0.1818 -0.5015
 9212SOL    HW239270   2.012   4.439  10.797  0.1857  0.3095 -2.5643
 9213SOL     OW39271   2.793   3.782   7.421 -0.1690  0.4208 -0.0951
 9213SOL    HW139272   2.741   3.804   7.498  1.8008  0.2820  1.2552
 9213SOL    HW239273   2.853   3.855   7.404  2.6093 -1.8332  0.1027
 9214SOL     OW39274   4.355   1.657   1.383 -0.4054 -0.7032 -0.1580
 9214SOL    HW139275   4.307   1.740   1.378  1.4782  0.3472 -0.9471
 9214SOL    HW239276   4.297   1.595   1.428  2.4400 -2.3810  1.1397
 9215SOL     OW39277   2.858   3.232   2.610 -0.0845  0.5894 -0.4698
 9215SOL    HW139278   2.883   3.187   2.529  1.1141  2.5013 -1.1607
 9215SOL    HW239279   2.764   3.244   2.594 -0.2019  1.8912  1.1701
 9216SOL     OW39280   4.305   4.533   5.890 -0.2841  0.1668 -0.4002
 9216SOL    HW139281   4.237   4.495   5.946 -0.3320 -0.5105 -0.9185
 9216SOL    HW239282   4.363   4.459   5.908  1.3739  1.3327 -1.0360
 9217SOL     OW39283   0.403   3.991  11.595 -0.2360 -0.5114 -0.2415
 9217SOL    HW139284   0.309   4.010  11.586 -0.1633  0.4832  1.2383
 9217SOL    HW239285   0.400   3.901  11.628 -0.0380  0.0024  1.1426
 9218SOL     OW39286   1.550   2.523   4.092  0.1681 -0.1611 -0.1245
 9218SOL    HW139287   1.502   2.477   4.023 -0.5908  0.1321  0.2177
 9218SOL    HW239288   1.499   2.510   4.171 -0.7999 -0.3253 -0.7746
 9219SOL     OW39289   0.940   4.460   4.219  0.0681  0.2877  0.0144
 9219SOL    HW139290   1.002   4.451   4.147 -0.2233 -2.2735  0.0959
 9219SOL    HW239291   0.953   4.550   4.250  0.3960 -0.5672  2.3523
 9220SOL     OW39292   4.143   3.851   5.106  0.0397  0.5839 -0.1051
 9220SOL    HW139293   4.170   3.908   5.034 -0.9357  0.7707 -0.3245
 9220SOL    HW239294   4.053   3.835   5.080 -0.0099 -1.0404  1.0998
 9221SOL     OW39295   2.184   1.616   4.603  0.9635  0.0863  0.4063
 9221SOL    HW139296   2.223   1.620   4.516 -0.6679  0.8799 -0.2914
 9221SOL    HW239297   2.208   1.529   4.636 -4.6047 -1.9084 -0.8726
 9222SOL     OW39298   0.726   1.186   8.681 -0.2779  0.2045 -0.3251
 9222SOL    HW139299   0.698   1.274   8.709  0.7205  1.2899 -2.7533
 9222SOL    HW239300   0.657   1.166   8.618 -0.1769 -0.6870 -0.1485
 9223SOL     OW39301   2.141   4.358   3.394  0.0334 -0.1634 -0.1455
 9223SOL    HW139302   2.171   4.424   3.455 -0.4060  0.3862 -0.5202
 9223SOL    HW239303   2.077   4.305   3.442  1.4903 -0.3294  1.5827
 9224SOL     OW39304   1.459   2.567  13.173 -0.0030 -0.0612  0.0348
 9224SOL    HW139305   1.500   2.528  13.250 -1.5314  0.1712  0.9698
 9224SOL    HW239306   1.535   2.568  13.115  0.0303  0.1479  0.0818
 9225SOL     OW39307   2.342   1.836   8.281 -0.8711  0.3209 -0.3250
 9225SOL    HW139308   2.272   1.773   8.300 -0.9143 -0.6170 -3.4903
 9225SOL    HW239309   2.291   1.917   8.275 -1.5207 -0.1917 -1.8400
 9226SOL     OW39310   4.709   4.426   2.443  0.0451 -0.0974 -0.1580
 9226SOL    HW139311   4.706   4.333   2.423  0.6200  0.0844 -1.1001
 9226SOL    HW239312   4.631   4.452   2.393 -0.2368  0.5273  0.5994
 9227SOL     OW39313   1.859   3.900   2.037 -0.8272 -0.5877 -0.1423
 9227SOL    HW139314   1.784   3.845   2.056 -1.3969  0.1071 -0.3526
 9227SOL    HW239315   1.910   3.919   2.116  2.9225 -2.4026 -2.1122
 9228SOL     OW39316   3.525   0.857   2.709 -0.2079 -0.0346  0.2064
 9228SOL    HW139317   3.542   0.770   2.673  1.3854  0.4659 -0.2500
 9228SOL    HW239318   3.587   0.858   2.782  0.5524  0.7331 -0.4585
 9229SOL     OW39319   2.954   1.803   3.694  0.2141 -0.3330 -0.2013
 9229SOL    HW139320   3.035   1.821   3.741 -0.2414 -1.5242  1.0222
 9229SOL    HW239321   2.981   1.788   3.603 -2.3631 -0.3477 -0.9779
 9230SOL     OW39322   2.215   1.119   6.081 -0.1134 -0.7314  0.8192
 9230SOL    HW139323   2.256   1.032   6.075 -2.6165 -1.8022 -0.4749
 9230SOL    HW239324   2.160   1.120   6.159  1.2951  2.6308  1.8030
 9231SOL     OW39325   3.632   3.117   3.307 -0.2315  0.6781 -0.3491
 9231SOL    HW139326   3.545   3.078   3.309  0.4487 -0.9989 -4.2881
 9231SOL    HW239327   3.614   3.182   3.240 -1.3845 -0.1997 -0.8812
 9232SOL     OW39328   2.414   4.148   2.938  0.6330 -0.1897  0.0101
 9232SOL    HW139329   2.409   4.226   2.884  1.3729 -0.2195 -0.0986
 9232SOL    HW239330   2.388   4.187   3.022  3.5845  1.4567  0.1734
 9233SOL     OW39331   3.913   4.093  12.984 -0.1807  0.1469  0.1887
 9233SOL    HW139332   3.836   4.067  13.036 -0.4784  0.9121  0.1378
 9233SOL    HW239333   3.955   4.153  13.046 -2.1873  1.2653  0.4764
 9234SOL     OW39334   0.483   3.685   8.206  0.3185 -0.7162 -0.0843
 9234SOL    HW139335   0.498   3.705   8.114 -0.9530  0.2031 -0.0845
 9234SOL    HW239336   0.459   3.593   8.194  2.7159 -1.3029 -0.4269
 9235SOL     OW39337   1.577   3.987   9.021  0.3211  0.3439 -0.3252
 9235SOL    HW139338   1.551   3.973   8.930  0.9647 -0.9839 -0.2928
 9235SOL    HW239339   1.652   3.928   9.028 -0.2565 -0.3073  0.3781
 9236SOL     OW39340   3.656   3.179  16.761  0.3816 -0.0702 -0.0879
 9236SOL    HW139341   3.713   3.103  16.757  4.0403  2.7180 -0.8174
 9236SOL    HW239342   3.641   3.201  16.853  0.0211  2.1535 -0.6744
 9237SOL     OW39343   2.901   1.848   4.186 -0.5411 -0.3687  0.9529
 9237SOL    HW139344   2.865   1.763   4.209  0.5691 -1.0269  0.2255
 9237SOL    HW239345   2.908   1.848   4.090  1.3574 -2.8826  1.0957
 9238SOL     OW39346   1.715   4.703   8.189 -0.4724  0.3858 -0.2186
 9238SOL    HW139347   1.634   4.695   8.238 -0.4592  1.9869  0.0436
 9238SOL    HW239348   1.772   4.649   8.244  0.2707  0.1430 -1.2011
 9239SOL     OW39349   3.008   2.248   6.491 -0.1517 -0.1969 -0.4268
 9239SOL    HW139350   3.050   2.309   6.430  0.7615 -1.1213 -0.7202
 9239SOL    HW239351   2.920   2.283   6.499 -0.0333 -0.4401  2.2659
 9240SOL     OW39352   0.099   3.101   4.574  0.1564  0.8475  0.2175
 9240SOL    HW139353   0.005   3.117   4.583 -0.4543 -1.7429 -1.3906
 9240SOL    HW239354   0.141   3.179   4.609 -1.5917  1.5084  0.8484
 9241SOL     OW39355   3.699   3.927   1.724 -0.3023  0.3037 -0.2532
 9241SOL    HW139356   3.692   3.876   1.643  1.8338  0.7460 -0.7216
 9241SOL    HW239357   3.658   4.009   1.698  0.3646  1.1333  1.3457
 9242SOL     OW39358   2.857   1.879   2.404  0.1696 -0.1794  0.3254
 9242SOL    HW139359   2.767   1.848   2.401  0.2929 -0.5188  0.0940
 9242SOL    HW239360   2.912   1.811   2.444 -0.2359 -0.2381  0.7682
 9243SOL     OW39361   1.670   1.809   9.626  0.0786  0.6779 -0.5574
 9243SOL    HW139362   1.697   1.802   9.534  1.1961 -4.3220  0.1385
 9243SOL    HW239363   1.753   1.777   9.661 -0.3993 -0.6328 -0.6135
 9244SOL     OW39364   1.272   4.028   7.055 -0.4685  0.6744  0.1679
 9244SOL    HW139365   1.211   4.096   7.083 -0.1802  1.4371 -1.0425
 9244SOL    HW239366   1.358   4.069   7.062 -1.6603  3.0345  0.9118
 9245SOL     OW39367   0.724   0.232   8.305  0.9671 -0.0163 -0.3424
 9245SOL    HW139368   0.739   0.242   8.399  2.0433  1.3849 -0.6615
 9245SOL    HW239369   0.783   0.297   8.267  0.0774  0.0900 -1.5489
 9246SOL     OW39370   0.557   4.195   4.090 -0.1693  0.5796 -0.3201
 9246SOL    HW139371   0.489   4.152   4.039  0.2366  0.8979 -1.1244
 9246SOL    HW239372   0.620   4.212   4.020  0.1686  3.2099  0.5888
 9247SOL     OW39373   0.554   1.940  16.672 -0.5299  0.4069  0.0546
 9247SOL    HW139374   0.461   1.924  16.690 -0.4948  0.6706  0.4733
 9247SOL    HW239375   0.566   1.886  16.594 -0.9399 -1.0494  0.9851
 9248SOL     OW39376   0.651   1.852   8.719 -0.4372  0.1646 -0.0056
 9248SOL    HW139377   0.646   1.947   8.724 -1.2941  0.2657 -2.8791
 9248SOL    HW239378   0.560   1.829   8.702 -0.5248  0.5228 -0.0314
 9249SOL     OW39379   3.312   0.514  15.067  0.1709 -0.5533  0.5365
 9249SOL    HW139380   3.256   0.520  15.145  0.1318 -0.3550  0.4911
 9249SOL    HW239381   3.284   0.442  15.010 -1.2086 -1.0217  1.7792
 9250SOL     OW39382   4.224   3.997   4.890  0.2167  0.0883  0.2144
 9250SOL    HW139383   4.278   4.056   4.943  0.5905 -0.7811  0.7889
 9250SOL    HW239384   4.233   4.049   4.810  2.4523  0.1843  0.5378
 9251SOL     OW39385   2.262   1.748   6.301 -0.0990  0.4030  0.0663
 9251SOL    HW139386   2.256   1.814   6.370  0.8132 -0.1005  0.6364
 9251SOL    HW239387   2.171   1.737   6.274 -0.0999 -0.0808  0.2609
 9252SOL     OW39388   1.477   3.026   0.774 -0.2768 -0.4230  0.1189
 9252SOL    HW139389   1.394   2.979   0.767 -0.6964  0.6851 -2.2080
 9252SOL    HW239390   1.492   3.035   0.680 -0.4085  0.5011  0.1918
 9253SOL     OW39391   1.365   2.672   7.656 -0.2305  0.6954  0.3304
 9253SOL    HW139392   1.364   2.768   7.665 -0.7677  0.6465  0.8161
 9253SOL    HW239393   1.276   2.654   7.687  0.2695 -1.1918  0.6413
 9254SOL     OW39394   3.027   3.166   7.888  0.2845 -0.8953  0.0539
 9254SOL    HW139395   3.009   3.162   7.794 -0.7791  2.0901  0.1569
 9254SOL    HW239396   3.057   3.256   7.890 -0.9820 -0.5009  1.1333
 9255SOL     OW39397   1.169   4.072  11.121  0.0696  0.0762 -0.0071
 9255SOL    HW139398   1.100   4.131  11.092 -3.0817 -2.7086  1.8822
 9255SOL    HW239399   1.184   4.102  11.210  1.2116 -0.1806 -0.1083
 9256SOL     OW39400   4.625   4.468   9.424 -0.1371  0.1027 -0.4334
 9256SOL    HW139401   4.577   4.522   9.487  0.8820 -0.9665  1.2579
 9256SOL    HW239402   4.639   4.523   9.347  1.4895  2.4259  1.4910
 9257SOL     OW39403   1.680   0.099   0.269 -0.0859  0.6161 -0.2036
 9257SOL    HW139404   1.735   0.147   0.207 -0.5438  0.4452 -0.7407
 9257SOL    HW239405   1.707   0.008   0.258 -0.0567  0.6665 -0.5380
 9258SOL     OW39406   1.010   0.369   6.733  0.3316  0.3282 -0.5160
 9258SOL    HW139407   0.983   0.460   6.725  0.9958  0.5864  0.1924
 9258SOL    HW239408   1.095   0.375   6.688 -0.3070 -0.1434 -1.7928
 9259SOL     OW39409   0.649   2.046   2.158  0.2342 -0.2028 -0.2565
 9259SOL    HW139410   0.616   2.015   2.074 -0.3977  2.1594 -0.8887
 9259SOL    HW239411   0.662   1.966   2.209  1.3040  1.1888  1.6803
 9260SOL     OW39412   1.069   1.824   8.052 -0.5559 -0.0268  0.0336
 9260SOL    HW139413   1.011   1.757   8.015  1.2404 -1.4545 -0.2084
 9260SOL    HW239414   1.111   1.841   7.968  0.3189 -1.0130  0.2692
 9261SOL     OW39415   0.553   2.849   3.063 -0.2386 -0.7436  0.0896
 9261SOL    HW139416   0.476   2.853   3.120  0.5731 -1.4637  1.2414
 9261SOL    HW239417   0.522   2.908   2.994  1.5834 -0.5830 -0.5810
 9262SOL     OW39418   2.079   1.591  15.705 -0.0075  0.0348 -0.1881
 9262SOL    HW139419   2.030   1.670  15.728 -1.2913 -0.9621  0.5198
 9262SOL    HW239420   2.116   1.613  15.619 -1.3514 -1.0251 -1.0485
 9263SOL     OW39421   3.917   1.304  11.714 -0.1180 -0.0720  0.3744
 9263SOL    HW139422   3.941   1.280  11.803  0.3524 -0.0659  0.2491
 9263SOL    HW239423   3.981   1.246  11.671 -0.8218 -0.1937 -0.5132
 9264SOL     OW39424   2.970   4.368   2.339 -0.6249 -0.2182 -0.4478
 9264SOL    HW139425   3.047   4.425   2.339 -0.1949 -0.8082  1.6272
 9264SOL    HW239426   2.911   4.415   2.398  1.0357  1.2861  0.0139
 9265SOL     OW39427   4.202   3.036   7.112 -0.2589  0.2374  0.2960
 9265SOL    HW139428   4.202   3.035   7.207  0.8873  1.0518  0.3048
 9265SOL    HW239429   4.233   3.126   7.102  0.9444 -0.5544 -3.2009
 9266SOL     OW39430   1.470   0.609   6.551  0.3497 -0.3586  0.7437
 9266SOL    HW139431   1.508   0.696   6.568  0.2012 -0.4513  1.5596
 9266SOL    HW239432   1.457   0.610   6.456  0.4018  0.1153  0.7401
 9267SOL     OW39433   4.381   0.995   5.926  0.2550 -0.1731 -0.1125
 9267SOL    HW139434   4.332   1.056   5.982  0.6267  1.4510 -1.5539
 9267SOL    HW239435   4.451   1.048   5.888 -0.8531 -0.5305 -2.6568
 9268SOL     OW39436   1.655   1.372   6.644 -0.0849 -0.0223  0.0844
 9268SOL    HW139437   1.657   1.442   6.579 -2.6139 -0.6037 -0.6031
 9268SOL    HW239438   1.725   1.389   6.707  0.3984  0.9272 -0.7109
 9269SOL     OW39439   0.404   0.550   6.051 -0.2883  0.3132 -0.0684
 9269SOL    HW139440   0.442   0.474   6.096 -1.1331  0.1865  0.4236
 9269SOL    HW239441   0.462   0.625   6.068  0.3653 -0.1535 -0.2209
 9270SOL     OW39442   1.596   4.328  12.110  0.0463 -0.2632  0.0974
 9270SOL    HW139443   1.503   4.350  12.105 -0.4127 -2.3672 -0.9649
 9270SOL    HW239444   1.598   4.254  12.170 -0.7154 -0.9058 -0.6460
 9271SOL     OW39445   3.115   4.049  16.015  0.2979 -0.0422  0.2547
 9271SOL    HW139446   3.189   4.087  16.063 -0.3195 -0.2527  1.3801
 9271SOL    HW239447   3.161   4.016  15.938 -1.0097 -0.7934 -0.1966
 9272SOL     OW39448   3.565   0.942   0.436 -0.1059 -0.4213 -0.0538
 9272SOL    HW139449   3.500   0.872   0.443 -0.0795 -0.2931  1.5050
 9272SOL    HW239450   3.510   1.011   0.398  0.3868  0.1261  0.2240
 9273SOL     OW39451   2.247   2.197   2.096 -0.7337 -0.2188  0.0123
 9273SOL    HW139452   2.313   2.213   2.163  0.3988 -1.2880 -0.8383
 9273SOL    HW239453   2.281   2.118   2.056 -0.5092 -0.4567  0.6756
 9274SOL     OW39454   3.837   4.568   3.012 -0.3309  0.2689  0.1051
 9274SOL    HW139455   3.801   4.512   2.943  1.0058 -1.8565  1.1486
 9274SOL    HW239456   3.856   4.515   3.089 -3.1229 -0.4849  0.3037
 9275SOL     OW39457   3.297   3.558   4.687 -0.0811  0.1412 -0.1346
 9275SOL    HW139458   3.300   3.643   4.643  3.0537  0.3784  0.5007
 9275SOL    HW239459   3.203   3.562   4.703 -0.2907  1.2103 -1.6012
 9276SOL     OW39460   0.955   0.681   2.660  0.4716 -0.0874 -0.4692
 9276SOL    HW139461   0.989   0.766   2.687 -0.7332 -0.0270  0.8572
 9276SOL    HW239462   0.971   0.625   2.737  1.7660 -0.8855 -1.3140
 9277SOL     OW39463   2.117   1.120   0.502 -0.2064 -0.7749  0.4632
 9277SOL    HW139464   2.205   1.081   0.509 -0.0720 -1.0495 -2.5222
 9277SOL    HW239465   2.076   1.038   0.474 -0.1289 -0.6062 -0.1472
 9278SOL     OW39466   0.643   1.892   2.499 -0.4196  0.0439  0.3895
 9278SOL    HW139467   0.721   1.943   2.475 -0.8523  0.4663 -0.1285
 9278SOL    HW239468   0.671   1.820   2.554 -1.9841  0.7470  2.1129
 9279SOL     OW39469   0.695   0.511  12.180  0.4263 -0.0873  0.0210
 9279SOL    HW139470   0.705   0.606  12.175  2.1246 -0.3060 -0.4931
 9279SOL    HW239471   0.741   0.489  12.099 -2.8418  0.2063 -1.9217
 9280SOL     OW39472   1.428   2.327   7.476 -0.0470  0.8021  0.2967
 9280SOL    HW139473   1.355   2.288   7.428  3.0681 -1.8342 -2.3273
 9280SOL    HW239474   1.415   2.414   7.439  1.4565  1.2538  0.8011
 9281SOL     OW39475   3.326   1.298   4.951  0.5885  0.4135 -0.4847
 9281SOL    HW139476   3.281   1.360   5.009  1.2569  1.5723 -1.2125
 9281SOL    HW239477   3.259   1.234   4.928  0.9974 -0.1736 -0.0495
 9282SOL     OW39478   0.985   4.597  12.124 -0.5166  0.5734  0.0853
 9282SOL    HW139479   0.913   4.587  12.186 -0.9416 -1.4403 -0.7193
 9282SOL    HW239480   1.041   4.522  12.144 -1.4592 -0.0266  0.4822
 9283SOL     OW39481   2.053   2.829  12.070  0.0076  0.1559  0.0422
 9283SOL    HW139482   2.054   2.741  12.109 -2.9201  0.4828  0.8345
 9283SOL    HW239483   2.063   2.881  12.150  0.8501  0.0084  0.0291
 9284SOL     OW39484   1.604   2.065  13.306  0.0481  0.0670 -0.7912
 9284SOL    HW139485   1.616   2.147  13.258  0.6871  0.5690  0.2237
 9284SOL    HW239486   1.516   2.039  13.278 -0.8955  1.1748  1.1417
 9285SOL     OW39487   2.790   4.493   7.620  0.4808  0.1945 -0.4084
 9285SOL    HW139488   2.817   4.507   7.711  0.2590  0.6358 -0.4113
 9285SOL    HW239489   2.730   4.567   7.609  0.2165 -0.2578 -1.9157
 9286SOL     OW39490   2.891   1.783   3.052 -0.4155  0.1627 -0.3571
 9286SOL    HW139491   2.842   1.822   3.125 -1.0762  1.0396 -1.2628
 9286SOL    HW239492   2.837   1.806   2.976 -2.0290 -1.4469  0.2890
 9287SOL     OW39493   4.431   1.415   4.856  0.4144 -0.2407  0.0166
 9287SOL    HW139494   4.515   1.389   4.894 -0.6214  0.8847  3.1373
 9287SOL    HW239495   4.446   1.510   4.857 -0.4176 -0.1011 -0.3824
 9288SOL     OW39496   4.013   1.503   3.024 -0.2738 -0.6124  0.1247
 9288SOL    HW139497   4.105   1.488   3.044  0.2619  1.0171 -1.1789
 9288SOL    HW239498   3.981   1.413   3.035  2.8610 -1.5749  1.2836
 9289SOL     OW39499   4.569   1.859  12.830 -0.2885  0.2406 -0.3628
 9289SOL    HW139500   4.540   1.929  12.888 -0.1654 -0.6576  0.7840
 9289SOL    HW239501   4.487   1.822  12.797  0.0400 -1.4101  0.6815
 9290SOL     OW39502   2.469   1.330   0.806 -0.0222 -0.3585 -0.1154
 9290SOL    HW139503   2.481   1.394   0.876 -1.1462 -2.1615  1.7569
 9290SOL    HW239504   2.501   1.368   0.725 -0.5328 -1.5049 -0.8623
 9291SOL     OW39505   3.186   3.164   7.313  0.0268  0.9021 -0.0915
 9291SOL    HW139506   3.254   3.210   7.263 -1.8476  2.6965 -1.0355
 9291SOL    HW239507   3.159   3.236   7.370 -2.7381  0.7875 -1.2420
 9292SOL     OW39508   1.731   3.789  16.273  0.1800 -0.2887 -0.2431
 9292SOL    HW139509   1.746   3.808  16.181  0.3310  0.9538  0.0426
 9292SOL    HW239510   1.820   3.813  16.302  0.8528  1.5658 -3.9357
 9293SOL     OW39511   4.425   0.916   4.006  0.0848  0.0905  0.0268
 9293SOL    HW139512   4.397   0.972   4.078 -0.5963  2.3973 -2.0315
 9293SOL    HW239513   4.507   0.888   4.047 -0.8702 -1.4013  0.8945
 9294SOL     OW39514   0.072   0.430   4.309 -0.1742  0.1138 -0.3406
 9294SOL    HW139515   0.028   0.513   4.289 -0.4002 -0.7987 -3.6860
 9294SOL    HW239516   0.016   0.359   4.279  1.5683 -1.1400 -0.6186
 9295SOL     OW39517   1.307   4.700   6.879  0.2911  0.2243  0.6275
 9295SOL    HW139518   1.327   4.715   6.972 -1.1851  2.1758  0.6181
 9295SOL    HW239519   1.307   0.051   6.842 -0.1909 -1.0498 -2.4303
 9296SOL     OW39520   1.982   3.105   3.227 -0.2111  0.9783  0.0318
 9296SOL    HW139521   1.957   3.193   3.201  2.2187  1.5484 -0.3706
 9296SOL    HW239522   1.985   3.110   3.322  0.9093 -0.3839  0.0680
 9297SOL     OW39523   2.091   4.688  12.485  0.0808  0.1874  0.0018
 9297SOL    HW139524   2.127   4.599  12.484 -1.6156 -0.4959  2.7285
 9297SOL    HW239525   2.031   4.680  12.559  0.0352  0.1489 -0.0390
 9298SOL     OW39526   4.434   1.949  16.727  0.2145  0.3541  0.3747
 9298SOL    HW139527   4.373   1.943  16.654  1.3894  0.6571 -0.6329
 9298SOL    HW239528   4.382   1.952  16.807 -0.9136 -1.8802 -0.2911
 9299SOL     OW39529   2.175   1.234   5.804 -0.1508  0.1046 -0.6622
 9299SOL    HW139530   2.240   1.193   5.748 -1.6959 -0.4706 -2.0261
 9299SOL    HW239531   2.202   1.180   5.878  1.1867  0.9232 -0.5476
 9300SOL     OW39532   3.498   1.186   2.189 -0.6646  0.1657 -0.6629
 9300SOL    HW139533   3.471   1.275   2.214 -1.7747 -1.5549  4.1437
 9300SOL    HW239534   3.428   1.128   2.218  1.7172 -1.4349  1.7878
 9301SOL     OW39535   3.704   1.918   2.392  0.0229 -0.0841 -0.7491
 9301SOL    HW139536   3.655   1.848   2.349 -0.9066  0.5686 -0.7424
 9301SOL    HW239537   3.743   1.874   2.467  1.2265  1.9841 -0.1846
 9302SOL     OW39538   2.485   2.049   1.244  0.2766  0.2769 -0.2314
 9302SOL    HW139539   2.490   2.143   1.227  2.2077  0.0448 -0.9172
 9302SOL    HW239540   2.389   2.042   1.244  0.4963 -3.0714 -1.4730
 9303SOL     OW39541   0.925   0.547   2.918 -0.8401  0.2767  0.0113
 9303SOL    HW139542   0.832   0.569   2.922 -0.9498 -0.6248  2.4511
 9303SOL    HW239543   0.929   0.452   2.905  0.0659  0.4967 -1.2938
 9304SOL     OW39544   3.358   3.307   7.172  0.0547  0.1856 -0.2735
 9304SOL    HW139545   3.317   3.392   7.188  0.7753  0.2808  1.0253
 9304SOL    HW239546   3.377   3.307   7.078  1.4787  3.4640  0.0242
 9305SOL     OW39547   1.725   2.164   6.695 -0.1947  0.0533  0.2191
 9305SOL    HW139548   1.727   2.183   6.789  0.3423  1.0049  0.0172
 9305SOL    HW239549   1.814   2.185   6.666 -0.5098  2.0401  0.7051
 9306SOL     OW39550   0.249   0.771   7.487  0.5524 -0.7922  0.0236
 9306SOL    HW139551   0.330   0.747   7.532  1.7208  1.1218 -1.0590
 9306SOL    HW239552   0.269   0.737   7.400  2.2137 -0.8962  0.4382
 9307SOL     OW39553   0.009   2.982   8.077  0.2661  0.0485 -0.9167
 9307SOL    HW139554   0.064   3.055   8.049 -1.0406  1.5341  0.3926
 9307SOL    HW239555   4.736   3.010   8.168  2.4511  0.6737 -0.8383
 9308SOL     OW39556   4.613   2.409   1.455  0.0321  0.0910  0.1315
 9308SOL    HW139557   4.525   2.391   1.422  0.0640  0.1908 -0.0069
 9308SOL    HW239558   4.613   2.348   1.528 -2.7137 -0.6609 -0.4987
 9309SOL     OW39559   2.746   4.701   0.235 -0.1247  0.1289  0.3833
 9309SOL    HW139560   2.822   4.646   0.249 -1.0196 -0.7796  1.6881
 9309SOL    HW239561   2.698   4.693   0.317  0.1211  3.5819  0.8646
 9310SOL     OW39562   4.268   4.027   2.688 -0.2095 -0.1403 -0.3939
 9310SOL    HW139563   4.267   3.966   2.613  1.9078 -0.2993 -0.3002
 9310SOL    HW239564   4.361   4.020   2.706  0.3235  1.9711 -2.3627
 9311SOL     OW39565   1.094   3.833   1.802 -0.0842  0.1495  0.0784
 9311SOL    HW139566   1.163   3.824   1.867  1.0932 -0.7748 -1.2922
 9311SOL    HW239567   1.139   3.793   1.728 -2.1801 -0.1681 -1.0169
 9312SOL     OW39568   2.687   0.183   4.041  0.3682 -0.9332 -0.0537
 9312SOL    HW139569   2.691   0.164   4.134 -1.6525  1.2800  0.4810
 9312SOL    HW239570   2.599   0.148   4.027  0.2468 -0.5642 -0.2139
 9313SOL     OW39571   0.330   0.899   9.000 -0.1533  0.0158  0.1659
 9313SOL    HW139572   0.255   0.931   9.051 -0.8700 -0.4021 -0.6322
 9313SOL    HW239573   0.282   0.857   8.928  1.5565  0.1325 -1.0380
 9314SOL     OW39574   3.688   3.953  10.857  0.5618 -0.1447  0.1820
 9314SOL    HW139575   3.768   3.902  10.863  0.4999 -0.2716 -0.0556
 9314SOL    HW239576   3.636   3.895  10.802  0.0485  0.4584  0.0296
 9315SOL     OW39577   2.812   4.269   2.612  0.1105 -0.9508  0.0196
 9315SOL    HW139578   2.841   4.358   2.634  0.9709 -1.0188 -0.8476
 9315SOL    HW239579   2.895   4.227   2.633 -0.3876 -2.1685 -0.4512
 9316SOL     OW39580   4.433   2.017   8.003 -0.3590  0.0140 -0.3720
 9316SOL    HW139581   4.364   2.028   8.069 -0.8490  2.7740 -1.3398
 9316SOL    HW239582   4.427   2.087   7.937 -0.2115  2.1025  1.8161
 9317SOL     OW39583   0.749   1.882  10.681  0.4625  0.2242  0.7021
 9317SOL    HW139584   0.793   1.883  10.766 -2.2872 -0.9081  2.1276
 9317SOL    HW239585   0.665   1.851  10.712 -0.2535  0.6090 -0.8454
 9318SOL     OW39586   1.207   3.715   4.599  0.9297  0.2944  0.2093
 9318SOL    HW139587   1.294   3.711   4.560 -0.5047 -1.6643 -2.8323
 9318SOL    HW239588   1.199   3.636   4.654  1.6305 -1.0339 -1.5819
 9319SOL     OW39589   4.345   4.444   4.909  0.0802  0.4779 -0.0544
 9319SOL    HW139590   4.408   4.485   4.850  0.2882  1.7646  1.0519
 9319SOL    HW239591   4.295   4.385   4.853 -0.7487 -0.1543  1.3389
 9320SOL     OW39592   0.841   4.727   5.415  0.5592  0.0620 -0.0939
 9320SOL    HW139593   0.800   0.076   5.409 -0.1279 -0.3239 -1.0592
 9320SOL    HW239594   0.772   4.668   5.445 -0.3954  1.6531  0.8365
 9321SOL     OW39595   0.461   1.332   3.923  0.2332  0.0514  0.1787
 9321SOL    HW139596   0.443   1.407   3.866 -0.1342 -1.4368 -1.6897
 9321SOL    HW239597   0.513   1.372   3.992  1.2331 -1.9630  0.5912
 9322SOL     OW39598   2.600   3.133  12.721 -0.0847 -0.8198  0.5129
 9322SOL    HW139599   2.602   3.066  12.652  1.8811 -0.6206  0.3671
 9322SOL    HW239600   2.580   3.209  12.666  0.3313  0.7183  2.4764
 9323SOL     OW39601   0.598   3.446   8.602 -0.8266  0.0467  0.5891
 9323SOL    HW139602   0.691   3.425   8.597 -1.3918 -2.4915  0.7011
 9323SOL    HW239603   0.561   3.381   8.542  1.8133 -1.0612  0.1395
 9324SOL     OW39604   4.363   3.516   1.982 -0.1761 -0.0094  0.2740
 9324SOL    HW139605   4.364   3.442   2.042  2.9616  0.1353  0.4166
 9324SOL    HW239606   4.354   3.591   2.041  1.7594  0.1529  0.3663
 9325SOL     OW39607   3.285   4.157   7.886 -0.1160 -0.2519 -0.1590
 9325SOL    HW139608   3.274   4.095   7.813 -1.5402 -1.2959  0.9424
 9325SOL    HW239609   3.351   4.102   7.929  0.5978  3.1237  3.0610
 9326SOL     OW39610   0.354   0.423   2.723  0.0012  0.7776  0.0240
 9326SOL    HW139611   0.339   0.370   2.801  0.3864 -0.5828 -0.8116
 9326SOL    HW239612   0.321   0.372   2.648  2.1140  0.3030 -0.6066
 9327SOL     OW39613   1.123   3.918   8.589  0.5607 -0.0107  0.1755
 9327SOL    HW139614   1.153   3.941   8.502 -1.6392 -0.0787 -0.6046
 9327SOL    HW239615   1.104   4.005   8.624 -0.0861  0.6436 -1.8341
 9328SOL     OW39616   0.730   2.609   7.054  0.2324 -0.2036 -0.6418
 9328SOL    HW139617   0.770   2.523   7.043  0.2224 -0.2748 -0.1502
 9328SOL    HW239618   0.643   2.580   7.082 -0.0381  1.1627 -0.0428
 9329SOL     OW39619   1.871   1.999   4.701  0.2380  0.0753  0.2904
 9329SOL    HW139620   1.887   2.081   4.654 -0.9556  0.9599  1.4172
 9329SOL    HW239621   1.819   2.038   4.772  1.2174 -0.1820  1.1452
 9330SOL     OW39622   3.023   4.693   8.279 -0.1644 -0.3241 -0.1577
 9330SOL    HW139623   2.950   4.716   8.220 -0.5012 -0.3238  0.2591
 9330SOL    HW239624   3.090   4.674   8.213 -2.4594 -0.9197 -2.3317
 9331SOL     OW39625   3.523   0.587   7.503  0.3128 -0.1965  0.0611
 9331SOL    HW139626   3.616   0.579   7.482  0.2198 -1.4916  0.1392
 9331SOL    HW239627   3.488   0.551   7.421  1.7999  1.8362 -1.4548
 9332SOL     OW39628   2.942   2.589  16.180 -0.1305  0.4272 -0.3139
 9332SOL    HW139629   2.975   2.506  16.215 -0.6914 -0.1511 -1.1606
 9332SOL    HW239630   2.852   2.597  16.212 -0.3216 -0.9373 -0.5001
 9333SOL     OW39631   0.822   2.468  12.636 -0.6642  1.1448 -0.0819
 9333SOL    HW139632   0.816   2.469  12.541  0.2366  1.6735 -0.1362
 9333SOL    HW239633   0.877   2.391  12.652  0.8643  2.2913  0.1646
 9334SOL     OW39634   2.302   0.317   1.927 -0.7064  1.2828  0.4078
 9334SOL    HW139635   2.337   0.283   1.844  0.3314  1.0676  0.9388
 9334SOL    HW239636   2.383   0.330   1.975 -1.5535 -0.4832  2.2997
 9335SOL     OW39637   3.984   1.711   7.042 -0.2129  0.4853 -0.0049
 9335SOL    HW139638   4.004   1.648   6.973 -0.9961  1.1207 -0.8138
 9335SOL    HW239639   3.959   1.647   7.109 -1.1746 -2.0738 -2.8196
 9336SOL     OW39640   2.622   1.209  13.006  0.6552  0.5218 -0.1465
 9336SOL    HW139641   2.526   1.209  13.001  0.6582  0.9531 -0.1859
 9336SOL    HW239642   2.640   1.132  13.059  1.3398  0.3401 -0.6390
 9337SOL     OW39643   4.519   4.615   4.772  0.4657 -0.3072 -0.5545
 9337SOL    HW139644   4.587   4.626   4.706  0.3870 -1.4421 -0.8367
 9337SOL    HW239645   4.475   4.700   4.781  1.9754  0.3751  0.3378
 9338SOL     OW39646   0.703   0.563   7.042  0.4828  0.6675  0.0504
 9338SOL    HW139647   0.793   0.594   7.032  0.7207 -0.8232 -2.3021
 9338SOL    HW239648   0.718   0.472   7.017 -1.0983  0.7661 -1.2748
 9339SOL     OW39649   2.720   4.665   7.190 -0.1620 -0.3765  0.2291
 9339SOL    HW139650   2.793   4.711   7.232  0.3858 -0.7325 -0.3180
 9339SOL    HW239651   2.756   4.634   7.107  0.6719 -2.1692  1.2617
 9340SOL     OW39652   0.581   3.668   9.472  0.1338 -0.2273 -0.1422
 9340SOL    HW139653   0.654   3.676   9.533 -1.0727  0.2891  1.2382
 9340SOL    HW239654   0.534   3.749   9.492 -2.5340 -1.5375 -1.0895
 9341SOL     OW39655   2.437   4.493   7.588 -0.2760  0.3926 -0.2556
 9341SOL    HW139656   2.501   4.495   7.517  0.4645  0.1593  0.4093
 9341SOL    HW239657   2.387   4.419   7.553 -1.3466 -0.0016  2.1003
 9342SOL     OW39658   0.109   2.870   7.844 -0.1017  0.5299 -0.1393
 9342SOL    HW139659   0.068   2.895   7.927  0.8628 -0.2410  0.5617
 9342SOL    HW239660   0.091   2.951   7.796 -2.5026  0.6563  0.9637
 9343SOL     OW39661   2.952   2.380  16.363  0.7386  0.1740  0.6264
 9343SOL    HW139662   3.028   2.424  16.402  2.4866  0.2632 -2.9250
 9343SOL    HW239663   2.953   2.287  16.387  2.9683 -0.3765 -1.6518
 9344SOL     OW39664   2.933   2.618   4.624  0.7018  0.0859 -0.3081
 9344SOL    HW139665   2.905   2.536   4.665 -0.5305  1.1239  0.9106
 9344SOL    HW239666   2.903   2.683   4.687  1.5929 -0.4047  0.6341
 9345SOL     OW39667   3.715   1.350  12.073 -0.2716 -0.1725 -0.2036
 9345SOL    HW139668   3.789   1.409  12.057  0.3153 -0.7366  0.4226
 9345SOL    HW239669   3.754   1.264  12.061 -0.5498 -0.0813 -1.7217
 9346SOL     OW39670   1.318   0.107   3.612  0.1531 -0.3987  0.5116
 9346SOL    HW139671   1.254   0.107   3.683 -2.1437  0.0033 -1.5346
 9346SOL    HW239672   1.268   0.147   3.540  0.7148 -0.3197  0.1616
 9347SOL     OW39673   4.517   1.705   5.611  0.5571  0.2588  0.7997
 9347SOL    HW139674   4.456   1.763   5.658  0.2738 -0.9611  1.9583
 9347SOL    HW239675   4.565   1.774   5.565 -1.7468  1.4885  0.1788
 9348SOL     OW39676   4.579   2.477   2.945 -0.4410 -0.0560 -0.0732
 9348SOL    HW139677   4.525   2.502   2.870 -2.0688 -0.7942  0.8729
 9348SOL    HW239678   4.512   2.484   3.013 -2.1509 -0.6589 -1.6932
 9349SOL     OW39679   4.689   2.319   8.884 -0.2661  0.7392 -0.4965
 9349SOL    HW139680   0.018   2.269   8.837 -0.5669 -0.3899  0.2862
 9349SOL    HW239681   0.006   2.373   8.941 -0.0637 -0.6722  0.6471
 9350SOL     OW39682   0.262   3.828   1.774 -0.1361  0.2037  0.0239
 9350SOL    HW139683   0.174   3.829   1.738 -0.7816  3.2965  1.6844
 9350SOL    HW239684   0.246   3.765   1.845 -0.6633  1.2993  0.8862
 9351SOL     OW39685   2.520   0.182  13.269  0.3351 -0.1208  0.0328
 9351SOL    HW139686   2.565   0.239  13.330  0.0239 -1.0106  1.1073
 9351SOL    HW239687   2.592   0.119  13.262  1.7695  1.5038  0.2646
 9352SOL     OW39688   0.037   2.355   3.223  0.0540  0.4578 -0.3379
 9352SOL    HW139689   0.033   2.450   3.236  0.1065  0.3771  0.2773
 9352SOL    HW239690   4.708   2.331   3.287  0.7180  1.0568  0.5720
 9353SOL     OW39691   2.937   2.979  11.502 -0.0369 -0.0610  0.1959
 9353SOL    HW139692   2.994   2.930  11.562 -0.6019 -0.2526  0.5773
 9353SOL    HW239693   2.870   2.914  11.478 -0.0979 -0.4994  1.5370
 9354SOL     OW39694   3.275   3.947  15.786  0.1544 -0.0890 -0.5532
 9354SOL    HW139695   3.286   3.925  15.694  0.9218 -2.1589  0.0292
 9354SOL    HW239696   3.354   3.904  15.820  0.3360  2.5844  2.4330
 9355SOL     OW39697   0.189   0.411   1.893  0.0034  0.0121  0.4291
 9355SOL    HW139698   0.214   0.322   1.919 -1.0529 -0.5753 -0.5618
 9355SOL    HW239699   0.163   0.447   1.978 -0.6295  0.0190  0.2330
 9356SOL     OW39700   0.010   0.561   2.968 -0.0943  0.7054 -0.3502
 9356SOL    HW139701   4.663   0.592   2.937 -0.2696  0.3853 -0.1884
 9356SOL    HW239702   0.071   0.607   2.910 -0.1071 -0.2481 -1.1349
 9357SOL     OW39703   4.245   2.203   4.891  0.1345 -0.3249 -0.1663
 9357SOL    HW139704   4.318   2.219   4.951 -0.0938 -1.3748  0.3940
 9357SOL    HW239705   4.186   2.272   4.923  1.7724  1.3688 -0.8127
 9358SOL     OW39706   1.985   0.090   1.784  0.7104  0.1540  0.2479
 9358SOL    HW139707   2.054   0.062   1.723 -0.2633  2.4953 -1.9476
 9358SOL    HW239708   1.916   0.024   1.777  1.9400 -1.0609 -0.5012
 9359SOL     OW39709   1.839   1.813   3.028 -0.2575 -0.0387  0.2526
 9359SOL    HW139710   1.801   1.891   3.069  1.4705  0.2364  1.3402
 9359SOL    HW239711   1.796   1.821   2.943  0.9771  2.1829 -0.1688
 9360SOL     OW39712   0.991   4.608   5.638 -0.1738 -0.5728  0.1740
 9360SOL    HW139713   0.936   4.667   5.587  4.4326  3.1629 -0.5142
 9360SOL    HW239714   1.077   4.640   5.610  0.3858 -1.1806  1.2085
 9361SOL     OW39715   1.423   1.798   5.746  0.2167  0.0512 -0.0378
 9361SOL    HW139716   1.403   1.718   5.795  0.9538  0.0846  0.3311
 9361SOL    HW239717   1.516   1.779   5.729  0.4550 -1.3042  2.8481
 9362SOL     OW39718   2.645   2.569   1.256  0.5099 -0.0262 -0.1614
 9362SOL    HW139719   2.733   2.550   1.289  1.0419 -0.4477 -1.7864
 9362SOL    HW239720   2.646   2.648   1.201  1.0110 -0.3553 -0.6293
 9363SOL     OW39721   1.553   2.304  16.487  0.4889  0.3927 -0.7960
 9363SOL    HW139722   1.487   2.326  16.553  0.0084  3.0630 -2.2042
 9363SOL    HW239723   1.500   2.247  16.431 -0.8259  0.2417  0.5897
 9364SOL     OW39724   2.180   3.231  10.331  0.0437 -0.2704 -0.4314
 9364SOL    HW139725   2.268   3.265  10.347  0.5930 -1.0456 -1.7789
 9364SOL    HW239726   2.128   3.298  10.376 -1.5108 -0.3496 -2.1370
 9365SOL     OW39727   2.165   0.276   6.237 -0.0068 -0.2302  0.0166
 9365SOL    HW139728   2.115   0.311   6.163  0.3528  0.1360 -0.0509
 9365SOL    HW239729   2.136   0.186   6.222 -0.4830 -0.1990  0.7806
 9366SOL     OW39730   0.130   3.558   8.090  0.8056 -0.2609  0.2585
 9366SOL    HW139731   0.115   3.609   8.169  2.1816 -0.0922  0.4095
 9366SOL    HW239732   0.152   3.474   8.129  1.1713  0.6886  2.0698
 9367SOL     OW39733   4.227   3.646  10.494 -0.3944  0.0074 -0.3460
 9367SOL    HW139734   4.166   3.705  10.450  2.1602  1.6419 -1.6858
 9367SOL    HW239735   4.306   3.697  10.514 -0.0664 -1.5510  2.4358
 9368SOL     OW39736   1.204   0.433   6.377 -0.1009  0.2609 -0.8769
 9368SOL    HW139737   1.223   0.362   6.316  2.3433  0.3747 -0.2489
 9368SOL    HW239738   1.238   0.511   6.332  0.2255  0.1819 -0.7634
 9369SOL     OW39739   2.372   4.122   9.313  0.4591  0.1960 -0.0755
 9369SOL    HW139740   2.279   4.116   9.291  0.6945 -0.4669 -0.8713
 9369SOL    HW239741   2.385   4.044   9.366  2.3514 -0.0564 -0.9185
 9370SOL     OW39742   0.832   3.278  11.345 -0.4157 -0.1308  0.1757
 9370SOL    HW139743   0.890   3.325  11.405  0.0002 -1.2123  0.6247
 9370SOL    HW239744   0.884   3.272  11.264 -0.4896  0.1402  0.1090
 9371SOL     OW39745   4.003   3.281   6.407  0.4938  0.5554  0.0611
 9371SOL    HW139746   4.028   3.368   6.439  0.8916  0.2305  0.6218
 9371SOL    HW239747   3.922   3.277   6.458  0.2177  2.6009 -0.2071
 9372SOL     OW39748   4.068   3.322  17.407  0.1527 -0.1304  0.2691
 9372SOL    HW139749   4.104   3.320  17.496  0.4216 -1.0919  0.1332
 9372SOL    HW239750   4.127   3.267  17.356  1.3745  0.1403  1.4210
 9373SOL     OW39751   2.336   1.295   6.398 -0.0191  0.0939  0.5225
 9373SOL    HW139752   2.257   1.348   6.409 -0.6094 -0.2147 -2.4881
 9373SOL    HW239753   2.395   1.360   6.436 -1.2586  1.7142 -0.2907
 9374SOL     OW39754   0.088   4.368  10.568 -0.7010  0.1680 -0.2559
 9374SOL    HW139755   0.101   4.360  10.474 -2.3481  0.6598 -0.5269
 9374SOL    HW239756   0.167   4.414  10.596 -0.4833 -0.7648  0.6855
 9375SOL     OW39757   4.128   3.723   2.265 -0.6952  0.1026 -0.1752
 9375SOL    HW139758   4.042   3.757   2.240 -0.7638  0.7713  0.9563
 9375SOL    HW239759   4.102   3.635   2.294  0.0793 -0.2225 -0.4899
 9376SOL     OW39760   1.515   0.455   5.141 -0.0261  0.3755 -0.2656
 9376SOL    HW139761   1.557   0.384   5.094  1.1765  1.7207 -1.2195
 9376SOL    HW239762   1.425   0.441   5.110 -0.4624  1.3259  0.5510
 9377SOL     OW39763   4.050   3.169   8.859 -0.2767  0.4593 -0.2837
 9377SOL    HW139764   4.051   3.224   8.781  0.9297  0.9355  0.0772
 9377SOL    HW239765   4.103   3.096   8.829 -1.2694  0.4693 -2.0710
 9378SOL     OW39766   2.335   2.442  14.370 -0.2578 -0.4839  0.0003
 9378SOL    HW139767   2.300   2.531  14.380 -0.8118 -0.6223 -0.6645
 9378SOL    HW239768   2.406   2.449  14.306  0.7527 -1.8114  0.9937
 9379SOL     OW39769   3.195   3.960   7.694  0.5927 -0.1152  0.2991
 9379SOL    HW139770   3.117   3.925   7.737 -0.6907  0.2404 -1.7134
 9379SOL    HW239771   3.183   3.926   7.605 -0.7289  0.8492  0.0984
 9380SOL     OW39772   2.442   2.779   4.080 -0.2321 -0.0544  0.3533
 9380SOL    HW139773   2.482   2.733   4.154  0.3917 -1.5780 -0.9331
 9380SOL    HW239774   2.514   2.785   4.016 -0.0407 -0.6710  0.5103
 9381SOL     OW39775   1.871   1.538   3.083 -0.3331 -0.6198 -0.5157
 9381SOL    HW139776   1.801   1.498   3.032 -1.6589  0.4935  0.4266
 9381SOL    HW239777   1.851   1.629   3.060  1.0410  0.1514  1.3310
 9382SOL     OW39778   3.487   3.400  17.629 -0.6021 -0.1324  0.0202
 9382SOL    HW139779   3.394   3.380  17.621 -0.9449  1.6849 -0.7173
 9382SOL    HW239780   3.499   3.446  17.546 -2.6395  2.4629  1.1647
 9383SOL     OW39781   1.893   0.464   3.426 -0.2690  0.1351  0.5018
 9383SOL    HW139782   1.822   0.463   3.490 -0.2787 -0.7789  0.4765
 9383SOL    HW239783   1.865   0.537   3.372  0.5557  0.8000  0.9716
 9384SOL     OW39784   4.149   4.428   3.066 -0.0209 -0.0827  0.2464
 9384SOL    HW139785   4.162   4.519   3.040  1.3113  0.2130  1.9247
 9384SOL    HW239786   4.239   4.396   3.071  0.4532  0.9815 -1.2401
 9385SOL     OW39787   0.790   3.354   9.230  0.3368  0.4930  0.3977
 9385SOL    HW139788   0.852   3.303   9.282 -1.0652 -2.4860 -0.8701
 9385SOL    HW239789   0.798   3.317   9.142 -0.0592  1.8161 -0.2065
 9386SOL     OW39790   0.889   0.077   6.707 -0.4861  0.5003 -0.1742
 9386SOL    HW139791   0.929   0.053   6.790  1.9564  1.7199 -1.0090
 9386SOL    HW239792   0.909   0.170   6.716  0.4105  0.4733 -1.8629
 9387SOL     OW39793   3.692   3.514   5.624 -0.2168  0.0720  0.9564
 9387SOL    HW139794   3.677   3.608   5.612 -1.8662 -0.4517 -1.1125
 9387SOL    HW239795   3.768   3.498   5.568  1.1492 -0.2290  2.8882
 9388SOL     OW39796   3.901   0.884   3.576  0.1878  0.1257 -0.3414
 9388SOL    HW139797   3.849   0.963   3.590  2.5085  1.0087  3.2843
 9388SOL    HW239798   3.881   0.852   3.488 -1.5698  0.3924 -0.0379
 9389SOL     OW39799   2.111   3.318  14.940 -0.2131 -0.1535 -0.3541
 9389SOL    HW139800   2.051   3.387  14.970  0.1679 -1.0376  2.4962
 9389SOL    HW239801   2.187   3.369  14.912 -0.6767 -0.5769 -2.3641
 9390SOL     OW39802   4.462   4.280   5.938 -0.2158  0.4657 -0.3359
 9390SOL    HW139803   4.461   4.194   5.980 -0.9565 -0.3581 -2.0345
 9390SOL    HW239804   4.545   4.321   5.963 -0.1632 -0.4677  1.0347
 9391SOL     OW39805   2.015   1.982   5.189 -0.3966  0.0166 -0.0570
 9391SOL    HW139806   2.018   1.948   5.100  1.6162 -2.4067  0.9412
 9391SOL    HW239807   1.943   2.045   5.183 -0.0270  0.2022 -2.4672
 9392SOL     OW39808   1.367   2.059   2.502  0.4226  0.1682 -0.3027
 9392SOL    HW139809   1.443   2.097   2.548 -1.1701  1.1211  1.5565
 9392SOL    HW239810   1.307   2.132   2.520 -1.5776 -1.6659  0.4078
 9393SOL     OW39811   3.087   1.248  13.392 -0.1198 -0.1432 -0.2356
 9393SOL    HW139812   3.133   1.320  13.436 -0.5214 -2.0946  3.4376
 9393SOL    HW239813   3.148   1.230  13.321  0.0034 -0.8569  0.0456
 9394SOL     OW39814   1.360   3.477   0.907  0.0148  0.6033 -0.0256
 9394SOL    HW139815   1.278   3.488   0.954 -1.0667 -0.9853 -1.5435
 9394SOL    HW239816   1.364   3.562   0.863 -1.1317  1.2745  1.1588
 9395SOL     OW39817   1.165   4.327   8.338 -0.3487  0.2793 -0.3660
 9395SOL    HW139818   1.093   4.275   8.375  0.5759 -0.0749  0.9267
 9395SOL    HW239819   1.124   4.380   8.269 -0.9778 -0.3498 -0.4761
 9396SOL     OW39820   2.208   0.879  12.318  0.2622 -0.4912  0.4594
 9396SOL    HW139821   2.190   0.793  12.355  0.0086 -0.7872 -0.3593
 9396SOL    HW239822   2.303   0.881  12.326  0.1250 -1.4351  2.2220
 9397SOL     OW39823   0.127   2.220   5.746  0.0080 -0.4753  0.1462
 9397SOL    HW139824   0.070   2.266   5.807  0.4395  0.4517 -0.1618
 9397SOL    HW239825   0.210   2.200   5.789 -0.1100  0.3887  0.7737
 9398SOL     OW39826   3.123   1.684   4.501  0.6091 -0.1754  0.0852
 9398SOL    HW139827   3.204   1.698   4.550 -0.7974  3.0431  1.5336
 9398SOL    HW239828   3.154   1.645   4.420 -2.6033 -1.9897 -0.2548
 9399SOL     OW39829   4.023   0.284  10.595 -0.0852 -0.0510  0.2404
 9399SOL    HW139830   4.098   0.224  10.602  0.5868  0.8449  0.7337
 9399SOL    HW239831   4.048   0.328  10.513  1.1321 -1.1160  0.0342
 9400SOL     OW39832   0.761   4.327   4.407  0.3159 -0.1083 -0.4386
 9400SOL    HW139833   0.798   4.361   4.326  1.5933 -2.3968 -0.8163
 9400SOL    HW239834   0.792   4.387   4.474  0.8415  0.2114 -0.9694
 9401SOL     OW39835   4.466   2.235  16.792 -0.6594 -0.2502 -0.4873
 9401SOL    HW139836   4.514   2.176  16.734  0.9362  0.0602  0.5122
 9401SOL    HW239837   4.390   2.248  16.737  0.0197  1.4709 -1.0045
 9402SOL     OW39838   3.502   3.249   8.698  0.4335  0.2531  0.3238
 9402SOL    HW139839   3.467   3.163   8.720 -0.2635  0.6329  0.6890
 9402SOL    HW239840   3.594   3.247   8.724  0.4913 -3.1716 -0.0963
 9403SOL     OW39841   1.492   1.655   4.605  0.4443 -0.3858  0.0991
 9403SOL    HW139842   1.487   1.738   4.558 -0.4228  0.8299  2.3402
 9403SOL    HW239843   1.406   1.654   4.646  1.4118 -1.2487  2.1379
 9404SOL     OW39844   3.923   4.562   8.741  0.2854  0.0925 -0.4698
 9404SOL    HW139845   3.992   4.624   8.717  0.5581  0.2455  0.7122
 9404SOL    HW239846   3.966   4.504   8.804  0.5301  1.5483  0.7219
 9405SOL     OW39847   1.392   4.284   6.838  0.4775 -0.5611 -0.5491
 9405SOL    HW139848   1.453   4.238   6.895  0.2168 -0.7640 -0.4346
 9405SOL    HW239849   1.426   4.373   6.849  0.2241 -0.5225 -0.0956
 9406SOL     OW39850   1.984   1.202   7.916 -0.1111 -0.1905 -0.1321
 9406SOL    HW139851   2.028   1.267   7.861  0.9935 -0.9699 -0.1746
 9406SOL    HW239852   1.958   1.262   7.986  2.5156  0.1576  0.5295
 9407SOL     OW39853   2.730   1.897   3.259 -0.0371  0.3728 -0.4498
 9407SOL    HW139854   2.754   1.990   3.260  0.9632  0.1124  0.3100
 9407SOL    HW239855   2.635   1.897   3.263  0.0004  0.1812  0.4715
 9408SOL     OW39856   1.650   2.974  12.325 -0.1782 -0.5441 -0.2835
 9408SOL    HW139857   1.728   2.923  12.347  0.5809  0.9793  0.6227
 9408SOL    HW239858   1.677   3.044  12.266 -3.6029  0.8866 -0.1802
 9409SOL     OW39859   0.238   2.355   4.973 -0.2803  0.3880  0.7412
 9409SOL    HW139860   0.180   2.415   4.926  1.7476  1.8326  0.1293
 9409SOL    HW239861   0.169   2.299   5.011  1.2976 -0.9649  1.6096
 9410SOL     OW39862   1.228   1.312   8.535 -0.2969 -0.2985  0.0152
 9410SOL    HW139863   1.211   1.328   8.442 -1.5651  4.2013  1.0584
 9410SOL    HW239864   1.149   1.264   8.560  0.9628 -2.6359 -0.4708
 9411SOL     OW39865   4.286   0.163  14.373  0.0062  0.4292  0.5922
 9411SOL    HW139866   4.281   0.256  14.352 -2.4661 -0.1187 -1.2750
 9411SOL    HW239867   4.233   0.124  14.304  0.0625  0.1193  0.7245
 9412SOL     OW39868   2.282   2.480  13.789 -0.2524  0.1521  0.4708
 9412SOL    HW139869   2.338   2.547  13.748 -0.2658  1.0376  1.9097
 9412SOL    HW239870   2.346   2.429  13.838 -0.1587  0.0465  0.2400
 9413SOL     OW39871   2.926   1.649   0.541 -0.4380 -0.2641  0.1634
 9413SOL    HW139872   2.940   1.712   0.612 -1.2717  0.4574 -0.3138
 9413SOL    HW239873   2.952   1.701   0.464  0.4659 -0.6205  0.2330
 9414SOL     OW39874   1.970   1.950   8.307  0.0828 -0.0761  0.2248
 9414SOL    HW139875   2.046   1.996   8.342  1.7413 -2.8448  0.2594
 9414SOL    HW239876   1.910   1.945   8.381 -0.2203  1.1879  0.0631
 9415SOL     OW39877   4.693   1.600  12.046 -0.6308  0.2587  0.0343
 9415SOL    HW139878   4.662   1.549  12.121  1.9931  1.8814  2.2062
 9415SOL    HW239879   4.688   1.690  12.077 -0.6548  0.3782 -0.3070
 9416SOL     OW39880   2.922   2.360  17.212 -0.3174 -0.3976  0.1548
 9416SOL    HW139881   2.888   2.309  17.139 -0.4729 -1.2335  0.8160
 9416SOL    HW239882   2.904   2.446  17.173  1.2369 -0.0951  0.1133
 9417SOL     OW39883   4.556   1.300  11.176 -0.1687 -0.3953 -0.4356
 9417SOL    HW139884   4.565   1.378  11.120 -1.2135  0.1500  0.1712
 9417SOL    HW239885   4.616   1.239  11.132 -2.0012 -2.2663 -0.3296
 9418SOL     OW39886   1.392   3.338   6.508 -0.1109  0.7391  0.6677
 9418SOL    HW139887   1.441   3.405   6.460 -2.5765  2.4254  0.5036
 9418SOL    HW239888   1.315   3.391   6.527 -1.4926 -0.5874 -1.2013
 9419SOL     OW39889   3.022   4.464   5.560 -0.1122  0.1943  0.3678
 9419SOL    HW139890   3.105   4.463   5.513 -0.9946 -2.2889 -1.0947
 9419SOL    HW239891   3.004   4.370   5.566  2.6633 -0.2114  2.4813
 9420SOL     OW39892   0.232   3.738  12.291  0.5036 -0.0441  0.2423
 9420SOL    HW139893   0.258   3.673  12.226  2.5101  0.1869  0.8011
 9420SOL    HW239894   0.235   3.683  12.369 -0.1622 -2.7915 -1.6584
 9421SOL     OW39895   1.661   2.000   3.725 -0.0281 -0.1514 -0.4725
 9421SOL    HW139896   1.591   2.065   3.722  0.9105  0.9359  1.1123
 9421SOL    HW239897   1.617   1.920   3.754  1.8148 -1.3732 -1.0121
 9422SOL     OW39898   1.047   2.480   2.732 -0.7368 -0.1744  0.4758
 9422SOL    HW139899   1.023   2.558   2.683 -1.3261 -1.4020 -1.1704
 9422SOL    HW239900   0.984   2.483   2.805 -0.8961  0.5931  0.3042
 9423SOL     OW39901   3.490   1.079   6.370  0.3401 -0.1276  0.0857
 9423SOL    HW139902   3.471   1.051   6.281 -1.2885  0.3715  0.2804
 9423SOL    HW239903   3.408   1.115   6.403  0.1512 -0.9100  0.4598
 9424SOL     OW39904   2.411   2.719   8.638  0.3934  0.1403 -0.1038
 9424SOL    HW139905   2.427   2.799   8.690 -1.6399  1.6935 -1.8700
 9424SOL    HW239906   2.370   2.748   8.557  0.4760  1.2893  0.2611
 9425SOL     OW39907   1.560   0.657   5.617  0.3115 -0.8968 -0.7091
 9425SOL    HW139908   1.520   0.624   5.537 -1.7546 -1.0384  0.3645
 9425SOL    HW239909   1.490   0.710   5.655 -0.1496 -2.5199  0.7216
 9426SOL     OW39910   3.777   1.628   9.287  0.3943 -0.0234 -0.1892
 9426SOL    HW139911   3.837   1.589   9.350  1.4837  1.4229 -0.3242
 9426SOL    HW239912   3.806   1.582   9.208 -2.2988 -0.1095 -1.1221
 9427SOL     OW39913   1.109   4.089   6.029 -0.1930  0.2183 -0.3085
 9427SOL    HW139914   1.076   4.168   5.986 -0.3851  2.6050  4.1642
 9427SOL    HW239915   1.046   4.020   6.008  1.3732 -1.7074  1.2580
 9428SOL     OW39916   1.281   2.733  11.462 -0.4994 -0.1302 -0.6443
 9428SOL    HW139917   1.226   2.805  11.493 -0.8328 -0.7259  0.1918
 9428SOL    HW239918   1.329   2.780  11.394 -1.9418  1.7776 -0.3407
 9429SOL     OW39919   1.589   0.570   6.788  0.1731  0.5428  0.4894
 9429SOL    HW139920   1.679   0.564   6.756 -0.6884 -0.2953 -1.7617
 9429SOL    HW239921   1.542   0.562   6.705 -2.4618  1.7322  1.8797
 9430SOL     OW39922   0.221   1.747   8.769 -0.7759 -0.1988 -0.1854
 9430SOL    HW139923   0.137   1.709   8.797  0.3704 -0.7441  2.4387
 9430SOL    HW239924   0.271   1.748   8.850 -0.3729  1.6475 -0.4733
 9431SOL     OW39925   3.638   1.153   6.649 -0.2438  0.2632 -0.6633
 9431SOL    HW139926   3.623   1.108   6.732  1.1497  1.2668  0.1329
 9431SOL    HW239927   3.561   1.137   6.595 -0.8615 -1.8129  0.8432
 9432SOL     OW39928   1.610   3.115   3.288 -0.7706 -0.4229 -0.2153
 9432SOL    HW139929   1.687   3.172   3.286  0.0693 -1.5380  0.5756
 9432SOL    HW239930   1.641   3.053   3.222  0.4958  2.0491 -1.9980
 9433SOL     OW39931   3.444   2.159   0.125 -0.1789  0.1693 -0.3672
 9433SOL    HW139932   3.374   2.151   0.060 -0.8734 -1.3946  0.5625
 9433SOL    HW239933   3.486   2.073   0.114 -0.2047 -0.0204  1.0005
 9434SOL     OW39934   0.516   0.976   1.450 -0.2917  0.0267 -0.5575
 9434SOL    HW139935   0.455   1.042   1.416  0.1539  1.3407  1.1616
 9434SOL    HW239936   0.456   0.921   1.501 -1.9058  1.4481 -0.8932
 9435SOL     OW39937   4.169   1.107   8.288 -0.1440  0.2089 -0.3977
 9435SOL    HW139938   4.219   1.113   8.207  0.9968  1.4571  0.3834
 9435SOL    HW239939   4.227   1.150   8.352  0.7800  0.3110 -1.2951
 9436SOL     OW39940   1.050   3.003   2.988  0.3878 -0.3132 -0.0797
 9436SOL    HW139941   0.965   2.967   2.964  0.5777 -1.9741  1.7219
 9436SOL    HW239942   1.038   3.091   3.023  3.3575  0.3093 -0.5955
 9437SOL     OW39943   2.805   2.384   6.730  0.1511  0.4749  0.2827
 9437SOL    HW139944   2.812   2.474   6.762  0.0851  1.2564 -1.9248
 9437SOL    HW239945   2.733   2.343   6.779  0.3587  2.3951  2.1900
 9438SOL     OW39946   0.756   4.642  13.959  0.0586  0.4068 -0.6935
 9438SOL    HW139947   0.758   4.711  14.026  1.4830 -1.0126  0.7401
 9438SOL    HW239948   0.798   4.571  14.008  1.1347  0.1409 -2.0133
 9439SOL     OW39949   4.391   0.429   2.551  0.0568 -0.1163  0.0986
 9439SOL    HW139950   4.406   0.475   2.468  0.6455 -0.9350 -0.2466
 9439SOL    HW239951   4.398   0.342   2.512  2.0912  0.4088 -0.7344
 9440SOL     OW39952   3.482   2.846   0.593 -0.2404 -0.0917 -0.1845
 9440SOL    HW139953   3.547   2.893   0.541 -0.2352 -0.2328 -0.3050
 9440SOL    HW239954   3.466   2.777   0.528  0.3757 -0.1003 -0.3282
 9441SOL     OW39955   1.477   2.487   2.436  0.1365  0.2448  0.1343
 9441SOL    HW139956   1.401   2.463   2.383  1.2213  1.2554 -1.8562
 9441SOL    HW239957   1.429   2.491   2.519 -0.3785  1.0547 -0.2029
 9442SOL     OW39958   3.408   4.489  10.505  0.6554 -0.4293 -0.0723
 9442SOL    HW139959   3.410   4.394  10.493 -0.3772 -0.4142 -0.4105
 9442SOL    HW239960   3.334   4.498  10.566  1.1196 -4.3709  1.0865
 9443SOL     OW39961   4.008   3.698  12.719  0.1868 -0.4328  0.0745
 9443SOL    HW139962   3.970   3.754  12.651  1.4858  0.2467 -0.0915
 9443SOL    HW239963   4.032   3.769  12.779 -0.0914 -0.3307  0.0634
 9444SOL     OW39964   3.818   1.878   2.654 -0.3048  0.2018  0.2909
 9444SOL    HW139965   3.799   1.854   2.744 -0.5928  0.9537  0.4329
 9444SOL    HW239966   3.820   1.973   2.662  0.9093  0.1551  0.5200
 9445SOL     OW39967   2.814   1.007   3.242 -0.2325 -0.4555 -0.0850
 9445SOL    HW139968   2.855   0.942   3.185  0.4527  1.8691 -2.2815
 9445SOL    HW239969   2.798   0.961   3.324  0.5045 -0.9489 -0.2117
 9446SOL     OW39970   3.262   1.587  13.655 -0.2474 -0.0840 -0.0458
 9446SOL    HW139971   3.214   1.664  13.686 -0.5250 -0.8631  1.4366
 9446SOL    HW239972   3.331   1.586  13.722 -1.4156  0.0204  1.1634
 9447SOL     OW39973   2.493   2.684   6.873 -0.0128  0.1907  0.2960
 9447SOL    HW139974   2.540   2.737   6.809 -0.2370  0.5937  0.4620
 9447SOL    HW239975   2.404   2.719   6.869  0.0602  0.4466  0.8989
 9448SOL     OW39976   3.685   1.422   8.803 -0.1842  0.9261  0.3952
 9448SOL    HW139977   3.774   1.431   8.769 -1.0035  0.6550 -1.7770
 9448SOL    HW239978   3.676   1.328   8.820  0.6011  0.6996 -0.4259
 9449SOL     OW39979   2.492   4.456   2.108 -0.2547  0.4055 -0.0131
 9449SOL    HW139980   2.558   4.477   2.174 -0.2783  2.3988 -0.6469
 9449SOL    HW239981   2.510   4.364   2.088 -2.0764  0.4242 -1.7788
 9450SOL     OW39982   1.747   1.292   4.703 -0.3309 -0.3679 -0.2545
 9450SOL    HW139983   1.735   1.363   4.765  0.3271 -2.0213  1.7579
 9450SOL    HW239984   1.842   1.287   4.718 -0.3604 -1.8795 -0.5668
 9451SOL     OW39985   4.648   3.442  14.908 -0.2245  0.0819  0.5104
 9451SOL    HW139986   4.661   3.536  14.924  1.8203 -0.5915  2.6917
 9451SOL    HW239987   4.665   3.442  14.813  3.6065  0.4754  1.1950
 9452SOL     OW39988   1.368   0.774   3.451  0.3685 -0.4575 -0.1761
 9452SOL    HW139989   1.375   0.836   3.522  0.2560  0.0104 -0.5747
 9452SOL    HW239990   1.330   0.695   3.488  1.2447 -0.5580  0.5126
 9453SOL     OW39991   1.546   2.733   5.701 -0.2632  0.2930 -0.1771
 9453SOL    HW139992   1.619   2.777   5.657  1.1758 -0.4389  1.4916
 9453SOL    HW239993   1.555   2.765   5.791  1.7667 -0.3824 -0.1259
 9454SOL     OW39994   3.456   1.338   3.585  0.0660 -0.0749  0.4615
 9454SOL    HW139995   3.410   1.395   3.523 -0.1787 -0.7512  0.0155
 9454SOL    HW239996   3.547   1.367   3.581 -0.5171  1.6090 -0.5677
 9455SOL     OW39997   3.075   3.083  17.240 -0.3007  0.3726  0.1414
 9455SOL    HW139998   3.136   3.116  17.175  0.9107  0.6345  1.4108
 9455SOL    HW239999   3.125   3.003  17.255 -0.0831  0.8803  2.2444
 9456SOL     OW40000   3.845   4.101   3.116  0.4346  0.5102  0.1414
 9456SOL    HW140001   3.828   4.195   3.125  0.5142  0.3323  2.2604
 9456SOL    HW240002   3.905   4.103   3.042  1.4940  1.6954  1.0279
 9457SOL     OW40003   1.800   0.619   1.605  0.6233  0.0925 -0.1338
 9457SOL    HW140004   1.838   0.695   1.560 -1.5687  1.5267  0.4543
 9457SOL    HW240005   1.716   0.614   1.559 -1.0651 -0.1216  2.9764
 9458SOL     OW40006   3.560   3.848   6.949 -0.1182  0.5579  0.3671
 9458SOL    HW140007   3.572   3.932   6.905  2.5090 -0.3984 -0.7512
 9458SOL    HW240008   3.482   3.819   6.901  0.0848 -1.1186  1.0480
 9459SOL     OW40009   4.484   0.915   9.722  0.2619  0.1757 -0.6452
 9459SOL    HW140010   4.451   0.880   9.805 -0.1513  1.7097 -0.1615
 9459SOL    HW240011   4.403   0.938   9.675 -1.0986  1.5958  2.3426
 9460SOL     OW40012   0.398   4.577   5.861  0.2281  0.6504 -0.6064
 9460SOL    HW140013   0.353   4.650   5.820  0.4269  0.8019 -0.5540
 9460SOL    HW240014   0.397   4.594   5.955  1.1008 -0.7681 -0.3283
 9461SOL     OW40015   1.565   1.285  10.004  0.2571  0.1073  0.1447
 9461SOL    HW140016   1.640   1.293  10.064 -0.2851 -2.5741  1.1933
 9461SOL    HW240017   1.606   1.288   9.918 -0.7861 -2.8560 -0.4397
 9462SOL     OW40018   3.043   1.189   3.439  0.2119  0.3379 -0.7484
 9462SOL    HW140019   2.960   1.228   3.468 -1.4668 -4.2327  0.6741
 9462SOL    HW240020   3.049   1.195   3.344 -1.0878  0.3056 -0.8388
 9463SOL     OW40021   2.391   3.148   7.934 -0.8758 -0.7267  0.0487
 9463SOL    HW140022   2.354   3.067   7.901  2.1033 -1.2203 -2.1011
 9463SOL    HW240023   2.482   3.127   7.953 -0.1815  0.7955 -1.6405
 9464SOL     OW40024   0.333   2.938  11.997  0.0598 -0.5133  0.5886
 9464SOL    HW140025   0.327   2.931  11.902  0.4441  0.2236  0.5081
 9464SOL    HW240026   0.269   2.877  12.033 -1.8657  0.7255 -0.6886
 9465SOL     OW40027   0.076   2.765  12.673  0.0109 -0.0978  0.2144
 9465SOL    HW140028   0.128   2.845  12.669 -2.3703  1.4841  0.6423
 9465SOL    HW240029   0.001   2.797  12.723  0.1426  1.0384 -0.3206
 9466SOL     OW40030   0.782   2.653  14.080 -0.2371  0.4463 -0.1362
 9466SOL    HW140031   0.752   2.727  14.027 -0.4038 -1.2020 -2.3669
 9466SOL    HW240032   0.877   2.660  14.087  0.0042 -1.4864 -1.2949
 9467SOL     OW40033   4.445   4.553  11.569  0.1749 -0.7032  0.4220
 9467SOL    HW140034   4.464   4.621  11.504  1.2297 -1.3079  0.1013
 9467SOL    HW240035   4.387   4.495  11.520  1.2215 -0.0815 -1.5638
 9468SOL     OW40036   3.235   2.857  17.622  0.3943  0.2266  0.1778
 9468SOL    HW140037   3.278   2.908  17.553 -1.2425 -1.6682 -2.2239
 9468SOL    HW240038   3.196   2.786  17.571 -0.0474  0.8198 -0.3129
 9469SOL     OW40039   4.541   3.375   2.431 -0.2611  0.2314 -0.7326
 9469SOL    HW140040   4.553   3.452   2.376  2.3797  0.6388  0.4224
 9469SOL    HW240041   4.561   3.412   2.517 -1.4701 -2.4361  0.7013
 9470SOL     OW40042   2.626   4.599   6.362  0.2433  0.6746  0.0610
 9470SOL    HW140043   2.667   4.590   6.448  0.8025 -1.1157 -0.3956
 9470SOL    HW240044   2.686   4.536   6.322 -0.2958  0.3966 -0.3220
 9471SOL     OW40045   2.265   3.615  11.726 -0.2345 -0.1327  0.1365
 9471SOL    HW140046   2.292   3.608  11.818 -1.8463 -1.3684  0.5103
 9471SOL    HW240047   2.326   3.561  11.675  0.6187 -0.2793  1.2936
 9472SOL     OW40048   1.728   4.112   2.476  0.0363  0.4469 -0.1447
 9472SOL    HW140049   1.641   4.152   2.466 -0.1598 -0.0188 -0.3115
 9472SOL    HW240050   1.712   4.030   2.429  0.3970  0.4703 -0.3084
 9473SOL     OW40051   0.518   0.720   2.100  0.2979 -0.3483 -0.1802
 9473SOL    HW140052   0.498   0.749   2.189  1.4583 -0.6588  0.1788
 9473SOL    HW240053   0.610   0.744   2.097  0.3211 -0.1666  1.8027
 9474SOL     OW40054   3.213   4.529  10.705 -0.1608 -0.2251 -0.3222
 9474SOL    HW140055   3.128   4.494  10.676 -2.0707  2.9603  1.4844
 9474SOL    HW240056   3.207   4.511  10.799 -2.9042 -1.4017 -0.7282
 9475SOL     OW40057   1.215   2.370   6.212 -0.3183  0.0206 -0.4119
 9475SOL    HW140058   1.123   2.354   6.193 -0.1566  1.1113 -2.2041
 9475SOL    HW240059   1.262   2.318   6.147 -0.9660 -1.8874  0.6518
 9476SOL     OW40060   3.318   0.765  10.051 -0.1621 -0.2596  0.2177
 9476SOL    HW140061   3.240   0.736  10.004  0.0711 -0.6115  0.0508
 9476SOL    HW240062   3.357   0.812   9.977 -1.2981  0.3421 -0.0087
 9477SOL     OW40063   1.089   4.430  15.412  0.3059 -0.0223 -0.3824
 9477SOL    HW140064   1.052   4.346  15.440 -0.3227  1.2128  2.4008
 9477SOL    HW240065   1.146   4.438  15.488  1.1093 -1.6830 -0.8157
 9478SOL     OW40066   4.486   4.086   4.770 -0.3944  0.4760 -0.4087
 9478SOL    HW140067   4.549   4.153   4.743 -0.5141  1.4550  1.7423
 9478SOL    HW240068   4.516   4.067   4.859 -1.2116 -0.5747 -0.3608
 9479SOL     OW40069   2.989   4.207   1.950 -0.0747 -0.4803 -0.0693
 9479SOL    HW140070   2.992   4.112   1.943 -0.2932 -0.3120 -2.6019
 9479SOL    HW240071   2.946   4.217   2.035  0.2642 -0.0232  0.0476
 9480SOL     OW40072   0.848   2.390   8.032  0.3915  0.6768  0.0112
 9480SOL    HW140073   0.886   2.315   7.985  0.5338  0.3021  0.7212
 9480SOL    HW240074   0.893   2.384   8.116  1.8716  2.2845 -0.6771
 9481SOL     OW40075   2.625   4.061   2.312 -0.5550  0.1020 -0.3666
 9481SOL    HW140076   2.564   4.091   2.245 -2.0856  0.8478  1.3708
 9481SOL    HW240077   2.594   4.114   2.385 -1.9085 -2.0923  0.6455
 9482SOL     OW40078   2.929   1.625  13.685  0.1066 -0.2831 -0.4609
 9482SOL    HW140079   2.947   1.532  13.702  0.3195 -0.0862  0.3887
 9482SOL    HW240080   2.836   1.622  13.663 -0.0171  0.0499  0.0451
 9483SOL     OW40081   3.038   3.935   6.437 -0.4559 -0.0983 -0.3558
 9483SOL    HW140082   3.038   3.949   6.342 -0.8855  0.9080 -0.2042
 9483SOL    HW240083   3.080   4.013   6.473  2.6726 -1.4744 -0.9548
 9484SOL     OW40084   3.773   2.333  11.406  0.1001  0.0624  0.5595
 9484SOL    HW140085   3.747   2.296  11.490  0.1999 -0.8742  0.1811
 9484SOL    HW240086   3.704   2.296  11.351  0.6277  1.1786 -0.8861
 9485SOL     OW40087   1.515   4.444  13.311  0.2240  0.3627 -0.3847
 9485SOL    HW140088   1.428   4.476  13.287  0.0928  0.3820  0.1164
 9485SOL    HW240089   1.563   4.523  13.286  0.8691  0.4999  1.2852
 9486SOL     OW40090   2.698   3.899   5.843  0.5030  0.2038  0.3197
 9486SOL    HW140091   2.723   3.914   5.752  0.2963 -0.4218  0.1575
 9486SOL    HW240092   2.778   3.924   5.888  0.1967  3.4689 -0.9984
 9487SOL     OW40093   0.987   2.531   4.908 -0.6770  0.3764  0.4942
 9487SOL    HW140094   1.075   2.564   4.928 -0.9984  0.3951  1.9360
 9487SOL    HW240095   0.983   2.451   4.961 -0.0992  0.4372  0.6341
 9488SOL     OW40096   1.150   4.484   5.394  0.0184 -0.0854 -0.0030
 9488SOL    HW140097   1.122   4.545   5.326  1.6784 -2.0449 -2.4196
 9488SOL    HW240098   1.080   4.419   5.388 -0.8762  0.8109  0.7074
 9489SOL     OW40099   3.262   4.489   2.118  0.2783  0.6358 -0.2025
 9489SOL    HW140100   3.246   4.517   2.209  0.8919  0.3290 -0.0034
 9489SOL    HW240101   3.172   4.494   2.086  0.4104  3.0328 -0.1815
 9490SOL     OW40102   2.862   3.108  17.399  1.0326  0.0671  0.5365
 9490SOL    HW140103   2.843   3.202  17.400  0.4548 -0.0371 -0.6695
 9490SOL    HW240104   2.937   3.107  17.338  0.7897 -0.7423  0.2552
 9491SOL     OW40105   0.403   1.846   2.337  0.1807  0.0651  0.1017
 9491SOL    HW140106   0.480   1.849   2.393  0.7468 -0.5290 -0.6602
 9491SOL    HW240107   0.400   1.751   2.326  0.0089  0.2271 -1.1803
 9492SOL     OW40108   3.044   4.191   5.555  0.7206  0.6743  0.1084
 9492SOL    HW140109   3.073   4.144   5.633  1.0097 -0.6996 -0.8386
 9492SOL    HW240110   3.013   4.120   5.499  1.1470  0.2927  0.3527
 9493SOL     OW40111   0.595   2.447   9.063 -0.2173 -0.4908  0.1965
 9493SOL    HW140112   0.545   2.367   9.046  1.5708 -1.4515 -0.6000
 9493SOL    HW240113   0.531   2.508   9.099 -1.5250 -0.3328 -2.4033
 9494SOL     OW40114   2.037   4.554   7.333 -0.1443  0.4024 -0.6626
 9494SOL    HW140115   2.108   4.591   7.281  1.5863  0.6020  1.8282
 9494SOL    HW240116   2.086   4.549   7.415  0.7898  0.2848 -1.2280
 9495SOL     OW40117   1.005   2.380   5.935  0.0228 -0.2404  0.1218
 9495SOL    HW140118   1.047   2.295   5.931  2.2499  0.8496  0.6030
 9495SOL    HW240119   0.982   2.375   6.028 -0.2383 -2.9231 -0.0923
 9496SOL     OW40120   2.249   3.416   1.632  0.1518  0.0740  0.6649
 9496SOL    HW140121   2.290   3.409   1.718  1.2762 -1.5017  0.0042
 9496SOL    HW240122   2.310   3.356   1.589 -0.3794  0.7350 -1.0063
 9497SOL     OW40123   0.620   4.388   1.431  0.2081  0.1426 -0.3898
 9497SOL    HW140124   0.595   4.296   1.429  1.0473 -0.1313  1.2619
 9497SOL    HW240125   0.555   4.417   1.495  2.1287  2.3861  0.5857
 9498SOL     OW40126   0.399   3.325  13.052  0.4253  0.1705  0.0907
 9498SOL    HW140127   0.375   3.323  13.145  0.4048  1.5573  0.1121
 9498SOL    HW240128   0.478   3.270  13.046  0.8362  0.6615  0.9149
 9499SOL     OW40129   3.251   2.904   1.232  0.0895 -0.4139 -0.5476
 9499SOL    HW140130   3.216   2.989   1.256  0.1076 -0.2728 -1.0296
 9499SOL    HW240131   3.286   2.913   1.144 -0.6401  0.7373 -0.7088
 9500SOL     OW40132   2.880   2.928   1.387 -0.0508  0.6603  0.2008
 9500SOL    HW140133   2.865   2.879   1.306 -0.3572 -2.9024  2.4089
 9500SOL    HW240134   2.871   2.861   1.455  0.8177  1.5520  1.2105
 9501SOL     OW40135   4.424   1.967   7.042  0.2675 -0.1916 -0.0730
 9501SOL    HW140136   4.495   1.914   7.007 -2.8973 -2.2677 -3.3351
 9501SOL    HW240137   4.386   2.003   6.962  1.5333 -0.6393 -0.8731
 9502SOL     OW40138   2.028   3.513   3.297 -0.6246  0.4044  0.4475
 9502SOL    HW140139   2.031   3.573   3.223 -0.6416 -1.1749 -0.8426
 9502SOL    HW240140   2.077   3.564   3.361 -1.0331 -1.0640  1.9350
 9503SOL     OW40141   3.490   3.584  17.412 -0.6368  0.2818  0.1107
 9503SOL    HW140142   3.561   3.617  17.468 -0.9710  0.8897  0.1780
 9503SOL    HW240143   3.532   3.591  17.326  2.2317 -1.0064  1.3910
 9504SOL     OW40144   0.388   4.242   2.760  0.1179  0.6737 -0.6249
 9504SOL    HW140145   0.293   4.245   2.765  0.0369 -2.8437  0.1488
 9504SOL    HW240146   0.402   4.269   2.851 -0.4152 -3.3238  0.6760
 9505SOL     OW40147   4.675   1.309   8.689 -0.2130  0.1465 -0.4584
 9505SOL    HW140148   4.703   1.296   8.598  3.1305  0.4821  0.5053
 9505SOL    HW240149   4.722   1.235   8.728 -1.7228 -1.4282 -1.6519
 9506SOL     OW40150   4.292   2.900  13.654  0.2288  0.1764 -0.3109
 9506SOL    HW140151   4.352   2.922  13.726 -0.0580  2.9828 -0.9233
 9506SOL    HW240152   4.210   2.947  13.670  0.0936 -0.0365 -0.3816
 9507SOL     OW40153   2.286   4.598   6.032 -0.1642  0.7321  0.4133
 9507SOL    HW140154   2.336   4.649   6.095 -0.0748 -1.8848  2.4584
 9507SOL    HW240155   2.215   4.660   6.014  1.0867  1.6073 -1.5561
 9508SOL     OW40156   2.552   1.213   3.081  0.7386  0.0098  0.6105
 9508SOL    HW140157   2.493   1.138   3.086  1.1067 -0.4275 -1.5175
 9508SOL    HW240158   2.492   1.287   3.074  0.2053 -0.5722 -0.9649
 9509SOL     OW40159   0.011   3.232  11.032  0.1257 -0.0342  0.1414
 9509SOL    HW140160   4.662   3.197  11.054  1.1435 -1.8256  1.3475
 9509SOL    HW240161   0.014   3.197  10.943  1.2904 -0.5825  0.3979
 9510SOL     OW40162   1.636   3.615   6.887  0.0475  0.0882 -0.0800
 9510SOL    HW140163   1.549   3.605   6.926 -0.5417 -0.9680 -1.6698
 9510SOL    HW240164   1.625   3.690   6.828  0.4479  0.4012  0.2434
 9511SOL     OW40165   2.204   3.891   3.807  0.1349  0.3271 -0.4130
 9511SOL    HW140166   2.164   3.917   3.889 -0.6234 -4.2087  0.6480
 9511SOL    HW240167   2.134   3.831   3.780 -1.7132  1.6897  1.3816
 9512SOL     OW40168   3.556   2.964  15.813 -0.1702 -0.9211  0.2078
 9512SOL    HW140169   3.626   2.900  15.803  0.0356 -1.0165  2.3752
 9512SOL    HW240170   3.524   2.957  15.903  1.9342 -0.5739  0.9756
 9513SOL     OW40171   0.220   1.147   0.479 -0.0517  0.8209 -0.0054
 9513SOL    HW140172   0.275   1.219   0.449  1.0651  1.2319  3.0005
 9513SOL    HW240173   0.277   1.104   0.543  0.0071 -0.4722 -0.9221
 9514SOL     OW40174   2.476   2.629   2.498 -0.0748 -0.0417  0.1017
 9514SOL    HW140175   2.418   2.589   2.563  1.0230 -0.1008  1.0494
 9514SOL    HW240176   2.542   2.658   2.561  0.6311 -1.8141  0.1747
 9515SOL     OW40177   0.844   2.853   2.005 -0.0704  0.4897 -0.2750
 9515SOL    HW140178   0.765   2.831   1.956  0.4456 -2.6486  0.3052
 9515SOL    HW240179   0.912   2.861   1.938  0.2630  0.0319  0.0086
 9516SOL     OW40180   3.455   0.266   5.775  0.0731  0.0988 -0.0497
 9516SOL    HW140181   3.474   0.359   5.770 -0.1174  0.0475 -1.6303
 9516SOL    HW240182   3.473   0.248   5.868  3.9774 -1.1487 -1.0434
 9517SOL     OW40183   0.449   3.338   7.986  0.4490  0.1646  0.2947
 9517SOL    HW140184   0.449   3.248   7.953  0.2427 -0.6221  2.4158
 9517SOL    HW240185   0.417   3.392   7.914 -0.4615  1.3270  1.5691
 9518SOL     OW40186   3.883   3.774   2.990 -0.1627  0.2554 -0.1428
 9518SOL    HW140187   3.804   3.812   3.029  0.1069 -0.2431  0.8760
 9518SOL    HW240188   3.917   3.840   2.930  2.7401 -1.9818 -0.9423
 9519SOL     OW40189   0.738   2.189   7.329  0.2381  0.1065  0.0699
 9519SOL    HW140190   0.720   2.102   7.294 -2.4229  0.6957  0.0027
 9519SOL    HW240191   0.815   2.200   7.274 -0.5223  1.8957 -0.6175
 9520SOL     OW40192   2.168   0.842  15.444 -0.0510 -0.4306 -0.2290
 9520SOL    HW140193   2.093   0.892  15.475  0.3635  1.2825 -1.9956
 9520SOL    HW240194   2.150   0.862  15.353 -1.1293  1.0263  0.2986
 9521SOL     OW40195   2.310   4.685   5.079  0.3108  0.2300  0.0018
 9521SOL    HW140196   2.326   4.591   5.076 -0.6645  0.0841 -0.6404
 9521SOL    HW240197   2.313   4.711   4.987 -0.5471  2.4167  0.5922
 9522SOL     OW40198   1.868   0.412   7.196  0.8244  0.3071  0.3110
 9522SOL    HW140199   1.807   0.339   7.188  1.1304  0.0760  0.0346
 9522SOL    HW240200   1.915   0.388   7.276 -0.9461  0.2496  1.3317
 9523SOL     OW40201   2.530   3.774   0.111  0.0976 -0.3689  0.2573
 9523SOL    HW140202   2.453   3.726   0.140  0.1124  0.8985  2.3560
 9523SOL    HW240203   2.482   3.831   0.050 -0.3125 -0.5124  0.4489
 9524SOL     OW40204   1.144   3.117   8.971  0.4328  0.2593 -0.3245
 9524SOL    HW140205   1.145   3.210   8.946  1.7804  0.1997 -0.4978
 9524SOL    HW240206   1.159   3.078   8.884 -0.4094  2.6365 -1.5313
 9525SOL     OW40207   2.734   2.453   2.287 -0.0538 -0.1902  0.0657
 9525SOL    HW140208   2.654   2.505   2.288  1.0066  1.4541  0.0567
 9525SOL    HW240209   2.750   2.462   2.193  0.4550 -1.3554  0.0435
 9526SOL     OW40210   4.331   1.569   7.310  0.4156  0.5149  0.0158
 9526SOL    HW140211   4.346   1.618   7.390  1.2091  0.6598 -0.2214
 9526SOL    HW240212   4.320   1.641   7.247  0.7040  0.5055 -0.0473
 9527SOL     OW40213   0.343   0.196   9.404  0.2167 -0.7896 -0.0275
 9527SOL    HW140214   0.317   0.165   9.317  0.3247  0.5270 -0.5420
 9527SOL    HW240215   0.266   0.171   9.454 -1.2625  3.1651 -0.3079
 9528SOL     OW40216   1.004   2.901   5.237  0.0024  0.3124  0.1869
 9528SOL    HW140217   1.001   2.816   5.280  0.3702 -0.1029 -0.5999
 9528SOL    HW240218   0.955   2.956   5.298 -0.4916  0.8008 -0.6609
 9529SOL     OW40219   3.935   3.631   6.832 -0.0304  0.4225 -0.0762
 9529SOL    HW140220   3.916   3.638   6.739 -1.0989 -0.4618  0.0686
 9529SOL    HW240221   3.996   3.704   6.835  0.2773  0.1596  0.0020
 9530SOL     OW40222   4.551   1.521  11.041  0.5966  0.2104 -0.8696
 9530SOL    HW140223   4.474   1.483  10.998 -0.9571 -0.5559  2.5667
 9530SOL    HW240224   4.587   1.578  10.973 -1.6109 -0.9401 -3.0259
 9531SOL     OW40225   2.740   4.006   3.126 -0.0484  0.0056 -0.3904
 9531SOL    HW140226   2.754   4.092   3.087  1.8082 -0.5480 -0.9177
 9531SOL    HW240227   2.668   4.016   3.189 -1.0724  2.1393 -1.8765
 9532SOL     OW40228   2.560   3.740   3.237 -0.6310  0.4033 -0.2523
 9532SOL    HW140229   2.595   3.786   3.314  1.0123 -2.6027  0.8099
 9532SOL    HW240230   2.539   3.818   3.185 -0.7571  0.6327  0.1451
 9533SOL     OW40231   1.340   0.967   5.939  0.4012 -0.6820 -0.0476
 9533SOL    HW140232   1.431   0.994   5.938  0.3744 -0.6258 -1.2491
 9533SOL    HW240233   1.288   1.048   5.934 -1.5202 -1.9401 -0.2413
 9534SOL     OW40234   3.252   0.407  17.126  0.0172  0.6509 -0.2685
 9534SOL    HW140235   3.291   0.453  17.052 -3.0543  0.4937 -1.9935
 9534SOL    HW240236   3.240   0.480  17.186  0.0964  1.3290 -1.0824
 9535SOL     OW40237   2.101   3.225  12.902 -0.3345  0.0087  0.7043
 9535SOL    HW140238   2.073   3.210  12.993  1.5893  0.8364  1.4371
 9535SOL    HW240239   2.030   3.270  12.856  0.3022  0.0527 -0.2247
 9536SOL     OW40240   2.849   1.069   1.878 -0.5998  0.1692 -0.3228
 9536SOL    HW140241   2.821   1.145   1.929  2.1320  1.3078 -0.5578
 9536SOL    HW240242   2.943   1.080   1.888 -1.0921  1.6707  2.5175
 9537SOL     OW40243   4.261   3.158  14.076 -0.3693 -0.2163 -0.7399
 9537SOL    HW140244   4.241   3.146  14.169  0.3973  0.7059 -0.4490
 9537SOL    HW240245   4.189   3.215  14.050 -0.5506 -0.1634 -0.1393
 9538SOL     OW40246   4.687   1.489  16.884  0.0156 -0.5164  0.2760
 9538SOL    HW140247   4.632   1.561  16.855  1.3004 -0.2951 -1.6056
 9538SOL    HW240248   0.000   1.472  16.805  2.0613 -0.2418  1.5305
 9539SOL     OW40249   1.636   1.235   7.592 -0.5281 -0.3953  0.2402
 9539SOL    HW140250   1.634   1.139   7.598  0.7612 -0.3675  1.2077
 9539SOL    HW240251   1.580   1.247   7.669  0.0654 -2.6370  1.0327
 9540SOL     OW40252   4.557   1.491  17.149  0.4041 -0.2211  0.3128
 9540SOL    HW140253   4.624   1.476  17.083  0.4628 -0.7074  0.4831
 9540SOL    HW240254   4.530   1.401  17.170  0.2395  0.1391  1.6509
 9541SOL     OW40255   2.027   3.730   5.228  0.0754 -0.2042  0.3662
 9541SOL    HW140256   1.985   3.800   5.278 -0.4315  0.6121 -1.1861
 9541SOL    HW240257   2.102   3.780   5.197 -1.0917  0.1467 -1.9238
 9542SOL     OW40258   1.647   3.568   5.659 -0.2296 -0.0727  0.6677
 9542SOL    HW140259   1.679   3.521   5.582  0.9431  0.7722  0.6423
 9542SOL    HW240260   1.640   3.499   5.725  0.6555 -0.9461 -0.1607
 9543SOL     OW40261   3.811   3.131   6.787 -0.0966 -0.0802  0.3678
 9543SOL    HW140262   3.797   3.037   6.775 -1.9606  0.2617 -0.1476
 9543SOL    HW240263   3.793   3.134   6.882  0.9172 -1.0450  0.5846
 9544SOL     OW40264   1.508   3.617   9.271 -0.4939  0.1985 -0.2969
 9544SOL    HW140265   1.536   3.704   9.298 -0.3695  0.4647 -1.3035
 9544SOL    HW240266   1.472   3.579   9.351  0.5608 -4.2640 -1.9060
 9545SOL     OW40267   2.248   4.423   5.035  0.1699 -0.4852  0.0536
 9545SOL    HW140268   2.168   4.441   5.084 -0.3577 -1.3178 -0.5175
 9545SOL    HW240269   2.266   4.332   5.059  0.6475 -0.3261  0.2985
 9546SOL     OW40270   1.528   0.168  12.075 -0.4021 -0.4328  0.3241
 9546SOL    HW140271   1.596   0.122  12.024 -0.0586 -1.4432  1.7083
 9546SOL    HW240272   1.591   0.203  12.137  0.2791 -0.8072 -0.1521
 9547SOL     OW40273   4.701   3.702  11.558  0.0519  0.2600 -0.4059
 9547SOL    HW140274   4.626   3.743  11.514  1.2266  1.6591 -1.0945
 9547SOL    HW240275   4.669   3.676  11.645  1.8326  1.3493  0.5780
 9548SOL     OW40276   0.408   2.832  11.476 -0.1503  0.0410 -0.2943
 9548SOL    HW140277   0.488   2.879  11.498 -1.4461  1.7450  0.8216
 9548SOL    HW240278   0.366   2.914  11.449 -1.9813 -1.2711 -1.4325
 9549SOL     OW40279   1.282   0.674   6.279  0.4515  0.1062 -0.0042
 9549SOL    HW140280   1.226   0.751   6.292  1.4290  0.5313  1.7391
 9549SOL    HW240281   1.331   0.699   6.200  0.9627 -0.1893  0.2196
 9550SOL     OW40282   4.407   3.191  11.633  0.1241  0.0057  0.1672
 9550SOL    HW140283   4.458   3.214  11.555  1.4544 -0.5471  0.8839
 9550SOL    HW240284   4.354   3.121  11.596  0.4629  0.1319 -0.5595
 9551SOL     OW40285   0.011   4.345   7.263  0.1156 -0.2951  0.0118
 9551SOL    HW140286   0.063   4.267   7.284 -0.4751 -0.7911 -0.3560
 9551SOL    HW240287   4.676   4.305   7.216 -1.2648  1.5373  0.5886
 9552SOL     OW40288   3.161   4.393   9.174  0.2550  0.2519 -0.6293
 9552SOL    HW140289   3.166   4.298   9.168  0.9100  0.3657 -1.8086
 9552SOL    HW240290   3.066   4.410   9.172 -0.1585 -2.4021 -3.9385
 9553SOL     OW40291   1.501   3.949   7.415  0.5252 -0.1681  0.7683
 9553SOL    HW140292   1.541   3.910   7.337  0.9074  2.2642 -0.2472
 9553SOL    HW240293   1.564   4.018   7.436  0.9199 -0.6123  1.0534
 9554SOL     OW40294   3.517   3.475   2.939 -0.3635  0.5344  0.4874
 9554SOL    HW140295   3.463   3.541   2.983  0.2098  1.0241  0.4514
 9554SOL    HW240296   3.496   3.391   2.978  0.8555  0.7394  1.6042
 9555SOL     OW40297   4.108   0.496   7.464 -0.2742  0.9985  0.5357
 9555SOL    HW140298   4.058   0.420   7.434 -0.3956  0.8307  1.1458
 9555SOL    HW240299   4.154   0.518   7.384 -0.0260 -3.4483 -0.5552
 9556SOL     OW40300   3.541   0.958  17.234 -0.3855 -0.1551 -0.2117
 9556SOL    HW140301   3.470   0.974  17.297 -2.6457 -0.6956 -2.6290
 9556SOL    HW240302   3.617   0.959  17.292 -1.3240 -1.1107  1.0286
 9557SOL     OW40303   4.120   4.059   9.375 -0.0636 -0.3433  0.0227
 9557SOL    HW140304   4.082   4.035   9.460 -0.5932 -0.2074 -0.1772
 9557SOL    HW240305   4.135   3.968   9.348 -1.0923 -0.3764 -0.4413
 9558SOL     OW40306   3.850   3.149   5.358  0.4607 -0.0287 -0.4066
 9558SOL    HW140307   3.798   3.076   5.392 -0.3369  1.1653  0.9644
 9558SOL    HW240308   3.797   3.161   5.280 -0.2199 -0.8561 -0.0692
 9559SOL     OW40309   0.886   2.648   5.889 -0.3068  0.2986 -0.6110
 9559SOL    HW140310   0.813   2.606   5.844 -0.3807 -0.0973 -0.1303
 9559SOL    HW240311   0.958   2.593   5.859 -0.6835 -0.0377 -0.9018
 9560SOL     OW40312   4.211   0.641   3.590 -0.3405  0.2064  0.4611
 9560SOL    HW140313   4.237   0.648   3.498 -0.5842 -1.4207  0.2745
 9560SOL    HW240314   4.284   0.592   3.627 -0.7995  1.8453  3.5093
 9561SOL     OW40315   1.713   2.314   5.376 -0.6587  0.2354 -0.3962
 9561SOL    HW140316   1.756   2.390   5.413  0.5688 -0.3214 -0.6630
 9561SOL    HW240317   1.769   2.305   5.299  0.3150  0.4802  0.2889
 9562SOL     OW40318   1.203   0.376   4.275  0.0612  0.3785 -0.8407
 9562SOL    HW140319   1.158   0.351   4.355  1.9752 -2.7865 -0.7557
 9562SOL    HW240320   1.178   0.309   4.211  0.9880  2.3655 -3.2855
 9563SOL     OW40321   0.791   2.506   7.364 -1.0246 -0.2361  0.1630
 9563SOL    HW140322   0.883   2.479   7.365 -0.1849  2.4238 -1.6663
 9563SOL    HW240323   0.747   2.433   7.322  1.7725 -1.1322 -1.2516
 9564SOL     OW40324   1.014   2.381   0.406  0.1736 -0.3195 -0.0895
 9564SOL    HW140325   1.052   2.353   0.489  0.0803  0.5482  0.2543
 9564SOL    HW240326   1.094   2.413   0.364  2.0305 -3.7685  0.8702
 9565SOL     OW40327   2.838   3.819   4.713 -1.0544 -0.0737  0.3665
 9565SOL    HW140328   2.803   3.844   4.628 -0.9723 -1.2791 -0.0246
 9565SOL    HW240329   2.904   3.888   4.721 -0.2222 -1.1095  2.5086
 9566SOL     OW40330   3.479   0.674   3.620 -0.5227 -0.4195  0.0307
 9566SOL    HW140331   3.512   0.744   3.563  0.4936 -0.7302  0.2431
 9566SOL    HW240332   3.485   0.723   3.702 -1.8082  0.2091 -0.2475
 9567SOL     OW40333   1.921   2.377   7.287 -0.2499  0.9787  0.0212
 9567SOL    HW140334   1.842   2.430   7.299 -0.9914 -0.4194  1.3389
 9567SOL    HW240335   1.930   2.333   7.371 -1.4795 -0.5926 -0.6595
 9568SOL     OW40336   1.190   1.251   3.162 -0.3252 -0.0019  0.1500
 9568SOL    HW140337   1.123   1.228   3.098  0.9034 -1.5913 -0.5422
 9568SOL    HW240338   1.263   1.278   3.106 -1.0807 -0.4397 -1.0315
 9569SOL     OW40339   3.611   3.237   7.244  0.0751  0.3721  0.1943
 9569SOL    HW140340   3.660   3.308   7.285  0.6642  0.5772 -0.8927
 9569SOL    HW240341   3.526   3.273   7.220 -0.4072 -1.6220 -1.1184
 9570SOL     OW40342   2.074   0.567  11.813 -0.0621 -0.2167  0.6230
 9570SOL    HW140343   2.089   0.658  11.836  1.5487 -0.6111  1.1868
 9570SOL    HW240344   2.046   0.569  11.721 -3.8053  0.4035  1.8273
 9571SOL     OW40345   1.410   3.075  14.214  0.0271 -0.1250 -0.3148
 9571SOL    HW140346   1.494   3.116  14.191 -0.2140  0.7048  0.2813
 9571SOL    HW240347   1.382   3.137  14.282  1.3069 -0.3351  0.4214
   4.73757   4.73757  17.74850
