Membrane in water
40347
    1TMC1    C1    1   2.969   3.632  11.715  0.0905 -0.6216  0.0955
    1TMC1    C2    2   3.041   3.610  11.598 -0.0959  0.1682  0.1743
    1TMC1    C3    3   3.130   3.708  11.559 -0.3716  0.5267 -0.5548
    1TMC1    C4    4   2.988   3.740  11.797  0.3341 -0.3723 -0.0748
    1TMC1    C5    5   3.095   3.823  11.764  0.0615  0.3929  0.5674
    1TMC1    C6    6   3.161   3.817  11.643 -0.6493  0.0991  0.1826
    1TMC1     C    7   2.884   3.533  11.774  0.3803  0.1596 -0.0330
    1TMC1     O    8   2.798   3.559  11.859  0.1055  0.5655  0.5482
    1TMC1     H    9   3.024   3.520  11.540  2.2649  0.3398 -0.8242
    1TMC1    H1   10   2.916   3.748  11.879  0.3597 -2.1414  0.1178
    1TMC1    H2   11   3.233   3.897  11.627 -0.8362  0.0376 -0.9926
    1TMC1    C7   12   3.083   3.962  11.820 -0.1184 -0.9945 -0.1267
    1TMC1    C8   13   3.175   3.690  11.423  0.5921 -0.2773 -0.2140
    1TMC1    O1   14   3.105   4.063  11.757 -0.1437  0.4618 -0.3129
    1TMC1    O2   15   3.128   3.594  11.357 -0.2488  0.1208 -0.6827
    1TMC1    O3   16   3.020   3.961  11.940  0.1508 -0.2612  0.0242
    1TMC1    H3   17   3.001   3.873  11.977 -1.9402  0.4319  0.6144
    1TMC1    O5   18   3.281   3.771  11.380  0.3179  0.4979 -0.7636
    1TMC1    H5   19   3.318   3.830  11.449 -2.4177 -3.5475  4.1467
    2MPD2     C   20   2.691   3.066  11.783  0.1697  0.1727  0.4478
    2MPD2    C1   21   2.630   3.183  11.824  0.5162  0.3197  0.2910
    2MPD2    C2   22   2.705   3.299  11.812 -0.0460  0.2131 -0.2983
    2MPD2    C3   23   2.835   3.295  11.753 -0.3159 -0.4818 -0.2304
    2MPD2    C4   24   2.889   3.176  11.721 -0.5189  0.0260 -0.1072
    2MPD2    C5   25   2.815   3.063  11.733  0.5130 -0.3574  0.2180
    2MPD2     H   26   2.665   3.391  11.853  1.2510 -0.5123  2.6267
    2MPD2    H1   27   2.989   3.166  11.681 -0.7351 -3.5424  0.2328
    2MPD2    H2   28   2.644   2.968  11.785 -1.0130  0.7003 -1.3259
    2MPD2    H3   29   2.862   2.971  11.697  3.2164  1.7251 -1.6246
    2MPD2     N   30   2.921   3.406  11.732  0.6506 -0.0192  0.6375
    2MPD2    H5   31   3.006   3.395  11.677  0.5229  0.3269  0.3636
    2MPD2    N1   32   2.503   3.198  11.898  0.4597 -0.1793 -0.2613
    2MPD2    H7   33   2.477   3.294  11.918  2.5858  0.0854  1.2388
    3TMC1    C1   34   1.354   3.594  10.996  0.2638 -0.3786  0.3058
    3TMC1    C2   35   1.409   3.669  10.900  0.4745  0.5796  0.3030
    3TMC1    C3   36   1.432   3.610  10.779  0.1041  0.3406  0.1201
    3TMC1    C4   37   1.322   3.460  10.976  0.3550  0.6162  0.6217
    3TMC1    C5   38   1.363   3.404  10.858  0.8459 -0.2980  0.5330
    3TMC1    C6   39   1.405   3.481  10.751 -0.9101  0.1410  0.0276
    3TMC1     C   40   1.317   3.638  11.123  0.2801  0.5909  0.7534
    3TMC1     O   41   1.233   3.571  11.178  0.4260 -0.2046 -0.0341
    3TMC1     H   42   1.427   3.775  10.913 -0.8694  0.9654 -1.0432
    3TMC1    H1   43   1.264   3.403  11.048 -1.5191  0.9743 -0.5879
    3TMC1    H2   44   1.443   3.432  10.662  1.2180  4.1849 -1.2612
    3TMC1    C7   45   1.371   3.262  10.843  0.9040  0.8517  0.1015
    3TMC1    C8   46   1.463   3.708  10.681  0.2091  0.4312 -0.3350
    3TMC1    O1   47   1.416   3.190  10.929 -0.9525  0.3704  0.5667
    3TMC1    O2   48   1.377   3.788  10.666  0.5287 -0.0104 -0.4726
    3TMC1    O3   49   1.352   3.225  10.717  0.1365  0.2517 -0.0795
    3TMC1    H3   50   1.299   3.294  10.671 -1.2542 -0.8693 -0.1453
    3TMC1    O5   51   1.519   3.638  10.584 -0.6876 -0.3860 -0.4944
    3TMC1    H5   52   1.608   3.610  10.614 -0.2977  0.5890 -0.7394
    4MPD2     C   53   1.226   4.000  11.459  0.8676  0.1876 -0.1688
    4MPD2    C1   54   1.316   4.059  11.367  0.4998  0.1339 -0.2306
    4MPD2    C2   55   1.345   3.979  11.260 -0.3639 -0.4397  0.3534
    4MPD2    C3   56   1.304   3.844  11.255 -0.1664  0.0602  0.6187
    4MPD2    C4   57   1.211   3.793  11.345 -0.4016 -0.5620  0.0781
    4MPD2    C5   58   1.167   3.878  11.442  0.3002 -0.0035  0.0378
    4MPD2     H   59   1.410   4.016  11.181  1.0965 -0.3134  1.6218
    4MPD2    H1   60   1.160   3.698  11.341 -1.7356  0.0932  1.3397
    4MPD2    H2   61   1.194   4.047  11.550  0.1568 -0.7259  0.0506
    4MPD2    H3   62   1.095   3.844  11.516 -0.1514 -1.3474 -1.0284
    4MPD2     N   63   1.346   3.766  11.144  0.2818  0.0265 -0.0052
    4MPD2    H5   64   1.427   3.795  11.091  1.1680  0.0034  1.3647
    4MPD2    N1   65   1.357   4.196  11.372 -0.2630 -0.8897 -0.4361
    4MPD2    H7   66   1.426   4.230  11.306 -1.0629 -2.2318 -1.9679
    5TCq1    O1   67   2.239   1.309  12.642  0.0518 -0.3300 -0.0188
    5TCq1    C1   68   2.296   1.302  12.520 -0.0558  0.7004  0.0221
    5TCq1    O2   69   2.302   1.206  12.446  0.2117  0.0762  0.1417
    5TCq1    C2   70   2.389   1.414  12.526 -0.6725  0.5661 -0.0561
    5TCq1    C3   71   2.343   1.540  12.499 -0.4885  0.0142  0.6000
    5TCq1    C4   72   2.418   1.624  12.413 -0.2336 -0.4974 -0.3088
    5TCq1    C5   73   2.538   1.594  12.357 -0.5948  0.4898  0.0880
    5TCq1    C6   74   2.582   1.466  12.380  0.6428 -0.4173 -0.1517
    5TCq1    C7   75   2.513   1.382  12.467  0.4087 -0.1042 -0.2942
    5TCq1    C8   76   2.638   1.400  12.266 -0.1944  0.9121 -0.5198
    5TCq1    O4   77   2.601   1.285  12.250 -0.0103 -0.5812 -0.0100
    5TCq1    C9   78   2.365   1.759  12.392  0.2972  0.2337  0.9071
    5TCq1    O5   79   2.253   1.779  12.434  0.6941  0.4198  0.6574
    5TCq1    O6   80   2.416   1.841  12.310  0.1362 -0.0472 -0.9253
    5TCq1    H1   81   2.270   1.392  12.684  0.7274 -1.6581  2.0730
    5TCq1    H2   82   2.245   1.574  12.531 -0.6304 -0.4407  0.6362
    5TCq1    H3   83   2.576   1.665  12.285  2.4500 -1.2632 -0.0212
    5TCq1    H4   84   2.545   1.278  12.471  1.4413  0.3222  2.7691
    6MPD2     C   85   2.847   1.542  11.997  0.1504 -0.4192  0.2034
    6MPD2    C1   86   2.785   1.441  12.067 -1.1012  0.4715 -0.0082
    6MPD2    C2   87   2.764   1.322  12.002 -0.7058 -0.2635 -0.0968
    6MPD2    C3   88   2.800   1.298  11.871  0.3559  0.5235  0.3433
    6MPD2    C4   89   2.860   1.403  11.812 -0.1366  0.1492  0.0379
    6MPD2    C5   90   2.890   1.523  11.870 -0.2078 -0.2214 -0.0521
    6MPD2     H   91   2.711   1.237  12.045  0.6026 -0.1663  1.7060
    6MPD2    H1   92   2.902   1.393  11.713 -0.6661 -3.2989  0.1597
    6MPD2    H2   93   2.861   1.636  12.049 -1.9742  0.2892 -0.5068
    6MPD2    H3   94   2.942   1.602  11.817 -0.5117 -0.2355 -0.3724
    6MPD2     N   95   2.764   1.174  11.804 -0.0184 -0.0305 -0.8326
    6MPD2    H5   96   2.733   1.097  11.862 -2.6308  3.1201  1.9173
    6MPD2    N1   97   2.728   1.471  12.195 -0.4412  0.1876 -0.5378
    6MPD2    H7   98   2.742   1.563  12.234  0.1314 -1.2082  2.5713
    7TCq1    O1   99   4.011   0.274  13.114 -0.2586 -0.0759  0.4785
    7TCq1    C1  100   4.115   0.187  13.122  0.4120 -0.0369  0.3684
    7TCq1    O2  101   4.104   0.066  13.144 -0.2638  0.5902 -0.5915
    7TCq1    C2  102   4.240   0.260  13.090 -0.3100  0.0461 -0.6796
    7TCq1    C3  103   4.251   0.397  13.103 -0.0933 -0.1593  0.2781
    7TCq1    C4  104   4.373   0.457  13.110 -0.7739  0.3029 -0.2319
    7TCq1    C5  105   4.488   0.386  13.105 -0.0070  0.0637 -0.1788
    7TCq1    C6  106   4.473   0.251  13.087 -1.2262  0.2366  0.3908
    7TCq1    C7  107   4.352   0.190  13.087  0.5353 -0.7249 -0.5055
    7TCq1    C8  108   4.590   0.164  13.093 -0.6962 -0.1342 -0.1911
    7TCq1    O4  109   4.570   0.049  13.124  0.7262 -0.1870 -0.1112
    7TCq1    C9  110   4.377   0.599  13.149 -0.4744  0.3077 -0.5117
    7TCq1    O5  111   4.267   0.656  13.175  0.7628  0.3746  0.4087
    7TCq1    O6  112   4.484   0.655  13.117  0.0128 -0.3670 -0.3310
    7TCq1    H1  113   4.034   0.364  13.080 -0.8877 -0.2682 -0.4623
    7TCq1    H2  114   4.170   0.469  13.096 -0.7818 -0.9391  0.1670
    7TCq1    H3  115   4.583   0.433  13.129  0.3710  0.4967 -2.4918
    7TCq1    H4  116   4.340   0.083  13.074  0.1816 -0.5417 -1.7262
    8MPD2     C  117   0.354   0.072  13.131 -0.6713 -0.8072 -0.1638
    8MPD2    C1  118   0.248   4.735  13.158 -0.2233  0.2122  0.6305
    8MPD2    C2  119   0.122   0.048  13.165 -0.8571  0.1181  0.0648
    8MPD2    C3  120   0.092   0.177  13.125 -0.3368  0.1227  0.3878
    8MPD2    C4  121   0.201   0.260  13.106 -0.1169 -0.2116 -0.1739
    8MPD2    C5  122   0.324   0.201  13.103 -0.2146 -0.4050  0.0030
    8MPD2     H  123   0.037   4.725  13.184 -0.2480 -0.9496 -0.7494
    8MPD2    H1  124   0.188   0.365  13.082  1.8687 -0.0564 -0.5860
    8MPD2    H2  125   0.456   0.039  13.116 -1.1944 -2.4457 -0.1012
    8MPD2    H3  126   0.411   0.261  13.077  0.3063 -0.5378  1.4467
    8MPD2     N  127   4.712   0.230  13.096  0.2441  0.5099 -0.8526
    8MPD2    H5  128   4.712   0.324  13.058 -1.1201  0.5805 -0.6753
    8MPD2    N1  129   0.273   4.601  13.188 -0.0798  0.2498 -0.1316
    8MPD2    H7  130   0.369   4.567  13.185 -0.8271 -1.9065  0.0254
    9TMC1    C1  131   2.786   4.357  11.443 -0.3261 -0.0069  0.3714
    9TMC1    C2  132   2.756   4.237  11.497  0.9335 -0.4502 -0.2679
    9TMC1    C3  133   2.849   4.140  11.477 -0.3483  0.3783 -0.3365
    9TMC1    C4  134   2.908   4.382  11.380  0.4246  0.3257 -0.1426
    9TMC1    C5  135   3.001   4.282  11.367 -0.8057  0.0835 -0.1687
    9TMC1    C6  136   2.972   4.151  11.416  0.1846 -0.4053  0.3027
    9TMC1     C  137   2.723   4.475  11.493  0.2328 -0.7999  0.4418
    9TMC1     O  138   2.752   4.587  11.449  0.8304 -0.2139 -0.5267
    9TMC1     H  139   2.665   4.214  11.551  1.2957  0.2130  0.6155
    9TMC1    H1  140   2.934   4.485  11.355  0.4645  0.7489  1.6587
    9TMC1    H2  141   3.050   4.076  11.424 -0.8407 -1.6839 -1.5524
    9TMC1    C7  142   3.140   4.315  11.363  0.0132  0.0270 -0.5457
    9TMC1    C8  143   2.813   4.007  11.496  0.2938  0.3049  0.2499
    9TMC1    O1  144   3.223   4.245  11.411  0.2663  0.8128 -0.3866
    9TMC1    O2  145   2.888   3.931  11.551  0.0579  0.3120  0.4688
    9TMC1    O3  146   3.160   4.419  11.286 -0.6443  0.4491 -0.3796
    9TMC1    H3  147   3.082   4.449  11.234 -1.3912 -0.5237  0.1721
    9TMC1    O5  148   2.730   3.973  11.393  0.0482 -0.6807  0.0800
    9TMC1    H5  149   2.684   4.053  11.360  2.1262 -0.5342 -2.5153
   10MPD2     C  150   2.607   4.668  11.681 -0.4618  0.4723  0.0330
   10MPD2    C1  151   2.592   4.535  11.689 -0.3686  0.4438 -0.2145
   10MPD2    C2  152   2.528   4.482  11.802  0.2789  0.9013  0.6639
   10MPD2    C3  153   2.457   4.563  11.888  0.1720 -0.4470  0.1627
   10MPD2    C4  154   2.476   4.703  11.882 -0.4412 -0.7129 -0.0537
   10MPD2    C5  155   2.557   0.009  11.782 -0.3612 -0.1893  0.7892
   10MPD2     H  156   2.514   4.375  11.814 -1.8055  1.1956  0.9905
   10MPD2    H1  157   2.434   0.031  11.955  0.0496 -0.1441 -0.3151
   10MPD2    H2  158   2.685   4.716  11.623  0.8323 -1.8028 -0.1104
   10MPD2    H3  159   2.564   0.116  11.771 -1.3521 -0.1662  0.3686
   10MPD2     N  160   2.379   4.508  11.993 -0.0604  0.4940  0.1753
   10MPD2    H5  161   2.364   4.563  12.076 -0.1846 -1.4912  1.4641
   10MPD2    N1  162   2.654   4.438  11.606 -0.2513  0.2751  0.4268
   10MPD2    H7  163   2.663   4.342  11.636  2.4260  0.0403 -1.1404
   11TCq1    O1  164   3.790   3.808  13.690 -0.0889 -0.0407 -0.1341
   11TCq1    C1  165   3.711   3.719  13.756 -0.4397  0.2841  0.1527
   11TCq1    O2  166   3.632   3.639  13.703  0.3120 -0.2884  0.3447
   11TCq1    C2  167   3.701   3.766  13.896 -0.4407  0.0334 -0.3922
   11TCq1    C3  168   3.812   3.810  13.965 -0.6245  0.0011 -0.3964
   11TCq1    C4  169   3.793   3.856  14.096 -0.7191  0.3161  0.0036
   11TCq1    C5  170   3.675   3.838  14.158 -0.4766 -0.3786 -0.1225
   11TCq1    C6  171   3.568   3.790  14.099  0.3893  0.3422  0.1674
   11TCq1    C7  172   3.582   3.742  13.966 -0.7925  0.3487  0.0342
   11TCq1    C8  173   3.448   3.755  14.164 -0.1139 -0.1439 -0.3348
   11TCq1    O4  174   3.425   3.834  14.255 -0.3008 -0.5928 -0.6982
   11TCq1    C9  175   3.904   3.913  14.172 -0.5069  0.5420 -0.4387
   11TCq1    O5  176   4.020   3.921  14.120  0.2297 -0.6549  0.0707
   11TCq1    O6  177   3.875   3.954  14.284 -0.2833 -0.5600 -0.0737
   11TCq1    H1  178   3.810   3.883  13.750 -0.7358 -0.0462  0.0887
   11TCq1    H2  179   3.907   3.825  13.916  0.3247 -1.6612  0.9360
   11TCq1    H3  180   3.665   3.870  14.262  1.3689  1.2481 -0.4619
   11TCq1    H4  181   3.494   3.716  13.909 -0.5538  0.5901 -0.4480
   12MPD2     C  182   3.147   3.687  14.215 -0.2714  0.4275  0.3618
   12MPD2    C1  183   3.234   3.626  14.127 -0.4527  0.0586  0.0529
   12MPD2    C2  184   3.189   3.525  14.042 -0.1852  0.4575  0.4409
   12MPD2    C3  185   3.059   3.476  14.068  0.3738 -0.9157  0.0393
   12MPD2    C4  186   2.979   3.534  14.166  0.1640  0.5203 -1.2644
   12MPD2    C5  187   3.022   3.638  14.239  0.4604 -0.2481  0.4997
   12MPD2     H  188   3.260   3.478  13.975  1.2725  3.5296 -0.1751
   12MPD2    H1  189   2.873   3.510  14.173  0.3684  0.0967  0.3165
   12MPD2    H2  190   3.182   3.771  14.273  0.9944 -1.0968  1.8177
   12MPD2    H3  191   2.954   3.684  14.310 -0.4034 -0.3283 -0.2930
   12MPD2     N  192   2.997   3.375  13.996 -0.0784  0.1007  0.3230
   12MPD2    H5  193   2.897   3.363  14.004 -0.0055 -0.5023  0.3523
   12MPD2    N1  194   3.369   3.663  14.093 -0.3515 -0.4162  0.3094
   12MPD2    H7  195   3.408   3.606  14.018  2.4337 -1.4413  2.5392
   13TCq1    O1  196   2.936   4.224  10.523 -0.5798  0.5072 -0.5855
   13TCq1    C1  197   3.023   4.314  10.551  0.5518 -0.4177 -0.8678
   13TCq1    O2  198   3.139   4.316  10.508 -0.6523  0.2973 -0.2121
   13TCq1    C2  199   3.010   4.309  10.695  0.3211 -1.2382 -0.1773
   13TCq1    C3  200   3.027   4.424  10.774 -0.7568  0.1933 -0.0849
   13TCq1    C4  201   3.009   4.418  10.908 -0.0384 -0.4989  0.8659
   13TCq1    C5  202   2.958   4.303  10.962 -0.1739  0.6388 -0.1856
   13TCq1    C6  203   2.965   4.185  10.887 -0.5444 -0.0977 -0.0843
   13TCq1    C7  204   2.980   4.190  10.752  0.7585  0.1144 -0.2512
   13TCq1    C8  205   2.893   4.072  10.947 -0.0983  0.2420 -0.7314
   13TCq1    O4  206   2.846   4.097  11.059 -0.3633  0.0602  0.2188
   13TCq1    C9  207   3.042   4.538  10.987  0.5929 -0.0512 -1.1171
   13TCq1    O5  208   3.113   4.629  10.939  0.0817 -0.0855  0.3715
   13TCq1    O6  209   3.017   4.530  11.110  0.7715  0.7643  0.3957
   13TCq1    H1  210   2.848   4.256  10.552 -0.6619 -0.5441  0.3101
   13TCq1    H2  211   3.075   4.511  10.730  1.4075 -0.5114  0.8666
   13TCq1    H3  212   2.920   4.302  11.063 -0.7608  0.3323 -0.4088
   13TCq1    H4  213   2.983   4.094  10.701 -0.2233 -0.5573  0.9658
   14MPD2     C  214   2.822   3.733  10.834 -0.7487  0.8297 -0.5906
   14MPD2    C1  215   2.801   3.855  10.895  0.7767 -0.0900  0.0724
   14MPD2    C2  216   2.696   3.857  10.981  0.3326 -0.1176 -0.8011
   14MPD2    C3  217   2.620   3.754  11.019  0.1489  1.0266  0.3208
   14MPD2    C4  218   2.641   3.635  10.952  0.0852 -0.3213 -0.1264
   14MPD2    C5  219   2.737   3.628  10.861 -0.1677 -0.2076  0.3647
   14MPD2     H  220   2.674   3.946  11.039 -0.3700 -1.7113  1.3749
   14MPD2    H1  221   2.581   3.547  10.968 -2.6319  1.4066 -0.7660
   14MPD2    H2  222   2.896   3.724  10.756  0.6705 -1.3310  0.9700
   14MPD2    H3  223   2.728   3.535  10.806  0.7987 -1.1283  1.7505
   14MPD2     N  224   2.517   3.773  11.114  0.2208 -0.4222  0.1190
   14MPD2    H5  225   2.493   3.869  11.137 -1.2800 -1.5867  3.3149
   14MPD2    N1  226   2.886   3.960  10.870 -0.1284  0.5107  0.6965
   14MPD2    H7  227   2.951   3.954  10.792 -0.4698  0.5995  0.4040
   15TCq1    O1  228   0.829   3.165   1.764  0.0447  0.2137 -0.0713
   15TCq1    C1  229   0.758   3.094   1.677  0.1755  0.7927 -0.0751
   15TCq1    O2  230   0.813   3.047   1.578 -0.4265 -0.0368  0.3932
   15TCq1    C2  231   0.631   3.053   1.740 -0.2896  0.1952  0.4800
   15TCq1    C3  232   0.628   3.021   1.874 -0.0003  0.5619 -0.1813
   15TCq1    C4  233   0.528   2.943   1.925  0.3940 -0.2498 -0.2474
   15TCq1    C5  234   0.432   2.891   1.839 -0.1385 -0.0225  0.2434
   15TCq1    C6  235   0.438   2.911   1.701 -0.0623 -0.1076 -0.2305
   15TCq1    C7  236   0.541   2.995   1.658 -0.1229  0.1769 -0.2574
   15TCq1    C8  237   0.365   2.831   1.611  0.0030 -0.4112 -0.3061
   15TCq1    O4  238   0.417   2.815   1.505 -0.0678 -0.1254 -0.2679
   15TCq1    C9  239   0.537   2.900   2.059 -0.6971  0.1552  0.3472
   15TCq1    O5  240   0.441   2.839   2.109  0.6889 -0.5023 -0.0286
   15TCq1    O6  241   0.649   2.911   2.116  0.3030 -0.3397  0.5822
   15TCq1    H1  242   0.773   3.220   1.824  1.2383 -1.7546  2.8431
   15TCq1    H2  243   0.706   3.053   1.942  0.6041  0.3034 -0.7577
   15TCq1    H3  244   0.377   2.810   1.885 -3.3749  0.1903 -3.3264
   15TCq1    H4  245   0.551   3.014   1.552 -0.4485  1.6004 -0.0304
   16MPD2     C  246   0.025   2.698   1.647  0.4054  0.1661 -0.0922
   16MPD2    C1  247   0.155   2.701   1.602 -0.3098 -0.1274 -0.0799
   16MPD2    C2  248   0.198   2.598   1.527  0.4178  0.2187 -0.2154
   16MPD2    C3  249   0.100   2.509   1.472 -0.0513  0.6005  0.0314
   16MPD2    C4  250   4.709   2.515   1.514  0.7986  0.1865 -0.3594
   16MPD2    C5  251   4.673   2.610   1.608 -0.3960 -0.1528  0.3396
   16MPD2     H  252   0.302   2.590   1.497  0.7654  1.6892  0.5966
   16MPD2    H1  253   4.630   2.455   1.470 -1.9536  2.8773  0.9428
   16MPD2    H2  254   4.730   2.780   1.708 -0.0372 -0.4298  0.4500
   16MPD2    H3  255   4.571   2.635   1.635 -0.4461 -0.3293  0.3110
   16MPD2     N  256   0.138   2.398   1.392  0.9630 -0.5638  0.5244
   16MPD2    H5  257   0.236   2.404   1.365  0.0107  0.2839 -2.7172
   16MPD2    N1  258   0.242   2.793   1.663  0.4691  0.4934  0.1193
   16MPD2    H7  259   0.207   2.844   1.744 -1.3599  0.2101 -0.4761
   17TMC1    C1  260   2.339   3.193  11.553  0.1087  0.0073 -1.0336
   17TMC1    C2  261   2.220   3.191  11.618 -1.1176  0.0139 -0.2183
   17TMC1    C3  262   2.125   3.099  11.574 -0.2747  0.0491  0.0412
   17TMC1    C4  263   2.380   3.101  11.456  0.2361  0.4925  0.1679
   17TMC1    C5  264   2.285   3.006  11.422  0.0342  0.4977  0.3296
   17TMC1    C6  265   2.155   3.006  11.478 -0.3144  0.5405  0.2374
   17TMC1     C  266   2.414   3.319  11.568  1.1765  0.7758 -0.4688
   17TMC1     O  267   2.365   3.401  11.639 -0.5282 -0.5361 -0.1190
   17TMC1     H  268   2.195   3.264  11.694 -0.5438  0.2922 -0.2963
   17TMC1    H1  269   2.460   3.104  11.383  1.1976 -0.2559  1.2062
   17TMC1    H2  270   2.075   2.934  11.464  2.0838 -2.6769  2.7354
   17TMC1    C7  271   2.295   2.920  11.306 -1.1862  0.5666  0.0286
   17TMC1    C8  272   2.019   3.066  11.669  0.1090  0.0023 -0.6376
   17TMC1    O1  273   2.193   2.886  11.250  0.2004 -0.1976  0.1199
   17TMC1    O2  274   2.018   3.106  11.786 -0.4294 -0.2434 -0.7541
   17TMC1    O3  275   2.416   2.853  11.304 -0.4394 -0.6366  0.2762
   17TMC1    H3  276   2.488   2.889  11.361 -1.2223 -0.6064  1.2508
   17TMC1    O5  277   1.914   3.060  11.585 -0.3297 -0.2868  0.8142
   17TMC1    H5  278   1.943   3.059  11.491  1.5443  1.0016  1.3788
   18MPD2     C  279   2.572   3.569  11.527  0.2894 -0.6360 -0.5800
   18MPD2    C1  280   2.607   3.445  11.476  0.5036  0.1443 -0.1774
   18MPD2    C2  281   2.719   3.436  11.394 -0.7974 -0.5850  0.4263
   18MPD2    C3  282   2.787   3.544  11.349 -0.4040 -0.5186  0.5474
   18MPD2    C4  283   2.751   3.662  11.406 -0.4466  0.1374  0.2918
   18MPD2    C5  284   2.646   3.672  11.490 -0.6159 -0.2653 -0.3648
   18MPD2     H  285   2.740   3.337  11.355 -2.3742 -1.1424  1.0080
   18MPD2    H1  286   2.804   3.750  11.372 -0.6569 -0.4867 -1.6967
   18MPD2    H2  287   2.487   3.579  11.594  0.3204  1.1672 -0.8104
   18MPD2    H3  288   2.635   3.775  11.524 -0.5144 -0.6893  0.9705
   18MPD2     N  289   2.882   3.548  11.244 -0.1460  0.6632 -0.3644
   18MPD2    H5  290   2.933   3.635  11.232 -1.9949  1.8186  0.2054
   18MPD2    N1  291   2.534   3.324  11.501 -0.2866  0.6197 -0.4742
   18MPD2    H7  292   2.572   3.234  11.472 -1.7799 -0.1826  0.0923
   19TMC2    C1  293   3.828   3.308  13.785  0.1422 -0.1581  1.6685
   19TMC2    C2  294   3.783   3.361  13.664 -0.5709 -0.7051 -0.2627
   19TMC2    C3  295   3.699   3.278  13.593 -0.8706 -0.1766 -0.6014
   19TMC2    C4  296   3.800   3.179  13.820 -0.3362  0.1726  0.7264
   19TMC2    C5  297   3.725   3.109  13.735  0.8930  0.6170 -0.0145
   19TMC2    C6  298   3.664   3.149  13.620  0.8416  0.2879 -0.3184
   19TMC2     C  299   3.898   3.392  13.874  0.3549 -0.0839  0.5036
   19TMC2     O  300   3.889   3.511  13.861  0.8062  0.0266  0.0162
   19TMC2     H  301   3.814   3.461  13.637  0.6605 -0.0362  3.7035
   19TMC2    H1  302   3.836   3.128  13.908  0.7500  2.3886  1.5813
   19TMC2    H2  303   3.605   3.088  13.553  0.9762  0.6309 -0.7517
   19TMC2    C7  304   3.693   2.966  13.754 -0.2868 -0.1004 -0.4911
   19TMC2    C8  305   3.653   3.334  13.465 -0.1765 -0.1233 -0.5591
   19TMC2    O1  306   3.650   2.897  13.663  0.0280  0.0118  0.0054
   19TMC2    O2  307   3.598   3.263  13.380  0.1163  0.1146  0.8425
   19TMC2    O5  308   3.630   3.467  13.472  0.7469 -0.8050 -0.4010
   19TMC2    H5  309   3.665   3.521  13.545 -2.2820  0.5246  0.0711
   20MPD2     C  310   4.079   3.510  14.077 -0.8116 -0.1451  0.1114
   20MPD2    C1  311   4.042   3.375  14.068 -0.6476 -0.1500  0.0354
   20MPD2    C2  312   4.081   3.294  14.171  0.0307 -0.3964 -0.0319
   20MPD2    C3  313   4.147   3.333  14.283 -0.2094  0.2232 -0.3977
   20MPD2    C4  314   4.170   3.471  14.295 -0.2823  1.2809  0.0733
   20MPD2    C5  315   4.138   3.551  14.192  0.2689 -0.0220  0.1519
   20MPD2     H  316   4.078   3.187  14.153 -0.5124 -0.1869 -1.2054
   20MPD2    H1  317   4.217   3.510  14.385  1.9698  0.0219 -0.5365
   20MPD2    H2  318   4.052   3.585  14.003 -1.6617 -0.9522 -0.3998
   20MPD2    H3  319   4.158   3.656  14.211 -0.0727  0.2325 -0.8878
   20MPD2     N  320   4.207   3.245  14.384 -0.2593 -0.1071  0.2377
   20MPD2    H5  321   4.248   3.288  14.466  1.4827  0.8387 -1.0998
   20MPD2    N1  322   3.962   3.314  13.973  0.1164 -0.4136 -0.3727
   20MPD2    H7  323   3.942   3.214  13.968  1.0103 -0.6513  0.7910
   21TMC2    C1  324   1.315   3.054  14.916 -0.2051 -0.0711  0.4282
   21TMC2    C2  325   1.307   2.934  14.977 -0.7608  0.3833  0.2347
   21TMC2    C3  326   1.211   2.924  15.071 -0.1046 -0.4946 -0.1888
   21TMC2    C4  327   1.213   3.150  14.923  0.2142 -0.1114 -0.4964
   21TMC2    C5  328   1.110   3.123  15.006 -0.2444 -0.1570  0.5030
   21TMC2    C6  329   1.115   3.017  15.092  0.6956  0.1162  0.4996
   21TMC2     C  330   1.447   3.113  14.906  0.4122 -0.1339 -0.0105
   21TMC2     O  331   1.539   3.035  14.913  1.0041 -0.0631  0.4124
   21TMC2     H  332   1.391   2.866  14.980 -1.1663 -0.1973 -1.5628
   21TMC2    H1  333   1.216   3.232  14.852  1.5275  0.3170  0.0442
   21TMC2    H2  334   1.028   3.001  15.154  0.0139  1.2396 -0.1679
   21TMC2    C7  335   1.015   3.233  15.043 -1.0015  0.2304 -0.2748
   21TMC2    C8  336   1.224   2.822  15.177 -0.1780  0.4097 -0.6199
   21TMC2    O1  337   0.951   3.204  15.146  0.4044  0.3019  0.0678
   21TMC2    O2  338   1.253   2.856  15.291 -0.3552 -0.5641  0.3114
   21TMC2    O5  339   1.269   2.713  15.112 -0.7194  0.0659  0.0302
   21TMC2    H5  340   1.240   2.735  15.021  1.8685  1.1984 -0.5278
   22MPD2     C  341   1.775   3.515  14.937  0.0402  0.2054 -0.1641
   22MPD2    C1  342   1.799   3.380  14.920 -0.3559 -0.3594 -0.1990
   22MPD2    C2  343   1.694   3.290  14.917  0.1922 -0.2438  0.0245
   22MPD2    C3  344   1.560   3.331  14.932 -0.5289  0.3145  0.4511
   22MPD2    C4  345   1.541   3.466  14.947 -0.1538 -0.1947  0.4508
   22MPD2    C5  346   1.643   3.556  14.943 -0.2434  0.1158  0.0301
   22MPD2     H  347   1.720   3.186  14.902 -2.1970 -0.6601 -1.1726
   22MPD2    H1  348   1.441   3.504  14.964 -1.8376 -3.6315 -1.7404
   22MPD2    H2  349   1.858   3.582  14.958 -1.3901  2.4187 -1.6083
   22MPD2    H3  350   1.627   3.663  14.950  0.2646  0.5368 -5.2226
   22MPD2     N  351   1.449   3.250  14.931 -0.9425 -0.3617 -0.5962
   22MPD2    H5  352   1.364   3.304  14.939 -2.1942 -2.5082  0.5373
   22MPD2    N1  353   1.924   3.323  14.886 -0.2763  0.1121  0.6436
   22MPD2    H7  354   1.930   3.222  14.898 -1.1726 -0.1727 -1.1913
   23TMC2    C1  355   2.812   0.176  14.231  0.5067  1.0484  0.3421
   23TMC2    C2  356   2.905   0.241  14.154  0.3137 -0.1860  0.0838
   23TMC2    C3  357   2.886   0.375  14.137 -0.3675 -0.1066 -0.0730
   23TMC2    C4  358   2.699   0.240  14.278 -0.0125 -0.3029 -0.2158
   23TMC2    C5  359   2.690   0.374  14.258  0.0044  0.4239 -0.1499
   23TMC2    C6  360   2.786   0.440  14.194 -0.0277 -0.0123 -0.0143
   23TMC2     C  361   2.850   0.045  14.297 -0.1638 -0.2277 -0.2975
   23TMC2     O  362   2.759   4.736  14.365  0.0349  0.0001 -0.3048
   23TMC2     H  363   3.002   0.197  14.135 -0.2628 -1.5109  0.2237
   23TMC2    H1  364   2.630   0.190  14.345  0.7233  0.3783  1.0562
   23TMC2    H2  365   2.781   0.548  14.184 -0.0689  0.1970  2.3389
   23TMC2    C7  366   2.573   0.451  14.301  0.2115 -0.0410 -0.1053
   23TMC2    C8  367   2.988   0.440  14.056 -0.7712  0.9795 -0.2836
   23TMC2    O1  368   2.582   0.575  14.320 -0.0097  0.0041 -0.2194
   23TMC2    O2  369   3.004   0.561  14.059  0.4840  0.1207 -0.3510
   23TMC2    O5  370   2.995   0.361  13.947 -0.1689 -0.1615 -0.0416
   23TMC2    H5  371   2.944   0.277  13.942 -1.6333  0.7548 -0.4124
   24MPD2     C  372   3.140   4.376  14.412 -0.9013  0.0961  0.9074
   24MPD2    C1  373   3.018   4.422  14.465  0.3200 -0.4918 -0.1903
   24MPD2    C2  374   2.958   4.536  14.418  0.3343 -0.4098 -0.0499
   24MPD2    C3  375   3.023   4.609  14.318  0.3632  0.7284  0.0434
   24MPD2    C4  376   3.139   4.563  14.271 -0.5700  0.7065  0.5988
   24MPD2    C5  377   3.198   4.448  14.318 -0.0416 -0.0239  0.7767
   24MPD2     H  378   2.860   4.566  14.455  1.4419  0.2019  2.3903
   24MPD2    H1  379   3.188   4.616  14.190  0.0448  2.3836  2.0718
   24MPD2    H2  380   3.202   4.298  14.454  0.3757  1.2962  1.2601
   24MPD2    H3  381   3.286   4.404  14.271 -1.0713 -0.4292 -0.7954
   24MPD2     N  382   2.976   4.735  14.266  0.0451 -0.1644 -0.0230
   24MPD2    H5  383   3.037   0.042  14.201 -1.2896  1.0575 -0.3698
   24MPD2    N1  384   2.947   4.357  14.567  0.4456 -0.0456 -0.0755
   24MPD2    H7  385   2.876   4.416  14.609  0.4908 -1.5164  2.0852
   25TMC2    C1  386   1.858   2.802  11.992 -0.6815 -0.3555  0.0483
   25TMC2    C2  387   1.810   2.891  11.899 -0.2990 -0.5228  0.0500
   25TMC2    C3  388   1.685   2.942  11.922 -0.3039  0.4583 -0.1988
   25TMC2    C4  389   1.785   2.757  12.098 -0.1471 -0.8445 -0.6476
   25TMC2    C5  390   1.661   2.811  12.112 -0.4879 -0.2942  0.8689
   25TMC2    C6  391   1.602   2.906  12.024  0.0023 -0.0405 -0.1593
   25TMC2     C  392   1.981   2.745  11.963  0.7072  0.3554 -0.0907
   25TMC2     O  393   2.064   2.811  11.903  0.1060 -0.3008  0.2766
   25TMC2     H  394   1.865   2.915  11.808 -1.2451 -0.2548 -0.4515
   25TMC2    H1  395   1.826   2.696  12.178 -0.9288  0.1210  0.4955
   25TMC2    H2  396   1.513   2.961  12.053 -0.3775 -0.7694  0.0532
   25TMC2    C7  397   1.576   2.742  12.211  0.3447  0.1993  0.3810
   25TMC2    C8  398   1.665   3.076  11.864 -0.4712  0.1390 -0.2802
   25TMC2    O1  399   1.623   2.645  12.266  0.4836  0.8912 -0.2765
   25TMC2    O2  400   1.550   3.116  11.886 -0.0935 -0.6463  0.0794
   25TMC2    O5  401   1.777   3.132  11.913  0.1057  0.1698 -0.4105
   25TMC2    H5  402   1.862   3.086  11.894 -0.1327 -0.3379 -0.2474
   26MPD2     C  403   2.254   2.321  11.866  0.6972  0.2723  0.2743
   26MPD2    C1  404   2.126   2.291  11.914  0.3377  0.1015 -0.5287
   26MPD2    C2  405   2.045   2.392  11.962  0.1662  0.5772  0.0477
   26MPD2    C3  406   2.080   2.524  11.949 -0.4853  0.7477 -0.5665
   26MPD2    C4  407   2.209   2.556  11.903 -0.2412 -0.4326 -0.4730
   26MPD2    C5  408   2.295   2.450  11.861  0.4073  1.0809  0.4274
   26MPD2     H  409   1.950   2.368  12.008 -1.4826  2.3328 -2.4137
   26MPD2    H1  410   2.233   2.662  11.902  1.7191 -0.8914 -0.9227
   26MPD2    H2  411   2.323   2.241  11.842  0.1758  0.2993 -1.3279
   26MPD2    H3  412   2.391   2.478  11.820  0.4198  1.4446  0.7055
   26MPD2     N  413   1.979   2.612  11.996 -0.0015  0.3152 -0.2464
   26MPD2    H5  414   1.897   2.564  12.031 -0.6485  1.2407 -0.4785
   26MPD2    N1  415   2.084   2.152  11.919  0.3898 -0.0391  0.4417
   26MPD2    H7  416   2.149   2.093  11.868 -0.6862  0.5122 -1.5674
   27TMC2    C1  417   0.562   4.264  11.878 -0.2654 -0.9223 -0.6212
   27TMC2    C2  418   0.561   4.379  11.799 -0.6326  0.1657 -0.0810
   27TMC2    C3  419   0.634   4.481  11.837 -0.0665  0.2156  0.1401
   27TMC2    C4  420   0.655   4.248  11.977 -0.6003  0.0694  0.3529
   27TMC2    C5  421   0.716   4.360  12.026 -0.1514  1.0216 -0.0561
   27TMC2    C6  422   0.707   4.475  11.951  0.0069  0.8474 -0.2773
   27TMC2     C  423   0.429   4.229  11.913  0.0372  0.8397 -0.1015
   27TMC2     O  424   0.339   4.246  11.832 -0.6329 -0.3425  0.1138
   27TMC2     H  425   0.483   4.383  11.724 -0.2678 -0.8423 -0.5200
   27TMC2    H1  426   0.668   4.150  12.021  0.2874  1.2944  2.8370
   27TMC2    H2  427   0.745   4.566  11.996  0.8678  0.2368  0.2364
   27TMC2    C7  428   0.706   4.372  12.169 -0.3095 -0.2944 -0.6790
   27TMC2    C8  429   0.609   4.613  11.788 -0.3864  0.3210 -0.4466
   27TMC2    O1  430   0.649   4.280  12.223  0.4288  0.4868  0.4671
   27TMC2    O2  431   0.634   4.719  11.846  0.1220  0.1258  0.8710
   27TMC2    O5  432   0.596   4.610  11.651 -0.4181  0.0985  0.5287
   27TMC2    H5  433   0.597   4.520  11.612 -0.0167 -0.2348  1.3113
   28MPD2     C  434   0.089   4.145  12.284  0.4786 -0.1746  0.3184
   28MPD2    C1  435   0.212   4.173  12.348 -0.3068  0.0713 -0.1119
   28MPD2    C2  436   0.325   4.181  12.261  0.0940  0.1119 -0.2212
   28MPD2    C3  437   0.315   4.181  12.124  0.2917  0.3249 -0.0020
   28MPD2    C4  438   0.194   4.151  12.067  0.2911 -0.1198  0.1165
   28MPD2    C5  439   0.085   4.130  12.148  0.4195 -0.0816  0.1172
   28MPD2     H  440   0.410   4.223  12.313 -0.0612  0.8020 -0.5355
   28MPD2    H1  441   0.171   4.134  11.963 -0.3997 -0.3528  0.3090
   28MPD2    H2  442   4.736   4.123  12.333 -0.7098  1.4358 -1.2118
   28MPD2    H3  443   4.734   4.097  12.103  0.3507  2.2310 -1.4281
   28MPD2     N  444   0.426   4.207  12.044 -0.1816 -0.1068 -0.3185
   28MPD2    H5  445   0.508   4.217  12.104  0.2093 -1.9116 -0.5444
   28MPD2    N1  446   0.215   4.172  12.490 -0.3204 -0.0062 -0.2281
   28MPD2    H7  447   0.125   4.167  12.536  0.5045 -1.3138  1.2391
   29TMC2    C1  448   0.307   2.086  14.167 -0.8464 -0.4030 -0.2909
   29TMC2    C2  449   0.271   2.161  14.276  0.6061  0.1120  0.4188
   29TMC2    C3  450   0.370   2.227  14.342  0.5266 -0.1620  0.8720
   29TMC2    C4  451   0.430   2.079  14.124  0.3753  0.1290  0.3574
   29TMC2    C5  452   0.532   2.132  14.198  0.1240  0.1847  0.5732
   29TMC2    C6  453   0.501   2.207  14.306  0.1221 -0.1764 -0.2021
   29TMC2     C  454   0.202   1.998  14.118  0.0836  0.2605 -0.1741
   29TMC2     O  455   0.085   2.020  14.143 -0.5648  0.2871 -0.3452
   29TMC2     H  456   0.166   2.179  14.297  1.1438 -1.1744  4.1658
   29TMC2    H1  457   0.445   2.025  14.031  0.1536 -0.4414  0.6488
   29TMC2    H2  458   0.580   2.240  14.372 -0.5987 -2.7036  1.9172
   29TMC2    C7  459   0.656   2.145  14.132 -0.1373 -0.3072  0.2668
   29TMC2    C8  460   0.336   2.315  14.449 -0.4431 -0.3909 -0.4128
   29TMC2    O1  461   0.672   2.075  14.035  0.4078  0.3915  0.4487
   29TMC2    O2  462   0.233   2.298  14.514  0.1368 -0.3504 -0.6316
   29TMC2    O5  463   0.444   2.393  14.482  0.3666  0.2295 -0.5484
   29TMC2    H5  464   0.500   2.403  14.402  2.5526  0.8615  1.0507
   30MPD2     C  465   0.028   1.570  13.948  0.6910 -0.0713 -0.2733
   30MPD2    C1  466   0.147   1.532  14.012 -0.3164  0.3179  0.0569
   30MPD2    C2  467   0.229   1.631  14.058 -0.7548 -0.2801 -0.0969
   30MPD2    C3  468   0.182   1.769  14.043  0.2758 -0.0470  0.5952
   30MPD2    C4  469   0.069   1.795  13.967 -0.2877 -0.7713  0.5848
   30MPD2    C5  470   4.728   1.697  13.935  0.6835 -0.3948 -0.2249
   30MPD2     H  471   0.322   1.600  14.105  0.2679  0.2129 -1.8245
   30MPD2    H1  472   0.032   1.894  13.945  0.9355 -0.4590 -0.1072
   30MPD2    H2  473   4.693   1.502  13.913 -0.7897  1.6220 -0.3727
   30MPD2    H3  474   4.632   1.723  13.892 -0.3268 -2.1970  0.9552
   30MPD2     N  475   0.252   1.876  14.091 -0.2209 -0.1602 -0.7093
   30MPD2    H5  476   0.347   1.859  14.124 -0.7925 -0.9215  0.5556
   30MPD2    N1  477   0.180   1.400  14.040  0.6922 -0.0096  0.3839
   30MPD2    H7  478   0.263   1.387  14.096  0.1799  2.7733  1.7843
   31TMC2    C1  479   2.844   0.523  15.149 -0.2379  0.5636  0.0498
   31TMC2    C2  480   2.715   0.504  15.107 -0.0257  0.0727  0.1835
   31TMC2    C3  481   2.632   0.408  15.160  0.1099 -0.2049  0.0577
   31TMC2    C4  482   2.882   0.448  15.255  0.1327 -0.3471 -0.6441
   31TMC2    C5  483   2.792   0.366  15.318 -0.4079  0.0228 -0.4240
   31TMC2    C6  484   2.667   0.333  15.267  0.1854 -0.1397  0.9637
   31TMC2     C  485   2.926   0.594  15.053 -0.0719  0.0397  0.3807
   31TMC2     O  486   2.879   0.601  14.942 -0.1660 -0.3042 -0.1747
   31TMC2     H  487   2.665   0.556  15.026 -0.7826  1.8965  1.8103
   31TMC2    H1  488   2.981   0.469  15.296 -0.3829  0.6861  0.0695
   31TMC2    H2  489   2.597   0.264  15.313  1.1454 -0.2995  2.1887
   31TMC2    C7  490   2.838   0.293  15.436 -0.0018 -0.1711  0.2804
   31TMC2    C8  491   2.493   0.394  15.128 -0.3484 -0.1945  0.2916
   31TMC2    O1  492   2.958   0.298  15.462 -0.0411  0.3057  0.6182
   31TMC2    O2  493   2.431   0.295  15.158  0.2428  0.0503  0.1101
   31TMC2    O5  494   2.437   0.510  15.071  0.2647  0.6014 -0.0022
   31TMC2    H5  495   2.488   0.595  15.072 -1.4946  1.6545  0.3368
   32MPD2     C  496   3.218   1.009  14.981  0.6356 -0.1964 -0.2879
   32MPD2    C1  497   3.116   0.958  14.905 -0.1881 -0.0596  0.0796
   32MPD2    C2  498   3.064   0.842  14.947 -0.2681 -0.1157  0.2016
   32MPD2    C3  499   3.108   0.776  15.063 -0.1268 -0.0692  0.1738
   32MPD2    C4  500   3.216   0.830  15.130 -0.3400  0.0746 -0.2890
   32MPD2    C5  501   3.272   0.945  15.090  0.1541 -0.1796 -0.5922
   32MPD2     H  502   2.984   0.804  14.884 -0.2871 -2.2574  1.5230
   32MPD2    H1  503   3.256   0.789  15.222 -1.7176 -3.9434 -1.5116
   32MPD2    H2  504   3.258   1.107  14.958  1.1787  0.1088  2.0057
   32MPD2    H3  505   3.365   0.984  15.129  0.2690 -1.5339  0.5090
   32MPD2     N  506   3.033   0.663  15.107 -0.4428 -0.8908 -0.2742
   32MPD2    H5  507   3.050   0.638  15.204 -1.5899  0.7901  0.3460
   32MPD2    N1  508   3.069   1.025  14.787  0.1824  0.0352  0.0014
   32MPD2    H7  509   3.110   1.117  14.775 -1.2502  0.6756  0.0346
   33TMC2    C1  510   3.598   4.122  10.549 -0.8623 -0.3938 -0.2595
   33TMC2    C2  511   3.660   4.035  10.457  0.5136  0.9216  0.8157
   33TMC2    C3  512   3.672   4.069  10.324  0.0649  0.2589 -0.1367
   33TMC2    C4  513   3.542   4.237  10.493  0.3958 -0.3266  0.1109
   33TMC2    C5  514   3.559   4.264  10.361 -0.2296 -0.2899 -0.1117
   33TMC2    C6  515   3.615   4.181  10.270 -0.0168 -0.1953 -0.0525
   33TMC2     C  516   3.522   4.063  10.663  0.0084  0.0034 -0.4229
   33TMC2     O  517   3.520   3.941  10.663 -0.3095 -0.7931  0.0427
   33TMC2     H  518   3.692   3.940  10.499 -0.2658 -0.4602 -1.7567
   33TMC2    H1  519   3.477   4.304  10.547 -0.0826 -1.0411  0.4230
   33TMC2    H2  520   3.648   4.216  10.173  0.8905 -3.4804 -0.9427
   33TMC2    C7  521   3.508   4.389  10.310  0.8652  0.1224  0.2411
   33TMC2    C8  522   3.720   3.968  10.242  0.6152 -0.1781  0.5118
   33TMC2    O1  523   3.521   4.483  10.386 -0.0055 -0.5314  0.0301
   33TMC2    O2  524   3.832   3.964  10.195 -0.0199 -0.3902 -0.1892
   33TMC2    O5  525   3.652   3.865  10.284 -0.5063 -0.2127  0.1978
   33TMC2    H5  526   3.558   3.884  10.304 -0.0172  0.6827  1.6778
   34MPD2     C  527   3.259   4.047  11.099 -0.8295 -0.3647 -0.1512
   34MPD2    C1  528   3.269   3.957  10.993  0.4093 -0.2260 -0.6135
   34MPD2    C2  529   3.337   3.990  10.880  0.4688  0.3053 -0.1744
   34MPD2    C3  530   3.400   4.117  10.866 -0.3781  0.1702 -0.0693
   34MPD2    C4  531   3.381   4.208  10.964  0.3571  0.0864 -0.1176
   34MPD2    C5  532   3.315   4.166  11.078  0.3999  0.9980  0.0242
   34MPD2     H  533   3.344   3.922  10.796 -1.6020 -2.1280  1.6387
   34MPD2    H1  534   3.427   4.306  10.970 -2.1941  1.2725  0.0803
   34MPD2    H2  535   3.207   4.031  11.192  0.1172  0.1874  0.4815
   34MPD2    H3  536   3.314   4.229  11.167  0.9250 -1.4245  1.7356
   34MPD2     N  537   3.478   4.153  10.755  0.2544 -0.1013 -0.7622
   34MPD2    H5  538   3.494   4.250  10.731 -2.1262  0.9203  1.7473
   34MPD2    N1  539   3.224   3.820  11.019  0.0388  0.6309  0.4406
   34MPD2    H7  540   3.184   3.812  11.112 -0.7935 -0.6594 -0.0253
   35TMC2    C1  541   4.571   4.584  11.550 -0.3397 -0.1516  0.1889
   35TMC2    C2  542   4.544   4.654  11.435  0.1987  0.0087 -0.1476
   35TMC2    C3  543   4.416   4.666  11.385 -0.1865  0.9821 -0.6866
   35TMC2    C4  544   4.466   4.523  11.609 -0.0271 -0.2691  0.2822
   35TMC2    C5  545   4.340   4.525  11.553  0.1543 -0.0312  0.0724
   35TMC2    C6  546   4.310   4.605  11.442 -0.4081 -0.4348 -0.8718
   35TMC2     C  547   4.658   4.664  11.641  0.1511 -0.6632 -0.3696
   35TMC2     O  548   4.723   0.010  11.586  0.1290 -0.0472  1.0745
   35TMC2     H  549   4.628   4.697  11.383  1.0982  1.3431  2.3646
   35TMC2    H1  550   4.489   4.453  11.688 -1.5930 -0.3841  0.6358
   35TMC2    H2  551   4.213   4.606  11.394  0.0154 -0.4710 -1.7322
   35TMC2    C7  552   4.230   4.482  11.633 -0.0233  0.0975 -0.9135
   35TMC2    C8  553   4.402   4.721  11.261 -0.1465 -0.0727  0.0964
   35TMC2    O1  554   4.245   4.393  11.715  0.6636 -0.2678 -0.8231
   35TMC2    O2  555   4.306   4.708  11.185  0.3133 -0.4059 -0.4349
   35TMC2    O5  556   4.484   0.084  11.258  0.4896  0.1038  0.3742
   35TMC2    H5  557   4.528   0.115  11.340 -0.2636  1.7910  0.1378
   36MPD2     C  558   0.086   0.053  12.111 -0.7548 -0.1406  1.3193
   36MPD2    C1  559   0.001   4.691  12.123  0.2145 -0.2988  0.1736
   36MPD2    C2  560   4.674   4.644  12.010  0.2043 -1.0101 -1.0508
   36MPD2    C3  561   4.712   4.691  11.883  0.0698 -0.0892 -0.4597
   36MPD2    C4  562   0.053   0.057  11.874  0.2141  0.2487 -1.2518
   36MPD2    C5  563   0.101   0.110  11.990  0.0889 -0.4400 -0.1058
   36MPD2     H  564   4.596   4.569  12.019 -0.5218 -0.1822 -0.3688
   36MPD2    H1  565   0.086   0.105  11.782 -0.2911  1.3180 -0.8777
   36MPD2    H2  566   0.126   0.107  12.196  2.1172  0.6824 -0.5453
   36MPD2    H3  567   0.150   0.205  11.971  0.4068 -0.5808  0.0135
   36MPD2     N  568   4.649   4.627  11.775  0.3375  0.1201 -0.3584
   36MPD2    H5  569   4.590   4.551  11.805  2.0724 -0.9323  0.3813
   36MPD2    N1  570   4.715   4.621  12.242  0.1614  0.2528  0.5510
   36MPD2    H7  571   4.645   4.548  12.240  0.4218  0.0349 -0.9345
   37TMC2    C1  572   1.344   4.418  12.400  0.4436 -0.0849  0.1760
   37TMC2    C2  573   1.227   4.346  12.392 -0.2406  0.7866 -0.6005
   37TMC2    C3  574   1.187   4.326  12.258  0.4582  0.0425 -0.5490
   37TMC2    C4  575   1.428   4.431  12.289 -0.3557  0.4909 -0.3523
   37TMC2    C5  576   1.381   4.415  12.160 -0.2374  0.2650 -0.3569
   37TMC2    C6  577   1.261   4.354  12.148  0.2891  1.1077  0.5438
   37TMC2     C  578   1.375   4.453  12.541  0.5050 -0.2163  0.2241
   37TMC2     O  579   1.280   4.452  12.620  0.0731  0.0228 -0.2278
   37TMC2     H  580   1.155   4.345  12.473 -0.4319  2.1282 -0.7563
   37TMC2    H1  581   1.530   4.465  12.306 -0.6679  1.5438 -0.5888
   37TMC2    H2  582   1.219   4.344  12.048  2.1649  0.8433 -0.2143
   37TMC2    C7  583   1.468   4.416  12.047 -0.2355 -0.4714  0.3344
   37TMC2    C8  584   1.054   4.272  12.261  0.2095 -0.3747  0.0396
   37TMC2    O1  585   1.554   4.499  12.049 -0.1427 -0.2655  0.3164
   37TMC2    O2  586   1.008   4.221  12.364 -0.7358 -1.3418  0.0178
   37TMC2    O5  587   1.009   4.256  12.132 -0.0946 -0.2305 -0.4237
   37TMC2    H5  588   1.076   4.288  12.069  1.9002 -2.9812  0.2806
   38MPD2     C  589   1.669   4.681  12.888 -0.1555 -0.1332  0.1099
   38MPD2    C1  590   1.709   4.728  12.764 -0.1640  0.2296 -0.0096
   38MPD2    C2  591   1.642   4.684  12.649  0.1508 -0.9308  0.5262
   38MPD2    C3  592   1.543   4.593  12.665  0.0463  0.4278 -0.4779
   38MPD2    C4  593   1.488   4.565  12.789  0.6844  0.3891 -0.5079
   38MPD2    C5  594   1.556   4.602  12.904 -0.1658  0.4818  0.1610
   38MPD2     H  595   1.666   4.714  12.548 -2.3905  0.3491  0.3206
   38MPD2    H1  596   1.390   4.518  12.790  0.5145  0.6937 -3.3207
   38MPD2    H2  597   1.725   4.704  12.978  1.1522 -0.4446 -0.6132
   38MPD2    H3  598   1.512   4.560  12.994  1.3151  0.3878  0.8582
   38MPD2     N  599   1.494   4.523  12.548 -0.0161 -0.8804  0.1297
   38MPD2    H5  600   1.553   4.524  12.465 -0.0898 -3.3481  0.0518
   38MPD2    N1  601   1.818   0.078  12.738  0.0500 -0.6862 -0.6009
   38MPD2    H7  602   1.840   0.108  12.644  0.3289 -0.9838 -0.6291
   39TMC2    C1  603   0.113   2.222   1.797 -0.2898 -0.2070 -0.4120
   39TMC2    C2  604   0.030   2.313   1.871 -0.2201 -0.5496  0.9792
   39TMC2    C3  605   0.093   2.430   1.909 -0.1535  0.2376 -0.1729
   39TMC2    C4  606   0.233   2.258   1.756 -0.0932  0.1436  0.2801
   39TMC2    C5  607   0.290   2.381   1.786 -0.3204  0.3565  0.1479
   39TMC2    C6  608   0.216   2.470   1.862  0.0003  0.3564 -0.7800
   39TMC2     C  609   0.036   2.124   1.731 -0.1657 -0.1768  0.0531
   39TMC2     O  610   4.654   2.121   1.749  0.7479  0.3699  0.4610
   39TMC2     H  611   4.673   2.286   1.908  0.9616 -1.4076  3.5572
   39TMC2    H1  612   0.294   2.195   1.691 -1.3712  0.1690 -0.9473
   39TMC2    H2  613   0.262   2.568   1.877  1.4085 -0.4079 -0.1129
   39TMC2    C7  614   0.423   2.411   1.729 -0.6045  0.4955  0.4389
   39TMC2    C8  615   0.026   2.510   2.007  1.0589 -0.3714 -0.1828
   39TMC2    O1  616   0.456   2.347   1.626 -0.2022  0.3411  0.0553
   39TMC2    O2  617   4.657   2.472   2.045 -0.9730  0.0685  0.2847
   39TMC2    O5  618   0.118   2.562   2.092  0.0845 -0.3501 -0.0178
   39TMC2    H5  619   0.207   2.582   2.056 -0.8322 -0.1359 -2.1734
   40MPD2     C  620   0.193   1.832   1.592  0.3832  0.2979  0.6266
   40MPD2    C1  621   0.084   1.917   1.611 -0.4375 -0.4130 -0.2854
   40MPD2    C2  622   4.696   1.883   1.575  0.7166 -0.2015  0.3020
   40MPD2    C3  623   4.677   1.762   1.510 -0.2593 -0.4209  0.2953
   40MPD2    C4  624   0.051   1.692   1.468 -0.0390 -0.0320  0.3381
   40MPD2    C5  625   0.179   1.719   1.510  0.7886 -0.6815  0.0137
   40MPD2     H  626   4.617   1.952   1.604 -1.2637 -2.2157 -0.2541
   40MPD2    H1  627   0.033   1.595   1.423 -2.0200  0.0535  0.9373
   40MPD2    H2  628   0.287   1.860   1.638  0.7534  3.1791 -1.8763
   40MPD2    H3  629   0.268   1.660   1.492  0.3909 -0.8144 -1.4762
   40MPD2     N  630   4.546   1.709   1.483  0.4017  0.1976 -0.1938
   40MPD2    H5  631   4.529   1.650   1.402  0.2690  1.6059 -1.1824
   40MPD2    N1  632   0.121   2.037   1.678  0.0925 -0.1147 -0.1155
   40MPD2    H7  633   0.220   2.057   1.691 -0.2198  1.0985  0.3672
   41TMC2    C1  634   3.554   4.664  14.225 -0.2809 -0.2895  0.4758
   41TMC2    C2  635   3.442   0.002  14.210 -0.2772  0.3637  0.0082
   41TMC2    C3  636   3.439   0.090  14.104  0.1155  0.0068 -0.0974
   41TMC2    C4  637   3.659   4.682  14.139  0.2394  0.3015  0.5341
   41TMC2    C5  638   3.660   0.040  14.045  0.0080  1.1873  0.0981
   41TMC2    C6  639   3.544   0.110  14.018 -0.2216  0.3979  1.1064
   41TMC2     C  640   3.568   4.562  14.331 -0.3206  0.2611 -0.8881
   41TMC2     O  641   3.643   4.472  14.296  0.6784 -0.2131 -0.5909
   41TMC2     H  642   3.359   0.005  14.280 -0.2133  0.2250  0.0887
   41TMC2    H1  643   3.745   4.617  14.151  0.1458  0.3357  1.3906
   41TMC2    H2  644   3.542   0.177  13.933  0.5382 -1.8675 -0.7101
   41TMC2    C7  645   3.781   0.055  13.957  0.5442 -0.3156 -0.9233
   41TMC2    C8  646   3.309   0.157  14.082  0.0658  0.6879  0.4533
   41TMC2    O1  647   3.887   0.030  14.011  0.1109 -0.1238  0.3175
   41TMC2    O2  648   3.201   0.103  14.098  0.4802  0.5721  0.2592
   41TMC2    O5  649   3.333   0.263  14.003 -0.0662 -0.1244  0.2353
   41TMC2    H5  650   3.413   0.312  14.031 -0.5856  1.2046 -0.5693
   42MPD2     C  651   3.463   4.349  14.530 -0.2506 -0.3962  0.3485
   42MPD2    C1  652   3.434   4.484  14.536 -0.8263  0.0631  0.1442
   42MPD2    C2  653   3.352   4.534  14.635 -0.6471 -0.3947  0.3672
   42MPD2    C3  654   3.296   4.444  14.729  0.4517 -0.3771 -0.1943
   42MPD2    C4  655   3.321   4.307  14.715 -0.3744 -0.0838  0.2514
   42MPD2    C5  656   3.409   4.258  14.625  0.3310 -0.7536  0.0722
   42MPD2     H  657   3.341   4.641  14.632 -4.1379 -0.6888  1.9293
   42MPD2    H1  658   3.290   4.232  14.786 -0.7424 -0.3396 -0.1853
   42MPD2    H2  659   3.542   4.314  14.464 -0.5054  0.4881 -0.4274
   42MPD2    H3  660   3.445   4.157  14.646  1.5375 -0.3323  0.0212
   42MPD2     N  661   3.253   4.492  14.853  0.7547  0.7315  0.2144
   42MPD2    H5  662   3.248   4.431  14.935 -2.9038  0.6531 -0.0298
   42MPD2    N1  663   3.477   4.580  14.438 -0.5365 -0.3040 -0.8582
   42MPD2    H7  664   3.438   4.674  14.444 -1.1529 -0.6412  0.3049
   43TMC2    C1  665   0.439   2.709   0.727 -0.4007 -0.1646  0.3986
   43TMC2    C2  666   0.315   2.657   0.707  0.1229  0.4962 -0.3496
   43TMC2    C3  667   0.206   2.731   0.731 -0.3908 -0.2772  0.2711
   43TMC2    C4  668   0.460   2.837   0.767 -0.2044  0.4642 -0.0993
   43TMC2    C5  669   0.351   2.913   0.791 -0.3302 -0.6579  0.0608
   43TMC2    C6  670   0.225   2.864   0.772 -0.2309 -0.8343 -0.7338
   43TMC2     C  671   0.552   2.639   0.665 -0.3710 -0.3480  0.2576
   43TMC2     O  672   0.665   2.673   0.698 -0.4199  0.3345  0.1371
   43TMC2     H  673   0.310   2.550   0.692 -0.9612  0.0139  3.5002
   43TMC2    H1  674   0.560   2.876   0.778 -0.4989  1.7881 -2.0212
   43TMC2    H2  675   0.137   2.924   0.792  1.0179  1.1599 -1.2472
   43TMC2    C7  676   0.368   3.050   0.791  0.7681 -0.8927 -0.0574
   43TMC2    C8  677   0.077   2.662   0.734 -1.0901  0.2207 -0.2575
   43TMC2    O1  678   0.300   3.110   0.713  0.3817  0.2090 -0.1870
   43TMC2    O2  679   0.058   2.550   0.685  0.1628  0.0988 -0.5802
   43TMC2    O5  680   4.737   2.759   0.765 -0.4437 -0.1080 -0.1788
   43TMC2    H5  681   4.643   2.733   0.767 -0.6060  0.4676 -0.2885
   44MPD2     C  682   0.744   2.475   0.218  0.3955 -0.0050  0.6059
   44MPD2    C1  683   0.809   2.507   0.340 -0.3183  0.6104  0.5883
   44MPD2    C2  684   0.728   2.549   0.443  0.7083 -0.0051  0.5692
   44MPD2    C3  685   0.595   2.563   0.435 -0.4486 -0.0934  0.1121
   44MPD2    C4  686   0.534   2.525   0.317  0.2271 -0.2507  0.0135
   44MPD2    C5  687   0.604   2.478   0.210  0.4261 -0.6610 -0.4310
   44MPD2     H  688   0.778   2.574   0.536  1.7497  0.2428 -0.0545
   44MPD2    H1  689   0.426   2.515   0.318  0.3555 -1.5206  1.2484
   44MPD2    H2  690   0.792   2.431   0.131 -1.1675 -1.0780  0.2862
   44MPD2    H3  691   0.553   2.450   0.119 -0.2067 -2.1566  0.3716
   44MPD2     N  692   0.512   2.595   0.543 -0.0844 -0.3358 -0.1555
   44MPD2    H5  693   0.412   2.598   0.526  0.4451 -2.7529 -3.6100
   44MPD2    N1  694   0.946   2.498   0.363  0.9400  0.2226 -0.8999
   44MPD2    H7  695   0.984   2.528   0.453  1.0870 -1.4376 -0.4194
   45TMC2    C1  696   0.910   1.234  10.181  0.3382 -0.1556 -0.1283
   45TMC2    C2  697   0.840   1.326  10.111  0.7456  0.0084  0.0654
   45TMC2    C3  698   0.864   1.464  10.132  0.3190  0.0898  0.8219
   45TMC2    C4  699   0.998   1.271  10.280  0.3879 -0.3668 -0.1540
   45TMC2    C5  700   1.024   1.405  10.292 -0.4206  0.2052 -0.4316
   45TMC2    C6  701   0.957   1.505  10.230  0.4501  0.0638  0.1938
   45TMC2     C  702   0.899   1.097  10.164  0.3736 -0.4133  0.5109
   45TMC2     O  703   0.944   1.023  10.249  0.3779  0.3362  0.4022
   45TMC2     H  704   0.782   1.304  10.022  1.5352  0.7999 -0.6560
   45TMC2    H1  705   1.060   1.199  10.332  0.5201  1.0744  1.6714
   45TMC2    H2  706   0.958   1.608  10.263  0.2769 -0.5568  2.1405
   45TMC2    C7  707   1.113   1.432  10.403 -0.8442  0.5153 -0.1209
   45TMC2    C8  708   0.761   1.561  10.091  0.0683 -0.8138  0.6593
   45TMC2    O1  709   1.134   1.341  10.480  0.6300 -0.1786 -0.1527
   45TMC2    O2  710   0.689   1.553   9.993 -0.7465  0.2178  1.0414
   45TMC2    O5  711   0.706   1.603  10.213 -0.1649  0.0516  0.2372
   45TMC2    H5  712   0.758   1.575  10.292 -0.7901  0.2662  0.7300
   46MPD2     C  713   0.889   0.837  10.027 -0.3288 -0.5495  0.6455
   46MPD2    C1  714   0.793   0.932  10.021  0.5911 -0.0899 -0.4128
   46MPD2    C2  715   0.670   0.902   9.967 -0.6251  0.8074  0.5613
   46MPD2    C3  716   0.637   0.773   9.918 -0.1112  0.4512 -0.5570
   46MPD2    C4  717   0.740   0.684   9.913 -0.3991 -0.3580 -0.1233
   46MPD2    C5  718   0.859   0.713   9.972 -0.4028 -0.8374 -0.3534
   46MPD2     H  719   0.588   0.972   9.979  0.0466  2.2340 -3.2354
   46MPD2    H1  720   0.730   0.583   9.874  0.5280 -0.4529 -0.1302
   46MPD2    H2  721   0.992   0.846  10.061 -0.9180  1.3140  1.9021
   46MPD2    H3  722   0.933   0.634   9.974  2.3992  1.8244  0.7286
   46MPD2     N  723   0.508   0.741   9.875  0.1485  0.2685 -0.4412
   46MPD2    H5  724   0.445   0.820   9.885 -2.0645 -1.4492 -0.8559
   46MPD2    N1  725   0.812   1.062  10.067 -0.1363  0.1372 -0.0015
   46MPD2    H7  726   0.751   1.135  10.032 -1.1137 -1.1860 -1.0902
   47TMC2    C1  727   3.884   1.538   8.860  0.0388 -0.2867  0.8800
   47TMC2    C2  728   3.850   1.538   8.728  0.6250 -0.1309 -0.2711
   47TMC2    C3  729   3.716   1.505   8.697  0.3604 -0.2032 -0.0690
   47TMC2    C4  730   3.784   1.505   8.956  0.0228 -0.1390  0.4253
   47TMC2    C5  731   3.654   1.491   8.929 -0.2314  0.2021  1.0856
   47TMC2    C6  732   3.623   1.483   8.799  0.0656 -0.1687 -0.5618
   47TMC2     C  733   4.027   1.534   8.885  0.3704 -0.1091 -0.0845
   47TMC2     O  734   4.095   1.569   8.789 -0.1462  0.3832  0.0884
   47TMC2     H  735   3.913   1.568   8.646  0.7091 -0.1884 -0.2276
   47TMC2    H1  736   3.814   1.485   9.058  1.3629 -0.3689 -0.0021
   47TMC2    H2  737   3.524   1.456   8.765  0.1501 -0.2281 -0.7644
   47TMC2    C7  738   3.548   1.479   9.021  0.4268 -0.9585 -0.2784
   47TMC2    C8  739   3.665   1.503   8.560 -0.9569  0.0060  0.3159
   47TMC2    O1  740   3.441   1.525   8.979 -0.4333 -0.3038  0.0097
   47TMC2    O2  741   3.547   1.500   8.527 -0.0965  0.1229  0.3958
   47TMC2    O5  742   3.765   1.467   8.482  0.0376 -0.3219 -0.4534
   47TMC2    H5  743   3.852   1.456   8.527  0.8633  2.6572 -1.3004
   48MPD2     C  744   4.307   1.458   8.948 -0.8216 -0.4109  0.2537
   48MPD2    C1  745   4.195   1.418   9.026 -0.8248 -0.3874  0.7057
   48MPD2    C2  746   4.219   1.350   9.141  0.4509 -0.6424 -0.2428
   48MPD2    C3  747   4.342   1.295   9.172 -0.7161 -0.0642 -0.1087
   48MPD2    C4  748   4.444   1.325   9.087 -0.3027 -0.1159 -0.2434
   48MPD2    C5  749   4.433   1.406   8.981  0.5209 -0.8185  0.8309
   48MPD2     H  750   4.134   1.337   9.207  1.2307 -1.5007  0.5783
   48MPD2    H1  751   4.541   1.282   9.108 -1.0588 -1.8414 -0.2175
   48MPD2    H2  752   4.296   1.538   8.875  2.7391 -1.2775 -1.2487
   48MPD2    H3  753   4.521   1.417   8.918  1.2352 -1.2274  1.7480
   48MPD2     N  754   4.353   1.216   9.286  0.2390  0.5420  0.1653
   48MPD2    H5  755   4.261   1.192   9.321  0.1035 -0.7105 -1.1011
   48MPD2    N1  756   4.060   1.463   9.000  0.2204 -0.5305  0.3709
   48MPD2    H7  757   3.991   1.440   9.071  1.3541  0.5368  1.8359
   49TMC2    C1  758   1.444   1.575  11.396  0.0154  0.5687 -0.7154
   49TMC2    C2  759   1.417   1.531  11.271 -0.0170  0.7181  0.2042
   49TMC2    C3  760   1.286   1.510  11.235 -0.5663 -0.3020 -0.0389
   49TMC2    C4  761   1.343   1.589  11.490 -0.8364 -0.3944  0.4606
   49TMC2    C5  762   1.213   1.560  11.455 -0.6545 -0.4819 -0.5330
   49TMC2    C6  763   1.183   1.530  11.327 -0.2354  0.7720 -0.3481
   49TMC2     C  764   1.570   1.648  11.410 -0.2949 -0.2479 -0.1709
   49TMC2     O  765   1.659   1.618  11.333 -0.6496  0.8865 -0.0048
   49TMC2     H  766   1.502   1.506  11.209  0.7737  0.4365  1.3992
   49TMC2    H1  767   1.360   1.623  11.591  3.2938 -1.3831  0.0959
   49TMC2    H2  768   1.080   1.521  11.295 -0.1129 -1.2017 -0.1699
   49TMC2    C7  769   1.115   1.529  11.558  0.1806 -0.4689  0.6645
   49TMC2    C8  770   1.269   1.523  11.096 -0.1390  0.4878  0.5499
   49TMC2    O1  771   1.005   1.493  11.522  0.5727  0.3392 -0.0800
   49TMC2    O2  772   1.364   1.518  11.016  0.3636  0.4691  0.4150
   49TMC2    O5  773   1.148   1.578  11.079  0.1236 -0.5418  0.1906
   49TMC2    H5  774   1.073   1.577  11.141 -1.4977  0.7463 -1.7347
   50MPD2     C  775   1.783   1.841  11.498 -0.3729 -0.1806 -0.0807
   50MPD2    C1  776   1.650   1.843  11.540  0.7269 -0.5146 -0.8988
   50MPD2    C2  777   1.605   1.944  11.619 -0.8043  0.3405  0.1728
   50MPD2    C3  778   1.687   2.051  11.645  0.7617  0.7519  0.1517
   50MPD2    C4  779   1.819   2.053  11.600 -0.4277  1.0524 -0.0700
   50MPD2    C5  780   1.867   1.941  11.534 -0.0773  0.2032 -0.9857
   50MPD2     H  781   1.503   1.953  11.654 -1.7831 -0.8267 -2.4173
   50MPD2    H1  782   1.882   2.140  11.612 -1.2964  1.9824 -2.2989
   50MPD2    H2  783   1.826   1.759  11.442  0.5849  0.5421 -0.3997
   50MPD2    H3  784   1.970   1.929  11.503  0.7340  0.1447  1.7073
   50MPD2     N  785   1.648   2.159  11.723 -0.2766  0.4603  0.1377
   50MPD2    H5  786   1.709   2.240  11.720  1.7379 -1.2180 -3.7721
   50MPD2    N1  787   1.558   1.745  11.501  0.1722  0.6950 -0.7257
   50MPD2    H7  788   1.464   1.745  11.540  1.2793 -2.5619  1.9573
   51TMC2    C1  789   1.531   2.870   1.417  0.2331  0.3249  0.0596
   51TMC2    C2  790   1.466   2.986   1.394 -0.2788  0.6371  0.8241
   51TMC2    C3  791   1.466   3.076   1.496 -0.2196  0.5414  0.1775
   51TMC2    C4  792   1.605   2.848   1.529  0.3208  0.5703  0.2350
   51TMC2    C5  793   1.617   2.956   1.619  0.0154  0.1147 -0.3064
   51TMC2    C6  794   1.540   3.065   1.607  0.3253 -0.1685 -0.7217
   51TMC2     C  795   1.559   2.767   1.321  0.2042 -0.2687  0.1473
   51TMC2     O  796   1.599   2.659   1.355  0.5672 -0.1631  0.6612
   51TMC2     H  797   1.418   3.009   1.299  0.2365  1.2546  0.7136
   51TMC2    H1  798   1.643   2.749   1.550  2.3357  1.1256 -0.8230
   51TMC2    H2  799   1.526   3.131   1.692 -0.1401  0.9263 -1.6551
   51TMC2    C7  800   1.713   2.932   1.725 -0.0682  0.5333 -0.6219
   51TMC2    C8  801   1.403   3.209   1.489  0.4907  0.1741 -0.0739
   51TMC2    O1  802   1.765   2.826   1.732  0.1203 -0.0621 -0.4219
   51TMC2    O2  803   1.436   3.296   1.564 -0.4140 -0.3341  0.6420
   51TMC2    O5  804   1.322   3.226   1.387  0.4960 -0.3744  0.7020
   51TMC2    H5  805   1.299   3.134   1.361  1.9280 -0.6453  0.3759
   52MPD2     C  806   1.596   2.613   0.827  1.0381 -0.2437 -0.3397
   52MPD2    C1  807   1.607   2.546   0.948  0.2993  0.3112  0.5471
   52MPD2    C2  808   1.599   2.612   1.072 -0.3872 -0.3968 -0.5997
   52MPD2    C3  809   1.578   2.745   1.078 -0.2076  0.0296 -0.2435
   52MPD2    C4  810   1.589   2.812   0.956  0.3376 -0.2079 -0.0464
   52MPD2    C5  811   1.584   2.747   0.836  1.0291  0.3418  0.2423
   52MPD2     H  812   1.615   2.558   1.165 -0.6393  1.9538  0.7903
   52MPD2    H1  813   1.573   2.920   0.956 -0.2292 -0.2899  0.1955
   52MPD2    H2  814   1.607   2.566   0.730  0.1109  1.1510 -1.1314
   52MPD2    H3  815   1.587   2.811   0.749  1.8940  2.3838  1.7572
   52MPD2     N  816   1.551   2.817   1.192 -0.1088  0.0554  0.6718
   52MPD2    H5  817   1.532   2.916   1.183 -0.2322 -0.0653 -0.3843
   52MPD2    N1  818   1.645   2.412   0.954 -0.6818 -0.0424  0.2102
   52MPD2    H7  819   1.654   2.369   1.046  2.7189 -1.5699 -0.8017
   53TMC2    C1  820   1.985   4.448  11.490 -0.1437  0.1837 -0.4115
   53TMC2    C2  821   2.015   4.466  11.357  0.1372 -0.1981  0.5249
   53TMC2    C3  822   2.065   4.587  11.312 -0.3710 -0.1624  0.5451
   53TMC2    C4  823   2.005   4.552  11.576  0.5212 -0.0463 -0.1711
   53TMC2    C5  824   2.054   4.670  11.524 -0.0242  0.1941  0.0041
   53TMC2    C6  825   2.095   4.692  11.392  0.1686  0.7042  0.6895
   53TMC2     C  826   1.870   4.366  11.514  0.1856 -0.6109  0.5539
   53TMC2     O  827   1.853   4.291  11.421  0.1410  0.2170 -0.7493
   53TMC2     H  828   2.004   4.383  11.288  0.9869 -0.8785  1.2024
   53TMC2    H1  829   1.977   4.545  11.681  2.1143 -3.7354  0.0191
   53TMC2    H2  830   2.126   0.048  11.357  1.0883 -0.3611 -1.4880
   53TMC2    C7  831   2.032   0.049  11.610  0.2899  0.2683  0.0173
   53TMC2    C8  832   2.081   4.597  11.163 -0.3847 -0.3075  0.1801
   53TMC2    O1  833   1.954   0.035  11.699  0.1282 -0.0368  0.2692
   53TMC2    O2  834   2.089   4.504  11.083  0.3129  0.1531 -0.0160
   53TMC2    O5  835   2.027   4.716  11.126 -0.4889 -0.3133  0.5938
   53TMC2    H5  836   1.997   0.036  11.196  0.2598 -0.9303  1.4619
   54MPD2     C  837   1.648   4.200  11.610 -0.2255 -0.0487 -0.6827
   54MPD2    C1  838   1.685   4.316  11.672 -0.0600  0.5813 -0.4667
   54MPD2    C2  839   1.616   4.360  11.784  0.0269 -0.3211 -0.4903
   54MPD2    C3  840   1.515   4.285  11.838 -0.1212  0.7345  0.3129
   54MPD2    C4  841   1.481   4.168  11.777 -0.6002 -1.2000 -0.5685
   54MPD2    C5  842   1.543   4.132  11.664 -0.8635 -1.1362  0.3177
   54MPD2     H  843   1.658   4.438  11.847  0.7790 -1.6472  0.6451
   54MPD2    H1  844   1.404   4.099  11.809 -1.0283 -0.9925 -1.1517
   54MPD2    H2  845   1.685   4.159  11.517  1.6528  0.7973 -0.3057
   54MPD2    H3  846   1.516   4.042  11.610  0.2455 -0.7375 -0.9178
   54MPD2     N  847   1.446   4.312  11.958 -0.6806 -0.0091  0.6116
   54MPD2    H5  848   1.384   4.236  11.985  0.5768 -0.4377  2.2430
   54MPD2    N1  849   1.798   4.387  11.630 -0.1487 -0.3872 -0.1476
   54MPD2    H7  850   1.816   4.473  11.680  2.0484 -0.9711  0.0613
   55TMC2    C1  851   3.581   2.967   0.076  0.2774 -1.0186  0.0871
   55TMC2    C2  852   3.556   2.930  17.710  0.1590 -0.4257 -0.0058
   55TMC2    C3  853   3.549   2.798  17.681  0.0643 -0.0181  0.4378
   55TMC2    C4  854   3.619   2.873   0.167  0.0590  0.3516  0.3895
   55TMC2    C5  855   3.624   2.743   0.133  0.0420  0.1618  0.1471
   55TMC2    C6  856   3.591   2.704   0.006  0.2509  0.6285 -0.6630
   55TMC2     C  857   3.527   3.092   0.125 -0.4590 -0.9068  0.2671
   55TMC2     O  858   3.501   3.096   0.246  0.2100  0.2299 -0.0018
   55TMC2     H  859   3.529   3.004  17.635 -1.4152  0.4723  1.4506
   55TMC2    H1  860   3.647   2.895   0.269  1.8894 -0.5914  0.0876
   55TMC2    H2  861   3.585   2.597  17.752  0.4232  0.3077  1.2691
   55TMC2    C7  862   3.648   2.638   0.228  0.2425 -0.0330  0.3784
   55TMC2    C8  863   3.528   2.746  17.547  0.0266  0.8078  0.0399
   55TMC2    O1  864   3.699   2.537   0.186 -0.5968 -0.5355 -0.1794
   55TMC2    O2  865   3.590   2.650  17.501 -0.0768  0.8286  0.1463
   55TMC2    O5  866   3.457   2.831  17.476 -0.6807  0.5048  0.0912
   55TMC2    H5  867   3.388   2.884  17.523  0.6270  1.0676  1.3538
   56MPD2     C  868   3.462   3.413  17.719 -0.1961 -0.0600 -0.1091
   56MPD2    C1  869   3.440   3.309   0.047 -0.7231  0.2852  0.1795
   56MPD2    C2  870   3.349   3.321   0.149  0.5985 -0.3140  0.2691
   56MPD2    C3  871   3.283   3.440   0.162  0.0233  0.0988 -0.7170
   56MPD2    C4  872   3.302   3.540   0.072  0.3045  0.3401 -0.2592
   56MPD2    C5  873   3.385   3.517  17.732  0.4703 -0.1604 -0.6329
   56MPD2     H  874   3.331   3.244   0.224 -1.1714 -0.9327 -0.7930
   56MPD2    H1  875   3.254   3.637   0.071  2.3631  1.3465 -0.0794
   56MPD2    H2  876   3.531   3.406  17.637 -0.8802 -0.7623 -0.6274
   56MPD2    H3  877   3.398   3.606  17.672 -1.8652  1.1563  0.7855
   56MPD2     N  878   3.194   3.451   0.272  0.2036  0.6856 -0.5844
   56MPD2    H5  879   3.184   3.364   0.323  0.8641  1.1940  0.3918
   56MPD2    N1  880   3.514   3.190   0.028  0.1608 -0.3223  1.1547
   56MPD2    H7  881   3.557   3.180  17.700  2.3613  0.8979  2.0472
   57TMC2    C1  882   2.118   3.780  13.405 -0.7230 -0.6350 -0.2443
   57TMC2    C2  883   2.073   3.658  13.365 -0.2119 -0.0132  0.1900
   57TMC2    C3  884   2.130   3.605  13.256  0.5812  0.2982  0.0606
   57TMC2    C4  885   2.240   3.826  13.361  0.1032 -0.0209  0.1746
   57TMC2    C5  886   2.306   3.749  13.269  0.1650  0.0478 -0.9786
   57TMC2    C6  887   2.250   3.643  13.201  0.2641  0.1102 -0.6980
   57TMC2     C  888   2.062   3.848  13.523 -0.0668 -0.2937 -0.5881
   57TMC2     O  889   2.053   3.967  13.531  0.3903  0.1393 -0.2099
   57TMC2     H  890   1.970   3.630  13.386  0.3489 -1.7110  0.7232
   57TMC2    H1  891   2.284   3.920  13.392 -2.3134  1.2602 -0.2820
   57TMC2    H2  892   2.270   3.607  13.101  1.2675  1.2028 -0.8857
   57TMC2    C7  893   2.438   3.797  13.239  0.0505  0.5218 -0.0516
   57TMC2    C8  894   2.076   3.481  13.199 -0.0589  0.7433 -0.3666
   57TMC2    O1  895   2.476   3.904  13.287  0.9056 -0.2741 -0.0795
   57TMC2    O2  896   2.112   3.423  13.098  0.2960  0.1180 -0.4183
   57TMC2    O5  897   2.017   3.420  13.306 -0.2239 -0.0896 -0.0869
   57TMC2    H5  898   1.998   3.474  13.385  0.9722 -2.2655  1.6642
   58MPD2     C  899   1.800   3.766  13.966  0.0722  0.3651 -0.3707
   58MPD2    C1  900   1.822   3.881  13.895  0.1597 -0.4004  0.8945
   58MPD2    C2  901   1.891   3.881  13.774 -0.2504  0.1824 -0.6944
   58MPD2    C3  902   1.942   3.758  13.727 -0.7822 -0.1945 -0.7322
   58MPD2    C4  903   1.931   3.643  13.804  0.3102  0.4859 -0.3673
   58MPD2    C5  904   1.856   3.649  13.920  0.1981  1.0638  0.9461
   58MPD2     H  905   1.893   3.976  13.721 -0.5912 -0.9507 -2.7354
   58MPD2    H1  906   1.960   3.545  13.768 -0.9135  1.2093 -3.2989
   58MPD2    H2  907   1.731   3.762  14.049  0.9769 -2.1389  0.2657
   58MPD2    H3  908   1.834   3.556  13.970 -2.0336  1.5909  0.9318
   58MPD2     N  909   2.021   3.746  13.608  1.1527  0.1592  0.2034
   58MPD2    H5  910   2.044   3.649  13.587 -1.3613 -0.3020 -0.5292
   58MPD2    N1  911   1.756   4.000  13.936 -0.1760  0.4614 -0.0713
   58MPD2    H7  912   1.751   4.075  13.868  0.4938  0.6626  0.0959
   59TMC2    C1  913   0.117   3.655  12.966 -1.1281  0.3462  0.6294
   59TMC2    C2  914   0.233   3.596  12.919  0.1019 -0.0232  0.2459
   59TMC2    C3  915   0.229   3.531  12.801 -0.0770 -0.0407  0.4063
   59TMC2    C4  916   0.007   3.648  12.893 -0.4933 -0.1266 -0.2998
   59TMC2    C5  917   0.007   3.579  12.779 -0.1740 -0.3526 -0.5347
   59TMC2    C6  918   0.115   3.523  12.723 -1.0104  1.0640 -0.3580
   59TMC2     C  919   0.100   3.702  13.104  0.1908 -0.0881 -0.4287
   59TMC2     O  920   4.734   3.745  13.142 -0.9411  0.1012  0.9792
   59TMC2     H  921   0.319   3.589  12.985  0.4866  0.6205 -0.1870
   59TMC2    H1  922   4.660   3.691  12.937 -2.3441 -2.6677 -1.5379
   59TMC2    H2  923   0.114   3.489  12.620 -0.5081 -0.9842  0.3120
   59TMC2    C7  924   4.640   3.616  12.696  0.2657  0.1728  0.3295
   59TMC2    C8  925   0.344   3.454  12.754  0.2063 -0.1596  0.0814
   59TMC2    O1  926   4.600   3.524  12.625  0.3170  0.2877 -0.5816
   59TMC2    O2  927   0.458   3.505  12.744 -0.7025  0.1587  0.3610
   59TMC2    O5  928   0.299   3.354  12.674  0.0903  0.0783 -0.0943
   59TMC2    H5  929   0.213   3.321  12.709  0.5176 -0.6847  0.2289
   60MPD2     C  930   0.149   3.746  13.393  0.6931  0.3323  0.0772
   60MPD2    C1  931   0.240   3.768  13.295 -0.5798  0.5258 -0.4863
   60MPD2    C2  932   0.359   3.819  13.332 -0.2932  0.6016 -0.3334
   60MPD2    C3  933   0.379   3.868  13.462  0.0832 -0.1282 -0.7928
   60MPD2    C4  934   0.274   3.855  13.549  0.1470 -0.6360 -0.9852
   60MPD2    C5  935   0.159   3.790  13.521  0.3176 -0.3397  0.0750
   60MPD2     H  936   0.426   3.836  13.249 -0.3514  2.4356 -0.0227
   60MPD2    H1  937   0.275   3.896  13.649  0.2323  0.2113 -1.3336
   60MPD2    H2  938   0.056   3.696  13.366  1.2687 -0.7654  0.1264
   60MPD2    H3  939   0.082   3.776  13.595  1.5233 -1.0299  1.1987
   60MPD2     N  940   0.503   3.924  13.502 -0.2227 -0.6673 -0.1020
   60MPD2    H5  941   0.501   3.957  13.598  0.2544 -0.5863 -0.1221
   60MPD2    N1  942   0.225   3.724  13.165  0.3685  0.0537 -0.2427
   60MPD2    H7  943   0.312   3.704  13.117 -0.4092 -0.6328 -1.3695
   61TMC2    C1  944   4.345   0.138  15.743 -0.1322  0.4857 -0.3847
   61TMC2    C2  945   4.369   0.096  15.866  0.4986  1.4349  0.2514
   61TMC2    C3  946   4.368   0.186  15.972 -0.5051 -0.5884  0.3263
   61TMC2    C4  947   4.327   0.265  15.715  0.3009 -0.3481  0.3334
   61TMC2    C5  948   4.343   0.367  15.815 -0.0130  0.4826  0.2124
   61TMC2    C6  949   4.350   0.322  15.953  0.1792 -0.2117 -0.2389
   61TMC2     C  950   4.384   0.056  15.638 -0.5082  0.0815 -0.2282
   61TMC2     O  951   4.472   4.722  15.664  0.1267 -0.2501 -0.3915
   61TMC2     H  952   4.377   4.730  15.876 -0.9877  1.1235 -1.9170
   61TMC2    H1  953   4.326   0.293  15.610  0.1738 -1.1575  0.1163
   61TMC2    H2  954   4.362   0.383  16.042 -0.8515  0.6211 -0.6672
   61TMC2    C7  955   4.318   0.502  15.772  0.2363  0.5369  0.2051
   61TMC2    C8  956   4.316   0.149  16.109 -0.2194  0.4917  0.6412
   61TMC2    O1  957   4.304   0.529  15.653 -0.4641 -0.2951 -0.2005
   61TMC2    O2  958   4.236   0.214  16.172 -0.2983 -0.6592  0.0821
   61TMC2    O5  959   4.363   0.023  16.136  0.2040  0.4353 -0.3474
   61TMC2    H5  960   4.444   0.022  16.080  0.1842 -2.3583 -0.3350
   62MPD2     C  961   4.467   4.719  15.375 -0.4257  0.2238 -0.3142
   62MPD2    C1  962   4.344   0.037  15.395  0.0174  0.2931 -0.0754
   62MPD2    C2  963   4.267   0.084  15.297  0.5924 -0.4860  0.0264
   62MPD2    C3  964   4.317   0.073  15.172 -0.1966 -0.0409 -0.3157
   62MPD2    C4  965   4.449   0.015  15.149  0.4382 -0.4825 -0.9553
   62MPD2    C5  966   4.525   4.709  15.253 -0.1628 -0.2412  0.1289
   62MPD2     H  967   4.170   0.133  15.307  1.6264  1.4641  0.6497
   62MPD2    H1  968   4.494   0.019  15.050  2.6124  1.0346  0.0865
   62MPD2    H2  969   4.526   4.676  15.456  1.2520  1.8259 -0.6992
   62MPD2    H3  970   4.625   4.667  15.253  0.0140  0.1883  0.2405
   62MPD2     N  971   4.253   0.134  15.059 -0.1188  0.9272 -0.1331
   62MPD2    H5  972   4.304   0.138  14.971 -1.4691 -1.4842 -1.0385
   62MPD2    N1  973   4.305   0.066  15.528  0.6678  0.4061  0.0846
   62MPD2    H7  974   4.218   0.116  15.533 -0.4916 -1.5601 -0.4340
   63TMC2    C1  975   4.152   1.093  10.347 -0.5656  0.5610 -0.6821
   63TMC2    C2  976   4.247   1.188  10.346  0.0110  0.3941  0.5654
   63TMC2    C3  977   4.253   1.277  10.239  0.2482  0.0215 -0.6516
   63TMC2    C4  978   4.065   1.085  10.237 -0.5993 -0.3267 -0.1994
   63TMC2    C5  979   4.080   1.169  10.129  0.2578 -0.4850  0.4032
   63TMC2    C6  980   4.172   1.268  10.122  0.3163  0.0148 -0.3492
   63TMC2     C  981   4.153   0.994  10.468  0.1549  0.1447  0.1855
   63TMC2     O  982   4.252   1.008  10.540 -0.5846 -0.4095  0.3095
   63TMC2     H  983   4.319   1.193  10.427  2.4185  0.7542 -1.5818
   63TMC2    H1  984   3.988   1.010  10.239 -1.7244  0.8367  0.5640
   63TMC2    H2  985   4.186   1.336  10.039 -0.3735  2.0178  1.1662
   63TMC2    C7  986   3.960   1.185  10.050  0.5031 -0.1150 -0.3703
   63TMC2    C8  987   4.348   1.383  10.249 -0.0319  0.1581 -0.2299
   63TMC2    O1  988   3.872   1.097  10.064  0.0509  0.4538 -0.4287
   63TMC2    O2  989   4.368   1.444  10.143  0.4436  0.1192 -0.1868
   63TMC2    O5  990   4.366   1.432  10.375 -0.0719  0.0183 -0.3283
   63TMC2    H5  991   4.303   1.400  10.443 -0.3618  1.6479  0.1703
   64MPD2     C  992   3.927   0.662  10.777 -0.7104 -0.0930  0.1271
   64MPD2    C1  993   3.890   0.629  10.648 -0.5644  0.4948  0.2077
   64MPD2    C2  994   3.951   0.699  10.544  0.9908 -0.0638  0.6523
   64MPD2    C3  995   4.038   0.809  10.568  0.1999 -0.1826  0.1124
   64MPD2    C4  996   4.065   0.843  10.702  0.2599 -0.5250 -0.5296
   64MPD2    C5  997   4.020   0.765  10.798  0.0767 -0.2599  0.3088
   64MPD2     H  998   3.928   0.681  10.439  0.3940  2.0929  0.4030
   64MPD2    H1  999   4.137   0.916  10.738  0.1756 -0.3036 -0.8134
   64MPD2    H2 1000   3.882   0.614  10.863 -0.3930 -1.4719 -0.4643
   64MPD2    H3 1001   4.049   0.782  10.901 -1.4896  0.5593  0.6239
   64MPD2     N 1002   4.073   0.888  10.457  0.5315  0.2593 -0.6410
   64MPD2    H5 1003   4.036   0.853  10.369 -1.3611 -0.5798  0.5052
   64MPD2    N1 1004   3.827   0.507  10.627  0.4017  0.4267 -0.1590
   64MPD2    H7 1005   3.791   0.483  10.535 -0.2821 -0.7735  0.4170
   65TMC2    C1 1006   0.078   4.586  15.754  0.0323  0.0657 -0.7076
   65TMC2    C2 1007   0.132   4.528  15.646 -0.9412 -0.5242  0.0850
   65TMC2    C3 1008   0.138   4.602  15.530  0.9836  0.0411 -0.0008
   65TMC2    C4 1009   0.042   4.720  15.754  0.6605  0.1581  0.0777
   65TMC2    C5 1010   0.041   0.047  15.634 -0.3190 -0.0598  0.5773
   65TMC2    C6 1011   0.092   4.733  15.520 -0.4614  0.1340 -0.3879
   65TMC2     C 1012   0.029   4.505  15.865 -0.0333  0.2546  0.3525
   65TMC2     O 1013   4.713   4.558  15.962  0.4047  0.2804 -0.4434
   65TMC2     H 1014   0.173   4.427  15.647 -1.5159 -0.7796 -1.8879
   65TMC2    H1 1015   4.735   0.027  15.838  0.8946  1.8842 -0.7827
   65TMC2    H2 1016   0.106   0.050  15.430 -1.6105  1.8047  0.5236
   65TMC2    C7 1017   4.725   0.184  15.630  0.1190 -0.5011  0.3280
   65TMC2    C8 1018   0.188   4.537  15.412  0.2352  0.1093  0.0023
   65TMC2    O1 1019   4.691   0.229  15.521  0.6755 -0.2846  0.3289
   65TMC2    O2 1020   0.309   4.545  15.394  0.6756  0.0887  0.1059
   65TMC2    O5 1021   0.109   4.432  15.382 -0.0084  0.0923  0.7865
   65TMC2    H5 1022   0.016   4.422  15.413 -0.4560  4.2515  0.7977
   66MPD2     C 1023   4.652   4.294  16.041  0.6882 -0.1653  0.2798
   66MPD2    C1 1024   4.701   4.272  15.910  0.0695 -0.0078  0.4024
   66MPD2    C2 1025   4.676   4.156  15.844 -0.2653  0.4224 -0.0729
   66MPD2    C3 1026   4.600   4.053  15.897  0.0203  0.1854  0.5264
   66MPD2    C4 1027   4.556   4.066  16.034  0.1376  0.0830  0.0408
   66MPD2    C5 1028   4.582   4.189  16.100  0.0347  1.0215 -0.1589
   66MPD2     H 1029   4.695   4.157  15.737 -1.0307 -0.2606 -0.2107
   66MPD2    H1 1030   4.491   3.994  16.081  0.8832 -1.3372 -1.1127
   66MPD2    H2 1031   4.682   4.379  16.100 -0.1242  0.2666  0.0763
   66MPD2    H3 1032   4.549   4.199  16.203  1.6946 -0.1339  0.4910
   66MPD2     N 1033   4.559   3.934  15.826  0.0291 -0.6406 -0.2628
   66MPD2    H5 1034   4.493   3.881  15.882  0.7627 -1.6771 -0.3913
   66MPD2    N1 1035   0.019   4.374  15.833 -0.0010 -0.1013  0.2355
   66MPD2    H7 1036   0.053   4.355  15.740  1.0057 -2.4128  1.0723
   67TMC2    C1 1037   0.358   4.284  14.589 -0.1408  0.0720  0.1370
   67TMC2    C2 1038   0.331   4.400  14.650 -0.3559 -0.3690 -0.8217
   67TMC2    C3 1039   0.343   4.409  14.787  0.3043  0.4247  0.2667
   67TMC2    C4 1040   0.406   4.174  14.655  0.3977  0.9231  0.4058
   67TMC2    C5 1041   0.413   4.183  14.786 -0.1897 -0.0769 -0.4934
   67TMC2    C6 1042   0.379   4.296  14.855  0.4868 -0.1200  0.4818
   67TMC2     C 1043   0.355   4.280  14.447 -0.0273 -0.4838 -0.4280
   67TMC2     O 1044   0.446   4.219  14.392 -0.3686 -0.1299  0.3266
   67TMC2     H 1045   0.311   4.488  14.590 -0.6071  0.6689  0.7806
   67TMC2    H1 1046   0.409   4.078  14.603  1.5327  2.1268 -1.7594
   67TMC2    H2 1047   0.395   4.316  14.960  1.4969 -1.0624  0.5021
   67TMC2    C7 1048   0.438   4.066  14.860  0.5209 -0.0428  0.3103
   67TMC2    C8 1049   0.332   4.547  14.835  0.3771 -0.4724 -0.7935
   67TMC2    O1 1050   0.471   3.967  14.797  0.4508  0.4961 -0.8261
   67TMC2    O2 1051   0.286   4.644  14.774 -0.4465  0.1936  0.0550
   67TMC2    O5 1052   0.297   4.530  14.965 -0.3246  0.4176 -0.5971
   67TMC2    H5 1053   0.316   4.444  15.008  0.2749 -0.3304 -2.3342
   68MPD2     C 1054   0.285   4.291  14.151 -0.2563 -0.3846 -0.4294
   68MPD2    C1 1055   0.200   4.312  14.259 -0.2127  0.5243  0.2639
   68MPD2    C2 1056   0.068   4.340  14.242  0.0293  0.5152 -0.3685
   68MPD2    C3 1057   4.740   4.328  14.123 -0.7616  0.4229  0.2475
   68MPD2    C4 1058   0.079   4.299  14.014  0.4989  0.2371  0.1789
   68MPD2    C5 1059   0.218   4.275  14.030  0.6305  0.4822  0.3631
   68MPD2     H 1060   0.009   4.364  14.330  1.1054  1.6278  0.0478
   68MPD2    H1 1061   0.034   4.274  13.918  0.9691 -4.4118  1.1868
   68MPD2    H2 1062   0.391   4.273  14.164 -0.2776 -0.5397 -0.4777
   68MPD2    H3 1063   0.276   4.228  13.951  2.3842  1.3586  1.1249
   68MPD2     N 1064   4.607   4.391  14.106 -0.2064  0.5620 -0.4041
   68MPD2    H5 1065   4.565   4.393  14.013  1.9055  2.0816 -1.3300
   68MPD2    N1 1066   0.244   4.334  14.387 -1.3080 -0.4530  0.1050
   68MPD2    H7 1067   0.167   4.372  14.442 -1.0656  1.7105 -1.0596
   69TMC2    C1 1068   2.411   0.457  12.128  0.1168  0.7708  1.1317
   69TMC2    C2 1069   2.428   0.546  12.022 -0.6353  0.4286 -0.6529
   69TMC2    C3 1070   2.535   0.532  11.943 -0.0163 -0.3927  0.1852
   69TMC2    C4 1071   2.499   0.353  12.146  0.1799 -0.1237  0.2227
   69TMC2    C5 1072   2.610   0.342  12.066 -0.2182  0.5269 -0.2107
   69TMC2    C6 1073   2.625   0.429  11.955 -0.2104 -1.0522 -0.6975
   69TMC2     C 1074   2.317   0.489  12.229 -0.7325 -0.6363  1.6804
   69TMC2     O 1075   2.311   0.406  12.321 -0.2999 -0.4030  0.0469
   69TMC2     H 1076   2.367   0.635  12.009 -0.6592  0.8328  2.3415
   69TMC2    H1 1077   2.496   0.294  12.237 -0.6923 -0.3101  0.0720
   69TMC2    H2 1078   2.706   0.435  11.884  1.5236  0.9547  1.4132
   69TMC2    C7 1079   2.705   0.231  12.070 -0.0956 -0.1872  0.4764
   69TMC2    C8 1080   2.552   0.624  11.836 -0.0893 -0.9022  0.1600
   69TMC2    O1 1081   2.788   0.239  11.983  0.0920 -0.4237  0.6955
   69TMC2    O2 1082   2.461   0.697  11.796  0.0180  0.3458  0.2365
   69TMC2    O5 1083   2.679   0.670  11.850  0.4784  0.4592 -0.4452
   69TMC2    H5 1084   2.735   0.603  11.894  0.5536  1.4561  0.9725
   70MPD2     C 1085   2.111   0.795  12.303 -0.2693  0.1170 -0.3938
   70MPD2    C1 1086   2.173   0.671  12.324 -0.3144  0.5633 -0.2891
   70MPD2    C2 1087   2.160   0.623  12.449 -0.5129 -0.1677  0.1848
   70MPD2    C3 1088   2.084   0.688  12.546 -0.4539 -0.0521 -0.0146
   70MPD2    C4 1089   2.014   0.803  12.511 -0.9305 -0.3784 -0.7405
   70MPD2    C5 1090   2.032   0.860  12.389 -0.4855 -0.5924 -0.6047
   70MPD2     H 1091   2.204   0.529  12.481 -0.0177 -0.0794 -0.2458
   70MPD2    H1 1092   1.950   0.862  12.576 -0.6191  0.1130 -0.8728
   70MPD2    H2 1093   2.109   0.843  12.205 -0.1442  4.6906  1.8151
   70MPD2    H3 1094   1.975   0.947  12.358  1.7708  0.6990 -1.1626
   70MPD2     N 1095   2.063   0.624  12.666  0.3298 -0.5017  0.6323
   70MPD2    H5 1096   2.127   0.554  12.703  1.9703 -0.1505 -1.5629
   70MPD2    N1 1097   2.252   0.614  12.220  0.3284 -0.4307  0.1232
   70MPD2    H7 1098   2.265   0.672  12.138 -0.3739  0.1417  0.4194
   71TMC2    C1 1099   3.594   1.180   1.859  0.2581 -0.3068 -0.0444
   71TMC2    C2 1100   3.599   1.215   1.993  0.2987 -0.0062  0.4674
   71TMC2    C3 1101   3.486   1.252   2.050  0.4060 -0.2187  0.0108
   71TMC2    C4 1102   3.484   1.193   1.779 -0.4179  0.8005  0.0874
   71TMC2    C5 1103   3.369   1.234   1.843 -0.5526 -0.0640 -0.2997
   71TMC2    C6 1104   3.372   1.267   1.977  0.4192  0.2164 -0.2715
   71TMC2     C 1105   3.723   1.164   1.789 -0.5457 -0.8958  0.2615
   71TMC2     O 1106   3.727   1.176   1.665  0.3745 -0.2368  0.1118
   71TMC2     H 1107   3.684   1.190   2.055  0.6754 -0.5671 -0.2749
   71TMC2    H1 1108   3.498   1.187   1.672  2.2459  0.0499  0.4630
   71TMC2    H2 1109   3.285   1.298   2.033 -0.7673  1.5695 -2.8751
   71TMC2    C7 1110   3.256   1.273   1.767 -0.0053 -0.7054 -1.1836
   71TMC2    C8 1111   3.490   1.267   2.192 -0.1437  0.5715  0.5818
   71TMC2    O1 1112   3.182   1.347   1.830 -0.1323 -0.2305  0.2511
   71TMC2    O2 1113   3.581   1.315   2.257 -0.0060  0.4109 -0.0426
   71TMC2    O5 1114   3.408   1.174   2.239 -0.4362  0.2225  0.6944
   71TMC2    H5 1115   3.367   1.117   2.171  0.7874  0.2287 -0.0480
   72MPD2     C 1116   4.228   1.094   1.804 -0.6163  0.3743  0.1873
   72MPD2    C1 1117   4.149   1.139   1.697 -0.2749  0.4755 -0.5613
   72MPD2    C2 1118   4.008   1.131   1.714  0.0147  0.9435 -0.4476
   72MPD2    C3 1119   3.950   1.094   1.829 -0.0270 -1.3708 -0.2401
   72MPD2    C4 1120   4.029   1.057   1.934 -0.1833 -0.1209 -0.2358
   72MPD2    C5 1121   4.166   1.059   1.917  0.1703  0.4440  0.1588
   72MPD2     H 1122   3.946   1.167   1.633  0.5827  0.5714 -1.0505
   72MPD2    H1 1123   3.990   1.023   2.029  1.8851 -1.1771  0.2454
   72MPD2    H2 1124   4.336   1.089   1.793 -0.9958 -3.1672 -1.9886
   72MPD2    H3 1125   4.222   1.018   2.000  0.2748 -1.4712 -0.8512
   72MPD2     N 1126   3.817   1.113   1.869  0.4618 -0.9043 -0.0377
   72MPD2    H5 1127   3.795   1.081   1.962 -1.1334 -0.4929 -0.2827
   72MPD2    N1 1128   4.207   1.177   1.576 -0.2496 -0.4873 -0.1688
   72MPD2    H7 1129   4.156   1.176   1.488 -0.4974 -0.1517 -0.0263
   73TMC2    C1 1130   4.163   2.607  13.954  0.6409  0.3185  0.0058
   73TMC2    C2 1131   4.039   2.585  14.010  0.5566  0.2982  0.6569
   73TMC2    C3 1132   4.031   2.578  14.150  0.0982 -0.4396 -0.2665
   73TMC2    C4 1133   4.274   2.591  14.037  0.0663  0.5914  0.0924
   73TMC2    C5 1134   4.263   2.583  14.174  0.5974 -0.3155  0.1283
   73TMC2    C6 1135   4.139   2.581  14.237  0.6453  0.6445 -0.5742
   73TMC2     C 1136   4.180   2.726  13.878 -0.1949 -0.8854  0.5745
   73TMC2     O 1137   4.276   2.792  13.905  0.9554 -0.1810  0.1428
   73TMC2     H 1138   3.945   2.588  13.957  1.7562 -2.2503 -1.6262
   73TMC2    H1 1139   4.373   2.603  13.994 -0.0809 -2.8795 -1.1750
   73TMC2    H2 1140   4.123   2.590  14.343 -0.5359  3.3803 -0.9837
   73TMC2    C7 1141   4.367   2.662  14.241 -0.2318  0.6297 -0.2021
   73TMC2    C8 1142   3.899   2.582  14.201  0.4337 -0.5885  0.1072
   73TMC2    O1 1143   4.406   2.634  14.357  0.4423 -0.3462  0.0666
   73TMC2    O2 1144   3.851   2.473  14.216  0.2954  0.0490  0.0769
   73TMC2    O5 1145   3.894   2.690  14.280 -0.6752 -0.2270 -0.1074
   73TMC2    H5 1146   3.954   2.760  14.246 -1.3480  1.0540  1.3684
   74MPD2     C 1147   4.014   3.090  13.552 -0.1281  0.0423 -0.0699
   74MPD2    C1 1148   4.107   3.095  13.651 -0.4297  0.2174 -0.9387
   74MPD2    C2 1149   4.126   2.981  13.727  0.2972  0.3564 -0.2614
   74MPD2    C3 1150   4.064   2.861  13.697  0.6418  0.9579 -0.3016
   74MPD2    C4 1151   3.970   2.862  13.597  0.7443  0.0704 -0.1459
   74MPD2    C5 1152   3.950   2.970  13.524 -0.0839 -0.5125 -0.3210
   74MPD2     H 1153   4.206   2.985  13.800 -1.0170  1.6034  1.1061
   74MPD2    H1 1154   3.924   2.767  13.573  0.3891 -0.2894  2.0013
   74MPD2    H2 1155   4.001   3.184  13.498 -1.0580  0.4587  0.8875
   74MPD2    H3 1156   3.877   2.974  13.443 -1.4806 -0.9222  0.9184
   74MPD2     N 1157   4.079   2.745  13.784  0.8261  0.2029 -0.3204
   74MPD2    H5 1158   4.026   2.662  13.760 -0.4154  0.2665  2.2976
   74MPD2    N1 1159   4.175   3.214  13.682 -0.4629  0.3286 -0.0713
   74MPD2    H7 1160   4.164   3.289  13.614 -1.8035  1.2700  1.1820
   75TMC2    C1 1161   4.392   4.482  14.161 -0.3062 -0.1081  0.3578
   75TMC2    C2 1162   4.304   4.513  14.265 -0.2083 -0.1717 -0.3148
   75TMC2    C3 1163   4.189   4.574  14.227  0.0833  0.0004 -0.8716
   75TMC2    C4 1164   4.362   4.497  14.028  0.4541 -0.2762 -0.6208
   75TMC2    C5 1165   4.242   4.548  13.998 -0.0951  0.0592 -0.0412
   75TMC2    C6 1166   4.154   4.582  14.094  0.4433 -0.3442 -0.1136
   75TMC2     C 1167   4.521   4.428  14.208 -0.3435 -0.6157 -0.6965
   75TMC2     O 1168   4.533   4.419  14.327  0.3313 -0.2017  0.0394
   75TMC2     H 1169   4.322   4.486  14.368  0.8333  1.3112 -0.1010
   75TMC2    H1 1170   4.418   4.460  13.944 -0.6636 -1.7539 -0.7081
   75TMC2    H2 1171   4.062   4.634  14.072  0.6782 -0.0682 -0.4300
   75TMC2    C7 1172   4.187   4.529  13.869  0.4753  0.1842 -0.1924
   75TMC2    C8 1173   4.101   4.614  14.340 -0.9008  0.4922  0.3578
   75TMC2    O1 1174   4.257   4.538  13.772 -0.1989  0.9945  0.2260
   75TMC2    O2 1175   4.155   4.647  14.443  0.0885  0.4775 -0.2324
   75TMC2    O5 1176   3.969   4.606  14.302 -0.5541  0.7279  0.9006
   75TMC2    H5 1177   3.963   4.544  14.226 -1.1828 -0.3441  1.8233
   76TMC2    C1 1178   3.845   4.195  12.252  0.3330 -0.1660 -0.3417
   76TMC2    C2 1179   3.899   4.078  12.194 -0.0468  0.0872  0.0058
   76TMC2    C3 1180   4.008   4.017  12.252 -0.1999 -0.7083 -0.2026
   76TMC2    C4 1181   3.901   4.253  12.357  1.0472  0.5085  0.1608
   76TMC2    C5 1182   4.006   4.187  12.413 -0.2783  0.0982  0.0365
   76TMC2    C6 1183   4.062   4.075  12.366  0.2365 -0.2539 -0.3837
   76TMC2     C 1184   3.759   4.268  12.157 -0.2971 -0.5540 -0.0659
   76TMC2     O 1185   3.691   4.210  12.076 -0.4805 -0.3301  0.2532
   76TMC2     H 1186   3.851   4.033  12.108 -0.6072 -1.8188  1.3077
   76TMC2    H1 1187   3.868   4.344  12.407 -3.3096 -1.9827  1.8145
   76TMC2    H2 1188   4.144   4.031  12.422 -0.1515 -0.2454  0.1909
   76TMC2    C7 1189   4.075   4.246  12.527  0.1905  0.1820 -0.6794
   76TMC2    C8 1190   4.074   3.907  12.185  0.5112  0.2446 -0.3847
   76TMC2    O1 1191   4.197   4.227  12.535  0.4985 -0.9254  0.0852
   76TMC2    O2 1192   4.093   3.905  12.063  0.0276  0.3348 -0.0333
   76TMC2    O5 1193   4.154   3.843  12.276  0.1673  0.2150 -0.3579
   76TMC2    H5 1194   4.117   3.841  12.367  0.7200 -1.2142 -0.1565
   77MPD2     C 1195   3.592   4.725  11.973  0.5297  0.1183 -0.0760
   77MPD2    C1 1196   3.570   4.595  11.929 -0.3340  0.3672 -0.3113
   77MPD2    C2 1197   3.632   4.489  12.001  0.4482 -0.9619  1.0269
   77MPD2    C3 1198   3.721   4.513  12.106 -0.3474  0.0823 -0.3999
   77MPD2    C4 1199   3.752   4.647  12.133 -0.1290 -0.8520 -0.3932
   77MPD2    C5 1200   3.681   0.005  12.069 -0.2605  0.5862  0.3704
   77MPD2     H 1201   3.605   4.387  11.975  1.0847 -0.6246 -0.9865
   77MPD2    H1 1202   3.828   4.663  12.208 -0.8164 -1.8130  0.5025
   77MPD2    H2 1203   3.529   0.063  11.935  1.5234 -0.0161 -1.9895
   77MPD2    H3 1204   3.688   0.110  12.099  2.4953  0.4495  0.2547
   77MPD2     N 1205   3.785   4.406  12.178 -0.1800  0.0118  0.9249
   77MPD2    H5 1206   3.854   4.433  12.247 -0.7372  0.9414  1.1145
   77MPD2    N1 1207   3.477   4.563  11.832 -0.1759  0.3478 -0.3228
   77MPD2    H7 1208   3.452   4.465  11.827 -0.9373  0.5326 -0.1442
   78TMC2    C1 1209   0.008   1.665   1.908  0.2365 -0.2523 -0.0244
   78TMC2    C2 1210   4.617   1.673   1.916  0.4019  0.2787 -0.5278
   78TMC2    C3 1211   4.541   1.580   1.851 -0.2187  0.3653  0.2824
   78TMC2    C4 1212   0.065   1.577   1.817  0.0435  0.0117 -0.1370
   78TMC2    C5 1213   4.727   1.490   1.741  0.3640 -0.0602 -0.1023
   78TMC2    C6 1214   4.594   1.493   1.757 -0.9450  0.0013 -0.7545
   78TMC2     C 1215   0.085   1.775   1.957  0.3787 -0.5598  0.4086
   78TMC2     O 1216   0.023   1.870   2.000 -0.2421  0.0587  0.0012
   78TMC2     H 1217   4.571   1.735   1.992  0.1245  0.2243 -0.6483
   78TMC2    H1 1218   0.172   1.575   1.799  0.6181 -3.0333  3.7151
   78TMC2    H2 1219   4.531   1.436   1.691  0.5072  0.1202 -2.2369
   78TMC2    C7 1220   0.048   1.403   1.649 -0.5424  0.3204 -0.5503
   78TMC2    C8 1221   4.414   1.549   1.915  0.3481  0.6931  0.0065
   78TMC2    O1 1222   0.163   1.424   1.616  0.1772 -0.1540 -0.4856
   78TMC2    O2 1223   4.353   1.631   1.978 -0.0051  0.5502  0.5471
   78TMC2    O5 1224   4.366   1.419   1.898 -0.0716  0.4059  0.4454
   78TMC2    H5 1225   4.438   1.356   1.874 -0.4472 -0.4867  1.6389
   79MPD1     C 1226   0.512   2.047   1.929 -0.0085  0.4481  0.4386
   79MPD1    C1 1227   0.400   2.080   2.011  0.0399  0.7519 -0.7540
   79MPD1    C2 1228   0.295   1.985   2.009  0.1377  0.6437  0.1759
   79MPD1    C3 1229   0.315   1.859   1.954  0.7784 -0.2336 -0.3024
   79MPD1    C4 1230   0.438   1.832   1.901  0.1682  0.1556  0.6565
   79MPD1    C5 1231   0.546   1.922   1.901  0.3538  0.2457 -0.2690
   79MPD1     H 1232   0.198   2.014   2.047  0.2445  2.1491 -0.7043
   79MPD1    H1 1233   0.455   1.731   1.865 -3.3814 -0.0885 -0.2369
   79MPD1    H2 1234   0.586   2.123   1.907 -1.7440  2.0916  0.3336
   79MPD1    H3 1235   0.644   1.903   1.859 -0.1187 -1.1198 -0.7612
   79MPD1     N 1236   0.219   1.760   1.943  0.6605  0.6194  0.0567
   79MPD1    H5 1237   0.261   1.673   1.913 -0.6406  0.2952 -0.7758
   79MPD1    N1 1238   0.374   2.212   2.053 -0.0745  0.2326 -0.0445
   79MPD1    H6 1239   0.452   2.273   2.077  0.2650 -0.2539  0.1023
   79MPD1    H7 1240   0.317   2.207   2.137  0.8230 -0.9175  0.5022
   80TMC2    C1 1241   1.876   4.307  12.033  0.3054 -0.5824 -0.6293
   80TMC2    C2 1242   1.881   4.215  11.933  0.0006 -0.5896  0.5329
   80TMC2    C3 1243   1.809   4.101  11.954  0.3398  0.2048  0.4166
   80TMC2    C4 1244   1.798   4.290  12.143 -0.0354  0.2251  0.4126
   80TMC2    C5 1245   1.739   4.171  12.167 -0.0090 -0.7838 -0.2977
   80TMC2    C6 1246   1.734   4.076  12.067  0.1636 -0.2244  0.5190
   80TMC2     C 1247   1.934   4.435  12.010 -0.6936  0.3521 -0.1913
   80TMC2     O 1248   1.909   4.479  11.898 -1.0301 -0.0984  0.2540
   80TMC2     H 1249   1.911   4.242  11.833 -1.3909 -2.4231 -0.3855
   80TMC2    H1 1250   1.789   4.375  12.210 -1.2541  0.0021  0.5312
   80TMC2    H2 1251   1.682   3.982  12.083  0.1109 -0.8421 -3.4281
   80TMC2    C7 1252   1.648   4.160  12.276 -0.3022 -0.5194 -0.3021
   80TMC2    C8 1253   1.795   4.010  11.850 -0.0976 -0.1398 -0.4218
   80TMC2    O1 1254   1.546   4.098  12.247 -0.1050  0.4113 -0.0858
   80TMC2    O2 1255   1.708   3.923  11.864  0.4707 -0.3398  0.0336
   80TMC2    O5 1256   1.891   4.010  11.757  0.0138  0.5107 -0.3909
   80TMC2    H5 1257   1.963   4.071  11.783  2.1199 -1.3511 -1.8791
   81MPD2     C 1258   2.080   4.695  11.988  0.4958 -0.1386  0.1456
   81MPD2    C1 1259   2.035   4.641  12.107  0.1705 -0.2372  0.5262
   81MPD2    C2 1260   2.056   4.713  12.228 -0.6349 -0.4405 -0.2090
   81MPD2    C3 1261   2.120   0.096  12.222 -0.0767  0.2268 -0.6063
   81MPD2    C4 1262   2.150   0.158  12.102 -0.2813 -0.6898 -0.1669
   81MPD2    C5 1263   2.127   0.082  11.991 -0.5285 -0.0031 -0.8299
   81MPD2     H 1264   2.033   4.665  12.323  3.6119 -0.4853  0.7883
   81MPD2    H1 1265   2.206   0.250  12.092 -0.9227 -0.1469  1.1773
   81MPD2    H2 1266   2.076   4.645  11.893 -1.8461  1.7649 -0.7619
   81MPD2    H3 1267   2.153   0.121  11.893 -0.5959 -1.1295 -1.3016
   81MPD2     N 1268   2.127   0.184  12.331  0.3701  0.6167  0.4137
   81MPD2    H5 1269   2.191   0.262  12.326  1.6161 -0.4465 -0.1653
   81MPD2    N1 1270   1.976   4.513  12.114  0.3112  0.1461  0.6134
   81MPD2    H7 1271   1.977   4.468  12.205  1.7307 -1.5701 -0.2712
   82TMC2    C1 1272   0.842   3.521  11.232 -0.1155  0.2101 -0.3112
   82TMC2    C2 1273   0.916   3.446  11.146 -0.2191 -0.2066 -0.4601
   82TMC2    C3 1274   0.918   3.313  11.166 -0.6606 -0.9798 -0.6275
   82TMC2    C4 1275   0.770   3.464  11.332 -0.0643  0.6699 -0.3866
   82TMC2    C5 1276   0.778   3.328  11.346 -0.0893 -0.5554 -1.1900
   82TMC2    C6 1277   0.855   3.247  11.262 -0.3866 -0.3144 -0.7050
   82TMC2     C 1278   0.810   3.658  11.198  0.1660 -0.4784  0.4019
   82TMC2     O 1279   0.692   3.689  11.230  0.2309  0.2103 -0.7459
   82TMC2     H 1280   0.996   3.482  11.083 -1.7053  1.0580 -1.6409
   82TMC2    H1 1281   0.721   3.535  11.398 -1.1319 -0.8388  0.4189
   82TMC2    H2 1282   0.865   3.139  11.270 -1.2482 -0.1785  2.2674
   82TMC2    C7 1283   0.709   3.280  11.468 -0.1288  0.5112 -0.1105
   82TMC2    C8 1284   1.006   3.242  11.079 -0.7329 -0.4648  0.2477
   82TMC2    O1 1285   0.612   3.346  11.504  0.3325  0.2202  0.2566
   82TMC2    O2 1286   1.058   3.135  11.104  0.2761  0.0457  0.2039
   82TMC2    O5 1287   0.993   3.290  10.953 -0.1755  0.2110 -0.2532
   82TMC2    H5 1288   0.912   3.344  10.942  0.8602  1.5809 -1.1405
   83MPD2     C 1289   0.893   4.113  10.977  0.6359  0.7502 -0.7951
   83MPD2    C1 1290   0.788   4.061  11.049  0.5705 -0.1609 -0.2609
   83MPD2    C2 1291   0.798   3.933  11.103 -0.0756  0.2199 -1.0616
   83MPD2    C3 1292   0.908   3.852  11.091 -0.2640 -0.0646 -0.4498
   83MPD2    C4 1293   1.013   3.904  11.020 -0.1965  0.1015  0.4643
   83MPD2    C5 1294   0.997   4.028  10.960  0.3907 -0.4579  0.2812
   83MPD2     H 1295   0.711   3.900  11.158  0.3742  0.6734 -0.0835
   83MPD2    H1 1296   1.102   3.850  10.992 -0.4942  0.3331 -0.9125
   83MPD2    H2 1297   0.913   4.209  10.931  0.2741  0.1893 -2.1156
   83MPD2    H3 1298   1.083   4.067  10.906 -1.7458  1.8418 -1.4482
   83MPD2     N 1299   0.917   3.724  11.146  0.0661  0.4070  0.1604
   83MPD2    H5 1300   1.006   3.676  11.138 -0.4119 -0.6193  1.0925
   83MPD2    N1 1301   0.666   4.142  11.061  0.0418  0.0305  1.0783
   83MPD2    H7 1302   0.666   4.221  10.997 -1.3561  0.0256  1.0772
   84TMC2    C1 1303   1.453   2.499  11.889 -0.0040 -0.1331 -0.3974
   84TMC2    C2 1304   1.394   2.482  12.013  0.0405  0.7004  0.0379
   84TMC2    C3 1305   1.387   2.358  12.070 -0.2564 -0.1971  0.0797
   84TMC2    C4 1306   1.504   2.389  11.824 -0.3975  0.4072 -0.4970
   84TMC2    C5 1307   1.503   2.261  11.885 -0.4064 -0.0605  0.7328
   84TMC2    C6 1308   1.438   2.252  12.004  0.0263  0.9437 -0.5859
   84TMC2     C 1309   1.464   2.629  11.837  0.3491  0.2207 -0.7470
   84TMC2     O 1310   1.420   2.713  11.913  0.6675  0.6081 -0.1239
   84TMC2     H 1311   1.352   2.567  12.066  0.7989 -0.1670  2.0373
   84TMC2    H1 1312   1.547   2.403  11.726  0.7658  0.4885  0.0288
   84TMC2    H2 1313   1.439   2.161  12.063  1.2080  0.7302 -0.9254
   84TMC2    C7 1314   1.545   2.141  11.814  0.2101  0.2979  1.0986
   84TMC2    C8 1315   1.368   2.344  12.209  0.2039 -0.1491  0.4862
   84TMC2    O1 1316   1.519   2.034  11.866 -0.3534 -0.2640 -0.1078
   84TMC2    O2 1317   1.314   2.249  12.257  0.1986 -0.4465 -0.4700
   84TMC2    O5 1318   1.497   2.387  12.237 -0.4612  0.6432  0.0957
   84TMC2    H5 1319   1.555   2.410  12.161  0.6416  0.1791  0.7889
   85TMC2    C1 1320   2.240   0.992  16.027  0.5559  1.0576 -0.7325
   85TMC2    C2 1321   2.120   1.059  16.034 -0.0087 -0.6144  0.2986
   85TMC2    C3 1322   2.133   1.192  16.022  0.1365 -0.3641  0.1626
   85TMC2    C4 1323   2.362   1.053  16.013 -0.1612 -0.6084 -0.8024
   85TMC2    C5 1324   2.362   1.191  15.998  0.7392 -0.1389 -0.5255
   85TMC2    C6 1325   2.244   1.264  16.001  0.1306  0.0197  0.1723
   85TMC2     C 1326   2.238   0.855  15.975  0.3761  0.0208 -0.6369
   85TMC2     O 1327   2.324   0.826  15.894  0.0451 -0.5433 -0.1657
   85TMC2     H 1328   2.026   1.012  16.059 -0.0348 -0.6136  0.1993
   85TMC2    H1 1329   2.454   0.997  16.003 -0.2087 -0.9539  0.7383
   85TMC2    H2 1330   2.241   1.372  16.014 -0.2908  0.0244  0.0343
   85TMC2    C7 1331   2.486   1.251  15.940  0.1177  0.5573 -0.1441
   85TMC2    C8 1332   2.023   1.268  16.062  0.5952  0.6032 -0.1613
   85TMC2    O1 1333   2.582   1.176  15.934 -0.4959 -0.1072 -0.1228
   85TMC2    O2 1334   1.921   1.283  15.993  0.1762  0.3811  0.5543
   85TMC2    O5 1335   2.026   1.246  16.194 -0.0836  0.0198 -0.3305
   85TMC2    H5 1336   2.118   1.259  16.225  0.2913 -0.7247 -1.1355
   86MPD2     C 1337   2.006   0.402  15.900  0.2415  0.1510 -0.6073
   86MPD2    C1 1338   1.986   0.442  16.030 -0.7978  0.7956  0.4752
   86MPD2    C2 1339   2.024   0.567  16.069  0.2735  1.0729  0.1231
   86MPD2    C3 1340   2.101   0.644  15.987 -0.0892  0.5681  0.0286
   86MPD2    C4 1341   2.121   0.601  15.858 -0.2089  0.6838  0.3281
   86MPD2    C5 1342   2.069   0.483  15.815  0.2292  0.0148  0.9799
   86MPD2     H 1343   1.990   0.610  16.163 -1.3171 -2.1370  1.0281
   86MPD2    H1 1344   2.183   0.652  15.785  1.2482  1.3035  1.9983
   86MPD2    H2 1345   1.982   0.300  15.870  2.0974 -0.4450 -0.0877
   86MPD2    H3 1346   2.080   0.447  15.714 -2.7556  1.6748  0.0592
   86MPD2     N 1347   2.138   0.775  16.032  0.1672 -0.2308  0.1525
   86MPD2    H5 1348   2.087   0.804  16.114 -1.4414 -0.1844 -0.8695
   86MPD2    N1 1349   1.908   0.359  16.117  0.1183 -0.2147  0.1531
   86MPD2    H7 1350   1.873   0.278  16.067  1.1438  0.5770 -1.8396
   87TMC2    C1 1351   4.151   3.605   0.434  0.2078 -0.0127 -0.3587
   87TMC2    C2 1352   4.071   3.528   0.353  0.3622  0.1221 -0.4193
   87TMC2    C3 1353   3.937   3.560   0.360  0.1969 -0.3639  0.3399
   87TMC2    C4 1354   4.110   3.706   0.516  0.4076  0.2240  0.5766
   87TMC2    C5 1355   3.971   3.714   0.529  0.4027 -0.3004 -0.1409
   87TMC2    C6 1356   3.883   3.649   0.453  0.2216  0.1913  0.3964
   87TMC2     C 1357   4.291   3.571   0.429 -0.2083 -1.0305  0.6645
   87TMC2     O 1358   4.315   3.470   0.366 -0.2553  0.0763  0.1298
   87TMC2     H 1359   4.110   3.448   0.291  1.3360  0.1366  0.1795
   87TMC2    H1 1360   4.173   3.768   0.578  1.5346 -0.8944  0.5355
   87TMC2    H2 1361   3.775   3.658   0.462  0.2509  0.7690  0.1694
   87TMC2    C7 1362   3.921   3.837   0.584 -0.1253 -0.3521  0.1830
   87TMC2    C8 1363   3.856   3.489   0.269  0.1156  0.4237  0.0701
   87TMC2    O1 1364   3.990   3.936   0.597 -0.2629 -0.9684 -0.2476
   87TMC2    O2 1365   3.903   3.402   0.201  0.0437 -0.2878 -0.0251
   87TMC2    O5 1366   3.770   3.587   0.211  0.5580  0.1813 -0.3341
   87TMC2    H5 1367   3.702   3.607   0.279  2.2010 -1.7531  1.9144
   88MPD2     C 1368   3.574   3.886   0.692 -0.0285  0.3738 -0.5260
   88MPD2    C1 1369   3.698   3.925   0.652 -1.0043  0.1958  0.7412
   88MPD2    C2 1370   3.728   4.058   0.624 -0.1048  0.7140  0.5579
   88MPD2    C3 1371   3.625   4.146   0.645 -0.4351  0.5878  0.2143
   88MPD2    C4 1372   3.498   4.107   0.681  0.0396 -0.3960 -0.3586
   88MPD2    C5 1373   3.471   3.979   0.713 -0.4741 -0.3984  0.1187
   88MPD2     H 1374   3.821   4.088   0.579 -0.5819 -1.4929 -1.9086
   88MPD2    H1 1375   3.412   4.173   0.680  0.7435  0.5541  1.0872
   88MPD2    H2 1376   3.550   3.781   0.706  1.6898  0.0008 -0.3884
   88MPD2    H3 1377   3.371   3.952   0.743 -0.3217 -2.4889 -1.2310
   88MPD2     N 1378   3.643   4.286   0.621 -0.6946 -0.0360 -0.2514
   88MPD2    H5 1379   3.556   4.337   0.614  1.7029  3.9464 -0.9832
   88MPD2    N1 1380   3.788   3.823   0.628  0.1778 -0.1309  0.0817
   88MPD2    H7 1381   3.759   3.728   0.649  0.4164 -0.1490  0.3319
   89TMC2    C1 1382   0.975   2.932   2.044 -0.2118  0.7729  0.1066
   89TMC2    C2 1383   0.916   2.903   2.161  0.4011  1.0399 -0.5366
   89TMC2    C3 1384   0.923   3.001   2.255  0.4679  0.4476  0.2568
   89TMC2    C4 1385   1.047   3.045   2.016  0.0515  0.1815  0.6649
   89TMC2    C5 1386   1.043   3.149   2.108  0.1628 -0.5576  0.4372
   89TMC2    C6 1387   0.990   3.124   2.232 -0.1238 -0.1545 -0.0936
   89TMC2     C 1388   0.971   2.836   1.940  0.2785  0.4643 -0.1510
   89TMC2     O 1389   1.059   2.825   1.851  0.1792  0.0797 -0.3411
   89TMC2     H 1390   0.869   2.808   2.183  0.4003  0.9914 -0.7517
   89TMC2    H1 1391   1.071   3.067   1.913 -0.8353 -3.6514 -0.3339
   89TMC2    H2 1392   0.994   3.199   2.310 -0.5709  0.0064 -0.2294
   89TMC2    C7 1393   1.058   3.286   2.062 -0.6261  0.1065  0.3922
   89TMC2    C8 1394   0.837   2.991   2.370  0.0262 -0.0653 -0.4405
   89TMC2    O1 1395   1.016   3.377   2.127 -0.1545 -0.5787  0.1122
   89TMC2    O2 1396   0.855   3.054   2.470 -0.2981 -0.1835 -0.2918
   89TMC2    O5 1397   0.731   2.910   2.349 -0.1354  0.5840 -0.0481
   89TMC2    H5 1398   0.706   2.903   2.254  2.2060  0.5941 -0.6667
   90MPD2     C 1399   0.686   2.529   1.649  0.6252  0.2639  0.7823
   90MPD2    C1 1400   0.618   2.556   1.765  0.7734  0.5612  0.0071
   90MPD2    C2 1401   0.677   2.640   1.858  0.4652  0.9298 -0.1063
   90MPD2    C3 1402   0.804   2.693   1.843 -0.3504 -0.2053  0.1184
   90MPD2    C4 1403   0.869   2.660   1.722 -0.1403 -0.0776  0.2215
   90MPD2    C5 1404   0.812   2.587   1.631 -0.1734  0.1994  0.0061
   90MPD2     H 1405   0.629   2.650   1.954  1.3318 -0.0686  0.4325
   90MPD2    H1 1406   0.960   2.708   1.690  1.7696 -2.2778  2.2719
   90MPD2    H2 1407   0.642   2.477   1.566  2.9875  0.4860 -0.6216
   90MPD2    H3 1408   0.856   2.576   1.532  3.0726 -0.8534  1.5490
   90MPD2     N 1409   0.850   2.777   1.945  0.0789 -0.2813  0.5500
   90MPD2    H5 1410   0.782   2.813   2.010  0.6617  0.3452  0.8013
   90MPD2    N1 1411   0.489   2.510   1.794  0.0920 -0.2497 -1.0817
   90MPD2    H7 1412   0.447   2.543   1.881 -0.3285 -0.7037 -1.1097
   91TMC2    C1 1413   2.108   1.722  16.525  0.4273  0.9380  0.4053
   91TMC2    C2 1414   2.165   1.721  16.400  0.3824  0.0914  0.1164
   91TMC2    C3 1415   2.115   1.640  16.304  0.1774  0.6233  0.1895
   91TMC2    C4 1416   2.003   1.642  16.553 -0.3440  0.3559 -0.9363
   91TMC2    C5 1417   1.956   1.567  16.454 -0.1313 -0.4568 -0.5032
   91TMC2    C6 1418   2.001   1.564  16.322 -0.9363 -0.2074 -0.0075
   91TMC2     C 1419   2.170   1.803  16.637  0.1310 -0.9024 -0.1154
   91TMC2     O 1420   2.098   1.837  16.729 -0.4867 -0.2384 -0.3945
   91TMC2     H 1421   2.227   1.806  16.375  1.5831 -0.9619 -0.4653
   91TMC2    H1 1422   1.955   1.655  16.649 -1.1272 -1.0497 -1.1385
   91TMC2    H2 1423   1.961   1.501  16.244  3.5870 -1.1382 -1.5445
   91TMC2    C7 1424   1.843   1.483  16.493 -0.3495  0.4068  0.0215
   91TMC2    C8 1425   2.175   1.622  16.176 -1.0523 -0.1701  1.0352
   91TMC2    O1 1426   1.810   1.476  16.608 -0.0417 -0.3319  0.3490
   91TMC2    O2 1427   2.125   1.554  16.089  0.4440  0.2349  0.0313
   91TMC2    O5 1428   2.313   1.652  16.183 -0.0568  0.1571 -0.5262
   91TMC2    H5 1429   2.364   1.658  16.267  1.1110 -1.6297 -1.1167
   92MPD2     C 1430   2.340   2.005  16.783  0.2767 -0.1702 -0.1243
   92MPD2    C1 1431   2.385   1.914  16.693  0.1715 -0.1617 -0.0494
   92MPD2    C2 1432   2.523   1.910  16.659 -0.5642 -0.4129  0.3692
   92MPD2    C3 1433   2.616   2.001  16.710 -0.2787  0.1709 -0.1765
   92MPD2    C4 1434   2.565   2.093  16.799 -0.4095 -0.0291  0.1857
   92MPD2    C5 1435   2.438   2.084  16.843 -0.3120  0.8102 -0.3900
   92MPD2     H 1436   2.566   1.833  16.596  2.1588  0.7096  0.8507
   92MPD2    H1 1437   2.626   2.168  16.847  1.0567 -0.7997 -0.4616
   92MPD2    H2 1438   2.239   2.011  16.821  0.1610  1.8663 -0.7507
   92MPD2    H3 1439   2.409   2.147  16.927 -0.1853  0.5363 -0.1416
   92MPD2     N 1440   2.746   2.006  16.651 -0.2940  0.0096  0.6499
   92MPD2    H5 1441   2.768   1.938  16.579 -0.1664  1.4515 -0.6682
   92MPD2    N1 1442   2.300   1.831  16.622  0.1774  0.4213 -0.4141
   92MPD2    H7 1443   2.354   1.783  16.550  1.9969  1.8834 -0.0042
   93TMC2    C1 1444   4.135   2.225  13.993 -0.4290  0.5081  0.4384
   93TMC2    C2 1445   4.095   2.176  14.114  0.8158 -0.3843  0.1052
   93TMC2    C3 1446   4.187   2.171  14.218 -0.7576  0.4296 -0.7412
   93TMC2    C4 1447   4.267   2.257  13.972  0.2021  0.0065  0.2620
   93TMC2    C5 1448   4.349   2.262  14.082  0.1405  0.3655 -0.2886
   93TMC2    C6 1449   4.317   2.212  14.205  0.2899  0.1531  0.1889
   93TMC2     C 1450   4.055   2.197  13.876 -0.2239  0.2893  0.1372
   93TMC2     O 1451   4.118   2.203  13.771  0.2839  0.7706 -0.1254
   93TMC2     H 1452   3.994   2.138  14.126 -0.5602  3.3208  0.2964
   93TMC2    H1 1453   4.294   2.294  13.873 -2.5584  2.0173  0.2796
   93TMC2    H2 1454   4.386   2.208  14.288 -0.4839  1.2043  0.8879
   93TMC2    C7 1455   4.481   2.311  14.061  0.4479 -0.1379  0.0071
   93TMC2    C8 1456   4.133   2.130  14.346  1.5353 -0.3689  0.1225
   93TMC2    O1 1457   4.532   2.285  13.954 -0.2237  0.2044  0.0122
   93TMC2    O2 1458   4.028   2.067  14.359 -0.5900 -0.4168 -0.2718
   93TMC2    O5 1459   4.203   2.179  14.448  0.8066 -0.1709  0.1406
   93TMC2    H5 1460   4.287   2.228  14.435  0.5056  0.0091 -1.0862
   94MPD2     C 1461   3.911   2.029  13.690  0.2710 -0.0117 -0.3818
   94MPD2    C1 1462   3.846   2.078  13.798 -0.1024 -0.5866  0.0932
   94MPD2    C2 1463   3.720   2.030  13.825  0.7585  0.8017  0.2893
   94MPD2    C3 1464   3.650   1.957  13.726 -0.5749  0.3413  0.0909
   94MPD2    C4 1465   3.719   1.913  13.614  0.7722  0.0315  0.0097
   94MPD2    C5 1466   3.847   1.949  13.598  0.1117 -0.1560 -0.6058
   94MPD2     H 1467   3.665   2.080  13.904 -0.5954 -0.1585 -0.0419
   94MPD2    H1 1468   3.675   1.837  13.550  0.1767  1.9291 -1.8359
   94MPD2    H2 1469   4.017   2.041  13.671  0.0583 -0.7931 -2.0956
   94MPD2    H3 1470   3.896   1.914  13.508  0.9589 -0.0328 -0.1867
   94MPD2     N 1471   3.518   1.903  13.747  0.0720 -0.7121 -0.5255
   94MPD2    H5 1472   3.488   1.830  13.684 -0.0866 -0.0519 -1.2149
   94MPD2    N1 1473   3.921   2.156  13.894 -1.0827 -0.1341  0.3752
   94MPD2    H7 1474   3.879   2.179  13.983  2.0383 -3.2213  2.6764
   95TMC2    C1 1475   3.901   3.168  16.129  0.0842 -0.1137 -0.9460
   95TMC2    C2 1476   3.954   3.042  16.128  0.6305 -0.4843  0.2770
   95TMC2    C3 1477   3.971   2.972  16.246 -0.5588  0.4840 -0.3154
   95TMC2    C4 1478   3.865   3.225  16.244 -0.4221 -1.1554  1.0723
   95TMC2    C5 1479   3.872   3.153  16.363 -0.2838 -0.4113 -0.8845
   95TMC2    C6 1480   3.930   3.028  16.366 -0.0966  0.1083  0.8038
   95TMC2     C 1481   3.955   3.264  16.036 -0.2433  0.4182  0.1684
   95TMC2     O 1482   4.067   3.241  15.995 -0.1590  0.1663 -1.1776
   95TMC2     H 1483   3.987   3.003  16.033  0.4759  0.7621 -0.2908
   95TMC2    H1 1484   3.820   3.324  16.249  0.3187 -0.7455 -0.1715
   95TMC2    H2 1485   3.933   2.967  16.455 -1.8070  1.0257  1.4687
   95TMC2    C7 1486   3.857   3.239  16.482  0.4141 -0.2352  0.8988
   95TMC2    C8 1487   4.055   2.857  16.258  0.0015  0.0544  0.3036
   95TMC2    O1 1488   3.841   3.360  16.467 -0.2390 -0.1811 -0.4880
   95TMC2    O2 1489   4.107   2.813  16.362  0.1899 -0.0702 -0.0682
   95TMC2    O5 1490   4.048   2.790  16.142 -0.0175  0.0130  0.4048
   95TMC2    H5 1491   3.975   2.828  16.089 -0.2212 -0.7975  0.1066
   96MPD2     C 1492   3.957   3.732  15.844 -0.3749 -0.4951  0.4808
   96MPD2    C1 1493   4.044   3.629  15.821 -0.0143 -0.0037  0.0819
   96MPD2    C2 1494   4.017   3.505  15.875  0.3655  0.3100 -0.5922
   96MPD2    C3 1495   3.899   3.481  15.937  0.2473 -0.2591 -0.1298
   96MPD2    C4 1496   3.810   3.581  15.949  0.2284 -0.3971 -0.2061
   96MPD2    C5 1497   3.836   3.705  15.903 -0.5600 -0.5923 -0.2441
   96MPD2     H 1498   4.097   3.433  15.859 -0.5494 -0.8975  0.2007
   96MPD2    H1 1499   3.718   3.571  16.004 -0.5384 -3.2657 -1.9791
   96MPD2    H2 1500   3.967   3.835  15.810  2.2885 -0.9303 -0.0071
   96MPD2    H3 1501   3.767   3.787  15.921 -0.5304 -0.3578 -1.2003
   96MPD2     N 1502   3.867   3.367  16.013  0.3522  0.1241  0.1440
   96MPD2    H5 1503   3.774   3.360  16.052  0.6801 -0.7604  0.7630
   96MPD2    N1 1504   4.161   3.653  15.754 -0.8430  0.3827  0.5972
   96MPD2    H7 1505   4.195   3.747  15.739  1.8017 -0.7521 -0.5432
   97TMC2    C1 1506   2.358   1.655   0.111 -0.2814  0.1529 -0.0916
   97TMC2    C2 1507   2.439   1.652   0.007 -1.0442  0.0297 -0.1885
   97TMC2    C3 1508   2.475   1.776  17.722  0.7215 -0.2797  0.3372
   97TMC2    C4 1509   2.316   1.772   0.178 -0.0614  0.0111  1.2488
   97TMC2    C5 1510   2.354   1.892   0.121  0.1737 -0.4176 -0.2126
   97TMC2    C6 1511   2.434   1.896   0.010  0.4514 -0.2243  0.2799
   97TMC2     C 1512   2.301   1.534   0.164 -1.0247 -0.3300  0.1922
   97TMC2     O 1513   2.209   1.552   0.242  0.7755  0.2171 -0.2680
   97TMC2     H 1514   2.483   1.569  17.717  0.2553 -1.2412  2.8039
   97TMC2    H1 1515   2.253   1.775   0.266 -0.2681 -0.0940  1.1058
   97TMC2    H2 1516   2.463   1.993  17.736 -0.0318 -0.1607  0.0733
   97TMC2    C7 1517   2.271   2.007   0.158 -0.2570  0.0797 -0.3785
   97TMC2    C8 1518   2.498   1.775  17.577  0.1540 -0.1374  0.9636
   97TMC2    O1 1519   2.252   2.028   0.277  0.0060 -0.2785  0.2052
   97TMC2    O2 1520   2.448   1.683  17.511  0.1487  0.2875  0.1936
   97TMC2    O5 1521   2.600   1.865  17.552 -0.2168  0.2216  0.2841
   97TMC2    H5 1522   2.637   1.920  17.625  1.6463 -0.6825  0.0047
   98MPD2     C 1523   2.253   1.024   0.202  0.0772  0.4457 -1.0094
   98MPD2    C1 1524   2.199   1.123   0.274 -0.3970  0.0100 -0.2484
   98MPD2    C2 1525   2.223   1.255   0.247 -0.0663 -0.2065  0.3167
   98MPD2    C3 1526   2.317   1.282   0.150 -0.2800 -0.4461  0.5113
   98MPD2    C4 1527   2.379   1.179   0.091  0.0148 -0.1436 -0.4369
   98MPD2    C5 1528   2.349   1.044   0.111 -1.1259 -0.1559 -0.2350
   98MPD2     H 1529   2.167   1.336   0.293  0.2953  0.4243 -0.3309
   98MPD2    H1 1530   2.467   1.200   0.031 -1.3300  1.0139 -2.0155
   98MPD2    H2 1531   2.235   0.919   0.226 -2.2662  1.3600  1.2155
   98MPD2    H3 1532   2.401   0.964   0.060 -0.0749  1.5182 -1.8079
   98MPD2     N 1533   2.353   1.418   0.113 -0.9698  0.2420 -0.0751
   98MPD2    H5 1534   2.419   1.427   0.035  1.4977 -0.4695  1.9421
   98MPD2    N1 1535   2.105   1.072   0.374 -0.2246 -0.3116  0.4604
   98MPD2    H7 1536   2.099   0.970   0.374  1.5347 -0.4289 -2.3701
   99TMC2    C1 1537   0.808   3.555   1.271  0.3473 -0.6417 -0.8458
   99TMC2    C2 1538   0.896   3.653   1.314 -0.0919 -0.1284 -0.5190
   99TMC2    C3 1539   0.899   3.693   1.444  0.8016  0.1431  0.1216
   99TMC2    C4 1540   0.720   3.493   1.359  0.2619 -0.4958  0.0989
   99TMC2    C5 1541   0.727   3.531   1.492  0.1795 -0.0674  0.4237
   99TMC2    C6 1542   0.815   3.624   1.530  0.6750 -0.2705  0.0327
   99TMC2     C 1543   0.783   3.539   1.124 -0.2748 -0.4917  0.4470
   99TMC2     O 1544   0.811   3.633   1.056  0.4705 -0.6068 -0.2962
   99TMC2     H 1545   0.965   3.698   1.244  0.3757  4.7425  3.1062
   99TMC2    H1 1546   0.647   3.422   1.322 -0.8937  0.7003  0.1048
   99TMC2    H2 1547   0.822   3.659   1.632 -0.6484  0.2492 -0.0612
   99TMC2    C7 1548   0.646   3.463   1.584  0.4971  0.4335 -0.4789
   99TMC2    C8 1549   0.912   3.835   1.454 -0.1444 -0.3981 -0.3813
   99TMC2    O1 1550   0.675   3.480   1.701  0.2467  0.0785  0.1501
   99TMC2    O2 1551   0.822   3.907   1.488  0.3195 -0.6207 -0.0873
   99TMC2    O5 1552   1.019   3.871   1.377 -0.4961  0.0620 -0.2211
   99TMC2    H5 1553   1.082   3.795   1.379  0.7927  1.1345  0.0076
  100MPD2     C 1554   0.614   3.487   0.892  0.3797  0.4450 -0.6608
  100MPD2    C1 1555   0.657   3.390   0.980  0.6457 -0.1215 -0.6886
  100MPD2    C2 1556   0.615   3.257   0.976 -0.2381 -0.1641  0.1788
  100MPD2    C3 1557   0.521   3.221   0.883  0.3098  0.3257  0.0207
  100MPD2    C4 1558   0.477   3.321   0.794  0.1720 -0.0993 -0.4699
  100MPD2    C5 1559   0.524   3.451   0.795  0.6250  0.5405  1.0260
  100MPD2     H 1560   0.647   3.187   1.053  2.6063 -0.9788 -1.7375
  100MPD2    H1 1561   0.392   3.301   0.731 -1.7415  0.3301  1.9650
  100MPD2    H2 1562   0.631   3.593   0.909 -0.9202  0.5180  0.1956
  100MPD2    H3 1563   0.491   3.517   0.715  0.3425  0.5980  1.1913
  100MPD2     N 1564   0.470   3.089   0.875 -0.0638  0.3907 -0.0975
  100MPD2    H5 1565   0.511   3.016   0.933 -0.8510  0.1873  0.1985
  100MPD2    N1 1566   0.731   3.416   1.095  0.3663 -0.2236  0.0898
  100MPD2    H7 1567   0.735   3.338   1.160 -0.8153 -0.8552 -0.6068
  101TMC2    C1 1568   1.013   4.653  12.733 -0.1107 -0.5540  0.0725
  101TMC2    C2 1569   0.983   0.040  12.768 -0.4764  0.2010 -0.2233
  101TMC2    C3 1570   0.978   0.144  12.680  0.2790 -0.4526  0.2881
  101TMC2    C4 1571   1.035   4.621  12.604 -0.0396  0.3331 -0.6435
  101TMC2    C5 1572   1.045   4.727  12.516  0.3708  0.3230 -0.3124
  101TMC2    C6 1573   1.013   0.115  12.548  0.1607  0.8162 -0.0079
  101TMC2     C 1574   0.986   4.556  12.833 -0.5844  0.0085 -0.1079
  101TMC2     O 1575   0.903   4.590  12.917 -0.1658 -0.2022  0.5067
  101TMC2     H 1576   0.955   0.050  12.872  0.0941  0.0279 -0.0554
  101TMC2    H1 1577   1.053   4.515  12.589  2.2498  0.4882  1.0072
  101TMC2    H2 1578   0.998   0.184  12.466  1.7441  2.3630  0.9888
  101TMC2    C7 1579   1.103   4.709  12.383  0.1860 -0.8410 -0.1752
  101TMC2    C8 1580   0.864   0.238  12.696  0.2191 -0.0594  0.3058
  101TMC2    O1 1581   1.066   4.617  12.313  0.1243  0.0833  0.4069
  101TMC2    O2 1582   0.760   0.205  12.754 -0.4905 -0.2542 -0.3308
  101TMC2    O5 1583   0.902   0.353  12.633 -0.6899  0.2211 -0.0999
  101TMC2    H5 1584   0.998   0.356  12.615 -0.7589  1.4248 -0.2385
  102MPD2     C 1585   1.187   4.253  12.886  0.2227 -0.9758 -0.3382
  102MPD2    C1 1586   1.083   4.342  12.914  0.0811 -0.8152 -0.3733
  102MPD2    C2 1587   1.013   4.327  13.026 -0.3509  0.1440 -0.1693
  102MPD2    C3 1588   1.042   4.231  13.120  0.0999  0.0442  0.6939
  102MPD2    C4 1589   1.136   4.135  13.092 -0.2704  1.1026 -0.5140
  102MPD2    C5 1590   1.212   4.149  12.979  0.8409  0.6229 -0.4460
  102MPD2     H 1591   0.927   4.391  13.041 -1.0812 -1.0842  0.8029
  102MPD2    H1 1592   1.176   4.065  13.165 -0.4423  0.1661 -1.3108
  102MPD2    H2 1593   1.249   4.264  12.798  0.5198 -0.9494 -0.1236
  102MPD2    H3 1594   1.302   4.095  12.954  1.0039 -0.7428  3.1083
  102MPD2     N 1595   0.976   4.233  13.245  0.1679  0.1183  0.1705
  102MPD2    H5 1596   0.889   4.285  13.257  1.5842  2.6355 -0.4710
  102MPD2    N1 1597   1.071   4.448  12.820 -0.1060 -0.3711  0.4856
  102MPD2    H7 1598   1.137   4.443  12.743 -1.2090  1.0589 -0.5604
  103TMC2    C1 1599   3.732   0.073  12.962  0.7061  0.1160  0.4021
  103TMC2    C2 1600   3.620   0.121  12.914 -0.2158  0.5513 -0.1055
  103TMC2    C3 1601   3.534   0.184  12.992  0.3995  1.0060  0.5800
  103TMC2    C4 1602   3.772   0.100  13.092  0.1068  0.1644  0.2925
  103TMC2    C5 1603   3.682   0.166  13.171 -0.0011 -0.0253  0.3236
  103TMC2    C6 1604   3.575   0.216  13.116  0.4806  0.0432 -0.0170
  103TMC2     C 1605   3.795   4.699  12.894 -0.7991  0.4657  0.6489
  103TMC2     O 1606   3.719   4.634  12.821  0.4112 -0.2156  0.5374
  103TMC2     H 1607   3.598   0.124  12.807 -1.9514 -1.1369  0.2002
  103TMC2    H1 1608   3.856   0.044  13.134  0.2010  0.3405  0.3386
  103TMC2    H2 1609   3.518   0.292  13.169  0.5405  0.2951 -0.3106
  103TMC2    C7 1610   3.707   0.187  13.314  0.5534  0.1475  0.0751
  103TMC2    C8 1611   3.414   0.247  12.934 -0.7626  0.3240  0.5807
  103TMC2    O1 1612   3.615   0.225  13.388  0.4178 -0.3417 -0.2248
  103TMC2    O2 1613   3.405   0.270  12.812 -0.4002  0.1647  0.0575
  103TMC2    O5 1614   3.319   0.236  13.028 -0.4007  0.6142  0.7749
  103TMC2    H5 1615   3.351   0.199  13.113 -1.5869  0.9972  1.3891
  104MPD2     C 1616   4.145   4.563  12.919 -0.3874 -0.0880 -0.1920
  104MPD2    C1 1617   4.018   4.582  12.864  0.5066  0.2260 -0.3868
  104MPD2    C2 1618   3.972   4.508  12.758  0.6493 -0.1628  0.2296
  104MPD2    C3 1619   4.051   4.410  12.703 -0.7774 -0.4419  0.0744
  104MPD2    C4 1620   4.183   4.400  12.750  0.2470 -0.5433 -0.0564
  104MPD2    C5 1621   4.224   4.477  12.858 -0.0718 -0.0826  0.0812
  104MPD2     H 1622   3.871   4.517  12.721  0.3282  1.4086  1.4836
  104MPD2    H1 1623   4.261   4.335  12.714  0.3672  0.6454 -1.9095
  104MPD2    H2 1624   4.182   4.622  13.003  0.0660  0.9730 -1.1492
  104MPD2    H3 1625   4.326   4.472  12.895 -0.3549  1.9023  1.1435
  104MPD2     N 1626   3.997   4.321  12.606 -0.5233 -0.8002  0.3900
  104MPD2    H5 1627   3.897   4.317  12.589 -0.4917 -5.1280  1.2155
  104MPD2    N1 1628   3.934   4.670  12.932 -0.4967 -0.4031  0.0555
  104MPD2    H7 1629   3.968   4.730  13.007  1.0836 -0.1627 -0.8461
  105TMC2    C1 1630   0.349   3.207   0.161  0.0279  0.4485  0.1567
  105TMC2    C2 1631   0.264   3.110   0.118 -0.7855 -0.1866  0.1305
  105TMC2    C3 1632   0.138   3.117   0.156  0.2032  0.5123 -0.1085
  105TMC2    C4 1633   0.318   3.292   0.259  0.0641  0.4664  0.1363
  105TMC2    C5 1634   0.192   3.284   0.309 -1.0333 -0.2217 -0.1639
  105TMC2    C6 1635   0.097   3.214   0.252 -0.1098  0.6120  0.2123
  105TMC2     C 1636   0.494   3.179   0.148  0.3012  0.5409  0.1751
  105TMC2     O 1637   0.526   3.060   0.166  0.1221 -0.0164  0.1354
  105TMC2     H 1638   0.301   3.025   0.063  0.6495  1.2462 -1.1050
  105TMC2    H1 1639   0.398   3.335   0.318 -0.3799  0.9611  0.3740
  105TMC2    H2 1640   0.003   3.201   0.305 -1.2935  1.7891 -1.5778
  105TMC2    C7 1641   0.156   3.384   0.410  0.1170  0.8337 -0.4619
  105TMC2    C8 1642   0.045   3.050   0.065 -0.0435 -0.1012 -0.3261
  105TMC2    O1 1643   0.244   3.410   0.492 -0.8898 -0.1200  0.2552
  105TMC2    O2 1644   0.091   2.976  17.741 -0.4234  0.3389 -0.4285
  105TMC2    O5 1645   4.677   3.138   0.048  0.1072 -0.4899 -0.3672
  105TMC2    H5 1646   4.672   3.227   0.089  1.7679 -0.6620  0.2161
  106MPD2     C 1647   0.975   3.298   0.015 -0.0668 -0.3550 -0.8526
  106MPD2    C1 1648   0.894   3.410   0.013  0.3940 -1.2335 -0.0603
  106MPD2    C2 1649   0.767   3.404   0.062 -0.0435  0.2404 -0.3047
  106MPD2    C3 1650   0.718   3.291   0.119  0.3957 -0.1610 -0.5920
  106MPD2    C4 1651   0.802   3.181   0.134 -0.3917 -0.3955 -0.7665
  106MPD2    C5 1652   0.939   3.188   0.095  1.3187  0.1204  0.0014
  106MPD2     H 1653   0.703   3.488   0.037 -2.2976 -1.0058  1.3060
  106MPD2    H1 1654   0.762   3.087   0.169  1.0186 -1.0521 -0.9313
  106MPD2    H2 1655   1.080   3.295  17.750  0.3886 -2.6582  0.9932
  106MPD2    H3 1656   1.004   3.103   0.113 -1.9083 -2.5705 -0.9213
  106MPD2     N 1657   0.573   3.293   0.134 -0.0531  0.3891  0.2695
  106MPD2    H5 1658   0.520   3.378   0.118  0.5849  1.0525  1.6769
  106MPD2    N1 1659   0.940   3.527  17.716 -0.8534  0.6322 -0.2518
  106MPD2    H7 1660   0.870   3.600  17.708 -2.8507 -1.0455  1.7961
  107TMC2    C1 1661   1.330   3.493  11.684  0.8996 -0.0665  0.0242
  107TMC2    C2 1662   1.399   3.596  11.633 -0.2589 -0.1845  0.2863
  107TMC2    C3 1663   1.488   3.565  11.535 -0.1128  0.4278  0.2030
  107TMC2    C4 1664   1.373   3.356  11.663  0.3649 -0.2276 -0.0035
  107TMC2    C5 1665   1.471   3.328  11.567  0.7850  0.2575 -0.1460
  107TMC2    C6 1666   1.531   3.436  11.504  0.5959  0.1150  0.3322
  107TMC2     C 1667   1.224   3.509  11.780  0.2058 -0.0450  0.4370
  107TMC2     O 1668   1.217   3.617  11.842  0.2709 -0.0213 -0.0078
  107TMC2     H 1669   1.378   3.702  11.643  0.0779 -0.0180 -0.8535
  107TMC2    H1 1670   1.316   3.269  11.695 -1.4628  0.1059 -2.3384
  107TMC2    H2 1671   1.627   3.423  11.455 -0.6050 -2.0604 -1.4770
  107TMC2    C7 1672   1.506   3.195  11.525 -0.8894 -0.2365  0.7165
  107TMC2    C8 1673   1.556   3.684  11.485 -0.0221 -0.1645  0.0630
  107TMC2    O1 1674   1.591   3.196  11.438  0.3156 -0.2882  0.3488
  107TMC2    O2 1675   1.570   3.783  11.555  0.2992  0.3516 -0.7320
  107TMC2    O5 1676   1.623   3.642  11.382 -0.3177  0.3645  0.3685
  107TMC2    H5 1677   1.571   3.573  11.336 -0.6825 -0.1443  1.5565
  108MPD2     C 1678   0.896   3.371  11.799 -0.7679  0.4281  0.5288
  108MPD2    C1 1679   1.013   3.413  11.852 -0.0658  0.5630  0.5478
  108MPD2    C2 1680   1.008   3.476  11.980 -0.0898 -0.1594  0.6218
  108MPD2    C3 1681   0.894   3.498  12.050 -0.0449  0.7222  0.6413
  108MPD2    C4 1682   0.777   3.465  11.986  0.2453  0.8893  0.2660
  108MPD2    C5 1683   0.777   3.400  11.864  0.2791  0.1652  0.4437
  108MPD2     H 1684   1.105   3.491  12.025  0.5164 -1.7844 -0.1360
  108MPD2    H1 1685   0.680   3.478  12.032  1.0670 -0.2409  2.3188
  108MPD2    H2 1686   0.897   3.323  11.702 -2.2646 -0.4375  0.9471
  108MPD2    H3 1687   0.690   3.382  11.803  0.7912  0.0079 -0.2451
  108MPD2     N 1688   0.887   3.549  12.181  0.3840  0.1803  0.1157
  108MPD2    H5 1689   0.797   3.574  12.220  0.6197 -1.1776  1.5537
  108MPD2    N1 1690   1.131   3.408  11.779  0.1741  0.3458 -0.3809
  108MPD2    H7 1691   1.134   3.345  11.699 -2.5463  1.1791 -1.1424
  109TMC2    C1 1692   0.965   1.422   0.252 -0.5993  0.4781  0.1410
  109TMC2    C2 1693   0.937   1.456   0.126 -0.3287  0.4918  0.3149
  109TMC2    C3 1694   1.005   1.404   0.019 -0.1249 -0.1362 -0.4701
  109TMC2    C4 1695   1.070   1.341   0.281  1.0224 -0.2899  0.4081
  109TMC2    C5 1696   1.133   1.284   0.169 -0.0594  0.2429  0.3527
  109TMC2    C6 1697   1.096   1.309   0.043  0.1354  0.2185 -0.3320
  109TMC2     C 1698   0.911   1.493   0.355  0.2597 -0.7873 -0.2292
  109TMC2     O 1699   0.918   1.616   0.341  0.0905 -0.2423 -0.1547
  109TMC2     H 1700   0.861   1.533   0.116  0.7569  1.3573 -1.3481
  109TMC2    H1 1701   1.093   1.320   0.385 -1.3992 -1.8317  0.6320
  109TMC2    H2 1702   1.141   1.254  17.724  1.9874  1.4860 -0.1661
  109TMC2    C7 1703   1.217   1.165   0.199 -0.1723  0.1950  0.5175
  109TMC2    C8 1704   0.942   1.403  17.650  0.7202 -0.5073  0.4911
  109TMC2    O1 1705   1.207   1.118   0.309 -0.5750  0.4571  0.2786
  109TMC2    O2 1706   0.924   1.298  17.584 -0.2026  0.1500  0.2651
  109TMC2    O5 1707   0.867   1.520  17.633  0.1356  0.9503  0.5194
  109TMC2    H5 1708   0.909   1.595  17.679 -0.5334  1.2249  0.6910
  110MPD2     C 1709   0.668   1.539   0.795 -0.8477  0.3479 -0.8109
  110MPD2    C1 1710   0.697   1.406   0.785  0.0409 -0.9228  0.3768
  110MPD2    C2 1711   0.780   1.376   0.678  0.0952 -0.1176  0.2647
  110MPD2    C3 1712   0.813   1.465   0.585 -0.7360 -0.0350 -0.2780
  110MPD2    C4 1713   0.788   1.600   0.600 -0.0803  0.0520 -0.2194
  110MPD2    C5 1714   0.721   1.636   0.711 -0.4733 -0.3694 -0.1704
  110MPD2     H 1715   0.812   1.275   0.654 -1.2404 -0.7988  1.3271
  110MPD2    H1 1716   0.812   1.681   0.533 -0.4543 -1.2249 -1.8810
  110MPD2    H2 1717   0.627   1.582   0.886 -0.4466  1.4752 -1.1631
  110MPD2    H3 1718   0.707   1.743   0.727 -0.4026  0.0236 -2.7126
  110MPD2     N 1719   0.877   1.413   0.467  0.3997  0.1763 -0.6894
  110MPD2    H5 1720   0.875   1.313   0.449  2.4998  0.0921 -0.3823
  110MPD2    N1 1721   0.654   1.326   0.889 -0.4342 -0.9295  0.0800
  110MPD2    H7 1722   0.583   1.361   0.953 -0.7198 -0.7847 -0.3188
  111TMC2    C1 1723   0.815   0.722  12.556 -0.0255  0.0638 -0.8207
  111TMC2    C2 1724   0.765   0.744  12.683  0.1694  0.5231 -0.3112
  111TMC2    C3 1725   0.858   0.727  12.785  0.5207  0.6916 -0.1127
  111TMC2    C4 1726   0.947   0.700  12.532  0.1725  0.5541 -1.1505
  111TMC2    C5 1727   1.037   0.687  12.631 -0.8297 -0.6163 -0.7158
  111TMC2    C6 1728   0.992   0.695  12.765 -0.7283  0.3619  0.6544
  111TMC2     C 1729   0.730   0.766  12.444 -0.2901  0.1037  0.3396
  111TMC2     O 1730   0.760   0.713  12.339 -0.2024  0.0054 -0.3023
  111TMC2     H 1731   0.659   0.756  12.701  0.6831  1.6475  1.8734
  111TMC2    H1 1732   0.975   0.704  12.428  0.0437  0.5530 -1.1848
  111TMC2    H2 1733   1.074   0.688  12.835  3.1826  0.3992 -3.8402
  111TMC2    C7 1734   1.186   0.716  12.602 -1.0970 -0.1671  0.1686
  111TMC2    C8 1735   0.823   0.763  12.923 -0.0717 -0.0019  0.4006
  111TMC2    O1 1736   1.279   0.678  12.668 -0.2092  0.1558 -0.0219
  111TMC2    O2 1737   0.896   0.753  13.020  0.3325  0.7401 -0.6036
  111TMC2    O5 1738   0.743   0.870  12.906 -0.6954  0.5139  0.5623
  111TMC2    H5 1739   0.692   0.871  12.822 -0.7988  1.9334  0.6399
  112MPD2     C 1740   0.420   1.049  12.149 -0.1778 -0.2826 -0.1017
  112MPD2    C1 1741   0.552   1.011  12.131  0.4687 -0.3106  0.5649
  112MPD2    C2 1742   0.614   0.942  12.234 -0.3607 -0.3546  0.3636
  112MPD2    C3 1743   0.554   0.916  12.360 -0.1085  0.4365 -1.1570
  112MPD2    C4 1744   0.436   0.983  12.380 -0.0726  0.2709  0.1921
  112MPD2    C5 1745   0.368   1.025  12.275 -0.1446  0.6140  0.4473
  112MPD2     H 1746   0.714   0.900  12.231  0.3186  1.4270 -1.6096
  112MPD2    H1 1747   0.384   0.981  12.476 -0.5520  1.5548 -0.0377
  112MPD2    H2 1748   0.349   1.093  12.080 -0.8750  1.1099  1.4953
  112MPD2    H3 1749   0.268   1.057  12.302 -1.7119 -3.2503 -0.8253
  112MPD2     N 1750   0.626   0.856  12.471  0.3698  0.6904 -0.1665
  112MPD2    H5 1751   0.604   0.883  12.566 -1.0767  3.1876 -1.2222
  112MPD2    N1 1752   0.610   1.041  12.004 -0.2687  0.4166  0.1008
  112MPD2    H7 1753   0.555   1.081  11.928 -0.8454 -2.0530 -0.7564
  113TMC2    C1 1754   4.042   3.019   0.852  0.5564 -0.2951  0.2252
  113TMC2    C2 1755   3.927   3.094   0.838  0.2643  0.1311  0.1848
  113TMC2    C3 1756   3.822   3.029   0.786 -0.0265 -0.1217  0.2073
  113TMC2    C4 1757   4.054   2.885   0.822 -0.2431 -0.2320  0.1337
  113TMC2    C5 1758   3.947   2.824   0.780  0.1231 -0.0260 -1.3250
  113TMC2    C6 1759   3.826   2.892   0.766 -0.2311 -0.2563  0.0574
  113TMC2     C 1760   4.155   3.090   0.915 -0.0791  0.8880 -0.1387
  113TMC2     O 1761   4.124   3.195   0.970 -0.0846 -0.7833  0.3896
  113TMC2     H 1762   3.923   3.201   0.851  0.0609 -0.2146  2.9425
  113TMC2    H1 1763   4.153   2.841   0.817 -0.3935 -0.5715  0.1105
  113TMC2    H2 1764   3.732   2.840   0.751 -1.2648  2.0555 -1.4485
  113TMC2    C7 1765   3.946   2.684   0.783  0.5972 -0.6848 -0.1470
  113TMC2    C8 1766   3.687   3.092   0.785  1.2136  0.3340  0.8410
  113TMC2    O1 1767   4.045   2.626   0.740  0.2487  0.1858 -0.0920
  113TMC2    O2 1768   3.672   3.189   0.861  0.2616 -0.0828  0.3587
  113TMC2    O5 1769   3.637   3.099   0.662  0.2069 -0.0430 -0.2930
  113TMC2    H5 1770   3.685   3.039   0.600  0.2101 -1.1448  0.7692
  114MPD2     C 1771   4.623   3.115   1.123  0.3280  0.3908  0.6464
  114MPD2    C1 1772   4.516   3.182   1.151  0.7317 -0.7798  0.0496
  114MPD2    C2 1773   4.401   3.165   1.078 -0.4163  0.6479  0.8903
  114MPD2    C3 1774   4.397   3.064   0.983  0.6970 -1.3822  0.6445
  114MPD2    C4 1775   4.506   2.992   0.950 -0.2428  1.3841  0.2938
  114MPD2    C5 1776   4.622   3.021   1.016 -0.0634  0.9728 -0.0899
  114MPD2     H 1777   4.320   3.234   1.101 -1.3828  0.3180 -1.5183
  114MPD2    H1 1778   4.504   2.917   0.872 -3.1312  0.8665  0.8609
  114MPD2    H2 1779   4.723   3.124   1.165  0.3160  2.6988  0.1606
  114MPD2    H3 1780   4.721   2.987   0.990  0.3476  2.1665 -0.0824
  114MPD2     N 1781   4.276   3.022   0.920 -0.5681 -0.2513  0.3352
  114MPD2    H5 1782   4.279   2.945   0.853  2.1482  0.8610 -0.8053
  114MPD2    N1 1783   4.507   3.278   1.260  0.5031 -0.6982  0.6825
  114MPD2    H7 1784   4.420   3.323   1.286 -0.0318 -1.5346  0.3486
  115TMC2    C1 1785   0.225   0.855   0.094  0.2735 -0.2634  0.0130
  115TMC2    C2 1786   0.352   0.865   0.043  0.5028 -0.2440 -0.1550
  115TMC2    C3 1787   0.386   0.978  17.729  0.2872 -0.4225  0.1898
  115TMC2    C4 1788   0.125   0.944   0.062  0.5697  0.1933  0.0147
  115TMC2    C5 1789   0.171   1.063   0.006 -0.7793  0.2774 -0.1985
  115TMC2    C6 1790   0.294   1.081  17.715  0.2775  0.0694 -0.2065
  115TMC2     C 1791   0.179   0.724   0.126 -0.1037 -0.3738 -0.6839
  115TMC2     O 1792   0.056   0.699   0.107  0.2172  0.2777  0.2448
  115TMC2     H 1793   0.425   0.788   0.066  0.2427 -0.7758 -1.1270
  115TMC2    H1 1794   0.025   0.930   0.102  0.1577  1.5484 -0.5405
  115TMC2    H2 1795   0.332   1.171  17.669  1.4230 -0.6288 -0.6076
  115TMC2    C7 1796   0.070   1.162  17.762  0.1060  0.4229  0.0400
  115TMC2    C8 1797   0.521   1.010  17.707 -0.0313 -0.6028  0.3547
  115TMC2    O1 1798   4.719   1.146   0.078  0.1384 -0.2257 -0.1539
  115TMC2    O2 1799   0.604   1.042   0.023  0.4982  0.9057 -0.4832
  115TMC2    O5 1800   0.534   1.044  17.585 -0.1086 -0.1157  0.5145
  115TMC2    H5 1801   0.459   1.011  17.531  1.6348 -2.7490 -0.2993
  116MPD2     C 1802   0.286   0.230   0.199 -0.0288  0.4736 -0.8232
  116MPD2    C1 1803   0.210   0.284   0.099 -0.1155 -0.4943 -0.4243
  116MPD2    C2 1804   0.202   0.423   0.107  0.6023  1.2728  0.8151
  116MPD2    C3 1805   0.275   0.505   0.196  0.6661  0.6901 -0.8428
  116MPD2    C4 1806   0.349   0.439   0.289 -0.1215 -0.6046 -0.6727
  116MPD2    C5 1807   0.353   0.304   0.291 -0.6898  0.4481  0.0174
  116MPD2     H 1808   0.136   0.465   0.032 -1.7018 -0.8633  1.6305
  116MPD2    H1 1809   0.401   0.499   0.363  0.6843 -0.7993 -1.0781
  116MPD2    H2 1810   0.278   0.122   0.206 -1.6077  0.5948 -0.8149
  116MPD2    H3 1811   0.413   0.254   0.366  0.3436  1.3262 -0.2173
  116MPD2     N 1812   0.276   0.648   0.189  0.0637  0.3562  0.2089
  116MPD2    H5 1813   0.350   0.702   0.234  0.5966 -0.5333  0.4039
  116MPD2    N1 1814   0.147   0.204  17.759 -0.4351 -0.1749  0.1862
  116MPD2    H7 1815   0.193   0.115  17.749 -0.0884  0.2509 -2.0293
  117TMC2    C1 1816   3.312   2.201  13.710  0.2793 -0.2375  0.0269
  117TMC2    C2 1817   3.350   2.137  13.592 -0.4367 -0.2784 -0.6078
  117TMC2    C3 1818   3.470   2.168  13.539  0.4013 -0.5387 -0.4935
  117TMC2    C4 1819   3.394   2.283  13.777  0.6068  0.1908  0.5016
  117TMC2    C5 1820   3.521   2.302  13.717 -0.0927 -0.1196 -0.1077
  117TMC2    C6 1821   3.553   2.262  13.593 -0.4010  0.6686  0.4720
  117TMC2     C 1822   3.171   2.218  13.735  0.0225  0.1344 -0.0546
  117TMC2     O 1823   3.101   2.117  13.729  0.3508  0.4459 -0.3288
  117TMC2     H 1824   3.274   2.077  13.543 -0.5353  0.2757 -1.1373
  117TMC2    H1 1825   3.362   2.326  13.871 -0.5962 -1.0589  0.6632
  117TMC2    H2 1826   3.652   2.273  13.551 -1.2369 -0.2597 -1.7573
  117TMC2    C7 1827   3.599   2.418  13.770  0.0379  0.2296 -0.1228
  117TMC2    C8 1828   3.520   2.080  13.425  0.0913 -0.5555 -0.5687
  117TMC2    O1 1829   3.693   2.460  13.705  0.2840 -0.6858  0.8397
  117TMC2    O2 1830   3.618   2.110  13.356 -0.2173  0.1592 -0.4374
  117TMC2    O5 1831   3.453   1.963  13.424  0.2120 -0.4427  0.2212
  117TMC2    H5 1832   3.488   1.906  13.352  0.9111  0.1130  0.1296
  118MPD2     C 1833   3.563   2.593  14.089 -0.9064 -0.0302 -0.3441
  118MPD2    C1 1834   3.589   2.583  13.955 -0.6837 -0.2163 -0.1332
  118MPD2    C2 1835   3.633   2.695  13.883  0.1099 -0.0677  0.3280
  118MPD2    C3 1836   3.656   2.815  13.955  0.2020 -0.3285 -0.6760
  118MPD2    C4 1837   3.621   2.825  14.088  0.2071 -0.3051  0.4422
  118MPD2    C5 1838   3.576   2.715  14.153 -0.7303 -0.2331 -0.3278
  118MPD2     H 1839   3.652   2.692  13.776  1.8758  0.2056  0.6278
  118MPD2    H1 1840   3.618   2.918  14.144 -1.3268  0.0942 -0.2923
  118MPD2    H2 1841   3.513   2.518  14.149  1.3533 -2.7342 -1.8156
  118MPD2    H3 1842   3.543   2.718  14.257 -2.1169  2.0337 -0.8285
  118MPD2     N 1843   3.690   2.933  13.891 -0.2251  0.6314  0.0181
  118MPD2    H5 1844   3.706   3.011  13.953  2.0067 -0.5917  0.9484
  118MPD2    N1 1845   3.555   2.458  13.893  0.6902  0.5554  0.5241
  118MPD2    H7 1846   3.506   2.391  13.952  0.6845 -0.4758 -0.6545
  119TMC2    C1 1847   1.620   3.589  13.452 -0.2278 -0.5354  0.2149
  119TMC2    C2 1848   1.621   3.511  13.337 -0.2872 -0.1656 -0.1464
  119TMC2    C3 1849   1.532   3.401  13.333  0.4987  0.1135 -0.2878
  119TMC2    C4 1850   1.525   3.562  13.548 -0.2704 -0.3847 -0.6157
  119TMC2    C5 1851   1.433   3.461  13.538 -0.4113 -0.2015  0.8216
  119TMC2    C6 1852   1.440   3.373  13.432 -0.1140 -0.1017 -0.4783
  119TMC2     C 1853   1.686   3.718  13.429 -0.2324  0.2296  0.1201
  119TMC2     O 1854   1.766   3.736  13.335 -0.9367 -0.2240 -0.3174
  119TMC2     H 1855   1.692   3.529  13.257 -1.8368 -1.8533 -1.9265
  119TMC2    H1 1856   1.533   3.622  13.638  3.2026 -1.5505 -0.1584
  119TMC2    H2 1857   1.368   3.292  13.424 -0.0682 -0.0229 -1.8269
  119TMC2    C7 1858   1.338   3.439  13.648  1.2570  0.2388  0.1000
  119TMC2    C8 1859   1.547   3.302  13.230 -0.7608  0.4605 -0.0751
  119TMC2    O1 1860   1.232   3.386  13.619 -0.5936  0.1559 -0.0736
  119TMC2    O2 1861   1.535   3.180  13.245  0.6169  0.5227  0.0363
  119TMC2    O5 1862   1.602   3.376  13.130 -0.5445 -0.2913 -0.2940
  119TMC2    H5 1863   1.566   3.467  13.117  1.0544  0.3679 -0.0596
  120MPD2     C 1864   1.734   4.237  13.529 -0.0416  0.6510 -0.1624
  120MPD2    C1 1865   1.628   4.180  13.595  0.4960  0.1307  0.4204
  120MPD2    C2 1866   1.597   4.045  13.578 -0.4750  0.0867 -0.8854
  120MPD2    C3 1867   1.656   3.961  13.494 -0.2808  0.2628  0.3188
  120MPD2    C4 1868   1.765   4.015  13.429  0.2067 -0.1386  0.6107
  120MPD2    C5 1869   1.787   4.153  13.439 -0.7514 -0.1888  0.9452
  120MPD2     H 1870   1.520   4.005  13.643  0.0700  0.3231 -0.0976
  120MPD2    H1 1871   1.814   3.956  13.352 -1.0544 -0.4503  0.0475
  120MPD2    H2 1872   1.764   4.341  13.535  0.0404  0.6929 -1.3821
  120MPD2    H3 1873   1.869   4.187  13.376 -2.1200  1.5905  0.1374
  120MPD2     N 1874   1.623   3.816  13.503  0.1120 -0.0753 -0.2526
  120MPD2    H5 1875   1.542   3.791  13.558 -0.0020 -1.8939 -1.2737
  120MPD2    N1 1876   1.576   4.246  13.701  0.3642 -0.4211 -0.2429
  120MPD2    H7 1877   1.633   4.322  13.737 -0.3061  0.3109 -0.7271
  121TMC2    C1 1878   3.054   0.789  14.299 -0.4277 -0.8972 -0.9635
  121TMC2    C2 1879   3.028   0.691  14.390 -0.2536 -0.2382 -0.3591
  121TMC2    C3 1880   2.901   0.680  14.439  0.3151 -0.5387  0.6552
  121TMC2    C4 1881   2.954   0.868  14.247  0.1697 -0.2108  0.2012
  121TMC2    C5 1882   2.827   0.842  14.291  0.6430  0.4646  0.5781
  121TMC2    C6 1883   2.798   0.752  14.386  0.9939  0.2719 -0.2731
  121TMC2     C 1884   3.189   0.816  14.276 -0.5338  0.3040  0.1538
  121TMC2     O 1885   3.274   0.768  14.353  0.2384  0.0248  0.4524
  121TMC2     H 1886   3.114   0.638  14.429 -2.0030 -1.3807  1.9163
  121TMC2    H1 1887   2.961   0.944  14.170  2.1720 -0.7940 -0.1961
  121TMC2    H2 1888   2.707   0.731  14.441  0.6005 -1.9834 -1.7865
  121TMC2    C7 1889   2.717   0.888  14.204  0.1283  0.1527 -0.0952
  121TMC2    C8 1890   2.875   0.567  14.523  0.3240 -0.0695 -0.3429
  121TMC2    O1 1891   2.751   0.985  14.134 -0.0277 -0.5957  0.2669
  121TMC2    O2 1892   2.766   0.555  14.581  0.1193  0.0198 -0.2899
  121TMC2    O5 1893   2.945   0.463  14.473  0.1440 -0.0814 -0.4431
  121TMC2    H5 1894   3.016   0.493  14.413 -0.3163 -0.2571 -1.0785
  122MPD2     C 1895   3.447   0.870  14.151 -0.0378 -0.4403  0.0339
  122MPD2    C1 1896   3.330   0.904  14.089  0.5988  0.5009  0.0582
  122MPD2    C2 1897   3.329   0.969  13.973  0.2529 -0.8135  0.9200
  122MPD2    C3 1898   3.449   1.030  13.925 -0.5425  0.1071  0.4090
  122MPD2    C4 1899   3.568   0.991  13.983  0.4558 -0.2630 -0.0560
  122MPD2    C5 1900   3.566   0.912  14.098 -0.7937 -0.5803 -0.7176
  122MPD2     H 1901   3.232   0.989  13.927 -1.3927 -1.6924  4.0156
  122MPD2    H1 1902   3.662   1.041  13.958  0.4521 -1.5076 -2.5760
  122MPD2    H2 1903   3.459   0.811  14.241  0.6665  1.8579  1.4391
  122MPD2    H3 1904   3.651   0.882  14.158 -0.3535  2.2768  0.0662
  122MPD2     N 1905   3.453   1.127  13.827 -0.3389  0.6908  0.0774
  122MPD2    H5 1906   3.542   1.173  13.809 -0.1108  0.2915  0.1778
  122MPD2    N1 1907   3.208   0.866  14.147 -0.8938  0.0840 -0.6625
  122MPD2    H7 1908   3.127   0.876  14.086 -1.1138 -0.5737 -0.4742
  123TMC2    C1 1909   0.740   4.603   9.831  0.3344 -0.7176 -0.2661
  123TMC2    C2 1910   0.737   4.731   9.869 -0.1393 -0.2209 -0.2864
  123TMC2    C3 1911   0.858   0.040   9.913 -0.0961 -0.4422 -0.0924
  123TMC2    C4 1912   0.848   4.524   9.847 -0.1598 -0.3039 -0.2027
  123TMC2    C5 1913   0.962   4.572   9.902  0.0557  0.3103 -0.0743
  123TMC2    C6 1914   0.969   4.705   9.935 -0.2134  0.0257  0.2241
  123TMC2     C 1915   0.613   4.534   9.809  0.4790 -0.1875 -0.1398
  123TMC2     O 1916   0.604   4.419   9.847  0.3239  0.4729  0.0740
  123TMC2     H 1917   0.651   0.055   9.859 -0.3926 -0.5296 -0.1385
  123TMC2    H1 1918   0.847   4.416   9.839  2.5986 -0.4281  1.0750
  123TMC2    H2 1919   1.063   0.014   9.953  0.5007 -0.6409 -1.5649
  123TMC2    C7 1920   1.059   4.489   9.969 -0.0861  0.2601  0.6929
  123TMC2    C8 1921   0.875   0.184   9.892  0.0544 -1.0050  0.7029
  123TMC2    O1 1922   1.040   4.372   9.960  0.4778 -0.5175 -0.5002
  123TMC2    O2 1923   0.806   0.243   9.810  0.2884  0.0305  0.0089
  123TMC2    O5 1924   0.942   0.235   9.998 -0.2813  0.0315  0.3016
  123TMC2    H5 1925   0.978   0.168  10.059  0.1244 -0.5433 -0.5660
  124MPD2     C 1926   0.109   4.575   9.691 -0.3154 -0.3331  0.3052
  124MPD2    C1 1927   0.183   4.681   9.633 -0.7313  0.7204  0.5088
  124MPD2    C2 1928   0.321   4.689   9.647 -0.0036 -0.7796  0.0838
  124MPD2    C3 1929   0.388   4.591   9.717  0.1890 -0.3719 -0.0978
  124MPD2    C4 1930   0.317   4.490   9.768  0.0620  0.0976  0.0847
  124MPD2    C5 1931   0.178   4.484   9.763 -1.0519  0.1739  0.0409
  124MPD2     H 1932   0.372   0.037   9.612  1.3945 -0.7393  2.2403
  124MPD2    H1 1933   0.362   4.410   9.825 -2.1627 -0.0806  1.5747
  124MPD2    H2 1934   0.001   4.562   9.689 -0.0511 -2.2935 -1.1215
  124MPD2    H3 1935   0.119   4.410   9.815 -1.6305  0.5434 -0.0887
  124MPD2     N 1936   0.527   4.612   9.740 -0.0664 -0.2240 -0.1867
  124MPD2    H5 1937   0.567   4.691   9.690 -0.6892  0.6680  0.7126
  124MPD2    N1 1938   0.116   0.051   9.569 -0.0023  0.7722 -0.3765
  124MPD2    H7 1939   0.017   0.064   9.587 -0.5840 -0.6188 -2.5479
  125TMC2    C1 1940   2.768   1.698   9.522 -0.0848  0.0954  0.7541
  125TMC2    C2 1941   2.746   1.770   9.407 -0.0456  0.7290 -0.4743
  125TMC2    C3 1942   2.839   1.750   9.306  0.1631 -0.1675  0.1246
  125TMC2    C4 1943   2.865   1.604   9.529  0.4926  0.2891  0.2213
  125TMC2    C5 1944   2.950   1.588   9.431 -0.3411 -0.4154  0.8184
  125TMC2    C6 1945   2.947   1.663   9.312  0.3722 -0.6401 -0.9194
  125TMC2     C 1946   2.659   1.704   9.624 -0.9687  0.2071 -0.2591
  125TMC2     O 1947   2.576   1.788   9.598 -0.0508  1.2300  0.5893
  125TMC2     H 1948   2.681   1.856   9.413 -1.7855 -0.5413 -1.3000
  125TMC2    H1 1949   2.887   1.558   9.625 -1.0197 -0.4778  0.2001
  125TMC2    H2 1950   3.022   1.651   9.235  0.7989 -0.5897 -0.5137
  125TMC2    C7 1951   3.054   1.495   9.456  0.0254 -0.1859  1.0763
  125TMC2    C8 1952   2.855   1.853   9.202 -0.2098 -0.0477 -0.0725
  125TMC2    O1 1953   3.048   1.433   9.564  0.1585 -0.6218  0.2439
  125TMC2    O2 1954   2.969   1.894   9.181 -0.0531 -0.2382  0.5447
  125TMC2    O5 1955   2.738   1.921   9.185 -0.2044  0.0533  1.0272
  125TMC2    H5 1956   2.658   1.866   9.201  0.0903 -0.2798  1.3406
  126MPD1     C 1957   2.375   1.537  10.018  0.3427  0.1115  0.4938
  126MPD1    C1 1958   2.479   1.448  10.004  0.4849  0.6094 -0.5879
  126MPD1    C2 1959   2.575   1.472   9.902  0.2081 -0.3195  0.5018
  126MPD1    C3 1960   2.578   1.590   9.827  0.1332 -0.2301 -0.8548
  126MPD1    C4 1961   2.473   1.679   9.855  0.1430  0.5410  0.2493
  126MPD1    C5 1962   2.376   1.655   9.950 -0.4357  0.4359  0.7645
  126MPD1     H 1963   2.645   1.390   9.892 -1.9027 -1.9101 -1.1126
  126MPD1    H1 1964   2.465   1.778   9.811  0.3651  0.2813 -0.3867
  126MPD1    H2 1965   2.289   1.518  10.082 -0.9454  0.3021 -1.1780
  126MPD1    H3 1966   2.299   1.726   9.972 -0.5048  0.0605  1.7184
  126MPD1     N 1967   2.668   1.609   9.722 -0.6002 -0.5588 -0.3466
  126MPD1    H5 1968   2.743   1.543   9.702 -0.6617 -0.0370 -2.3338
  126MPD1    N1 1969   2.474   1.324  10.060  0.3929  0.1061 -0.3618
  126MPD1    H6 1970   2.561   1.285  10.094  0.2901  1.6900  1.7112
  126MPD1    H7 1971   2.404   1.321  10.134  0.2960  1.6808 -0.3900
  127TMC2    C1 1972   3.651   0.482   9.979  0.1791  0.1511 -0.5340
  127TMC2    C2 1973   3.695   0.491  10.113 -0.3195  0.3227  0.4255
  127TMC2    C3 1974   3.613   0.436  10.210  0.4806 -0.5512  0.0235
  127TMC2    C4 1975   3.533   0.421   9.944 -0.2267 -0.5757  0.0874
  127TMC2    C5 1976   3.471   0.344  10.040 -0.1322 -0.2856  0.1715
  127TMC2    C6 1977   3.510   0.353  10.174 -0.3782 -0.2283  0.6095
  127TMC2     C 1978   3.747   0.527   9.886  0.5285 -0.2705  0.0770
  127TMC2     O 1979   3.848   0.571   9.937  0.3390  0.2926  0.2132
  127TMC2     H 1980   3.781   0.550  10.145  1.2078 -0.5208 -2.0802
  127TMC2    H1 1981   3.489   0.432   9.846  1.2408 -0.2948 -0.5407
  127TMC2    H2 1982   3.445   0.307  10.247 -0.2981 -0.4211  0.5619
  127TMC2    C7 1983   3.413   0.224   9.989  0.1061 -0.3142 -0.0010
  127TMC2    C8 1984   3.646   0.437  10.345  0.1679 -0.2600  0.3791
  127TMC2    O1 1985   3.380   0.221   9.874 -0.3035 -0.3955 -0.0885
  127TMC2    O2 1986   3.763   0.435  10.375  0.2339  0.2578  0.3076
  127TMC2    O5 1987   3.544   0.505  10.403 -0.1239 -0.8482 -0.3357
  127TMC2    H5 1988   3.467   0.522  10.344  1.1173  0.7676 -1.4633
  128MPD2     C 1989   3.738   0.505   9.521 -0.1286  0.0733 -0.5318
  128MPD2    C1 1990   3.788   0.539   9.647 -0.4111  0.2680 -0.6363
  128MPD2    C2 1991   3.915   0.588   9.652 -0.6589 -1.0447 -0.2010
  128MPD2    C3 1992   3.978   0.638   9.538  0.7103  0.0180  0.3322
  128MPD2    C4 1993   3.915   0.617   9.417 -0.3988 -0.0283  0.3949
  128MPD2    C5 1994   3.801   0.549   9.408  0.7251  0.1546  0.1883
  128MPD2     H 1995   3.958   0.614   9.748  0.6239 -0.8220 -0.8433
  128MPD2    H1 1996   3.952   0.654   9.322 -3.0278 -0.1054 -0.6858
  128MPD2    H2 1997   3.643   0.455   9.505 -0.0314 -0.4482  0.5194
  128MPD2    H3 1998   3.758   0.538   9.310  0.1671 -2.5626  0.7362
  128MPD2     N 1999   4.105   0.705   9.547  0.6622 -0.4918 -0.0613
  128MPD2    H5 2000   4.153   0.713   9.636  0.2831  1.2948 -0.0090
  128MPD2    N1 2001   3.706   0.509   9.759 -0.0298  0.6608  0.8086
  128MPD2    H7 2002   3.627   0.450   9.734 -0.2762  1.3820 -0.1036
  129TMC2    C1 2003   1.699   1.195   1.432  0.4968  0.0192  0.2555
  129TMC2    C2 2004   1.806   1.199   1.340 -0.2279 -0.4295  0.4082
  129TMC2    C3 2005   1.897   1.101   1.342 -0.4864 -0.3648  0.1632
  129TMC2    C4 2006   1.689   1.084   1.514  0.8298 -0.6662 -0.3497
  129TMC2    C5 2007   1.783   0.984   1.510 -0.3216  0.1452  0.3856
  129TMC2    C6 2008   1.893   0.993   1.424  0.5386 -0.3691  0.2911
  129TMC2     C 2009   1.615   1.308   1.462 -1.6508  0.6950 -0.4826
  129TMC2     O 2010   1.514   1.292   1.533 -0.0804 -0.4229  0.2359
  129TMC2     H 2011   1.819   1.288   1.279  0.5535 -0.2494  0.8346
  129TMC2    H1 2012   1.598   1.069   1.570  0.1775  2.6132 -0.5464
  129TMC2    H2 2013   1.973   0.919   1.424  0.9312  0.0585  1.1357
  129TMC2    C7 2014   1.736   0.851   1.537 -0.3563  0.2108  0.6195
  129TMC2    C8 2015   1.985   1.103   1.227  0.2426  0.3553 -0.3389
  129TMC2    O1 2016   1.615   0.841   1.531  0.4528  0.1066 -0.0152
  129TMC2    O2 2017   2.015   1.204   1.165  0.0981 -0.0666  0.1418
  129TMC2    O5 2018   1.981   0.970   1.174  0.0896  0.6479 -0.2446
  129TMC2    H5 2019   1.932   0.907   1.231  1.7121  0.9583  1.5067
  130MPD2     C 2020   1.500   1.585   1.490  0.1160  0.4276  0.2789
  130MPD2    C1 2021   1.598   1.544   1.400 -0.0215  0.2236  0.2064
  130MPD2    C2 2022   1.647   1.638   1.308  0.1136  0.2458  0.5359
  130MPD2    C3 2023   1.595   1.765   1.306 -0.2968  0.5521  0.0112
  130MPD2    C4 2024   1.515   1.813   1.409 -0.0572 -0.5632  0.1939
  130MPD2    C5 2025   1.466   1.718   1.494  1.0483  0.0454  0.7728
  130MPD2     H 2026   1.709   1.590   1.234  0.9677  3.5135 -0.8653
  130MPD2    H1 2027   1.498   1.918   1.425 -1.6716 -0.9903  1.2707
  130MPD2    H2 2028   1.463   1.513   1.562  2.9428 -2.4462 -1.0942
  130MPD2    H3 2029   1.388   1.754   1.560 -1.6571  1.2982 -3.0799
  130MPD2     N 2030   1.651   1.847   1.200 -0.0175 -0.0196  0.3269
  130MPD2    H5 2031   1.704   1.796   1.130 -2.5734  0.8617 -2.2426
  130MPD2    N1 2032   1.651   1.413   1.385 -0.4323 -0.9014 -0.1422
  130MPD2    H7 2033   1.720   1.392   1.314 -0.1275 -1.6841  0.3843
  131TMC2    C1 2034   0.681   0.837   9.574  0.3187  0.4123 -0.3583
  131TMC2    C2 2035   0.784   0.746   9.587  0.1666 -0.1349  0.6509
  131TMC2    C3 2036   0.900   0.796   9.634  0.3676 -0.0142 -0.1091
  131TMC2    C4 2037   0.688   0.970   9.608 -0.2618 -0.3560  0.4888
  131TMC2    C5 2038   0.810   1.002   9.668 -1.2136 -0.2974  0.1708
  131TMC2    C6 2039   0.918   0.918   9.677 -0.7405  0.9714 -0.0583
  131TMC2     C 2040   0.553   0.789   9.536 -0.0053  0.0292 -0.0867
  131TMC2     O 2041   0.546   0.664   9.550 -0.4621  0.3673 -0.4800
  131TMC2     H 2042   0.771   0.649   9.540  0.3740  0.7080 -1.1431
  131TMC2    H1 2043   0.604   1.037   9.599 -0.9575 -0.9751  2.2464
  131TMC2    H2 2044   1.022   0.946   9.693 -0.1290 -2.2821  1.5850
  131TMC2    C7 2045   0.835   1.136   9.697  0.6514 -0.3792 -0.3657
  131TMC2    C8 2046   1.022   0.712   9.630 -0.5308 -0.0017  0.1606
  131TMC2    O1 2047   0.755   1.216   9.658  0.5068 -0.5995 -0.8366
  131TMC2    O2 2048   1.134   0.754   9.660 -0.1239 -0.4680  0.2069
  131TMC2    O5 2049   0.985   0.586   9.651 -0.0851 -0.3385  0.9388
  131TMC2    H5 2050   0.888   0.572   9.649 -0.1344 -0.4105  3.1263
  132MPD2     C 2051   0.374   0.909   9.243 -0.8310 -0.3066  0.2177
  132MPD2    C1 2052   0.391   0.821   9.344 -0.1312 -0.4873  0.6402
  132MPD2    C2 2053   0.315   0.710   9.355  0.0079  0.0877  0.4178
  132MPD2    C3 2054   0.229   0.680   9.248 -0.4293  0.1562  0.0888
  132MPD2    C4 2055   0.214   0.756   9.137  0.4221  0.5502 -0.4372
  132MPD2    C5 2056   0.285   0.875   9.138 -0.2218  0.9141 -0.0221
  132MPD2     H 2057   0.323   0.644   9.442 -0.1889  0.6974  0.8967
  132MPD2    H1 2058   0.138   0.735   9.061  1.8496 -0.2477 -1.6513
  132MPD2    H2 2059   0.441   0.994   9.239  1.1331 -1.8388  0.0476
  132MPD2    H3 2060   0.277   0.942   9.054  0.8554  3.8382  2.2117
  132MPD2     N 2061   0.157   0.553   9.260 -0.6342 -0.7793 -0.3457
  132MPD2    H5 2062   0.157   0.514   9.354  1.3734 -1.1230 -0.4813
  132MPD2    N1 2063   0.496   0.862   9.433  0.4181 -0.0400 -0.0399
  132MPD2    H7 2064   0.546   0.948   9.413  0.8123  0.1192  1.6416
  133TMC2    C1 2065   4.549   0.794   9.111  0.4477  0.3269  0.1120
  133TMC2    C2 2066   4.602   0.916   9.100  0.1862  0.2061  0.1014
  133TMC2    C3 2067   4.620   0.967   8.976  0.2446 -0.3205 -0.3564
  133TMC2    C4 2068   4.506   0.719   9.007 -0.1401  0.4326 -0.3843
  133TMC2    C5 2069   4.509   0.777   8.886 -0.6833 -0.3693 -0.2109
  133TMC2    C6 2070   4.571   0.896   8.860 -0.8165  0.2591  0.2034
  133TMC2     C 2071   4.573   0.730   9.243  0.9533  0.4489 -0.4066
  133TMC2     O 2072   4.648   0.785   9.321  0.0684  0.6521 -0.5900
  133TMC2     H 2073   4.642   0.962   9.189 -1.3042 -0.8250  1.3058
  133TMC2    H1 2074   4.470   0.617   9.019 -2.2177  1.2045 -0.0903
  133TMC2    H2 2075   4.592   0.933   8.760  2.0194  1.2479  1.1546
  133TMC2    C7 2076   4.423   0.710   8.778  0.6089  0.3882 -0.3288
  133TMC2    C8 2077   4.707   1.082   8.963 -0.3306  0.1078  0.4979
  133TMC2    O1 2078   4.441   0.733   8.659 -0.1226 -0.1955  0.6364
  133TMC2    O2 2079   0.060   1.104   9.036 -0.1684 -0.1138  0.7454
  133TMC2    O5 2080   4.667   1.164   8.864 -0.3179  0.4930 -0.1417
  133TMC2    H5 2081   4.571   1.154   8.848 -0.2103  0.6153 -0.8590
  134MPD2     C 2082   4.345   0.511   9.436 -0.0681  0.5326  0.0773
  134MPD2    C1 2083   4.462   0.573   9.398 -0.1216  0.0387 -0.2143
  134MPD2    C2 2084   4.575   0.557   9.469 -0.5479 -0.3387 -0.1905
  134MPD2    C3 2085   4.564   0.497   9.594 -0.5939  1.0170 -0.4050
  134MPD2    C4 2086   4.445   0.450   9.643 -0.8408 -0.1536  0.2011
  134MPD2    C5 2087   4.339   0.444   9.563  0.7789  0.0554 -0.9208
  134MPD2     H 2088   4.672   0.595   9.439 -1.6761  2.2746 -0.4999
  134MPD2    H1 2089   4.431   0.412   9.743  2.9785  0.0587  0.8399
  134MPD2    H2 2090   4.251   0.519   9.382  0.6877  2.1644 -0.9938
  134MPD2    H3 2091   4.244   0.404   9.596  0.1993  2.2580  0.0945
  134MPD2     N 2092   4.681   0.467   9.674  0.3974 -0.0260 -0.0760
  134MPD2    H5 2093   4.661   0.423   9.764  3.7371 -0.2014  0.5719
  134MPD2    N1 2094   4.473   0.637   9.271 -0.1186  0.2897 -0.4306
  134MPD2    H7 2095   4.388   0.631   9.214  1.0455  0.2124 -2.1761
  135TMC2    C1 2096   2.860   1.811  10.031 -0.5290  0.6803 -0.7044
  135TMC2    C2 2097   2.879   1.862  10.156  0.6631  0.2002 -0.2446
  135TMC2    C3 2098   2.902   1.783  10.273 -0.2582  0.4601  0.1614
  135TMC2    C4 2099   2.873   1.678  10.014 -0.1172 -0.3310 -0.2956
  135TMC2    C5 2100   2.892   1.594  10.129  0.5275 -0.5491  0.3178
  135TMC2    C6 2101   2.897   1.647  10.258  0.4876  0.1090  0.6880
  135TMC2     C 2102   2.882   1.903   9.914  0.1661  0.6652  0.2716
  135TMC2     O 2103   2.845   2.019   9.940 -0.3235  0.3458  0.1130
  135TMC2     H 2104   2.850   1.965  10.173 -0.5802 -0.3482  0.9721
  135TMC2    H1 2105   2.851   1.630   9.919  0.2185  0.8058 -0.9392
  135TMC2    H2 2106   2.910   1.585  10.346 -0.0105 -1.6637 -0.4876
  135TMC2    C7 2107   2.865   1.451  10.115  0.5739 -0.6855  0.4722
  135TMC2    C8 2108   2.918   1.838  10.399  0.3051  1.2775  0.4319
  135TMC2    O1 2109   2.895   1.406  10.009 -0.2582 -0.2683 -0.2003
  135TMC2    O2 2110   2.839   1.919  10.438  0.4998 -0.4599  0.3827
  135TMC2    O5 2111   3.045   1.820  10.430 -0.5405  0.2905 -0.9509
  135TMC2    H5 2112   3.087   1.757  10.369  0.6070 -0.6133  0.7567
  136MPD2     C 2113   2.895   2.029   9.645  0.3696 -0.3841 -0.0033
  136MPD2    C1 2114   2.972   1.917   9.684  0.1009  0.3628 -0.0937
  136MPD2    C2 2115   3.064   1.867   9.600 -0.0375 -0.3045 -0.7227
  136MPD2    C3 2116   3.089   1.927   9.480  0.7415 -0.5958 -0.0502
  136MPD2    C4 2117   3.006   2.034   9.441  0.9313  0.2020 -0.1645
  136MPD2    C5 2118   2.915   2.088   9.524 -0.8474  0.2960  0.0460
  136MPD2     H 2119   3.117   1.778   9.631 -3.8841 -2.5866 -0.7378
  136MPD2    H1 2120   3.037   2.085   9.350  1.4715  0.0353 -0.0715
  136MPD2    H2 2121   2.823   2.078   9.710  1.2538  0.9113 -0.0102
  136MPD2    H3 2122   2.860   2.178   9.496  0.2285  0.6520 -0.9215
  136MPD2     N 2123   3.190   1.897   9.391 -0.0402  0.0471  0.1636
  136MPD2    H5 2124   3.175   1.937   9.299 -0.4309  1.7022  0.9442
  136MPD2    N1 2125   2.953   1.842   9.808 -0.2528  0.1349  0.1712
  136MPD2    H7 2126   3.001   1.754   9.821  3.0985  2.1721  1.4384
  137TMC2    C1 2127   2.508   1.128   9.757  0.1076  0.1330 -0.0936
  137TMC2    C2 2128   2.605   1.143   9.659  0.4227  0.1699 -1.0095
  137TMC2    C3 2129   2.576   1.232   9.564 -0.8651 -0.6311  0.0588
  137TMC2    C4 2130   2.403   1.214   9.771 -0.6075 -0.1541 -0.1279
  137TMC2    C5 2131   2.387   1.307   9.678 -0.1373 -0.0411 -0.7143
  137TMC2    C6 2132   2.468   1.312   9.570  0.5753  0.5208 -0.5791
  137TMC2     C 2133   2.529   1.023   9.848  0.3471  0.0908 -0.0188
  137TMC2     O 2134   2.634   0.961   9.854  0.4806  0.3069  0.0627
  137TMC2     H 2135   2.692   1.079   9.649 -0.0367 -1.1306  3.0781
  137TMC2    H1 2136   2.345   1.215   9.862 -0.4102  0.8283 -0.0113
  137TMC2    H2 2137   2.444   1.375   9.486  0.3311 -0.3074 -1.1328
  137TMC2    C7 2138   2.266   1.391   9.669  0.7557 -0.7233  0.0522
  137TMC2    C8 2139   2.670   1.277   9.465  0.4794 -0.4818 -0.5784
  137TMC2    O1 2140   2.281   1.487   9.598 -0.0853 -0.1153 -0.0914
  137TMC2    O2 2141   2.644   1.350   9.372 -0.5913 -0.1154  0.7806
  137TMC2    O5 2142   2.775   1.199   9.471 -0.3366  0.4109 -0.5274
  137TMC2    H5 2143   2.795   1.165   9.561 -0.5822 -1.6673 -1.2377
  138MPD2     C 2144   2.261   0.817   9.999  0.0560  0.6760  0.2134
  138MPD2    C1 2145   2.389   0.852   9.970  0.4909 -0.1084  0.0497
  138MPD2    C2 2146   2.496   0.775  10.020  0.1053  0.4514 -0.2477
  138MPD2    C3 2147   2.457   0.653  10.079  0.2563  0.1975  0.5754
  138MPD2    C4 2148   2.324   0.620  10.109 -0.0848  0.1279  0.3169
  138MPD2    C5 2149   2.227   0.705  10.071  0.1917  0.3022  0.4467
  138MPD2     H 2150   2.599   0.787   9.989  0.3615 -1.1965 -0.0507
  138MPD2    H1 2151   2.288   0.532  10.161  3.5356 -0.6034  1.5539
  138MPD2    H2 2152   2.177   0.875   9.962 -0.3716 -0.1284 -0.0891
  138MPD2    H3 2153   2.128   0.682  10.108 -0.4782 -0.1756 -1.6471
  138MPD2     N 2154   2.561   0.576  10.115 -0.3783  0.2601  0.2066
  138MPD2    H5 2155   2.648   0.627  10.115  1.5750 -3.0406 -1.4443
  138MPD2    N1 2156   2.406   0.969   9.888  0.4633 -0.1465 -0.2419
  138MPD2    H7 2157   2.324   1.022   9.861  0.1697  0.5380  1.9703
  139TMC2    C1 2158   2.936   3.640  13.471 -0.3884  0.6706 -0.1056
  139TMC2    C2 2159   3.052   3.709  13.447 -0.5883  0.2175  0.1397
  139TMC2    C3 2160   3.039   3.851  13.445  0.3737 -0.6276 -0.5489
  139TMC2    C4 2161   2.812   3.697  13.492 -0.2749  0.7407 -0.0503
  139TMC2    C5 2162   2.806   3.832  13.482  0.2959  0.2355  0.5042
  139TMC2    C6 2163   2.918   3.910  13.462  0.4365 -0.1735 -0.2508
  139TMC2     C 2164   2.952   3.494  13.458  0.3088  0.0185 -0.1998
  139TMC2     O 2165   3.063   3.446  13.481 -0.2926 -0.4076  0.4922
  139TMC2     H 2166   3.143   3.654  13.428 -0.6304  0.2751 -0.2188
  139TMC2    H1 2167   2.735   3.628  13.524  0.3461 -0.1840 -0.5395
  139TMC2    H2 2168   2.908   4.018  13.455 -2.0494 -0.2576  1.9289
  139TMC2    C7 2169   2.692   3.906  13.534 -0.4501 -0.0755  0.0556
  139TMC2    C8 2170   3.140   3.932  13.378  0.4711 -0.2860 -0.4625
  139TMC2    O1 2171   2.711   4.026  13.540  0.4262  0.4358 -0.3802
  139TMC2    O2 2172   3.121   4.054  13.360  0.2601  0.1794 -0.1299
  139TMC2    O5 2173   3.236   3.851  13.319 -0.0315  0.0919 -0.4924
  139TMC2    H5 2174   3.244   3.757  13.346 -1.1185 -0.2679 -1.4257
  140MPD2     C 2175   2.714   3.288  13.280  0.5565  0.0022 -0.1930
  140MPD2    C1 2176   2.828   3.301  13.352 -0.5291  0.7056 -0.5526
  140MPD2    C2 2177   2.905   3.189  13.387  0.1807  0.4178  0.1538
  140MPD2    C3 2178   2.851   3.068  13.359  0.1239  0.0938  0.3295
  140MPD2    C4 2179   2.726   3.054  13.292 -0.2763  1.0255 -0.5157
  140MPD2    C5 2180   2.664   3.167  13.245 -0.0230  0.3347 -0.6014
  140MPD2     H 2181   2.997   3.206  13.441 -0.0799  0.0034  0.7312
  140MPD2    H1 2182   2.677   2.958  13.281  4.6924 -2.1188  4.3851
  140MPD2    H2 2183   2.653   3.370  13.245  0.2504 -1.1159 -2.2345
  140MPD2    H3 2184   2.567   3.161  13.197  0.0217 -1.2162 -0.4947
  140MPD2     N 2185   2.913   2.955  13.409  0.3034 -0.6299  0.7953
  140MPD2    H5 2186   3.004   2.967  13.451  1.8806 -1.0380 -2.4904
  140MPD2    N1 2187   2.847   3.436  13.392  0.0207 -0.2244  0.7654
  140MPD2    H7 2188   2.782   3.503  13.352  1.0080 -0.3278 -1.0315
  141TMC2    C1 2189   3.202   4.648  15.021  0.4255 -0.0123 -0.6668
  141TMC2    C2 2190   3.295   4.595  15.111  0.4655  0.3236  0.7432
  141TMC2    C3 2191   3.313   4.659  15.227  0.4232 -0.2851 -0.1015
  141TMC2    C4 2192   3.135   0.018  15.062 -0.2807  0.4633 -0.3661
  141TMC2    C5 2193   3.171   0.094  15.167  0.9041  0.3607 -0.6939
  141TMC2    C6 2194   3.261   0.042  15.252  0.6176  0.4703 -0.7516
  141TMC2     C 2195   3.218   4.621  14.876 -0.0459  0.2739  0.2567
  141TMC2     O 2196   3.171   4.694  14.792  0.1997 -0.1186 -0.3058
  141TMC2     H 2197   3.354   4.507  15.088 -0.7308 -0.3873  0.3576
  141TMC2    H1 2198   3.072   0.071  14.991 -0.0328  1.0140 -0.1830
  141TMC2    H2 2199   3.286   0.102  15.339  0.2152  0.3820 -0.5734
  141TMC2    C7 2200   3.191   0.228  15.119 -0.1361  0.0527  1.1732
  141TMC2    C8 2201   3.403   4.597  15.320 -0.2583 -0.1936 -0.7619
  141TMC2    O1 2202   3.098   0.273  15.056 -0.4544  0.0750  0.3671
  141TMC2    O2 2203   3.417   4.477  15.319  0.6106 -0.1548 -0.6291
  141TMC2    O5 2204   3.455   4.679  15.416  0.5907  0.0447  0.3653
  141TMC2    H5 2205   3.461   0.031  15.387 -1.5680 -0.0498 -0.4322
  142TMC2    C1 2206   1.260   3.751  10.326 -0.0764 -0.4183 -0.7857
  142TMC2    C2 2207   1.392   3.733  10.296 -0.1004 -0.1385  0.5543
  142TMC2    C3 2208   1.475   3.842  10.297  0.1044 -0.3777 -0.6691
  142TMC2    C4 2209   1.212   3.880  10.346  0.5017 -0.1732  0.1593
  142TMC2    C5 2210   1.299   3.986  10.348  0.2515 -0.1403 -0.0865
  142TMC2    C6 2211   1.430   3.970  10.316  0.2271  0.0650  0.0402
  142TMC2     C 2212   1.163   3.642  10.319 -0.2054 -0.4685  0.0327
  142TMC2     O 2213   1.209   3.529  10.337 -0.1280  0.0777 -0.2636
  142TMC2     H 2214   1.432   3.633  10.279 -1.1176 -0.3381 -0.6877
  142TMC2    H1 2215   1.108   3.903  10.367  0.0974 -1.8791  0.0032
  142TMC2    H2 2216   1.497   4.055  10.307  2.3173 -1.3135  2.4498
  142TMC2    C7 2217   1.237   4.116  10.327  0.6640 -0.6869  0.7975
  142TMC2    C8 2218   1.616   3.824  10.306 -0.4032 -0.1964 -0.7743
  142TMC2    O1 2219   1.136   4.125  10.264 -0.1390 -0.0537 -0.1301
  142TMC2    O2 2220   1.685   3.923  10.326 -0.3443 -0.1658 -0.6939
  142TMC2    O5 2221   1.652   3.721  10.230  0.1129 -0.5824 -0.1014
  142TMC2    H5 2222   1.576   3.678  10.184 -0.4552  1.4620 -1.0604
  143MPD2     C 2223   0.674   3.469  10.366 -0.2606  0.7756  0.4257
  143MPD2    C1 2224   0.798   3.402  10.369  0.2728 -0.5094 -0.0021
  143MPD2    C2 2225   0.914   3.467  10.344 -0.2058 -0.5729 -0.1006
  143MPD2    C3 2226   0.915   3.600  10.326  0.8060  0.1624  0.1282
  143MPD2    C4 2227   0.792   3.665  10.317 -0.9452  0.6759  0.1422
  143MPD2    C5 2228   0.674   3.606  10.340 -0.6032  0.7392  0.1989
  143MPD2     H 2229   1.007   3.410  10.343 -0.7690 -1.5356  1.6550
  143MPD2    H1 2230   0.788   3.770  10.290  1.8554  0.9411  0.7623
  143MPD2    H2 2231   0.581   3.419  10.393  1.7086 -2.9692  0.3419
  143MPD2    H3 2232   0.586   3.669  10.337 -0.0790  1.5813  2.4569
  143MPD2     N 2233   1.028   3.680  10.299  0.1804  0.5183  0.2041
  143MPD2    H5 2234   1.018   3.776  10.268  2.5126  0.4340 -0.7335
  143MPD2    N1 2235   0.791   3.262  10.378 -0.0185 -0.5985  0.2050
  143MPD2    H7 2236   0.696   3.226  10.378 -0.1035 -0.3752  0.3153
  144TMC2    C1 2237   4.562   1.926   0.829  0.6353  0.6996  0.4599
  144TMC2    C2 2238   4.622   1.808   0.785  0.4765  0.3808  0.2060
  144TMC2    C3 2239   0.014   1.819   0.762 -0.2128  0.6274 -0.3166
  144TMC2    C4 2240   4.634   2.041   0.858  0.7058  0.3079 -0.2457
  144TMC2    C5 2241   0.030   2.036   0.851 -0.3914  0.1158  0.0378
  144TMC2    C6 2242   0.092   1.925   0.797  0.1035 -0.0903  0.2736
  144TMC2     C 2243   4.415   1.940   0.821 -0.4819  0.2107  0.2849
  144TMC2     O 2244   4.347   1.839   0.810 -0.0714 -0.5490 -0.7825
  144TMC2     H 2245   4.565   1.727   0.741 -1.8681  2.0873  0.0890
  144TMC2    H1 2246   4.585   2.130   0.897  0.3248 -0.3455  0.7735
  144TMC2    H2 2247   0.199   1.918   0.808  0.1816  4.2268  2.2916
  144TMC2    C7 2248   0.118   2.148   0.885 -0.4931  0.5308 -0.2728
  144TMC2    C8 2249   0.073   1.715   0.681 -0.0750  0.1964 -0.3814
  144TMC2    O1 2250   0.231   2.139   0.837  0.1581 -0.1479 -0.2420
  144TMC2    O2 2251   0.029   1.603   0.680  0.0535 -0.1221  0.1568
  144TMC2    O5 2252   0.190   1.745   0.631 -0.0511  0.6133  0.3657
  144TMC2    H5 2253   0.212   1.841   0.624  2.1884  0.2556  2.8527
  145MPD2     C 2254   4.040   2.185   0.573  0.3280 -0.9963  0.3430
  145MPD2    C1 2255   4.060   2.048   0.600  0.6056  0.9144 -0.4842
  145MPD2    C2 2256   4.174   2.009   0.662  0.4106  0.4261 -0.3144
  145MPD2    C3 2257   4.263   2.100   0.718  0.2459 -0.4148 -0.3349
  145MPD2    C4 2258   4.244   2.235   0.689 -0.0806  0.6793  0.5803
  145MPD2    C5 2259   4.134   2.269   0.613  0.1624 -0.1418 -0.2993
  145MPD2     H 2260   4.186   1.902   0.646  0.1414  0.1710  1.1306
  145MPD2    H1 2261   4.320   2.306   0.720  1.0392 -0.4598  0.4737
  145MPD2    H2 2262   3.966   2.231   0.508  1.4095  0.6150  0.2493
  145MPD2    H3 2263   4.118   2.373   0.589 -1.0907 -0.9550 -3.1226
  145MPD2     N 2264   4.374   2.073   0.794 -0.0598  0.1180 -0.3982
  145MPD2    H5 2265   4.445   2.145   0.802 -0.2873  0.1040  1.5579
  145MPD2    N1 2266   3.972   1.956   0.546  0.1932 -0.4422 -0.4534
  145MPD2    H7 2267   3.996   1.861   0.570  1.5667 -0.4194 -1.7386
  146TMC2    C1 2268   0.795   1.549  12.840 -0.5125  0.5150 -0.5994
  146TMC2    C2 2269   0.728   1.640  12.760 -0.7656  0.1509  0.4022
  146TMC2    C3 2270   0.754   1.645  12.631 -0.0055  0.1335  0.1545
  146TMC2    C4 2271   0.903   1.484  12.802  0.5122 -0.9086  0.0151
  146TMC2    C5 2272   0.940   1.505  12.673 -0.1871 -0.3676 -1.0253
  146TMC2    C6 2273   0.865   1.586  12.583  0.2053  0.2565 -0.0923
  146TMC2     C 2274   0.761   1.555  12.979  0.5608  0.6127 -0.2240
  146TMC2     O 2275   0.708   1.659  13.007  0.1507 -0.4221 -0.0641
  146TMC2     H 2276   0.632   1.680  12.788 -0.8182 -1.6099  2.7215
  146TMC2    H1 2277   0.960   1.429  12.876 -0.8478 -1.5958  0.5700
  146TMC2    H2 2278   0.885   1.609  12.479 -0.1025  0.9013 -0.0093
  146TMC2    C7 2279   1.035   1.425  12.609  0.3113 -0.2674  0.1600
  146TMC2    C8 2280   0.697   1.758  12.556 -0.3952 -0.6403  0.5260
  146TMC2    O1 2281   1.055   1.461  12.494  0.5515  0.3377  0.4762
  146TMC2    O2 2282   0.756   1.861  12.534  0.4312 -0.1068  0.2919
  146TMC2    O5 2283   0.645   1.681  12.459 -0.5645  0.1465 -0.3189
  146TMC2    H5 2284   0.613   1.596  12.497  0.2774  0.5163  1.1993
  147MPD2     C 2285   1.400   1.056  12.620 -0.1387  0.1716  0.3475
  147MPD2    C1 2286   1.316   1.030  12.729 -0.1043 -0.3470 -0.0689
  147MPD2    C2 2287   1.209   1.120  12.743 -0.3856 -0.1946  0.0594
  147MPD2    C3 2288   1.180   1.225  12.654 -0.6245  0.3223 -0.3036
  147MPD2    C4 2289   1.261   1.236  12.537 -0.6343 -0.2713 -0.3752
  147MPD2    C5 2290   1.371   1.152  12.522 -0.5079 -0.3821 -0.6303
  147MPD2     H 2291   1.140   1.110  12.826  1.0978 -0.7202  1.2295
  147MPD2    H1 2292   1.246   1.317  12.467  2.3644 -1.3245 -2.2258
  147MPD2    H2 2293   1.484   0.993  12.593 -1.3778 -3.1694  4.3251
  147MPD2    H3 2294   1.436   1.169  12.436  0.4177  0.3854  0.2153
  147MPD2     N 2295   1.073   1.314  12.684 -0.1701  0.3362  0.2669
  147MPD2    H5 2296   1.021   1.293  12.769  1.1168 -0.6239  0.8095
  147MPD2    N1 2297   1.348   0.928  12.819 -0.0310 -0.1534 -0.2082
  147MPD2    H7 2298   1.422   0.864  12.792  1.9457  1.3414  1.7495
  148TMC2    C1 2299   0.926   0.535  10.832 -0.1433  0.5283  0.3565
  148TMC2    C2 2300   0.941   0.590  10.960 -0.3704 -0.2872  0.4765
  148TMC2    C3 2301   1.041   0.527  11.036 -0.0359  0.2619  0.5203
  148TMC2    C4 2302   1.006   0.445  10.775  0.2974  0.8552  0.1173
  148TMC2    C5 2303   1.111   0.400  10.853 -0.6509  0.2335 -0.5689
  148TMC2    C6 2304   1.120   0.434  10.986  0.8812  0.3708 -0.3212
  148TMC2     C 2305   0.803   0.577  10.765 -0.2214  0.3509  0.2456
  148TMC2     O 2306   0.735   0.663  10.822  0.6062  0.3385 -0.5908
  148TMC2     H 2307   0.883   0.668  11.008 -2.3048 -2.0643  1.0326
  148TMC2    H1 2308   0.991   0.405  10.675  2.1624  0.1438  0.1152
  148TMC2    H2 2309   1.194   0.386  11.050  2.8139  1.3978 -1.7895
  148TMC2    C7 2310   1.178   0.286  10.802 -0.5220 -0.9096  0.0549
  148TMC2    C8 2311   1.086   0.590  11.160  0.2061  0.5696 -0.1814
  148TMC2    O1 2312   1.142   0.256  10.687 -0.0262 -0.1642  0.3823
  148TMC2    O2 2313   1.186   0.657  11.167  0.1188 -0.2678 -0.3218
  148TMC2    O5 2314   0.970   0.594  11.235  0.0847 -0.0528  0.1800
  148TMC2    H5 2315   0.902   0.526  11.215 -0.9352  0.9681  0.1738
  149MPD2     C 2316   0.539   0.567  10.611 -0.1407  0.4264  1.0826
  149MPD2    C1 2317   0.629   0.464  10.624 -0.8914 -0.4404  0.3128
  149MPD2    C2 2318   0.600   0.349  10.563 -0.0933  0.2425 -0.3251
  149MPD2    C3 2319   0.478   0.322  10.517  0.3028 -0.4557  0.0423
  149MPD2    C4 2320   0.383   0.425  10.507  0.6100 -0.5241  0.2159
  149MPD2    C5 2321   0.419   0.556  10.538 -0.3195  0.6511 -0.0079
  149MPD2     H 2322   0.673   0.269  10.567  0.4870  0.7605 -0.5697
  149MPD2    H1 2323   0.286   0.410  10.463  1.3658 -0.8109 -1.3491
  149MPD2    H2 2324   0.556   0.667  10.649 -0.0304  1.5851 -1.9404
  149MPD2    H3 2325   0.363   0.647  10.515 -1.3474  0.0690  0.2096
  149MPD2     N 2326   0.436   0.190  10.478 -0.1191  0.3571 -0.2937
  149MPD2    H5 2327   0.346   0.181  10.431  0.8013 -2.2566 -1.5765
  149MPD2    N1 2328   0.757   0.479  10.680  0.3953  0.0604  0.1731
  149MPD2    H7 2329   0.821   0.402  10.662  1.8274  1.0219  1.1871
  150TMC2    C1 2330   3.260   4.155  12.545  0.0088  0.0212  0.0952
  150TMC2    C2 2331   3.251   4.253  12.450  0.1007 -0.3087  0.1477
  150TMC2    C3 2332   3.364   4.326  12.422  0.2691  0.1276  0.3701
  150TMC2    C4 2333   3.381   4.120  12.602 -0.2659  0.7394 -0.0985
  150TMC2    C5 2334   3.494   4.198  12.573 -0.1613 -0.1825 -0.3756
  150TMC2    C6 2335   3.487   4.306  12.483  0.2544  0.5402  0.4072
  150TMC2     C 2336   3.162   4.046  12.533 -0.2063  0.1476  0.3682
  150TMC2     O 2337   3.190   3.944  12.594 -0.5079 -0.7451  0.0753
  150TMC2     H 2338   3.168   4.261  12.380  0.8872  2.1487 -0.5025
  150TMC2    H1 2339   3.389   4.050  12.685  0.8085  0.6999 -0.2367
  150TMC2    H2 2340   3.569   4.374  12.463  1.3265 -1.7091 -2.8554
  150TMC2    C7 2341   3.625   4.157  12.613  0.0824 -0.1617  0.3512
  150TMC2    C8 2342   3.363   4.424  12.312 -0.4956  0.1713 -0.6644
  150TMC2    O1 2343   3.720   4.230  12.593  0.4955  0.2668 -0.3834
  150TMC2    O2 2344   3.467   4.456  12.256  0.2878  0.4268 -0.5790
  150TMC2    O5 2345   3.247   4.492  12.316  0.0952 -0.1694 -0.5843
  150TMC2    H5 2346   3.186   4.451  12.380  1.3874 -1.7724 -0.3980
  151MPD2     C 2347   2.671   3.898  12.401  0.0264  0.1913 -0.3996
  151MPD2    C1 2348   2.677   4.037  12.405 -0.0925 -0.4785  0.1283
  151MPD2    C2 2349   2.801   4.103  12.435  0.1844 -0.5995 -0.0509
  151MPD2    C3 2350   2.919   4.029  12.459 -0.8058  0.6697 -0.0838
  151MPD2    C4 2351   2.908   3.892  12.464  0.0897 -0.2704  0.8370
  151MPD2    C5 2352   2.787   3.830  12.426  0.0466  0.3321 -0.2675
  151MPD2     H 2353   2.794   4.211  12.445  1.2899 -0.6583  1.2702
  151MPD2    H1 2354   2.997   3.832  12.473 -0.4005 -1.5889 -2.9791
  151MPD2    H2 2355   2.581   3.840  12.386  0.1658 -0.3592  0.8953
  151MPD2    H3 2356   2.774   3.722  12.421 -1.0749  0.5784 -3.1134
  151MPD2     N 2357   3.042   4.098  12.486 -0.3780  0.0865 -0.8737
  151MPD2    H5 2358   3.035   4.195  12.458  1.3601  0.4233 -0.1412
  151MPD2    N1 2359   2.552   4.104  12.387 -0.7325 -0.3684  0.0995
  151MPD2    H7 2360   2.474   4.041  12.374  0.3167 -1.7083  0.2080
  152TMC2    C1 2361   2.746   3.949  12.778  0.5381  0.7820  0.2136
  152TMC2    C2 2362   2.808   3.831  12.783  0.1316 -0.4312  0.2003
  152TMC2    C3 2363   2.944   3.839  12.811 -0.3427  0.4501 -0.0821
  152TMC2    C4 2364   2.809   4.066  12.790  0.1619  0.4095 -0.4360
  152TMC2    C5 2365   2.943   4.063  12.810 -0.0659 -0.7286 -0.2063
  152TMC2    C6 2366   3.013   3.953  12.836  0.7231  0.3644 -0.0597
  152TMC2     C 2367   2.601   3.947  12.808  0.1436 -0.1779 -0.3344
  152TMC2     O 2368   2.545   4.056  12.815 -0.2808  0.2032  0.5139
  152TMC2     H 2369   2.761   3.735  12.771 -2.1466  0.4481  2.0820
  152TMC2    H1 2370   2.753   4.159  12.784 -1.4915 -0.6355 -1.1746
  152TMC2    H2 2371   3.121   3.954  12.834  0.7336  0.9574  0.5689
  152TMC2    C7 2372   3.005   4.193  12.807 -0.2772  0.1256 -0.0116
  152TMC2    C8 2373   3.017   3.718  12.792 -0.5005  0.6785  0.5475
  152TMC2    O1 2374   2.948   4.278  12.746  0.2950 -0.6260 -0.1533
  152TMC2    O2 2375   2.972   3.634  12.717  0.2295  0.4866 -0.4889
  152TMC2    O5 2376   3.117   3.702  12.881  0.3935  0.1708 -0.2630
  152TMC2    H5 2377   3.132   3.785  12.932 -0.0172 -0.9230  1.5963
  153MPD2     C 2378   2.335   3.689  12.778  0.0032 -0.6438  0.0624
  153MPD2    C1 2379   2.398   3.808  12.822 -0.1676 -0.5657 -0.4483
  153MPD2    C2 2380   2.331   3.893  12.909  0.6987 -0.0728  0.1266
  153MPD2    C3 2381   2.201   3.865  12.949 -0.3102 -0.1552  0.6219
  153MPD2    C4 2382   2.140   3.752  12.913 -0.3396 -0.8117  0.5477
  153MPD2    C5 2383   2.208   3.669  12.827  0.3934  0.2613 -0.1696
  153MPD2     H 2384   2.385   3.964  12.971 -1.2390  1.1996  0.3565
  153MPD2    H1 2385   2.037   3.723  12.930 -0.1295 -3.1271 -2.0291
  153MPD2    H2 2386   2.385   3.622  12.709  0.7215 -0.4871  0.4244
  153MPD2    H3 2387   2.160   3.578  12.793 -1.7330  1.0943  0.6032
  153MPD2     N 2388   2.134   3.958  13.032  0.2975 -0.2709 -0.8644
  153MPD2    H5 2389   2.181   4.048  13.038 -1.5607  0.6448  0.4365
  153MPD2    N1 2390   2.538   3.825  12.792  0.0719 -0.2435  0.1624
  153MPD2    H7 2391   2.586   3.745  12.753  0.0757 -0.7086  1.1350
  154TMC2    C1 2392   4.486   3.328   0.761 -0.8738  0.4153  0.3799
  154TMC2    C2 2393   4.582   3.387   0.842 -0.3830 -0.6424  0.4614
  154TMC2    C3 2394   4.706   3.337   0.832  0.7883 -0.5958 -0.0291
  154TMC2    C4 2395   4.512   3.221   0.680 -0.3063 -0.0066  0.2143
  154TMC2    C5 2396   4.642   3.179   0.679  0.1808 -0.0709 -0.2196
  154TMC2    C6 2397   4.739   3.241   0.744 -0.0010  0.3020 -0.3403
  154TMC2     C 2398   4.351   3.380   0.770 -0.4989 -0.0448  0.2089
  154TMC2     O 2399   4.335   3.471   0.853 -0.3327  0.0039  0.2563
  154TMC2     H 2400   4.549   3.460   0.916 -1.3996 -1.3148  0.6742
  154TMC2    H1 2401   4.439   3.155   0.636 -0.7845  0.5122  0.2244
  154TMC2    H2 2402   0.100   3.206   0.742 -0.8237 -2.1569  0.7741
  154TMC2    C7 2403   4.675   3.087   0.572 -0.4298  0.3362 -0.2636
  154TMC2    C8 2404   0.071   3.386   0.919 -0.1757  0.2118  0.8145
  154TMC2    O1 2405   4.578   3.040   0.514 -0.3019 -0.0314  0.5083
  154TMC2    O2 2406   0.175   3.327   0.924  0.0177  0.2321 -0.3636
  154TMC2    O5 2407   0.017   3.451   1.022 -0.0495 -0.2226 -0.1008
  154TMC2    H5 2408   4.665   3.476   1.007  0.0823  1.5510  1.9456
  155MPD2     C 2409   4.045   3.298   0.572  0.0978 -0.6461  0.1207
  155MPD2    C1 2410   4.124   3.354   0.676  0.0579 -0.2124 -0.7426
  155MPD2    C2 2411   4.057   3.436   0.768 -0.2638 -0.7932  0.4119
  155MPD2    C3 2412   3.920   3.470   0.753 -0.2637 -0.2362  0.4216
  155MPD2    C4 2413   3.843   3.397   0.668 -0.8962  0.0251  0.1116
  155MPD2    C5 2414   3.905   3.306   0.587 -0.8597 -0.6938  0.1410
  155MPD2     H 2415   4.107   3.482   0.854 -0.2783 -0.6625  0.3508
  155MPD2    H1 2416   3.736   3.413   0.671 -0.4427  3.0723 -0.3671
  155MPD2    H2 2417   4.084   3.226   0.502  1.8285  1.5544 -1.1878
  155MPD2    H3 2418   3.852   3.238   0.521 -0.3389  0.3057 -1.2962
  155MPD2     N 2419   3.870   3.566   0.849  0.1949  0.1092  0.3639
  155MPD2    H5 2420   3.942   3.589   0.916  1.0060  0.4643 -0.6211
  155MPD2    N1 2421   4.260   3.326   0.682  0.4599 -0.1828  0.1410
  155MPD2    H7 2422   4.306   3.262   0.618 -0.0842 -0.5739  0.1329
  156TMC2    C1 2423   3.169   1.265  11.539 -0.5933  0.2051  0.5926
  156TMC2    C2 2424   3.118   1.147  11.483  0.2441 -0.5344  1.0048
  156TMC2    C3 2425   3.019   1.160  11.382 -1.0294  0.3536  0.2933
  156TMC2    C4 2426   3.128   1.389  11.485 -0.6802  0.8714  0.3313
  156TMC2    C5 2427   3.020   1.387  11.393 -0.1881 -0.8600  0.3888
  156TMC2    C6 2428   2.954   1.275  11.347 -0.0881  0.1658  0.0662
  156TMC2     C 2429   3.193   1.274  11.681 -0.3482  0.2106 -0.9688
  156TMC2     O 2430   3.209   1.382  11.734  0.0320  0.3134  0.6374
  156TMC2     H 2431   3.144   1.050  11.523 -2.0308 -1.3926  0.4064
  156TMC2    H1 2432   3.187   1.478  11.501 -0.7242  1.0454 -0.4502
  156TMC2    H2 2433   2.884   1.276  11.264 -0.4320 -0.5943  0.3451
  156TMC2    C7 2434   2.941   1.508  11.386  0.2154 -0.2923  0.1922
  156TMC2    C8 2435   2.964   1.036  11.324  0.3127 -0.0798 -0.6632
  156TMC2    O1 2436   2.991   1.616  11.375  0.0774  0.0531 -0.2987
  156TMC2    O2 2437   2.850   1.020  11.279 -0.1088 -0.3345  0.9069
  156TMC2    O5 2438   3.062   0.947  11.333 -0.0090 -0.7323 -0.6676
  156TMC2    H5 2439   3.144   1.001  11.339  0.8861 -2.6160  4.3864
  157MPD2     C 2440   3.161   1.013  11.935  0.3506  0.5338 -0.1510
  157MPD2    C1 2441   3.160   1.140  11.887  0.0390  0.1538 -0.2336
  157MPD2    C2 2442   3.136   1.241  11.976  0.3978 -0.3176 -0.4323
  157MPD2    C3 2443   3.128   1.224  12.114 -0.6141  0.5295  0.4261
  157MPD2    C4 2444   3.116   1.098  12.156  0.0393 -0.3840 -0.6255
  157MPD2    C5 2445   3.140   0.993  12.071  0.1961 -0.1041 -0.7212
  157MPD2     H 2446   3.144   1.343  11.943 -1.1414  0.7841  2.5775
  157MPD2    H1 2447   3.113   1.074  12.262  1.4127 -1.0143 -0.7276
  157MPD2    H2 2448   3.187   0.930  11.872  0.1630 -0.9083  1.6793
  157MPD2    H3 2449   3.146   0.894  12.113  0.2381 -0.1662 -0.8745
  157MPD2     N 2450   3.131   1.336  12.204  0.0844 -0.0131  0.4805
  157MPD2    H5 2451   3.161   1.424  12.162  3.8133 -1.9297 -0.8881
  157MPD2    N1 2452   3.177   1.154  11.744 -0.1173  0.1692  0.4304
  157MPD2    H7 2453   3.190   1.069  11.690  1.0313  0.3763  0.3851
  158TMC2    C1 2454   3.315   0.216  13.683  0.1334 -0.2294 -0.6915
  158TMC2    C2 2455   3.396   0.299  13.610 -0.0156  0.4029  1.1865
  158TMC2    C3 2456   3.343   0.402  13.546 -0.0075  0.1624 -0.0452
  158TMC2    C4 2457   3.181   0.238  13.686 -0.5470  0.3183 -0.0697
  158TMC2    C5 2458   3.131   0.345  13.616  0.4432 -0.7256 -0.3823
  158TMC2    C6 2459   3.213   0.434  13.550 -0.4754  0.0984  1.4261
  158TMC2     C 2460   3.373   0.091  13.726 -0.6324 -0.5360  1.2634
  158TMC2     O 2461   3.483   0.050  13.697  0.7546  0.2945  0.0690
  158TMC2     H 2462   3.490   0.253  13.581 -0.6758  0.5021 -1.1333
  158TMC2    H1 2463   3.114   0.188  13.756  0.4008 -0.1366  0.5118
  158TMC2    H2 2464   3.179   0.510  13.481 -0.3156  0.6522  1.9567
  158TMC2    C7 2465   2.993   0.379  13.615  0.3657  0.3737 -0.1224
  158TMC2    C8 2466   3.420   0.456  13.433 -0.8068 -0.1196 -0.0495
  158TMC2    O1 2467   2.967   0.487  13.567 -0.2596 -0.4394  0.2491
  158TMC2    O2 2468   3.367   0.509  13.334 -0.4302 -0.5823  0.1730
  158TMC2    O5 2469   3.542   0.487  13.486 -0.2817 -0.0113 -0.2327
  158TMC2    H5 2470   3.573   0.436  13.564 -0.6599  0.8060  0.4520
  159MPD2     C 2471   3.323   4.391  13.992 -0.3356  0.3443 -0.2541
  159MPD2    C1 2472   3.197   4.446  13.974 -0.5930 -0.3143 -0.4001
  159MPD2    C2 2473   3.187   4.567  13.910  0.2266  0.2060  1.2016
  159MPD2    C3 2474   3.298   4.641  13.867  0.0067 -0.7480 -0.1904
  159MPD2    C4 2475   3.419   4.574  13.879  0.3171  0.0819 -0.6969
  159MPD2    C5 2476   3.432   4.458  13.945 -0.1817  0.0146 -0.0816
  159MPD2     H 2477   3.087   4.603  13.889  0.8179  0.8186 -0.4934
  159MPD2    H1 2478   3.510   4.620  13.843  0.3755  0.0518 -0.5878
  159MPD2    H2 2479   3.345   4.296  14.040 -2.6123  0.3840  0.8671
  159MPD2    H3 2480   3.529   4.411  13.948  0.7042  1.9188  0.7836
  159MPD2     N 2481   3.283   0.022  13.793 -0.1302  0.2751  0.1059
  159MPD2    H5 2482   3.196   0.072  13.811 -1.9837 -2.5791 -0.7794
  159MPD2    N1 2483   3.088   4.370  14.029 -0.1005 -0.6296 -0.0121
  159MPD2    H7 2484   3.105   4.275  14.058 -1.9000 -1.1587 -0.7237
  160TMC2    C1 2485   2.551   2.954   1.746 -0.2205 -0.0512  0.8654
  160TMC2    C2 2486   2.625   2.927   1.862 -1.3354  0.4372 -0.2886
  160TMC2    C3 2487   2.742   2.863   1.850  0.4850 -0.3525 -0.4060
  160TMC2    C4 2488   2.597   2.923   1.621 -0.6162  0.1687  0.0599
  160TMC2    C5 2489   2.710   2.852   1.619  0.1234 -0.4576  0.1635
  160TMC2    C6 2490   2.784   2.818   1.728  0.2805 -0.1505  0.3985
  160TMC2     C 2491   2.436   3.034   1.761  1.0039 -0.4680 -0.0232
  160TMC2     O 2492   2.401   3.047   1.877 -0.6159  0.3343  0.2334
  160TMC2     H 2493   2.596   2.947   1.965  1.1573 -1.8137  0.8880
  160TMC2    H1 2494   2.546   2.933   1.526  2.2377 -5.1546 -2.0253
  160TMC2    H2 2495   2.878   2.765   1.715  0.7777  1.3819 -2.2846
  160TMC2    C7 2496   2.780   2.861   1.488 -0.0731  0.3134  0.1594
  160TMC2    C8 2497   2.813   2.817   1.973  0.5112 -0.5345  0.1802
  160TMC2    O1 2498   2.726   2.827   1.384 -0.2063  0.7854  0.0247
  160TMC2    O2 2499   2.768   2.822   2.085  0.0254  0.0314 -0.2155
  160TMC2    O5 2500   2.942   2.801   1.939  0.1831  0.4048  0.5997
  160TMC2    H5 2501   2.967   2.841   1.854 -1.5413  0.3193  0.0620
  161MPD2     C 2502   2.180   3.168   1.752 -0.4966  0.0485  0.6291
  161MPD2    C1 2503   2.277   3.180   1.652 -0.4131  0.7159  0.5620
  161MPD2    C2 2504   2.265   3.286   1.562  0.1692 -0.0692  0.0782
  161MPD2    C3 2505   2.158   3.369   1.564 -0.2916 -0.1459  0.5297
  161MPD2    C4 2506   2.070   3.368   1.675 -0.2274  0.1295  0.5269
  161MPD2    C5 2507   2.088   3.268   1.766 -0.3338  0.1964  0.0935
  161MPD2     H 2508   2.339   3.291   1.483  1.5229  2.3676  1.4971
  161MPD2    H1 2509   1.990   3.440   1.680 -1.1386 -0.8485 -0.1832
  161MPD2    H2 2510   2.172   3.087   1.824 -0.0708 -0.3166  0.2670
  161MPD2    H3 2511   2.016   3.261   1.847  0.5126  1.5277  0.9526
  161MPD2     N 2512   2.140   3.474   1.471 -0.1446  0.3882  0.3371
  161MPD2    H5 2513   2.059   3.534   1.488 -0.3902 -0.2301  1.3630
  161MPD2    N1 2514   2.396   3.103   1.648  0.2039  0.1599 -0.4966
  161MPD2    H7 2515   2.460   3.115   1.571 -0.3762 -0.7250 -1.1204
  162TMC2    C1 2516   0.383   0.505   0.942  0.7691  0.2086 -0.0210
  162TMC2    C2 2517   0.282   0.605   0.945 -0.2658  0.8466 -0.4082
  162TMC2    C3 2518   0.337   0.730   0.943 -0.0890 -0.4295  0.4655
  162TMC2    C4 2519   0.519   0.526   0.955 -0.2423  0.0146  0.6245
  162TMC2    C5 2520   0.555   0.655   0.970  0.3639  0.3362  0.1751
  162TMC2    C6 2521   0.474   0.760   0.956  0.0467 -0.2343  0.4706
  162TMC2     C 2522   0.350   0.374   0.908  1.0946  0.8480  0.4139
  162TMC2     O 2523   0.250   0.326   0.966 -0.3515 -0.3610  0.2511
  162TMC2     H 2524   0.181   0.574   0.923 -0.9340  0.1658  3.7105
  162TMC2    H1 2525   0.592   0.447   0.961 -0.4476 -0.5132 -3.5624
  162TMC2    H2 2526   0.507   0.863   0.943  1.3024 -0.5848  0.9418
  162TMC2    C7 2527   0.696   0.679   0.979 -0.4012  0.0253 -0.0812
  162TMC2    C8 2528   0.247   0.847   0.951 -0.4575 -0.1605  0.1884
  162TMC2    O1 2529   0.733   0.783   0.925 -0.4143  0.2709  0.1176
  162TMC2    O2 2530   0.280   0.967   0.935  0.2331 -0.3884 -0.4111
  162TMC2    O5 2531   0.146   0.810   1.026  0.2211 -0.2941  0.1469
  162TMC2    H5 2532   0.157   0.716   1.050 -1.0262 -0.5240 -0.1912
  163MPD2     C 2533   0.423   4.716   0.592  0.0288 -0.4088  0.0787
  163MPD2    C1 2534   0.519   0.072   0.566  0.3552 -0.2488 -0.2362
  163MPD2    C2 2535   0.523   0.184   0.641 -0.4177 -0.4278 -0.0816
  163MPD2    C3 2536   0.425   0.204   0.733 -0.1602 -0.0362  0.6447
  163MPD2    C4 2537   0.325   0.122   0.751 -0.2316 -0.0469 -0.3970
  163MPD2    C5 2538   0.327   0.000   0.683 -0.2538 -0.0685 -0.4559
  163MPD2     H 2539   0.601   0.257   0.626  0.1897 -1.1415 -0.4080
  163MPD2    H1 2540   0.243   0.136   0.821 -0.0874 -1.0191 -0.0371
  163MPD2    H2 2541   0.418   4.624   0.535 -0.8679 -0.5762  0.4277
  163MPD2    H3 2542   0.245   4.672   0.698  1.1611 -1.3618  1.1466
  163MPD2     N 2543   0.427   0.333   0.802  0.2674 -0.9913  0.2360
  163MPD2    H5 2544   0.485   0.404   0.759  0.4264 -0.0416  2.0261
  163MPD2    N1 2545   0.613   0.048   0.460 -0.0134  0.7552 -0.7409
  163MPD2    H7 2546   0.584   4.712   0.400  0.2944  1.0034 -1.2093
  164TMC2    C1 2547   1.381   4.424  11.454 -0.4213  0.5347 -0.2656
  164TMC2    C2 2548   1.509   4.433  11.400 -0.3155  0.3569 -0.5459
  164TMC2    C3 2549   1.566   4.561  11.399 -0.4918  0.0423 -0.4717
  164TMC2    C4 2550   1.328   4.525  11.530  0.8080 -0.8695 -0.1139
  164TMC2    C5 2551   1.396   4.638  11.537  0.5448 -0.2694 -0.1694
  164TMC2    C6 2552   1.515   4.667  11.469  0.7909  0.4612 -0.2915
  164TMC2     C 2553   1.316   4.294  11.466  0.2170 -0.0256  0.0199
  164TMC2     O 2554   1.225   4.282  11.541  0.1171  0.6241  0.5431
  164TMC2     H 2555   1.568   4.345  11.379 -3.1434 -1.2347 -1.7416
  164TMC2    H1 2556   1.230   4.516  11.573  0.7793  1.7705  0.4195
  164TMC2    H2 2557   1.551   0.027  11.455 -0.3694  0.8806 -0.2182
  164TMC2    C7 2558   1.304   0.003  11.574 -0.4131  0.1809 -0.0261
  164TMC2    C8 2559   1.686   4.583  11.326 -0.2638  0.0091  0.6251
  164TMC2    O1 2560   1.188   0.012  11.530  0.4851  0.0379  0.2040
  164TMC2    O2 2561   1.748   4.687  11.347 -0.0312  0.0202 -0.1541
  164TMC2    O5 2562   1.662   4.532  11.202 -0.0393 -0.0475  0.8583
  164TMC2    H5 2563   1.576   4.484  11.208  0.0424 -0.5088 -1.7684
  165TMC2    C1 2564   2.323   2.679   1.975  0.1049 -0.2014  0.2826
  165TMC2    C2 2565   2.370   2.691   2.100 -0.1855  0.1139  0.6470
  165TMC2    C3 2566   2.489   2.637   2.137 -0.7643  0.1677 -0.3552
  165TMC2    C4 2567   2.400   2.632   1.875  0.2636  0.1744 -0.2638
  165TMC2    C5 2568   2.516   2.574   1.913  0.1560 -0.1218  0.0774
  165TMC2    C6 2569   2.562   2.564   2.042 -0.6360  0.3278 -0.2669
  165TMC2     C 2570   2.194   2.746   1.942  0.2578  0.6466 -0.2769
  165TMC2     O 2571   2.154   2.724   1.827  0.0158  0.1501  0.2804
  165TMC2     H 2572   2.301   2.714   2.180 -2.2348  0.1815 -1.1179
  165TMC2    H1 2573   2.370   2.651   1.772  0.3572 -1.9808 -0.6982
  165TMC2    H2 2574   2.649   2.502   2.063 -1.9865 -0.8355  1.8815
  165TMC2    C7 2575   2.618   2.545   1.813  0.6848 -0.0324  0.0088
  165TMC2    C8 2576   2.493   2.601   2.277  0.1131 -0.6091  0.1762
  165TMC2    O1 2577   2.731   2.525   1.856 -0.1839 -0.5893 -0.1109
  165TMC2    O2 2578   2.457   2.675   2.363  0.2974 -0.0688 -0.9154
  165TMC2    O5 2579   2.558   2.484   2.291  0.3547 -0.0518  0.2076
  165TMC2    H5 2580   2.561   2.433   2.207 -0.9847  1.8358 -0.9886
  166MPD2     C 2581   1.850   3.130   1.989 -0.0684  0.7922 -0.6052
  166MPD2    C1 2582   1.844   3.027   1.902  0.9488  0.3225  0.4139
  166MPD2    C2 2583   1.943   2.934   1.898  0.2515  0.2531  0.3825
  166MPD2    C3 2584   2.036   2.937   2.007 -0.8447  0.0391 -0.4961
  166MPD2    C4 2585   2.029   3.043   2.095  0.2125  0.4005  0.1890
  166MPD2    C5 2586   1.937   3.139   2.092 -0.2149 -0.1328 -0.3835
  166MPD2     H 2587   1.966   2.850   1.833  0.3378  0.4413  0.1724
  166MPD2    H1 2588   2.115   3.060   2.159 -0.2254 -2.2206  1.4691
  166MPD2    H2 2589   1.775   3.207   1.977 -0.9252 -0.4925 -3.3816
  166MPD2    H3 2590   1.943   3.217   2.167 -0.9321  0.9222 -1.4167
  166MPD2     N 2591   2.151   2.853   2.023  0.1304  0.1060 -0.1517
  166MPD2    H5 2592   2.218   2.874   2.096 -1.4144 -1.5732  1.7390
  166MPD2    N1 2593   1.743   3.035   1.800  0.2290  0.3882  0.6013
  166MPD2    H7 2594   1.686   3.119   1.797  0.1556  0.2115 -2.4767
  167TMC2    C1 2595   0.662   4.230  12.882 -0.3478 -0.1445 -0.0908
  167TMC2    C2 2596   0.557   4.180  12.961  0.2275  0.4317  0.6223
  167TMC2    C3 2597   0.560   4.050  13.004 -0.5073  0.0513  0.5605
  167TMC2    C4 2598   0.767   4.151  12.864 -0.0532 -0.1764  0.1547
  167TMC2    C5 2599   0.772   4.029  12.920 -0.0461 -0.7857  0.4176
  167TMC2    C6 2600   0.668   3.971  12.979 -0.4045 -0.4552  1.0946
  167TMC2     C 2601   0.648   4.359  12.812 -0.2052 -0.3663 -0.8432
  167TMC2     O 2602   0.581   4.448  12.860  0.6564  0.2147  0.2252
  167TMC2     H 2603   0.473   4.244  12.983 -0.5854 -0.3846 -0.0616
  167TMC2    H1 2604   0.858   4.185  12.815 -1.5159  1.9669 -1.0589
  167TMC2    H2 2605   0.677   3.867  13.005  2.5270 -1.1607 -2.6578
  167TMC2    C7 2606   0.886   3.938  12.908  0.2924 -0.5972  0.5148
  167TMC2    C8 2607   0.430   3.991  13.034 -0.0660  0.4328 -0.0570
  167TMC2    O1 2608   0.901   3.870  13.007 -0.6133 -0.9765 -0.1249
  167TMC2    O2 2609   0.336   4.067  13.056  0.2649  0.8497  0.2945
  167TMC2    O5 2610   0.415   3.865  12.987 -0.4483 -0.0512 -0.0917
  167TMC2    H5 2611   0.498   3.821  12.959 -1.5512 -0.9082 -1.9852
  168MPD2     C 2612   0.694   4.591  12.622 -0.2995 -0.1229  0.1709
  168MPD2    C1 2613   0.706   4.457  12.594  0.0487 -0.1994  0.8562
  168MPD2    C2 2614   0.715   4.422  12.462 -0.5669  0.5217  0.4011
  168MPD2    C3 2615   0.708   4.518  12.363 -0.1331 -0.1471 -0.1959
  168MPD2    C4 2616   0.708   4.655  12.394  0.8856  0.3357 -0.4668
  168MPD2    C5 2617   0.681   4.688  12.524  0.2407 -0.1235  0.8305
  168MPD2     H 2618   0.719   4.318  12.431  1.4498  0.6120  0.3498
  168MPD2    H1 2619   0.695   4.726  12.313  1.3348 -0.1248 -0.9391
  168MPD2    H2 2620   0.700   4.629  12.724  0.2845  0.4227 -0.0706
  168MPD2    H3 2621   0.670   0.050  12.556  2.5112  0.2100  0.5213
  168MPD2     N 2622   0.731   4.492  12.224  0.7140 -0.0553  0.0777
  168MPD2    H5 2623   0.772   4.569  12.173 -0.8719 -0.2324 -1.4495
  168MPD2    N1 2624   0.707   4.350  12.685 -0.4631  0.1833 -0.2556
  168MPD2    H7 2625   0.744   4.259  12.658  0.3197  0.4403 -0.0656
  169MPD1     C 2626   3.014   3.166   9.261  0.1136 -0.0250 -0.0805
  169MPD1    C1 2627   2.978   3.290   9.297 -0.2319 -0.5650 -0.6932
  169MPD1    C2 2628   3.076   3.377   9.343 -0.0333 -0.0258  0.1280
  169MPD1    C3 2629   3.206   3.332   9.367 -0.2700 -0.1965 -0.6620
  169MPD1    C4 2630   3.236   3.200   9.333  0.4034  0.5339 -0.0454
  169MPD1    C5 2631   3.145   3.120   9.282  0.7944  0.1315  0.8347
  169MPD1     H 2632   3.051   3.481   9.363 -0.4179 -0.1976  0.5519
  169MPD1    H1 2633   3.343   3.181   9.341  0.1828 -1.5172 -2.2074
  169MPD1    H2 2634   2.936   3.099   9.227  0.5771 -2.4875  3.7529
  169MPD1    H3 2635   3.171   3.015   9.273  0.0766 -0.2428  3.1092
  169MPD1     N 2636   3.290   3.427   9.417  0.0858 -0.3142  0.7938
  169MPD1    H5 2637   3.266   3.526   9.424  0.2986 -0.3017  1.3850
  169MPD1    N1 2638   2.853   3.349   9.260  0.8119  0.0055 -0.0574
  169MPD1    H6 2639   2.782   3.283   9.232  0.7288  0.5741 -1.1883
  169MPD1    H7 2640   2.812   3.408   9.331  2.2973  1.1217 -0.1279
  170MPD1     C 2641   2.026   1.822  13.015 -0.6176  0.5393  0.8288
  170MPD1    C1 2642   2.041   1.952  13.051 -0.7688  0.6276 -0.0137
  170MPD1    C2 2643   2.012   1.994  13.179 -0.5599  0.2871  0.2005
  170MPD1    C3 2644   1.957   1.904  13.273  0.1000 -0.0380 -0.3046
  170MPD1    C4 2645   1.944   1.771  13.234  0.3606 -0.2446  0.4795
  170MPD1    C5 2646   1.987   1.733  13.111  0.1613 -0.1170 -0.1462
  170MPD1     H 2647   2.036   2.089  13.224 -1.4539  1.3488 -1.5874
  170MPD1    H1 2648   1.909   1.689  13.296  1.2574 -0.4476  0.7128
  170MPD1    H2 2649   2.069   1.793  12.920 -1.0483 -0.1769  0.8483
  170MPD1    H3 2650   1.973   1.629  13.086 -1.5514 -0.2196  1.1669
  170MPD1     N 2651   1.912   1.952  13.404 -0.0341 -0.9310  0.2193
  170MPD1    H5 2652   1.916   2.053  13.407 -0.3130 -0.9952  2.3519
  170MPD1    N1 2653   2.064   2.053  12.951  0.3069  0.0151 -0.4680
  170MPD1    H6 2654   2.096   2.140  12.994 -2.3222  0.9630 -0.4856
  170MPD1    H7 2655   2.122   2.022  12.873  2.7815 -0.0820  1.3686
  171MPD1     C 2656   0.308   2.796  15.314 -0.4414 -0.3570  0.4563
  171MPD1    C1 2657   0.246   2.798  15.435 -1.0705 -0.0916 -0.9111
  171MPD1    C2 2658   0.285   2.720  15.540 -0.8269  0.2382 -0.2641
  171MPD1    C3 2659   0.394   2.639  15.529 -0.8026  0.2324  0.2329
  171MPD1    C4 2660   0.460   2.637  15.404  0.4111  0.0023  0.0827
  171MPD1    C5 2661   0.412   2.710  15.297 -0.2596  0.3737  0.0598
  171MPD1     H 2662   0.225   2.728  15.629 -0.7966 -3.5199  0.0925
  171MPD1    H1 2663   0.546   2.573  15.391  0.3072  0.1625 -1.4577
  171MPD1    H2 2664   0.257   2.846  15.232  0.9171  1.5054  0.7379
  171MPD1    H3 2665   0.450   2.682  15.200  1.5301  1.7808  0.3561
  171MPD1     N 2666   0.436   2.561  15.639 -0.0728 -0.0735  0.7504
  171MPD1    H5 2667   0.501   2.487  15.616  0.0323  0.6322 -1.2559
  171MPD1    N1 2668   0.119   2.867  15.442 -0.2948  0.3601  0.0692
  171MPD1    H6 2669   0.122   2.959  15.399 -3.8633 -0.3870 -1.7870
  171MPD1    H7 2670   0.102   2.885  15.541  1.4048 -1.1624  0.6487
  172MPD1     C 2671   4.061   1.309   0.061 -0.1225  0.4595  0.4324
  172MPD1    C1 2672   4.055   1.346   0.194  0.2523 -0.5154 -0.0812
  172MPD1    C2 2673   4.134   1.456   0.236  0.9304 -0.8179  0.3721
  172MPD1    C3 2674   4.224   1.520   0.147  0.2085  0.2145 -0.4793
  172MPD1    C4 2675   4.222   1.489   0.009 -0.1556 -0.3803 -0.2504
  172MPD1    C5 2676   4.140   1.385  17.738 -0.1385  0.6137 -0.0075
  172MPD1     H 2677   4.137   1.484   0.341  0.7871  1.6081 -0.2673
  172MPD1    H1 2678   4.268   1.559  17.704  0.3850 -2.8550 -2.3641
  172MPD1    H2 2679   3.988   1.239   0.021 -0.7127  0.7228  1.0433
  172MPD1    H3 2680   4.135   1.362  17.632  1.6139 -1.4031  0.3537
  172MPD1     N 2681   4.304   1.638   0.175 -0.6530 -0.4071 -0.5389
  172MPD1    H5 2682   4.365   1.675   0.103  0.0857 -0.9302 -0.1843
  172MPD1    N1 2683   3.962   1.285   0.284  0.0681  0.5837  0.0077
  172MPD1    H6 2684   3.923   1.197   0.251  1.4772  0.0857 -0.3073
  172MPD1    H7 2685   3.988   1.273   0.382  1.4784 -0.5744 -0.5148
  173MPD1     C 2686   1.059   1.917  13.513 -0.0056  0.7469  0.3014
  173MPD1    C1 2687   0.953   1.996  13.556  1.2506  0.1102  0.3232
  173MPD1    C2 2688   0.902   1.960  13.686  0.4989  0.0356  0.6070
  173MPD1    C3 2689   0.963   1.877  13.778  0.3553  0.2106  0.2437
  173MPD1    C4 2690   1.080   1.816  13.729  0.6331 -0.2638 -0.3790
  173MPD1    C5 2691   1.119   1.835  13.603 -0.0531  0.3109 -0.0111
  173MPD1     H 2692   0.808   2.004  13.719  0.7157  0.4119  0.7256
  173MPD1    H1 2693   1.144   1.750  13.785  0.6007  1.0826  1.2612
  173MPD1    H2 2694   1.090   1.915  13.408  0.5869 -1.8396  0.5153
  173MPD1    H3 2695   1.206   1.783  13.564 -0.8496 -1.2908  0.3615
  173MPD1     N 2696   0.911   1.853  13.908  0.2179 -0.5282  0.3539
  173MPD1    H5 2697   0.836   1.911  13.944 -0.0883 -1.6245  1.4875
  173MPD1    N1 2698   0.867   2.064  13.470 -0.1128 -0.2979  0.8132
  173MPD1    H6 2699   0.922   2.096  13.390 -0.5801 -1.0243  0.2056
  173MPD1    H7 2700   0.841   2.151  13.517  0.5204  1.6523 -2.4495
  174MPD1     C 2701   1.397   1.749  14.783 -0.2776 -0.0894 -0.2312
  174MPD1    C1 2702   1.302   1.651  14.791  0.5046 -0.7406  0.4091
  174MPD1    C2 2703   1.202   1.649  14.691  0.2473 -0.0206  0.0069
  174MPD1    C3 2704   1.216   1.716  14.574 -0.1054 -0.0284 -0.7612
  174MPD1    C4 2705   1.335   1.789  14.554 -0.5092  0.0360 -0.0480
  174MPD1    C5 2706   1.420   1.810  14.660 -0.4254 -0.0701  0.5202
  174MPD1     H 2707   1.112   1.592  14.714 -0.4723  0.6603 -1.1094
  174MPD1    H1 2708   1.356   1.833  14.457 -2.7919  2.7894  0.7117
  174MPD1    H2 2709   1.466   1.770  14.863 -2.5380  1.7374  1.2073
  174MPD1    H3 2710   1.490   1.891  14.648 -0.0316 -0.5708 -0.6190
  174MPD1     N 2711   1.123   1.716  14.466  0.4001  0.7859  0.4958
  174MPD1    H5 2712   1.148   1.772  14.385  2.9636 -3.0206 -1.3521
  174MPD1    N1 2713   1.286   1.587  14.919  0.0558 -0.2408 -0.0542
  174MPD1    H6 2714   1.372   1.579  14.973 -0.6655  0.9747  1.2537
  174MPD1    H7 2715   1.244   1.495  14.905 -1.5745  0.5159 -0.1677
  175MPD1     C 2716   4.223   2.627  15.613  0.9447 -0.3376  0.5085
  175MPD1    C1 2717   4.092   2.603  15.624 -0.3816 -0.1788 -0.4629
  175MPD1    C2 2718   4.047   2.590  15.750 -0.2485  0.1190  0.5224
  175MPD1    C3 2719   4.132   2.567  15.864 -0.4037  0.1979 -0.0294
  175MPD1    C4 2720   4.267   2.599  15.851  0.3082 -0.3652  0.0113
  175MPD1    C5 2721   4.304   2.636  15.725 -0.6074  0.0156  0.1586
  175MPD1     H 2722   3.940   2.582  15.766 -0.0915 -1.3766  0.8499
  175MPD1    H1 2723   4.341   2.604  15.930  0.3870 -2.1857  0.0489
  175MPD1    H2 2724   4.266   2.652  15.517 -1.9685  0.6336 -0.5463
  175MPD1    H3 2725   4.410   2.644  15.702 -0.6235  0.4947  0.2386
  175MPD1     N 2726   4.088   2.528  15.995 -0.3253 -0.6405 -0.0984
  175MPD1    H5 2727   4.157   2.543  16.069  1.5044 -1.8622 -1.5355
  175MPD1    N1 2728   4.003   2.618  15.520  0.6570  0.1717 -0.0826
  175MPD1    H6 2729   4.052   2.612  15.431  0.6342 -0.8628 -0.0238
  175MPD1    H7 2730   3.932   2.546  15.526  0.3974  0.3569 -0.9109
  176MPD1     C 2731   1.436   4.494  17.724 -0.4086  0.3036  0.3940
  176MPD1    C1 2732   1.346   4.576   0.030  0.1060 -0.2439 -0.9466
  176MPD1    C2 2733   1.306   4.693  17.738  0.0947 -0.5562 -0.4797
  176MPD1    C3 2734   1.338   4.731  17.610 -0.7229 -0.0912 -0.1706
  176MPD1    C4 2735   1.432   4.655  17.547  0.0919 -0.8539  0.3335
  176MPD1    C5 2736   1.477   4.538  17.605  0.3874 -0.3536 -0.4251
  176MPD1     H 2737   1.234   0.013   0.028  3.5640  1.5782  1.7235
  176MPD1    H1 2738   1.467   4.683  17.448 -2.0952 -1.4695 -0.6202
  176MPD1    H2 2739   1.471   4.400   0.002 -0.1808  0.0908 -0.2888
  176MPD1    H3 2740   1.541   4.469  17.551  0.3939 -1.6821  1.2788
  176MPD1     N 2741   1.284   0.104  17.561 -0.0163 -0.4673 -0.0962
  176MPD1    H5 2742   1.220   0.150  17.625  0.1586 -1.8751  1.1022
  176MPD1    N1 2743   1.309   4.563   0.161  0.1408  0.4148  0.1006
  176MPD1    H6 2744   1.219   4.603   0.184 -1.4583 -3.0359 -0.1687
  176MPD1    H7 2745   1.303   4.464   0.182  1.0581 -0.3009 -3.1342
  177MPD1     C 2746   0.252   0.973   9.959 -0.2237 -0.0204 -0.4935
  177MPD1    C1 2747   0.285   0.979   9.824  0.8306 -0.4493  0.0387
  177MPD1    C2 2748   0.184   0.944   9.736  0.2591  0.4324  0.3531
  177MPD1    C3 2749   0.059   0.903   9.778 -0.0148  0.2937  1.3693
  177MPD1    C4 2750   0.028   0.901   9.908 -0.5233  0.2352 -0.4049
  177MPD1    C5 2751   0.122   0.942   9.999 -0.2080  0.0942 -0.0316
  177MPD1     H 2752   0.199   0.963   9.630 -0.0536 -0.3385  0.1732
  177MPD1    H1 2753   4.669   0.876   9.939 -0.3841  0.8017  0.4689
  177MPD1    H2 2754   0.322   1.007  10.035 -2.3588 -1.1780  2.0097
  177MPD1    H3 2755   0.099   0.935  10.104 -1.8787  1.9681 -0.2857
  177MPD1     N 2756   4.701   0.882   9.682 -0.3269  0.1524 -0.3697
  177MPD1    H5 2757   4.719   0.898   9.583  3.5650  0.4644  0.4033
  177MPD1    N1 2758   0.409   1.018   9.780  0.5192 -0.0083 -0.6106
  177MPD1    H6 2759   0.444   1.094   9.838 -1.4131 -0.4697  1.1507
  177MPD1    H7 2760   0.411   1.052   9.684 -1.7772  1.0912 -0.2560
  178MPD1     C 2761   1.749   1.719   0.186 -0.3827 -0.1249 -0.6953
  178MPD1    C1 2762   1.879   1.673   0.171  0.5146  0.4433  1.1233
  178MPD1    C2 2763   1.915   1.614   0.046  0.5082  0.1623  0.0444
  178MPD1    C3 2764   1.832   1.607  17.701 -0.3494  0.4413 -0.2831
  178MPD1    C4 2765   1.712   1.667  17.717  0.0778 -0.1922 -0.2661
  178MPD1    C5 2766   1.669   1.719   0.074 -0.3500 -0.1893  0.8883
  178MPD1     H 2767   2.004   1.552   0.048 -1.5967 -2.8554  0.7365
  178MPD1    H1 2768   1.643   1.661  17.634  0.2129  0.2647 -0.4084
  178MPD1    H2 2769   1.714   1.766   0.277 -1.0999  1.0614 -1.5714
  178MPD1    H3 2770   1.572   1.767   0.076 -0.2922 -0.0858  1.3752
  178MPD1     N 2771   1.864   1.545  17.574  0.3772 -0.3661  0.4451
  178MPD1    H5 2772   1.798   1.550  17.497  0.3071 -3.0278  0.3278
  178MPD1    N1 2773   1.957   1.670   0.289 -0.2542  0.3173 -0.2684
  178MPD1    H6 2774   1.956   1.752   0.349 -1.2921  0.4873 -0.5099
  178MPD1    H7 2775   2.052   1.650   0.259  0.1135  1.8724 -0.1571
  179MPD1     C 2776   0.935   4.030  15.453  0.5257 -0.0227  0.1968
  179MPD1    C1 2777   1.062   3.993  15.460  0.0547  0.5150  0.1710
  179MPD1    C2 2778   1.089   3.866  15.504  0.0296  0.1831 -0.5053
  179MPD1    C3 2779   0.993   3.779  15.530 -0.1681  1.2447 -0.0048
  179MPD1    C4 2780   0.865   3.812  15.503  0.1653 -0.1116 -0.3266
  179MPD1    C5 2781   0.836   3.941  15.470 -0.1463  0.2764 -0.9745
  179MPD1     H 2782   1.192   3.831  15.514 -0.3696 -1.7226 -3.2484
  179MPD1    H1 2783   0.781   3.745  15.517 -0.3305  0.5631 -0.0883
  179MPD1    H2 2784   0.913   4.123  15.402 -0.3002  1.0911  2.5543
  179MPD1    H3 2785   0.736   3.963  15.435 -1.6095 -0.8865  2.4005
  179MPD1     N 2786   1.010   3.650  15.564 -0.2545 -0.4792  0.1518
  179MPD1    H5 2787   0.921   3.605  15.584 -0.3193  0.6485  2.4336
  179MPD1    N1 2788   1.164   4.085  15.424 -0.1542 -0.3153  0.3301
  179MPD1    H6 2789   1.260   4.054  15.439 -0.7300  0.1807  4.9262
  179MPD1    H7 2790   1.154   4.180  15.458 -0.8222  0.3325 -1.6923
  180MPD1     C 2791   0.589   0.555  15.280  0.6267 -0.1288 -0.2879
  180MPD1    C1 2792   0.715   0.585  15.227  0.8331  0.4547  0.5858
  180MPD1    C2 2793   0.730   0.547  15.099  0.8187  0.3540  0.4151
  180MPD1    C3 2794   0.624   0.508  15.012  0.5621 -0.0535  0.2244
  180MPD1    C4 2795   0.498   0.497  15.071 -0.2733  0.4073  0.0748
  180MPD1    C5 2796   0.484   0.509  15.208  0.5216 -0.1498  0.7457
  180MPD1     H 2797   0.829   0.531  15.060  0.4390 -0.4840 -0.2014
  180MPD1    H1 2798   0.412   0.475  15.009 -0.2707 -0.6345  0.4513
  180MPD1    H2 2799   0.583   0.556  15.389 -0.8078 -1.0662 -0.3447
  180MPD1    H3 2800   0.388   0.493  15.256  0.4959 -0.4042  0.6106
  180MPD1     N 2801   0.652   0.499  14.873 -0.6224 -0.4160  0.4073
  180MPD1    H5 2802   0.743   0.529  14.840 -1.0483  0.9715  0.4751
  180MPD1    N1 2803   0.828   0.628  15.302  0.0488  0.0634 -0.0072
  180MPD1    H6 2804   0.804   0.695  15.374  0.6232 -0.2767  0.4970
  180MPD1    H7 2805   0.906   0.665  15.248  0.4559  1.0895  1.2796
  181MPD1     C 2806   2.201   2.370   9.885 -0.0880  0.7565  0.5671
  181MPD1    C1 2807   2.167   2.503   9.900 -0.7219 -0.7071 -0.0625
  181MPD1    C2 2808   2.249   2.590   9.963  0.5292  0.2370  0.5360
  181MPD1    C3 2809   2.382   2.552   9.992  0.5854 -0.5285 -0.7033
  181MPD1    C4 2810   2.424   2.417   9.974 -0.8588 -0.8206 -0.1168
  181MPD1    C5 2811   2.329   2.331   9.918  0.2634  0.4587 -0.2691
  181MPD1     H 2812   2.227   2.695   9.981  0.0851  0.4659 -1.3609
  181MPD1    H1 2813   2.520   2.375  10.002  0.1913 -0.1797 -2.7220
  181MPD1    H2 2814   2.139   2.287   9.854  0.6393  0.7175 -0.8056
  181MPD1    H3 2815   2.346   2.225   9.903 -1.3538 -0.1636  2.3354
  181MPD1     N 2816   2.481   2.626  10.061  0.5583  0.9104 -0.9008
  181MPD1    H5 2817   2.569   2.575  10.066  0.4930  1.0662  1.6594
  181MPD1    N1 2818   2.031   2.550   9.876 -0.0594  0.1621 -0.4636
  181MPD1    H6 2819   2.029   2.651   9.869  1.4088  0.3001  1.1095
  181MPD1    H7 2820   1.998   2.521   9.784  0.5491 -1.9596 -0.0144
  182MPD1     C 2821   3.884   1.564   2.112  0.3076  0.5448  0.2017
  182MPD1    C1 2822   3.938   1.503   2.001 -0.5291  0.3289  0.3381
  182MPD1    C2 2823   3.854   1.485   1.890  0.2535 -0.6591  0.5122
  182MPD1    C3 2824   3.728   1.533   1.893  0.2321 -0.3039  0.1643
  182MPD1    C4 2825   3.681   1.597   2.004 -0.2614  0.8511  0.2776
  182MPD1    C5 2826   3.759   1.621   2.112  0.4090  0.3141  0.2227
  182MPD1     H 2827   3.893   1.429   1.805 -0.1478  2.6732 -1.8731
  182MPD1    H1 2828   3.576   1.620   2.021  0.0109  2.7964 -0.6792
  182MPD1    H2 2829   3.949   1.579   2.197  1.1556  0.1420 -0.3795
  182MPD1    H3 2830   3.723   1.661   2.207  2.4338  0.2861  0.9891
  182MPD1     N 2831   3.637   1.534   1.782  0.7494  0.4388  1.0441
  182MPD1    H5 2832   3.543   1.567   1.803  0.1585  0.6464 -1.9278
  182MPD1    N1 2833   4.060   1.429   2.014 -0.0396 -0.0211  0.0548
  182MPD1    H6 2834   4.130   1.462   2.081  1.5319  1.6898 -2.4168
  182MPD1    H7 2835   4.106   1.421   1.924 -3.1642 -1.5788 -1.3825
  183MPD1     C 2836   4.527   3.129   9.934  0.3821  0.4520 -0.0046
  183MPD1    C1 2837   4.426   3.166   9.842 -0.4443  0.6513  0.4778
  183MPD1    C2 2838   4.308   3.095   9.851  0.0595  0.4345 -1.0135
  183MPD1    C3 2839   4.286   3.006   9.952  0.2811  0.0039  0.2860
  183MPD1    C4 2840   4.382   2.986  10.058  0.2985  0.5240  1.3495
  183MPD1    C5 2841   4.505   3.050  10.041  0.2046 -0.1924 -0.0755
  183MPD1     H 2842   4.230   3.120   9.781 -0.4126  0.0120 -0.6422
  183MPD1    H1 2843   4.371   2.921  10.145 -0.9816  2.8322  2.9143
  183MPD1    H2 2844   4.629   3.166   9.924  1.0329 -1.1911  0.4819
  183MPD1    H3 2845   4.583   3.024  10.112 -1.1412  0.0956  1.5281
  183MPD1     N 2846   4.165   2.930   9.953  0.1473  0.6363 -0.2325
  183MPD1    H5 2847   4.093   2.958   9.887  0.8722 -0.0886 -1.3333
  183MPD1    N1 2848   4.445   3.263   9.741  0.2708 -0.3293 -0.0358
  183MPD1    H6 2849   4.502   3.343   9.769 -0.3258  0.0044  0.2131
  183MPD1    H7 2850   4.357   3.297   9.702 -0.6367 -0.1897  2.1252
  184MPD1     C 2851   3.461   0.839  10.355  0.0791  0.2806  0.1453
  184MPD1    C1 2852   3.426   0.766  10.243 -0.0099 -0.4730  0.3927
  184MPD1    C2 2853   3.497   0.788  10.129 -0.3491 -0.1427 -0.5158
  184MPD1    C3 2854   3.595   0.881  10.124 -0.0971 -0.3907  0.2830
  184MPD1    C4 2855   3.636   0.944  10.239 -0.6182 -0.1877  0.1450
  184MPD1    C5 2856   3.558   0.926  10.352 -0.3392 -0.0737  0.5343
  184MPD1     H 2857   3.487   0.724  10.042 -0.9124 -1.4037  0.4718
  184MPD1    H1 2858   3.699   1.033  10.241  0.0653 -0.7246  3.1105
  184MPD1    H2 2859   3.401   0.841  10.445 -1.4125  0.6308 -0.8496
  184MPD1    H3 2860   3.576   0.984  10.442  1.7246 -1.4958  1.0494
  184MPD1     N 2861   3.669   0.924  10.012 -0.5515 -0.1080  0.2204
  184MPD1    H5 2862   3.745   0.988  10.032 -1.6705  0.7861  1.5771
  184MPD1    N1 2863   3.345   0.648  10.248 -0.1062  0.5500  0.2797
  184MPD1    H6 2864   3.301   0.620  10.160  0.0517  2.0302 -0.2645
  184MPD1    H7 2865   3.265   0.655  10.311 -0.0223 -1.4821  0.6106
  185MPD1     C 2866   3.830   1.160   8.946  0.7457 -0.5775  0.4166
  185MPD1    C1 2867   3.710   1.116   9.000  0.8290  0.0819  0.1794
  185MPD1    C2 2868   3.722   1.078   9.134  0.8174 -0.4595 -0.6870
  185MPD1    C3 2869   3.837   1.085   9.209 -0.6952  0.7501  0.1541
  185MPD1    C4 2870   3.947   1.130   9.143 -0.8157 -0.6726  0.3319
  185MPD1    C5 2871   3.945   1.161   9.014 -0.7712  0.1484 -0.2040
  185MPD1     H 2872   3.630   1.049   9.185  0.9338 -0.3929 -0.4366
  185MPD1    H1 2873   4.039   1.145   9.199  0.3167  2.4263 -2.3459
  185MPD1    H2 2874   3.830   1.188   8.841 -0.7331  3.1630  1.4382
  185MPD1    H3 2875   4.031   1.173   8.951  0.7906  0.6778  2.0296
  185MPD1     N 2876   3.850   1.065   9.344  0.5478 -0.1045  0.0094
  185MPD1    H5 2877   3.926   1.115   9.388  1.0870 -1.4804  0.6173
  185MPD1    N1 2878   3.599   1.086   8.925 -0.0304  0.4237  1.1045
  185MPD1    H6 2879   3.516   1.111   8.977 -0.9798  1.0687 -0.7303
  185MPD1    H7 2880   3.590   1.149   8.846 -0.7682 -1.1208 -0.0421
  186MPD1     C 2881   1.445   3.783  16.183  0.0374  0.2514 -0.2203
  186MPD1    C1 2882   1.481   3.764  16.317  0.8802  0.2965 -0.1434
  186MPD1    C2 2883   1.545   3.866  16.381 -0.6825  0.7758  0.5482
  186MPD1    C3 2884   1.557   3.988  16.323  0.4333  0.2261  0.7801
  186MPD1    C4 2885   1.502   4.013  16.193  0.2801  0.4823  0.3620
  186MPD1    C5 2886   1.448   3.903  16.128 -0.6651 -0.2667  0.2261
  186MPD1     H 2887   1.590   3.840  16.477 -1.0548  0.4820  0.6426
  186MPD1    H1 2888   1.501   4.105  16.137  1.6341  0.7416  0.7667
  186MPD1    H2 2889   1.399   3.701  16.128 -0.9345 -0.2438  1.3053
  186MPD1    H3 2890   1.415   3.919  16.026 -2.1149 -0.9808  0.5803
  186MPD1     N 2891   1.641   4.089  16.377  0.1399 -0.2526  0.8497
  186MPD1    H5 2892   1.644   4.178  16.328 -1.8345 -0.7552 -0.1764
  186MPD1    N1 2893   1.480   3.635  16.368 -0.3506  0.8378 -0.6156
  186MPD1    H6 2894   1.449   3.636  16.465  0.5739  1.1788 -0.3249
  186MPD1    H7 2895   1.421   3.574  16.312 -1.5813 -0.1684  1.7717
  187MPD1     C 2896   0.665   1.907   0.311  0.3589  0.0968  0.0971
  187MPD1    C1 2897   0.698   2.010   0.223 -0.3347  0.4209 -0.4092
  187MPD1    C2 2898   0.735   1.980   0.098  0.6252  0.4984  0.1495
  187MPD1    C3 2899   0.719   1.851   0.049  0.2493  0.4372  0.1251
  187MPD1    C4 2900   0.682   1.750   0.133 -0.1760 -0.7452  0.0495
  187MPD1    C5 2901   0.665   1.779   0.260  0.1458  0.7394  0.4615
  187MPD1     H 2902   0.762   2.063   0.033 -1.5172  0.9529 -0.1725
  187MPD1    H1 2903   0.663   1.651   0.093 -1.5992 -0.0799 -0.9154
  187MPD1    H2 2904   0.642   1.927   0.415 -2.6129  0.9937 -0.7414
  187MPD1    H3 2905   0.640   1.698   0.327 -3.4935  0.8335 -0.7783
  187MPD1     N 2906   0.717   1.825  17.669  0.5976  0.0494  0.0554
  187MPD1    H5 2907   0.677   1.736  17.640  1.3772  0.4002 -2.0732
  187MPD1    N1 2908   0.717   2.138   0.279  0.0172 -0.3986 -0.3381
  187MPD1    H6 2909   0.709   2.217   0.215 -3.0530 -0.5119 -0.0998
  187MPD1    H7 2910   0.649   2.157   0.354 -1.1429  0.1082 -1.5152
  188MPD1     C 2911   1.431   2.077  10.888 -1.1249 -0.6414 -0.2961
  188MPD1    C1 2912   1.370   2.064  10.770 -0.6988 -0.8421  1.1962
  188MPD1    C2 2913   1.294   1.958  10.749 -0.5801 -0.7894  0.2224
  188MPD1    C3 2914   1.264   1.864  10.852  0.1495 -0.0591  0.5722
  188MPD1    C4 2915   1.327   1.881  10.974 -0.5284  0.0969  0.4817
  188MPD1    C5 2916   1.406   1.989  10.989 -1.1369  0.2724  0.0476
  188MPD1     H 2917   1.243   1.955  10.654  1.4241  0.2739 -0.8691
  188MPD1    H1 2918   1.291   1.814  11.052 -0.6457 -0.7102 -0.2591
  188MPD1    H2 2919   1.480   2.170  10.916 -1.0943 -0.9311  0.6191
  188MPD1    H3 2920   1.443   2.015  11.088 -2.1260  1.3955  0.1157
  188MPD1     N 2921   1.180   1.745  10.832 -0.4272 -0.9046  0.7150
  188MPD1    H5 2922   1.185   1.669  10.900  1.4316  1.2723  3.0289
  188MPD1    N1 2923   1.391   2.161  10.665  0.9747  0.5878  0.4209
  188MPD1    H6 2924   1.452   2.241  10.682 -0.4020  1.5804  0.7134
  188MPD1    H7 2925   1.368   2.137  10.569  2.2129 -1.4403  0.6143
  189MPD1     C 2926   2.324   2.869   1.265  0.2045 -0.7403 -0.1379
  189MPD1    C1 2927   2.288   2.985   1.196  1.0171  0.5472  0.7764
  189MPD1    C2 2928   2.297   2.979   1.057 -0.6501  0.2356 -0.7878
  189MPD1    C3 2929   2.306   2.860   0.987  0.3940  0.1628 -0.0863
  189MPD1    C4 2930   2.333   2.742   1.052  0.1801 -0.0440  0.3274
  189MPD1    C5 2931   2.343   2.755   1.189  0.2730  0.1260  0.0607
  189MPD1     H 2932   2.294   3.072   1.002  2.3756  1.1339  0.5892
  189MPD1    H1 2933   2.347   2.639   1.019  1.5375  0.1186  0.4122
  189MPD1    H2 2934   2.342   2.877   1.372 -4.2432  0.6870  0.4944
  189MPD1    H3 2935   2.353   2.666   1.250 -2.8675 -1.4157 -1.6223
  189MPD1     N 2936   2.292   2.860   0.845  0.2289  0.2480 -0.5967
  189MPD1    H5 2937   2.295   2.950   0.799  0.8037 -0.1399 -1.3188
  189MPD1    N1 2938   2.283   3.116   1.252 -0.0783  0.8900  0.1825
  189MPD1    H6 2939   2.257   3.118   1.350  0.1432 -2.2467  0.3002
  189MPD1    H7 2940   2.223   3.179   1.200 -0.2632 -0.8196 -1.6613
  190MPD1     C 2941   0.738   4.434  16.065 -0.3233  0.6801 -0.3482
  190MPD1    C1 2942   0.818   4.506  16.144  0.2386  0.0784 -0.4181
  190MPD1    C2 2943   0.902   4.590  16.083 -0.3715 -0.0739 -0.0002
  190MPD1    C3 2944   0.892   4.619  15.944  1.0462 -0.3864 -0.4224
  190MPD1    C4 2945   0.799   4.557  15.867 -0.2268 -0.5032 -0.0452
  190MPD1    C5 2946   0.738   4.450  15.926 -0.4275  0.2390  0.7872
  190MPD1     H 2947   0.987   4.640  16.127 -0.1329 -0.4039 -0.0927
  190MPD1    H1 2948   0.789   4.571  15.760 -1.0617 -1.4883 -0.0925
  190MPD1    H2 2949   0.668   4.364  16.109 -0.2540  1.0650  0.3808
  190MPD1    H3 2950   0.671   4.387  15.869 -2.6972  2.1469  1.3806
  190MPD1     N 2951   0.992   4.705  15.891  0.0546 -0.3120  0.1790
  190MPD1    H5 2952   1.056   0.011  15.953  1.0613 -0.2722 -0.8889
  190MPD1    N1 2953   0.825   4.489  16.282  0.5588 -0.2774  0.3384
  190MPD1    H6 2954   0.871   4.567  16.327 -0.3367  1.1239 -1.1671
  190MPD1    H7 2955   0.737   4.477  16.333  1.3781 -1.5397  1.4392
  191MPD1     C 2956   4.231   3.093  13.229 -0.0202 -0.6956 -0.3379
  191MPD1    C1 2957   4.334   3.171  13.277 -0.0522 -0.7814  0.1266
  191MPD1    C2 2958   4.463   3.120  13.251 -0.0516  0.3522  0.2979
  191MPD1    C3 2959   4.478   3.014  13.166  0.6886  0.3299 -0.1167
  191MPD1    C4 2960   4.372   2.944  13.114 -0.4232 -0.5199 -0.0972
  191MPD1    C5 2961   4.245   2.986  13.145 -0.5990 -0.6274 -0.0105
  191MPD1     H 2962   4.544   3.178  13.291  0.2939 -0.3832  0.6667
  191MPD1    H1 2963   4.391   2.863  13.045  0.2620 -0.8624  0.4959
  191MPD1    H2 2964   4.130   3.120  13.258 -0.0836 -1.9987  0.6519
  191MPD1    H3 2965   4.159   2.926  13.114 -0.2749 -2.3486  2.4248
  191MPD1     N 2966   4.609   2.976  13.134  0.6805 -0.3383 -0.7225
  191MPD1    H5 2967   4.683   3.031  13.177  1.2432 -1.4263 -0.3139
  191MPD1    N1 2968   4.311   3.275  13.367  0.6276 -0.1312 -0.2413
  191MPD1    H6 2969   4.226   3.328  13.352 -0.4667 -0.9524  2.9966
  191MPD1    H7 2970   4.389   3.336  13.392  1.0315 -0.4420 -0.7316
  192MPD1     C 2971   0.350   2.093  13.159 -0.4595  0.1051 -0.5415
  192MPD1    C1 2972   0.435   2.190  13.107  0.2262 -0.0327 -0.0438
  192MPD1    C2 2973   0.392   2.323  13.105  0.0082  0.2190 -1.2795
  192MPD1    C3 2974   0.259   2.351  13.120  0.6899 -0.4856  0.7721
  192MPD1    C4 2975   0.174   2.253  13.163  0.7699  0.3331  0.8893
  192MPD1    C5 2976   0.226   2.130  13.192  0.2381 -0.1865  0.9889
  192MPD1     H 2977   0.466   2.391  13.064  1.3603 -0.0253  0.7594
  192MPD1    H1 2978   0.072   2.280  13.187  0.4956  0.8961 -0.8918
  192MPD1    H2 2979   0.377   1.989  13.172 -1.0020 -0.1773 -1.6606
  192MPD1    H3 2980   0.161   2.062  13.246 -0.3645 -1.0052 -0.7716
  192MPD1     N 2981   0.206   2.483  13.109 -0.0829 -0.3201  0.4330
  192MPD1    H5 2982   0.105   2.493  13.114 -0.3070 -2.5191  0.0530
  192MPD1    N1 2983   0.568   2.161  13.095 -0.4628 -0.4503 -0.2194
  192MPD1    H6 2984   0.611   2.213  13.019  0.3429  1.2062  1.3715
  192MPD1    H7 2985   0.587   2.063  13.074 -4.0298 -1.3684  0.8293
  193MPD1     C 2986   0.123   2.317  15.911  0.1155  0.2249 -0.1966
  193MPD1    C1 2987   0.139   2.452  15.925 -0.0108  0.0583  0.5538
  193MPD1    C2 2988   0.183   2.494  16.045 -0.3573  0.2283  0.0738
  193MPD1    C3 2989   0.230   2.405  16.141  0.1573 -0.3232  0.4505
  193MPD1    C4 2990   0.216   2.267  16.120  0.0672 -0.2821 -0.6116
  193MPD1    C5 2991   0.169   2.226  16.002 -0.7103  0.0371  0.0169
  193MPD1     H 2992   0.201   2.600  16.057  0.1691  0.3133 -1.3649
  193MPD1    H1 2993   0.249   2.200  16.199 -1.4116  1.6919  1.6353
  193MPD1    H2 2994   0.080   2.283  15.818 -0.0349 -2.0901  0.7160
  193MPD1    H3 2995   0.165   2.119  15.988  1.8411 -0.0171 -0.3301
  193MPD1     N 2996   0.282   2.444  16.261 -0.0635 -0.1042  0.1011
  193MPD1    H5 2997   0.322   2.371  16.318 -1.1541  0.8127  2.0813
  193MPD1    N1 2998   0.073   2.542  15.840  0.3222  0.5002  0.1875
  193MPD1    H6 2999   0.053   2.504  15.748 -3.7588  0.5923  1.0079
  193MPD1    H7 3000   0.137   2.620  15.835  0.8475  0.0324 -0.3723
  194MPD1     C 3001   4.321   4.532  16.868 -0.3430 -0.4974 -0.1674
  194MPD1    C1 3002   4.345   4.510  17.002 -0.0905 -0.3673 -1.4994
  194MPD1    C2 3003   4.238   4.476  17.087  0.8600 -0.3173 -0.3017
  194MPD1    C3 3004   4.115   4.447  17.031  0.0819 -0.3483  0.0055
  194MPD1    C4 3005   4.105   4.463  16.896 -0.8065 -0.3867  0.0490
  194MPD1    C5 3006   4.204   4.508  16.811  0.5125  0.0081 -0.9462
  194MPD1     H 3007   4.255   4.464  17.193  1.6630 -3.6113 -0.8053
  194MPD1    H1 3008   4.009   4.450  16.847 -1.7640  0.6514  1.6476
  194MPD1    H2 3009   4.403   4.568  16.807 -1.8395  1.5086 -1.0102
  194MPD1    H3 3010   4.184   4.525  16.706  0.4946 -2.1884 -1.2946
  194MPD1     N 3011   4.002   4.398  17.106 -0.2370 -0.7576 -0.5601
  194MPD1    H5 3012   3.916   4.370  17.060 -0.6131 -0.2663 -0.1634
  194MPD1    N1 3013   4.466   4.561  17.055  0.2653  0.0800 -0.1658
  194MPD1    H6 3014   4.487   4.505  17.138  2.4371  0.9059 -0.1619
  194MPD1    H7 3015   4.548   4.559  16.995 -0.0855 -0.1499 -0.6348
  195MPD1     C 3016   0.469   1.536  17.637  0.1918 -0.0652 -0.0572
  195MPD1    C1 3017   0.397   1.547  17.754 -0.5617 -0.9987  0.5532
  195MPD1    C2 3018   0.436   1.480   0.104  1.0185  0.0985 -0.3100
  195MPD1    C3 3019   0.535   1.375   0.091 -0.3639  0.2682 -0.6211
  195MPD1    C4 3020   0.596   1.359  17.734 -1.1609  0.1474  0.2001
  195MPD1    C5 3021   0.564   1.439  17.627 -0.2637  0.0595 -0.0965
  195MPD1     H 3022   0.391   1.504   0.200  0.1312  1.7731 -1.1428
  195MPD1    H1 3023   0.669   1.281  17.715 -2.3082 -0.7467 -0.5772
  195MPD1    H2 3024   0.454   1.602  17.552  0.9085  0.7370  0.4300
  195MPD1    H3 3025   0.612   1.423  17.531  2.1882  1.1303  0.9613
  195MPD1     N 3026   0.563   1.277   0.187  0.1760  0.5701 -0.5643
  195MPD1    H5 3027   0.609   1.193   0.153 -1.0671  0.0203 -0.8624
  195MPD1    N1 3028   0.313   1.659   0.010 -0.1617 -0.0831 -0.3895
  195MPD1    H6 3029   0.262   1.689  17.691 -0.1016  1.7212  0.2303
  195MPD1    H7 3030   0.256   1.666   0.094  1.1900 -0.3313  0.5553
  196MPD1     C 3031   4.436   0.604   0.800  0.1755  0.0782  0.4114
  196MPD1    C1 3032   4.326   0.624   0.880  0.1354  0.1626  0.5084
  196MPD1    C2 3033   4.329   0.739   0.960  0.8581 -0.1644  1.2131
  196MPD1    C3 3034   4.442   0.826   0.973  0.2803 -0.3564  0.0465
  196MPD1    C4 3035   4.549   0.796   0.890 -0.0819 -0.9565  0.5810
  196MPD1    C5 3036   4.549   0.685   0.813 -0.1177  0.0966  0.5528
  196MPD1     H 3037   4.238   0.756   1.017  0.3574 -0.1560  0.4057
  196MPD1    H1 3038   4.643   0.843   0.917 -1.7475  1.0289  3.0411
  196MPD1    H2 3039   4.436   0.522   0.729 -2.2832  0.4139  0.0382
  196MPD1    H3 3040   4.639   0.659   0.759 -0.8228  0.4131 -0.7598
  196MPD1     N 3041   4.456   0.933   1.064 -0.2130 -0.0120  0.0681
  196MPD1    H5 3042   4.549   0.973   1.070 -0.2222  0.0227 -0.0207
  196MPD1    N1 3043   4.214   0.546   0.860  0.3562 -0.1682 -0.2307
  196MPD1    H6 3044   4.228   0.462   0.803 -0.7340 -2.2945  2.6662
  196MPD1    H7 3045   4.178   0.515   0.949  1.8124  2.1826  1.1887
  197MPD1     C 3046   4.428   2.987   0.215 -0.6847  0.7803  0.3508
  197MPD1    C1 3047   4.347   3.103   0.217  0.7627  0.2061  0.0297
  197MPD1    C2 3048   4.286   3.137   0.099  0.1154  0.6542  0.0220
  197MPD1    C3 3049   4.302   3.058  17.747  0.6450  0.0832 -0.7334
  197MPD1    C4 3050   4.378   2.943  17.749 -0.2177 -0.3611  0.6006
  197MPD1    C5 3051   4.442   2.911   0.105  0.0798 -0.2380 -0.4705
  197MPD1     H 3052   4.229   3.229   0.104 -4.2629 -2.2056  2.6026
  197MPD1    H1 3053   4.386   2.874  17.666 -1.1686 -2.8475  2.5912
  197MPD1    H2 3054   4.491   2.965   0.300 -1.4774  2.1363  1.2879
  197MPD1    H3 3055   4.499   2.820   0.114 -1.4895 -1.1973 -0.2103
  197MPD1     N 3056   4.245   3.090  17.625 -0.1432 -0.2168  0.2822
  197MPD1    H5 3057   4.253   3.021  17.550  1.7339  0.9829 -0.6231
  197MPD1    N1 3058   4.330   3.175   0.338  0.1957  0.0712 -0.2668
  197MPD1    H6 3059   4.299   3.272   0.342 -0.0388  0.0706 -1.7666
  197MPD1    H7 3060   4.412   3.162   0.395  0.2267  1.1587 -0.0557
  198MPD1     C 3061   1.864   0.714  15.486  0.4482 -0.9821  0.3443
  198MPD1    C1 3062   1.845   0.832  15.412  0.3035 -0.0338 -0.0608
  198MPD1    C2 3063   1.733   0.914  15.440 -0.0396  0.7138 -0.2991
  198MPD1    C3 3064   1.650   0.878  15.541  0.0292  0.6323  0.4289
  198MPD1    C4 3065   1.671   0.762  15.608  0.0686 -0.8815 -0.3450
  198MPD1    C5 3066   1.773   0.680  15.580  0.6293 -0.3061 -1.0351
  198MPD1     H 3067   1.725   1.012  15.395  1.2294  1.9029  2.0427
  198MPD1    H1 3068   1.604   0.732  15.688  1.4860  0.0800  1.2043
  198MPD1    H2 3069   1.941   0.645  15.452  2.6664  0.9747  1.3332
  198MPD1    H3 3070   1.791   0.589  15.636 -1.5993 -0.1796 -0.0765
  198MPD1     N 3071   1.542   0.959  15.589 -0.2052  0.1602  0.2947
  198MPD1    H5 3072   1.542   1.056  15.559 -0.8330 -0.4659 -1.7046
  198MPD1    N1 3073   1.927   0.868  15.307  0.2177  0.3249 -0.8795
  198MPD1    H6 3074   2.024   0.865  15.336 -1.1152 -1.5981  3.3760
  198MPD1    H7 3075   1.903   0.965  15.287 -0.6746  0.1997 -0.4037
  199MPD1     C 3076   2.518   2.818   9.718 -0.4166 -0.1531  0.4256
  199MPD1    C1 3077   2.413   2.897   9.751  0.3084  0.4869  0.1830
  199MPD1    C2 3078   2.440   3.021   9.806  0.1458 -0.2334  0.8965
  199MPD1    C3 3079   2.560   3.043   9.869  0.8037  0.0493 -0.1051
  199MPD1    C4 3080   2.669   2.960   9.842 -0.5753 -0.1573  0.4007
  199MPD1    C5 3081   2.647   2.840   9.768 -0.7222  0.1598 -0.5057
  199MPD1     H 3082   2.357   3.089   9.823  0.2217 -0.1089  0.7562
  199MPD1    H1 3083   2.769   2.969   9.884  0.1677  2.2205 -1.9473
  199MPD1    H2 3084   2.488   2.723   9.674 -2.1333  1.7952 -2.6036
  199MPD1    H3 3085   2.724   2.765   9.757 -2.0228 -1.3067  0.5227
  199MPD1     N 3086   2.588   3.152   9.956 -0.5372  0.4117 -0.5000
  199MPD1    H5 3087   2.688   3.165   9.970 -0.9020  1.0661  1.4447
  199MPD1    N1 3088   2.280   2.861   9.709  0.1884 -0.7486  0.2496
  199MPD1    H6 3089   2.208   2.905   9.765 -0.0715  0.5750 -1.1337
  199MPD1    H7 3090   2.263   2.762   9.697 -0.0065 -0.7927  0.9140
  200MPD1     C 3091   2.420   2.523  16.321 -0.7267  0.3743  0.3596
  200MPD1    C1 3092   2.547   2.554  16.278 -0.1107  0.3382  1.2613
  200MPD1    C2 3093   2.563   2.591  16.145 -0.0652  0.2677  0.8248
  200MPD1    C3 3094   2.463   2.574  16.054  0.6720  0.3681  0.0399
  200MPD1    C4 3095   2.339   2.531  16.105 -0.1939 -0.6078 -0.5889
  200MPD1    C5 3096   2.319   2.515  16.232 -0.5194  0.2440  0.2149
  200MPD1     H 3097   2.656   2.640  16.118 -0.5991  1.3152  0.8738
  200MPD1    H1 3098   2.261   2.507  16.034  0.2053  0.9306 -1.5570
  200MPD1    H2 3099   2.396   2.498  16.424 -0.2487  2.7528  1.0537
  200MPD1    H3 3100   2.220   2.489  16.266 -0.8595  1.0009 -0.2099
  200MPD1     N 3101   2.489   2.596  15.917  0.5197 -0.0839 -0.1861
  200MPD1    H5 3102   2.583   2.630  15.901 -0.6465  3.0571 -0.1816
  200MPD1    N1 3103   2.651   2.569  16.367  0.4984 -0.1529  0.1989
  200MPD1    H6 3104   2.744   2.582  16.328  0.3954 -1.1438 -0.3744
  200MPD1    H7 3105   2.632   2.535  16.460 -0.1563  1.1735  0.5618
  201MPD1     C 3106   0.172   2.392  12.701 -0.1759  0.2594 -0.0987
  201MPD1    C1 3107   0.063   2.306  12.691 -0.4727 -0.6699 -0.3833
  201MPD1    C2 3108   0.091   2.174  12.702 -0.1525  0.2771 -0.4761
  201MPD1    C3 3109   0.210   2.118  12.730 -0.2831  0.1785 -1.0670
  201MPD1    C4 3110   0.314   2.207  12.740 -0.2291 -0.2759 -0.0198
  201MPD1    C5 3111   0.295   2.340  12.719  0.7922  0.0048 -0.1916
  201MPD1     H 3112   0.012   2.101  12.694  0.1990 -0.0709 -0.7906
  201MPD1    H1 3113   0.413   2.184  12.778  0.1939  0.5033 -0.6493
  201MPD1    H2 3114   0.157   2.499  12.702 -1.6268  0.0689 -1.1909
  201MPD1    H3 3115   0.378   2.409  12.716  1.2614 -0.4115  3.0853
  201MPD1     N 3116   0.235   1.980  12.735  0.6663 -0.5314 -0.3012
  201MPD1    H5 3117   0.153   1.922  12.735  1.6282 -1.8922 -0.5858
  201MPD1    N1 3118   4.675   2.359  12.661 -0.0982 -0.2546 -0.1622
  201MPD1    H6 3119   4.597   2.300  12.686 -1.2094  0.7252 -1.3416
  201MPD1    H7 3120   4.666   2.445  12.714 -2.7360 -1.3631  1.1836
  202MPD1     C 3121   4.460   1.943   9.392  0.8552  0.4200 -0.6995
  202MPD1    C1 3122   4.529   1.833   9.442 -0.0224  0.2498 -0.6305
  202MPD1    C2 3123   4.521   1.823   9.581  0.0932 -0.9439 -0.0948
  202MPD1    C3 3124   4.471   1.924   9.663 -0.5406  0.0475  0.4544
  202MPD1    C4 3125   4.419   2.035   9.605  0.2764  0.2889 -0.1843
  202MPD1    C5 3126   4.416   2.051   9.470  0.3846 -0.0251 -0.5508
  202MPD1     H 3127   4.565   1.734   9.624  1.0845  0.6010  2.0510
  202MPD1    H1 3128   4.371   2.112   9.664 -0.3075  1.4116 -2.1273
  202MPD1    H2 3129   4.451   1.962   9.286  0.0151 -0.9851 -0.8806
  202MPD1    H3 3130   4.360   2.134   9.430  1.2473  1.1045  0.5713
  202MPD1     N 3131   4.474   1.922   9.805 -0.2318  0.7027 -0.5458
  202MPD1    H5 3132   4.428   1.997   9.856 -0.6032  1.1376 -1.5174
  202MPD1    N1 3133   4.539   1.714   9.363 -0.1033  0.1193  0.3226
  202MPD1    H6 3134   4.558   1.735   9.265  2.6113  0.0123  0.8134
  202MPD1    H7 3135   4.618   1.662   9.399  0.9718  1.9579  0.6405
  203MPD1     C 3136   3.169   2.532  12.636 -0.3926 -0.1585 -1.1397
  203MPD1    C1 3137   3.160   2.414  12.564 -0.2776 -1.2839 -1.0349
  203MPD1    C2 3138   3.210   2.302  12.626 -0.6992 -0.2448  0.1099
  203MPD1    C3 3139   3.270   2.303  12.749 -0.0297 -0.1196  0.0438
  203MPD1    C4 3140   3.274   2.419  12.817 -0.8911  0.6867  0.2768
  203MPD1    C5 3141   3.218   2.526  12.765 -0.2930  0.2808  0.1843
  203MPD1     H 3142   3.204   2.205  12.580 -2.3285 -0.6631  1.1966
  203MPD1    H1 3143   3.325   2.433  12.912  1.8466  0.9612 -1.2028
  203MPD1    H2 3144   3.118   2.619  12.597 -1.7666 -0.3322  0.2514
  203MPD1    H3 3145   3.211   2.621  12.817 -0.7176  0.9052 -1.0158
  203MPD1     N 3146   3.316   2.176  12.788 -0.1504 -0.1703 -0.3952
  203MPD1    H5 3147   3.283   2.091  12.743  2.5034 -1.6112  0.3706
  203MPD1    N1 3148   3.071   2.408  12.454 -0.2221  0.7244  0.3146
  203MPD1    H6 3149   3.068   2.497  12.404  2.4295 -1.2104 -3.2629
  203MPD1    H7 3150   3.095   2.333  12.389 -1.8211  1.6349 -1.3416
  204MPD1     C 3151   2.876   4.036  17.733  0.2278  0.5362 -0.1558
  204MPD1    C1 3152   2.950   4.029  17.618  0.0192 -0.1211 -0.2010
  204MPD1    C2 3153   2.990   3.901  17.576 -0.0953 -0.6231  0.3732
  204MPD1    C3 3154   2.958   3.789  17.650 -0.3400  0.1564 -0.0513
  204MPD1    C4 3155   2.883   3.806  17.761 -0.9917  0.4737 -0.5502
  204MPD1    C5 3156   2.838   3.925   0.040 -0.4472  0.0300  0.0063
  204MPD1     H 3157   3.049   3.876  17.488  0.0400 -0.3413  0.3842
  204MPD1    H1 3158   2.849   3.720   0.055 -2.2650  1.4877  0.2185
  204MPD1    H2 3159   2.857   4.134   0.013 -2.9408 -0.7362  1.3439
  204MPD1    H3 3160   2.791   3.936   0.137  1.3693  0.5490  0.8414
  204MPD1     N 3161   3.008   3.659  17.606  0.0769 -0.0671  0.0131
  204MPD1    H5 3162   3.057   3.660  17.517 -0.1808 -2.9095 -0.1628
  204MPD1    N1 3163   2.991   4.142  17.542 -1.0527 -0.5914  0.1991
  204MPD1    H6 3164   2.924   4.218  17.549  0.2019  0.4823  0.6177
  204MPD1    H7 3165   3.016   4.135  17.444 -1.7627 -0.8856  0.0434
  205MPD1     C 3166   3.278   2.296  16.852 -0.4017  0.4149  0.2919
  205MPD1    C1 3167   3.340   2.194  16.913 -0.2426 -0.1715 -0.7537
  205MPD1    C2 3168   3.340   2.193  17.053  0.2376  1.0507 -0.4396
  205MPD1    C3 3169   3.288   2.301  17.120  0.2958  0.2703  0.7204
  205MPD1    C4 3170   3.232   2.409  17.056  0.3551  0.5241  0.1374
  205MPD1    C5 3171   3.220   2.401  16.925 -0.2720  0.2544 -0.2534
  205MPD1     H 3172   3.381   2.107  17.104 -0.7506  0.7380 -0.1907
  205MPD1    H1 3173   3.181   2.487  17.111 -2.9417 -0.1820 -1.8860
  205MPD1    H2 3174   3.259   2.307  16.746 -0.3901  0.3621  0.2845
  205MPD1    H3 3175   3.173   2.475  16.862  0.4888 -0.3378 -1.5082
  205MPD1     N 3176   3.288   2.316  17.262 -0.5448  0.3439  0.2349
  205MPD1    H5 3177   3.269   2.409  17.298 -0.0653  1.2439 -1.8250
  205MPD1    N1 3178   3.368   2.080  16.835  0.1434 -0.6192  0.1687
  205MPD1    H6 3179   3.439   2.029  16.887  1.8973  1.9983  0.3313
  205MPD1    H7 3180   3.386   2.093  16.736  2.3253  0.5547  0.7316
  206MPD1     C 3181   3.886   0.396  15.914  0.1134  0.2793  0.6844
  206MPD1    C1 3182   3.800   0.356  15.808  0.5517 -0.5674  0.2050
  206MPD1    C2 3183   3.691   0.275  15.844 -0.6647  1.0538  1.1268
  206MPD1    C3 3184   3.661   0.252  15.981 -0.5376 -0.0991 -0.2376
  206MPD1    C4 3185   3.733   0.310  16.081  0.0943 -0.0556 -0.2532
  206MPD1    C5 3186   3.851   0.370  16.049  0.6336  0.0052 -0.0886
  206MPD1     H 3187   3.631   0.235  15.762 -0.3894  0.5376  1.1781
  206MPD1    H1 3188   3.703   0.303  16.185  0.6173 -0.8245 -0.1539
  206MPD1    H2 3189   3.983   0.442  15.898  1.2659 -3.3067 -2.3505
  206MPD1    H3 3190   3.914   0.404  16.131  1.6066  2.1164 -1.6940
  206MPD1     N 3191   3.557   0.165  16.027  0.3299  0.2019  0.1466
  206MPD1    H5 3192   3.540   0.158  16.127 -0.0326  1.1952  0.1492
  206MPD1    N1 3193   3.839   0.365  15.667  0.0734  0.2999  0.3206
  206MPD1    H6 3194   3.900   0.444  15.643  2.0980 -1.8087 -1.4822
  206MPD1    H7 3195   3.761   0.373  15.601 -0.5547 -0.6660  0.9501
  207MPD1     C 3196   0.185   2.889   9.963  0.0805 -0.4318  0.0094
  207MPD1    C1 3197   0.178   2.835  10.087  0.0264  0.3893 -0.1047
  207MPD1    C2 3198   0.292   2.822  10.164  0.3444  0.4906 -0.1635
  207MPD1    C3 3199   0.408   2.889  10.115  0.5481  0.2759  0.4954
  207MPD1    C4 3200   0.404   2.961   9.994  0.1174  0.7582 -0.7842
  207MPD1    C5 3201   0.290   2.962   9.921 -0.3867 -0.7653  0.1475
  207MPD1     H 3202   0.295   2.771  10.259  0.6449  0.7702 -0.0217
  207MPD1    H1 3203   0.488   2.999   9.937 -1.0815  3.9188 -0.4839
  207MPD1    H2 3204   0.093   2.899   9.906  0.6611  1.8163 -0.5295
  207MPD1    H3 3205   0.280   3.018   9.829  1.4159 -0.8714 -0.1017
  207MPD1     N 3206   0.533   2.895  10.182 -0.9110  0.3455 -0.2672
  207MPD1    H5 3207   0.609   2.952  10.143 -0.7776  1.2621  1.3223
  207MPD1    N1 3208   0.063   2.761  10.118 -0.3571  0.3038  0.2092
  207MPD1    H6 3209   4.722   2.810  10.083  0.3618  1.5345  0.2570
  207MPD1    H7 3210   0.058   2.735  10.216 -3.9252 -2.3349 -0.6484
  208MPD1     C 3211   3.852   0.919   0.096 -0.3860  0.2346  0.0384
  208MPD1    C1 3212   3.863   0.896   0.232  0.3799  0.2704 -0.1136
  208MPD1    C2 3213   3.793   0.981   0.314 -0.0452  0.6036  0.5071
  208MPD1    C3 3214   3.695   1.065   0.260 -0.0271  0.4889 -0.0987
  208MPD1    C4 3215   3.670   1.064   0.124 -0.1514  0.3744 -0.1028
  208MPD1    C5 3216   3.752   0.988   0.045  0.6487 -0.2085 -0.4686
  208MPD1     H 3217   3.797   0.960   0.420  0.4856  1.5222  0.6666
  208MPD1    H1 3218   3.602   1.135   0.078 -0.5224  1.2311  1.7386
  208MPD1    H2 3219   3.909   0.869   0.019  1.6395 -0.2042  1.8208
  208MPD1    H3 3220   3.747   1.007  17.702  0.3589  2.7638  0.0705
  208MPD1     N 3221   3.625   1.157   0.347  0.7480 -0.2303 -0.0172
  208MPD1    H5 3222   3.662   1.148   0.441  1.2671 -0.7576 -0.2696
  208MPD1    N1 3223   3.959   0.800   0.275  0.3685 -0.2136 -0.1901
  208MPD1    H6 3224   3.970   0.723   0.209 -1.8337  0.5466 -1.4315
  208MPD1    H7 3225   3.919   0.744   0.350 -0.3536  1.7707  0.8805
  209MPD1     C 3226   0.523   1.654  10.652  1.1453 -0.6126  0.0048
  209MPD1    C1 3227   0.588   1.749  10.574  0.0725 -0.3506 -0.3120
  209MPD1    C2 3228   0.685   1.822  10.636  0.6859  0.2596 -0.4720
  209MPD1    C3 3229   0.728   1.799  10.766  0.0674  0.1307  0.2621
  209MPD1    C4 3230   0.666   1.702  10.836  0.1335  0.5457  0.3401
  209MPD1    C5 3231   0.568   1.624  10.776 -0.4262  0.0657  0.0610
  209MPD1     H 3232   0.730   1.902  10.579  2.5683  0.1425  0.8421
  209MPD1    H1 3233   0.693   1.675  10.937  1.1309  2.0680  0.4794
  209MPD1    H2 3234   0.437   1.601  10.615 -0.1414  0.3872  1.5379
  209MPD1    H3 3235   0.521   1.554  10.844 -1.5895 -1.3925 -2.2840
  209MPD1     N 3236   0.821   1.886  10.827 -0.6684 -0.0368  0.2611
  209MPD1    H5 3237   0.866   1.944  10.757  1.5174 -1.6191  0.3601
  209MPD1    N1 3238   0.529   1.783  10.445 -0.3541  0.5482  0.7678
  209MPD1    H6 3239   0.489   1.708  10.389 -1.9308  0.5889  1.8107
  209MPD1    H7 3240   0.600   1.823  10.385 -0.3893  2.2241  1.8527
  210MPD1     C 3241   1.092   1.789  11.767 -0.1511  0.4109  0.0232
  210MPD1    C1 3242   1.206   1.828  11.704  0.1128 -0.3209 -0.2543
  210MPD1    C2 3243   1.188   1.890  11.584  1.1427  0.2498 -0.1871
  210MPD1    C3 3244   1.063   1.914  11.525 -0.0468 -0.1121 -0.3876
  210MPD1    C4 3245   0.949   1.875  11.593  0.3885 -0.0110 -0.2422
  210MPD1    C5 3246   0.964   1.815  11.718 -1.0819  0.4128  0.7615
  210MPD1     H 3247   1.274   1.925  11.528 -0.4625  0.7569 -2.3545
  210MPD1    H1 3248   0.852   1.899  11.553 -0.0955  0.1317  1.0026
  210MPD1    H2 3249   1.101   1.723  11.852  1.1337  1.0248  0.3656
  210MPD1    H3 3250   0.881   1.775  11.774 -0.7834 -3.0304 -1.1812
  210MPD1     N 3251   1.050   1.965  11.389 -0.2205 -0.1924  0.3541
  210MPD1    H5 3252   0.954   1.964  11.356 -0.4699  1.0474  1.0182
  210MPD1    N1 3253   1.337   1.808  11.759 -0.3494  0.1399  0.1330
  210MPD1    H6 3254   1.333   1.743  11.837  0.6789  1.1212  1.0063
  210MPD1    H7 3255   1.393   1.889  11.783 -2.0243  0.5245  2.7199
  211MPD1     C 3256   3.527   1.634  16.159 -0.1109 -0.0491 -0.0845
  211MPD1    C1 3257   3.557   1.767  16.153  0.0027  0.7069 -0.7428
  211MPD1    C2 3258   3.468   1.865  16.181 -0.6487 -0.2955  0.7937
  211MPD1    C3 3259   3.337   1.822  16.224  0.3534 -0.3621  0.4946
  211MPD1    C4 3260   3.307   1.681  16.224  0.4771  0.3836  0.0648
  211MPD1    C5 3261   3.404   1.595  16.187 -0.0737 -0.5363 -0.4870
  211MPD1     H 3262   3.497   1.968  16.193  1.3846 -0.3631 -3.9811
  211MPD1    H1 3263   3.216   1.629  16.253 -0.6482  0.2999 -3.6024
  211MPD1    H2 3264   3.605   1.563  16.133  0.7778  1.6524 -2.0332
  211MPD1    H3 3265   3.371   1.492  16.178  0.6249 -0.8922  1.0435
  211MPD1     N 3266   3.246   1.919  16.272 -0.6629 -0.4788 -0.1628
  211MPD1    H5 3267   3.280   2.015  16.278  0.0054 -0.7250  0.0754
  211MPD1    N1 3268   3.691   1.807  16.136 -0.1495  0.2801  0.4549
  211MPD1    H6 3269   3.745   1.752  16.070  0.7539  0.5633  0.9500
  211MPD1    H7 3270   3.690   1.893  16.081  1.0771 -0.2904 -0.4485
  212MPD1     C 3271   2.426   0.432  16.149  0.1236  0.2398 -0.1890
  212MPD1    C1 3272   2.342   0.483  16.252 -0.7420 -0.5282  0.0381
  212MPD1    C2 3273   2.354   0.434  16.377 -0.1680  0.0113  0.0825
  212MPD1    C3 3274   2.418   0.311  16.401  0.1338 -0.2113  0.6047
  212MPD1    C4 3275   2.477   0.250  16.292 -0.8514 -0.0391 -0.0957
  212MPD1    C5 3276   2.478   0.307  16.171  0.1682  0.1499 -0.6609
  212MPD1     H 3277   2.308   0.490  16.458 -1.0143  0.6270 -0.8313
  212MPD1    H1 3278   2.531   0.158  16.310  1.4681  1.2578 -0.5281
  212MPD1    H2 3279   2.434   0.473  16.049 -0.6257  0.6238 -0.0951
  212MPD1    H3 3280   2.540   0.257  16.097  0.5174  0.8919 -0.8710
  212MPD1     N 3281   2.441   0.248  16.526  0.1739  0.9626  0.5767
  212MPD1    H5 3282   2.497   0.163  16.522  0.0981  0.9343  0.0839
  212MPD1    N1 3283   2.285   0.611  16.243  0.1655  0.2873 -0.2076
  212MPD1    H6 3284   2.203   0.616  16.302 -0.0701  0.5377 -0.5581
  212MPD1    H7 3285   2.261   0.631  16.147 -0.1418 -2.0312 -0.6282
  213MPD1     C 3286   0.747   0.595  15.928 -0.5204 -0.0442  0.0549
  213MPD1    C1 3287   0.652   0.509  15.878  0.0211 -0.4002 -0.0588
  213MPD1    C2 3288   0.568   0.552  15.776  0.0205  0.2496 -0.2881
  213MPD1    C3 3289   0.597   0.669  15.710 -0.5690  0.0581 -0.3298
  213MPD1    C4 3290   0.715   0.737  15.743 -0.1187 -0.3466  0.5802
  213MPD1    C5 3291   0.790   0.702  15.852 -0.3559 -0.7886  0.5262
  213MPD1     H 3292   0.481   0.495  15.746  0.6177 -1.5246  1.4002
  213MPD1    H1 3293   0.744   0.823  15.683 -4.5169 -0.6501 -1.9780
  213MPD1    H2 3294   0.822   0.566  16.000 -0.6820 -1.2436 -0.2435
  213MPD1    H3 3295   0.881   0.754  15.881  0.2250 -1.8321  0.5695
  213MPD1     N 3296   0.515   0.707  15.599 -0.2253 -0.7003  0.6583
  213MPD1    H5 3297   0.438   0.642  15.585 -1.6608  1.1114  0.2417
  213MPD1    N1 3298   0.604   0.419  15.975  0.0357 -0.5600  0.4683
  213MPD1    H6 3299   0.674   0.365  16.025 -0.0036  0.5114  1.6823
  213MPD1    H7 3300   0.556   0.338  15.938 -0.1690 -0.9859  1.6622
  214MPD1     C 3301   4.525   0.333  15.087  0.5509  0.2996  0.6721
  214MPD1    C1 3302   4.564   0.365  15.218  0.4766  0.2052 -0.3118
  214MPD1    C2 3303   4.656   0.465  15.244  0.3760  0.1830  0.5229
  214MPD1    C3 3304   4.733   0.511  15.136 -0.2898 -0.2620  0.1240
  214MPD1    C4 3305   4.718   0.460  15.003  0.5286 -0.3895  0.3854
  214MPD1    C5 3306   4.600   0.388  14.982 -0.2891  0.2000 -0.0538
  214MPD1     H 3307   4.656   0.526  15.333  0.0761 -1.3250  1.5584
  214MPD1    H1 3308   0.039   0.502  14.925  1.4438  1.6794  2.2229
  214MPD1    H2 3309   4.438   0.276  15.055  1.1555 -0.9568  1.2644
  214MPD1    H3 3310   4.583   0.350  14.882  2.2644  2.9107 -1.5397
  214MPD1     N 3311   0.098   0.600  15.164 -0.0250  0.0838 -0.0421
  214MPD1    H5 3312   0.148   0.638  15.084  0.2770  1.4314  0.7862
  214MPD1    N1 3313   4.483   0.327  15.323 -0.6593 -0.1674  0.6345
  214MPD1    H6 3314   4.452   0.232  15.301 -1.5415  0.3108 -0.1421
  214MPD1    H7 3315   4.529   0.321  15.414 -1.0097  0.7890  0.8740
  215MPD1     C 3316   0.209   2.069  10.694 -0.0009  0.0492 -0.5776
  215MPD1    C1 3317   0.179   2.201  10.716 -0.4199  0.5791 -0.9486
  215MPD1    C2 3318   0.281   2.275  10.769 -0.3007 -0.5833  0.0918
  215MPD1    C3 3319   0.398   2.217  10.814  0.1436 -0.2016  0.3646
  215MPD1    C4 3320   0.408   2.082  10.813  0.2774  0.8177 -0.4728
  215MPD1    C5 3321   0.312   2.008  10.750  0.1595 -0.1131  0.5928
  215MPD1     H 3322   0.261   2.376  10.801 -1.1906 -1.0247  0.9447
  215MPD1    H1 3323   0.484   2.022  10.861 -0.3117 -0.4666 -1.1366
  215MPD1    H2 3324   0.143   2.005  10.636  1.7507 -1.1893 -1.2106
  215MPD1    H3 3325   0.322   1.900  10.747  0.8519 -0.0657  1.0346
  215MPD1     N 3326   0.497   2.307  10.870  0.0440  0.0875 -0.8579
  215MPD1    H5 3327   0.473   2.405  10.873  0.0936 -0.0117  3.2489
  215MPD1    N1 3328   0.057   2.251  10.664  0.0984 -0.1251  0.1919
  215MPD1    H6 3329   0.019   2.339  10.700  0.0964 -1.0555  2.4643
  215MPD1    H7 3330   4.722   2.185  10.659  0.1557 -0.1351 -0.5590
  216MPD1     C 3331   2.297   0.285   0.079 -0.5407  0.0452 -0.1971
  216MPD1    C1 3332   2.264   0.192   0.173  0.0767 -0.0488  0.0564
  216MPD1    C2 3333   2.311   0.061   0.156  0.5522 -0.0601  0.4848
  216MPD1    C3 3334   2.382   0.025   0.044 -0.0235 -0.4995 -0.2862
  216MPD1    C4 3335   2.421   0.117  17.715 -0.0066 -0.0868  0.1577
  216MPD1    C5 3336   2.379   0.245  17.736 -0.1771  0.3684  0.4619
  216MPD1     H 3337   2.301   4.728   0.233  0.5741  0.4528  0.9817
  216MPD1    H1 3338   2.488   0.106  17.630  0.1798  0.5860  0.2218
  216MPD1    H2 3339   2.272   0.390   0.084 -1.3998 -0.1723  0.1118
  216MPD1    H3 3340   2.401   0.328  17.670  0.5925 -1.5444 -1.6757
  216MPD1     N 3341   2.413   4.629   0.027  0.3212  0.1099  0.1049
  216MPD1    H5 3342   2.393   4.565   0.104  2.7485 -0.9435 -0.1407
  216MPD1    N1 3343   2.204   0.229   0.298  0.0801  0.6398  0.0285
  216MPD1    H6 3344   2.163   0.149   0.346 -1.0456  1.2913  0.1355
  216MPD1    H7 3345   2.139   0.306   0.287 -1.9228 -1.1709 -0.8856
  217MPD1     C 3346   3.019   2.014   8.599 -0.2037  0.3691  0.3100
  217MPD1    C1 3347   3.138   1.945   8.581  0.3160 -0.1364 -0.7586
  217MPD1    C2 3348   3.223   1.930   8.690  0.7556  0.1795  0.0973
  217MPD1    C3 3349   3.174   1.956   8.817  1.2860  0.3398 -0.1922
  217MPD1    C4 3350   3.049   2.016   8.833 -0.0472 -0.2272 -0.0824
  217MPD1    C5 3351   2.980   2.055   8.724 -0.1022 -0.2194 -0.0495
  217MPD1     H 3352   3.324   1.892   8.675  0.6513 -1.0071  2.3513
  217MPD1    H1 3353   3.006   2.031   8.932 -0.3723  1.0925 -0.4191
  217MPD1    H2 3354   2.945   2.029   8.521  0.0106  1.9347  0.3967
  217MPD1    H3 3355   2.890   2.114   8.737  1.6926  2.4377  0.1860
  217MPD1     N 3356   3.251   1.936   8.933  0.0599 -0.4078  0.2244
  217MPD1    H5 3357   3.216   1.976   9.020 -0.7638 -2.0432  0.6420
  217MPD1    N1 3358   3.175   1.906   8.447 -0.9580  0.1969 -0.4117
  217MPD1    H6 3359   3.097   1.880   8.388 -1.3881  0.4404  0.0534
  217MPD1    H7 3360   3.240   1.828   8.452 -0.5823  0.6953  2.5554
  218MPD1     C 3361   0.190   2.389  13.640 -0.5999  0.0067 -0.4195
  218MPD1    C1 3362   0.234   2.282  13.568 -0.1884 -0.7091 -0.0194
  218MPD1    C2 3363   0.343   2.290  13.488  0.0311  0.4970 -0.0361
  218MPD1    C3 3364   0.414   2.416  13.480  0.3091  0.2446 -0.4438
  218MPD1    C4 3365   0.367   2.518  13.559 -0.9733 -0.7441  0.5526
  218MPD1    C5 3366   0.266   2.502  13.643 -0.0560 -0.2184  0.3004
  218MPD1     H 3367   0.373   2.213  13.418 -0.0537  1.3241 -0.9861
  218MPD1    H1 3368   0.413   2.615  13.546 -0.8228 -1.0684 -1.3337
  218MPD1    H2 3369   0.094   2.380  13.690  0.6263 -3.9892  1.2342
  218MPD1    H3 3370   0.240   2.585  13.708  1.1378  0.7823 -0.4993
  218MPD1     N 3371   0.532   2.422  13.394  0.2112  0.0688 -0.2711
  218MPD1    H5 3372   0.551   2.333  13.350  0.0518  0.3970 -1.0088
  218MPD1    N1 3373   0.150   2.170  13.561 -0.3725  0.1398 -0.7175
  218MPD1    H6 3374   0.201   2.083  13.550  0.1723  0.3407  0.1826
  218MPD1    H7 3375   0.098   2.155  13.647  0.2239 -1.0316 -0.5656
  219MPD1     C 3376   0.494   2.864  12.579  0.3581 -0.5990 -0.3853
  219MPD1    C1 3377   0.628   2.876  12.593  0.2269 -0.5467  0.0878
  219MPD1    C2 3378   0.687   2.813  12.704 -0.1037  0.2279 -0.4108
  219MPD1    C3 3379   0.608   2.756  12.797  0.0124 -0.1021  0.2443
  219MPD1    C4 3380   0.473   2.771  12.794  0.2615  0.0532 -0.2756
  219MPD1    C5 3381   0.423   2.811  12.677  0.8637  0.5037 -0.8272
  219MPD1     H 3382   0.794   2.827  12.716 -0.1976  0.1884  0.4518
  219MPD1    H1 3383   0.410   2.723  12.869  0.5291  1.1864  0.6845
  219MPD1    H2 3384   0.434   2.894  12.494  1.5904  0.1097 -1.0011
  219MPD1    H3 3385   0.314   2.805  12.670  0.8310  0.5605 -0.3609
  219MPD1     N 3386   0.654   2.699  12.915 -0.0476  0.4849  0.6502
  219MPD1    H5 3387   0.591   2.686  12.994 -1.9579  0.1761 -0.9204
  219MPD1    N1 3388   0.706   2.925  12.486  0.2584  0.4948  0.5320
  219MPD1    H6 3389   0.668   2.996  12.423  3.2516  0.2103 -1.6308
  219MPD1    H7 3390   0.805   2.943  12.502  0.5967 -0.6152 -0.3259
  220MPD1     C 3391   4.741   3.463   9.732  0.7649 -0.4168 -0.6055
  220MPD1    C1 3392   4.660   3.480   9.840 -0.3875  0.1776  0.0264
  220MPD1    C2 3393   4.702   3.434   9.962 -0.0520  0.2798  0.0363
  220MPD1    C3 3394   0.074   3.367   9.976  0.5656  0.4896 -0.0720
  220MPD1    C4 3395   0.165   3.360   9.872 -0.2125 -0.9902 -0.0306
  220MPD1    C5 3396   0.122   3.397   9.746 -0.0353 -1.2857 -0.5484
  220MPD1     H 3397   4.642   3.455  10.050  0.7200  1.1559  0.3576
  220MPD1    H1 3398   0.268   3.327   9.876  0.4883  0.9835 -1.4887
  220MPD1    H2 3399   4.723   3.496   9.630 -0.2295 -1.5766 -0.8025
  220MPD1    H3 3400   0.192   3.384   9.664 -0.1687  0.3769 -0.9339
  220MPD1     N 3401   0.102   3.322  10.108 -1.1455  0.8120  1.2125
  220MPD1    H5 3402   0.028   3.339  10.176 -1.7429  0.3182  0.6884
  220MPD1    N1 3403   4.531   3.534   9.822 -0.0155 -0.5577  0.1726
  220MPD1    H6 3404   4.492   3.562   9.912 -0.4913 -1.1918  0.1644
  220MPD1    H7 3405   4.527   3.607   9.752 -1.6136 -0.3666  0.4580
  221MPD1     C 3406   2.927   1.340  16.859  0.1857  0.5365 -0.4692
  221MPD1    C1 3407   3.041   1.301  16.915 -0.0497  0.7272  0.0466
  221MPD1    C2 3408   3.105   1.190  16.866 -0.4002  0.0124 -0.5879
  221MPD1    C3 3409   3.053   1.113  16.761  1.1770 -0.5632 -0.1666
  221MPD1    C4 3410   2.934   1.157  16.702  0.1309 -0.1575 -0.4013
  221MPD1    C5 3411   2.873   1.273  16.755  0.2886 -0.1745  0.1898
  221MPD1     H 3412   3.203   1.176  16.911  0.4822 -1.0368 -2.8396
  221MPD1    H1 3413   2.881   1.104  16.623  0.7364 -1.9588  0.4108
  221MPD1    H2 3414   2.878   1.429  16.898 -2.5178 -0.0518 -2.5303
  221MPD1    H3 3415   2.779   1.311  16.718  1.0837  1.6097 -0.0115
  221MPD1     N 3416   3.115   0.999  16.706  0.3817  0.4467 -0.1053
  221MPD1    H5 3417   3.074   0.942  16.632  0.8461 -0.7959  0.5908
  221MPD1    N1 3418   3.108   1.376  17.010 -0.1263  0.0199 -0.4813
  221MPD1    H6 3419   3.169   1.318  17.067 -2.3030  0.8293  2.6838
  221MPD1    H7 3420   3.053   1.429  17.077 -3.7074 -1.7989 -1.9934
  222MPD1     C 3421   1.736   1.210  17.720  1.3031 -0.3643 -0.4721
  222MPD1    C1 3422   1.747   1.167  17.589 -0.5875 -0.0610  0.8096
  222MPD1    C2 3423   1.878   1.145  17.536  0.6811  0.0522  0.0429
  222MPD1    C3 3424   1.991   1.177  17.617 -1.0774  0.7440 -0.3540
  222MPD1    C4 3425   1.973   1.229  17.743 -0.3047  0.3301 -0.5140
  222MPD1    C5 3426   1.844   1.246   0.027 -0.3349  0.4444  0.5954
  222MPD1     H 3427   1.885   1.097  17.439 -0.2192 -0.0400  0.0256
  222MPD1    H1 3428   2.056   1.251   0.045 -0.2531  0.0091 -0.4713
  222MPD1    H2 3429   1.636   1.214  17.762  1.8853  0.2164  0.8444
  222MPD1    H3 3430   1.828   1.273   0.131 -1.5751  1.7501  0.0638
  222MPD1     N 3431   2.120   1.160  17.572 -0.2443 -0.0473  0.3267
  222MPD1    H5 3432   2.187   1.175  17.647  0.1376  1.7475 -0.3773
  222MPD1    N1 3433   1.641   1.110  17.520 -0.2402 -0.5189  0.3957
  222MPD1    H6 3434   1.554   1.147  17.558  2.0029  3.4897  1.6694
  222MPD1    H7 3435   1.650   1.129  17.421 -0.6925 -0.7430  0.3102
  223MPD1     C 3436   2.640   0.489  16.980  0.8081  0.0881 -0.3953
  223MPD1    C1 3437   2.692   0.518  17.103 -0.1546  0.3866  0.1950
  223MPD1    C2 3438   2.665   0.637  17.157  0.3588  0.2389 -0.3986
  223MPD1    C3 3439   2.557   0.714  17.115 -0.3192  0.1352  0.2554
  223MPD1    C4 3440   2.489   0.676  16.999  0.2774  0.7307 -0.0264
  223MPD1    C5 3441   2.538   0.564  16.928 -0.1881 -0.5120  0.8983
  223MPD1     H 3442   2.714   0.658  17.252  0.4819 -0.9272 -0.2075
  223MPD1    H1 3443   2.401   0.731  16.970  0.4880  0.1212 -1.7782
  223MPD1    H2 3444   2.685   0.402  16.935 -1.5646 -0.2154 -2.2222
  223MPD1    H3 3445   2.484   0.531  16.840  1.8458  1.0301 -0.9121
  223MPD1     N 3446   2.510   0.829  17.191  0.4921 -0.0265  0.4771
  223MPD1    H5 3447   2.431   0.877  17.149  0.3288 -0.6028  0.1136
  223MPD1    N1 3448   2.799   0.450  17.164  0.3192  0.2774 -0.6117
  223MPD1    H6 3449   2.792   0.349  17.154 -0.4339  0.1843  0.9387
  223MPD1    H7 3450   2.812   0.471  17.263  1.2084  0.2192 -0.7094
  224MPD1     C 3451   3.794   3.114   9.671 -0.3790 -0.4151 -0.1309
  224MPD1    C1 3452   3.881   3.007   9.668 -0.5534 -0.0587  0.2211
  224MPD1    C2 3453   3.835   2.879   9.641  0.3650 -0.1005  0.2781
  224MPD1    C3 3454   3.699   2.852   9.629  0.8887  0.3214 -0.3238
  224MPD1    C4 3455   3.612   2.964   9.630 -0.5140 -0.0956 -0.5909
  224MPD1    C5 3456   3.663   3.090   9.630 -0.1834  0.3423 -0.0554
  224MPD1     H 3457   3.915   2.805   9.634 -0.5223 -1.2363  2.0650
  224MPD1    H1 3458   3.508   2.948   9.654 -0.6039  0.2353 -0.7616
  224MPD1    H2 3459   3.827   3.209   9.712 -0.7868 -0.5615  0.5296
  224MPD1    H3 3460   3.592   3.171   9.636  1.7602  2.2153 -2.1319
  224MPD1     N 3461   3.631   2.726   9.621  0.4139  0.6301 -0.5538
  224MPD1    H5 3462   3.530   2.727   9.608  0.2803  2.5306  0.4668
  224MPD1    N1 3463   4.014   3.025   9.689 -0.3036  0.4966 -0.1246
  224MPD1    H6 3464   4.051   3.120   9.677  0.1963  0.2184 -0.7775
  224MPD1    H7 3465   4.074   2.961   9.637 -0.4387 -1.8773  2.6468
  225MPD1     C 3466   0.784   3.245  12.276 -0.1033 -0.0401 -0.4974
  225MPD1    C1 3467   0.698   3.166  12.201  0.4233 -1.3342 -0.2705
  225MPD1    C2 3468   0.567   3.150  12.245  0.3199  0.1257  0.7406
  225MPD1    C3 3469   0.517   3.201  12.372 -0.1365  0.4632 -0.1649
  225MPD1    C4 3470   0.603   3.288  12.441  0.0353 -0.1102 -0.1621
  225MPD1    C5 3471   0.736   3.309  12.389 -0.1762 -0.0809 -0.2109
  225MPD1     H 3472   0.499   3.099  12.178  1.3851 -1.3552  0.7952
  225MPD1    H1 3473   0.565   3.335  12.531 -1.4626  2.0044 -1.8544
  225MPD1    H2 3474   0.877   3.273  12.229  0.0860  0.1149 -0.0252
  225MPD1    H3 3475   0.797   3.390  12.428 -0.6594 -0.1683  0.7216
  225MPD1     N 3476   0.384   3.175  12.415  0.2264  0.1943  0.3742
  225MPD1    H5 3477   0.354   3.238  12.488 -0.8904  1.2241 -0.9856
  225MPD1    N1 3478   0.743   3.105  12.083 -0.4418 -0.4084  0.1030
  225MPD1    H6 3479   0.680   3.125  12.006 -2.4976  1.3611  2.1929
  225MPD1    H7 3480   0.838   3.124  12.054 -0.5579 -0.6405 -0.4273
  226MPD1     C 3481   2.938   2.475   9.553  0.1172  0.0277 -0.6724
  226MPD1    C1 3482   3.010   2.529   9.659 -0.1497 -0.1002 -0.0673
  226MPD1    C2 3483   3.023   2.670   9.665  0.2019  0.3325 -0.9046
  226MPD1    C3 3484   2.946   2.752   9.583 -0.4641 -0.5937  0.4105
  226MPD1    C4 3485   2.866   2.697   9.483 -0.5536  0.3071 -0.6825
  226MPD1    C5 3486   2.862   2.561   9.477  0.1059 -0.3902  0.2859
  226MPD1     H 3487   3.085   2.710   9.745 -0.2975 -0.8370  0.0531
  226MPD1    H1 3488   2.808   2.752   9.410 -0.0987  1.1159 -0.4368
  226MPD1    H2 3489   2.931   2.369   9.534  0.8768 -0.2686  0.7342
  226MPD1    H3 3490   2.801   2.513   9.400 -0.1973  0.5325 -0.0608
  226MPD1     N 3491   2.965   2.893   9.602 -0.2019  0.7329 -0.3630
  226MPD1    H5 3492   3.033   2.923   9.671  0.2988  0.0024 -0.5359
  226MPD1    N1 3493   3.105   2.451   9.728 -0.2005  0.6829  0.5627
  226MPD1    H6 3494   3.142   2.496   9.812  2.0792  3.2198 -1.7696
  226MPD1    H7 3495   3.086   2.352   9.739 -1.2067  0.9254  0.9570
  227MPD1     C 3496   2.554   3.846   9.898 -0.1902 -0.0582 -0.1696
  227MPD1    C1 3497   2.691   3.864   9.873 -0.0312 -0.8949 -0.4715
  227MPD1    C2 3498   2.756   3.765   9.798 -0.1268 -0.6505 -0.7571
  227MPD1    C3 3499   2.701   3.646   9.763 -0.4440 -0.7188  0.1966
  227MPD1    C4 3500   2.568   3.628   9.817 -0.0517 -0.9150 -0.1943
  227MPD1    C5 3501   2.495   3.727   9.874  0.2095 -0.0127 -0.5632
  227MPD1     H 3502   2.858   3.787   9.769 -0.4656  1.1027 -0.6161
  227MPD1    H1 3503   2.510   3.539   9.798  0.7788 -1.1729 -1.5240
  227MPD1    H2 3504   2.490   3.920   9.944 -1.3376  0.1057 -2.0332
  227MPD1    H3 3505   2.395   3.699   9.906  0.0536  0.1716 -0.8902
  227MPD1     N 3506   2.771   3.540   9.705 -0.1022 -0.2088  0.3555
  227MPD1    H5 3507   2.866   3.567   9.680  0.0353 -0.4004  0.6621
  227MPD1    N1 3508   2.744   3.992   9.883  0.0144 -0.5326  0.6839
  227MPD1    H6 3509   2.844   3.999   9.901  0.1768 -0.2288 -0.3212
  227MPD1    H7 3510   2.700   4.045   9.958 -2.3351 -0.3691 -0.8266
  228MPD1     C 3511   2.151   0.915  13.047  0.3980 -0.0839 -0.4763
  228MPD1    C1 3512   2.066   0.951  12.942  0.3187  0.1420  0.2071
  228MPD1    C2 3513   1.931   0.904  12.936  0.4365 -0.4146  0.0220
  228MPD1    C3 3514   1.880   0.824  13.038  0.0352  1.0868  0.5413
  228MPD1    C4 3515   1.962   0.792  13.147 -0.2542 -0.6491 -0.2829
  228MPD1    C5 3516   2.090   0.842  13.143 -1.2206  0.3099 -0.2990
  228MPD1     H 3517   1.867   0.916  12.850  1.9168  0.7594 -0.9031
  228MPD1    H1 3518   1.938   0.732  13.234 -0.6299 -2.0211 -1.3366
  228MPD1    H2 3519   2.254   0.946  13.062  0.6506 -0.4393 -1.4976
  228MPD1    H3 3520   2.150   0.805  13.225 -1.8452 -2.1168 -0.9451
  228MPD1     N 3521   1.746   0.787  13.037  0.1576 -1.4737  0.5584
  228MPD1    H5 3522   1.697   0.805  12.950 -0.7932 -1.1827  1.1460
  228MPD1    N1 3523   2.128   1.007  12.834  0.1603 -0.6639 -0.0712
  228MPD1    H6 3524   2.068   1.060  12.771 -2.1895 -1.2884  1.6265
  228MPD1    H7 3525   2.202   1.071  12.860  1.1952 -0.7014 -3.0062
  229MPD1     C 3526   1.105   4.251  14.830  0.2658  0.2730 -0.5929
  229MPD1    C1 3527   1.160   4.136  14.777  0.0932  0.6416  0.4157
  229MPD1    C2 3528   1.203   4.038  14.868  0.4759 -0.6256  0.1925
  229MPD1    C3 3529   1.172   4.043  15.006  0.1448 -0.0158 -0.9494
  229MPD1    C4 3530   1.120   4.155  15.051 -0.6410 -0.5444 -0.2373
  229MPD1    C5 3531   1.087   4.255  14.965 -0.4860 -0.2941 -0.6100
  229MPD1     H 3532   1.246   3.946  14.829  0.5882 -0.7168  0.5351
  229MPD1    H1 3533   1.096   4.170  15.156  1.1198 -2.5644  0.4493
  229MPD1    H2 3534   1.058   4.334  14.779 -1.3509  0.5408  1.3374
  229MPD1    H3 3535   1.030   4.333  15.014 -0.7741 -1.3274  0.6994
  229MPD1     N 3536   1.206   3.939  15.098 -0.1066  0.0816 -0.7085
  229MPD1    H5 3537   1.195   3.962  15.196  0.9886  1.7945 -0.9726
  229MPD1    N1 3538   1.191   4.138  14.640 -0.1443 -0.4620 -0.4694
  229MPD1    H6 3539   1.194   4.050  14.588 -1.2025  0.2635 -1.7350
  229MPD1    H7 3540   1.124   4.192  14.586  0.7926 -0.3597 -1.5396
  230MPD1     C 3541   1.829   3.912  15.859 -0.4097 -0.0691 -0.3612
  230MPD1    C1 3542   1.861   3.795  15.788 -0.6813 -0.2188  0.0949
  230MPD1    C2 3543   1.788   3.764  15.675  0.2094  0.7665 -0.0308
  230MPD1    C3 3544   1.680   3.832  15.628  0.1221  0.0591 -0.1083
  230MPD1    C4 3545   1.647   3.945  15.694 -0.4020  0.4312 -0.5469
  230MPD1    C5 3546   1.726   3.980  15.803  0.4486  0.5808  0.3347
  230MPD1     H 3547   1.821   3.673  15.625  0.7727  1.6338 -1.2191
  230MPD1    H1 3548   1.559   4.004  15.673  0.5191  2.5270  1.4340
  230MPD1    H2 3549   1.890   3.952  15.939 -1.8646  1.8130 -0.1925
  230MPD1    H3 3550   1.689   4.072  15.846 -0.5484  0.3349  0.0048
  230MPD1     N 3551   1.615   3.786  15.514 -0.3081  0.1523 -0.0566
  230MPD1    H5 3552   1.641   3.698  15.471 -1.5646  0.5794 -1.7184
  230MPD1    N1 3553   1.969   3.716  15.831  0.3931 -0.2364  0.0685
  230MPD1    H6 3554   2.022   3.694  15.746  0.2016  2.3294 -0.7319
  230MPD1    H7 3555   2.022   3.766  15.902 -0.0383  1.6586 -0.9247
  231MPD1     C 3556   4.506   0.851  15.512  0.1729 -0.5190  0.1320
  231MPD1    C1 3557   4.491   0.772  15.404 -0.0979  0.8204  0.5848
  231MPD1    C2 3558   4.526   0.822  15.280  0.0519  0.3205  0.2418
  231MPD1    C3 3559   4.607   0.934  15.270  0.5551  0.5408 -0.1171
  231MPD1    C4 3560   4.650   0.989  15.393 -0.1127 -0.1322  0.5030
  231MPD1    C5 3561   4.599   0.955  15.511  0.9734 -0.7304  0.1239
  231MPD1     H 3562   4.489   0.780  15.188  2.4381  0.4488 -0.7747
  231MPD1    H1 3563   4.725   1.067  15.396 -2.1174  1.8678 -0.7482
  231MPD1    H2 3564   4.460   0.829  15.608 -2.8067  2.7270 -0.5430
  231MPD1    H3 3565   4.631   1.003  15.602  1.3196  0.2337 -0.5132
  231MPD1     N 3566   4.656   0.977  15.143  0.1526  0.7419 -0.1584
  231MPD1    H5 3567   4.611   0.936  15.062  0.5986  2.3936 -1.2423
  231MPD1    N1 3568   4.415   0.655  15.408  0.0986 -0.0831 -0.9270
  231MPD1    H6 3569   4.416   0.601  15.494 -0.3805 -1.1576 -1.5932
  231MPD1    H7 3570   4.451   0.600  15.330  0.8627  2.3458 -2.3071
  232MPD1     C 3571   1.826   3.487   0.157  0.4808 -0.8308  0.4386
  232MPD1    C1 3572   1.717   3.443   0.089 -0.2944  0.2767 -0.5809
  232MPD1    C2 3573   1.652   3.327   0.135  0.7357 -0.2585 -0.4407
  232MPD1    C3 3574   1.684   3.275   0.256 -0.5122  0.7465 -0.5558
  232MPD1    C4 3575   1.800   3.318   0.314 -0.5135  0.1316 -0.1466
  232MPD1    C5 3576   1.871   3.422   0.267  0.6733  0.1054 -0.4172
  232MPD1     H 3577   1.577   3.290   0.066 -0.7436  2.1966 -0.1690
  232MPD1    H1 3578   1.833   3.271   0.406 -0.8879 -0.6599 -0.4147
  232MPD1    H2 3579   1.872   3.580   0.125  0.1555 -1.0521 -0.6652
  232MPD1    H3 3580   1.946   3.469   0.329  1.7180 -1.8080 -0.2394
  232MPD1     N 3581   1.605   3.171   0.310 -0.0454 -0.5711 -1.1950
  232MPD1    H5 3582   1.521   3.152   0.256 -0.2150  0.0206 -1.1415
  232MPD1    N1 3583   1.679   3.500  17.728 -0.2847 -0.0862  0.2442
  232MPD1    H6 3584   1.579   3.484  17.724 -0.4319  0.5715  1.3974
  232MPD1    H7 3585   1.695   3.600  17.725 -1.3573  0.0867  0.4285
  233MPD1     C 3586   2.896   2.527   0.082 -0.5715 -0.5481  0.5674
  233MPD1    C1 3587   2.918   2.561   0.210  0.7084  0.0916 -0.4606
  233MPD1    C2 3588   2.930   2.460   0.299  0.2765 -0.0327 -0.2075
  233MPD1    C3 3589   2.931   2.325   0.260 -0.1482 -0.2384  0.4054
  233MPD1    C4 3590   2.940   2.296   0.122 -0.1396  0.0551  0.2267
  233MPD1    C5 3591   2.914   2.398   0.036 -0.1479 -0.4374  0.5937
  233MPD1     H 3592   2.931   2.492   0.403 -3.0185 -2.4503  0.5662
  233MPD1    H1 3593   2.958   2.193   0.094  1.0731  0.7270 -1.4447
  233MPD1    H2 3594   2.865   2.601   0.009  2.4055  0.6315  0.4818
  233MPD1    H3 3595   2.900   2.386  17.693  0.1425  2.2571  0.2566
  233MPD1     N 3596   2.934   2.213   0.348 -0.0776  0.0351  0.4071
  233MPD1    H5 3597   2.944   2.118   0.313 -2.7228  0.1122 -0.5824
  233MPD1    N1 3598   2.905   2.692   0.253  0.5027 -0.1693  0.8843
  233MPD1    H6 3599   2.924   2.764   0.184  0.5933 -1.2716 -0.2363
  233MPD1    H7 3600   2.980   2.706   0.321  2.9419 -3.5266 -1.1480
  234MPD1     C 3601   0.154   1.299  10.094 -0.3452  0.1619 -0.2900
  234MPD1    C1 3602   0.050   1.367  10.161  0.2014  0.2789 -0.0678
  234MPD1    C2 3603   4.686   1.426  10.095  0.4142 -0.1158  0.6297
  234MPD1    C3 3604   4.676   1.409   9.955  0.4764  0.5320  0.3786
  234MPD1    C4 3605   0.038   1.341   9.887  0.0496 -0.1553  0.5388
  234MPD1    C5 3606   0.146   1.286   9.955  0.0093  0.4448  0.0541
  234MPD1     H 3607   4.612   1.470  10.161  0.0815  1.0615 -0.5343
  234MPD1    H1 3608   0.031   1.321   9.781  0.4855  1.9306  0.1260
  234MPD1    H2 3609   0.236   1.252  10.146 -2.0992 -0.7300  1.6937
  234MPD1    H3 3610   0.213   1.238   9.884 -0.5165 -1.3498  0.7812
  234MPD1     N 3611   4.557   1.459   9.899  0.0430  0.1882  0.0849
  234MPD1    H5 3612   4.498   1.509   9.964  1.6605  2.7967 -0.4527
  234MPD1    N1 3613   0.041   1.360  10.302 -0.2470  0.3537  0.5523
  234MPD1    H6 3614   0.133   1.347  10.343 -0.5262  0.3649  1.1747
  234MPD1    H7 3615   0.004   1.452  10.325 -2.4448 -0.3637 -0.0966
  235MPD1     C 3616   4.049   4.673   9.449 -0.5563 -0.7339 -0.2889
  235MPD1    C1 3617   4.138   4.684   9.552  0.3103 -0.2348 -0.3672
  235MPD1    C2 3618   4.261   4.736   9.528 -0.2076 -0.4163  0.2723
  235MPD1    C3 3619   4.296   0.039   9.405 -0.8145  0.1586  0.3009
  235MPD1    C4 3620   4.210   0.018   9.299  0.3188 -0.0106 -0.5441
  235MPD1    C5 3621   4.087   4.704   9.325  0.7617  0.5754 -0.5024
  235MPD1     H 3622   4.322   0.016   9.615  0.0066  1.8622 -0.4334
  235MPD1    H1 3623   4.257   0.038   9.204  0.7711  2.2925  0.1605
  235MPD1    H2 3624   3.953   4.624   9.460 -1.1368  1.0156  2.4340
  235MPD1    H3 3625   4.010   4.701   9.249  1.4455  2.1866 -1.2531
  235MPD1     N 3626   4.426   0.106   9.401 -0.5666  0.3676  0.1578
  235MPD1    H5 3627   4.473   0.107   9.491  2.5158 -2.5576 -1.3955
  235MPD1    N1 3628   4.095   4.670   9.686 -0.1306 -1.1440 -0.3061
  235MPD1    H6 3629   4.014   4.615   9.714  0.0495 -0.9703  0.5707
  235MPD1    H7 3630   4.163   4.653   9.761 -0.1028  0.5427  0.0341
  236MPD1     C 3631   4.500   4.284  10.060  0.3964  0.3768  0.3047
  236MPD1    C1 3632   4.501   4.411  10.117  0.0019  0.6422  0.0403
  236MPD1    C2 3633   4.619   4.467  10.169 -0.1701 -0.3291  0.3058
  236MPD1    C3 3634   4.734   4.390  10.181 -0.1851 -0.2061 -0.8244
  236MPD1    C4 3635   4.730   4.258  10.133  0.2104 -0.5682  0.5759
  236MPD1    C5 3636   4.612   4.208  10.077 -0.1161 -0.8996 -0.1806
  236MPD1     H 3637   4.606   4.568  10.205 -1.0743 -0.3548  0.0511
  236MPD1    H1 3638   0.077   4.196  10.141  0.3413  0.0941  4.1171
  236MPD1    H2 3639   4.415   4.237  10.012 -2.0276  1.4309  3.5162
  236MPD1    H3 3640   4.604   4.102  10.055  1.2872 -1.1799  0.6585
  236MPD1     N 3641   0.112   4.437  10.243  0.4652 -0.4345  0.0692
  236MPD1    H5 3642   0.191   4.373  10.239  0.0935 -0.7483 -2.5206
  236MPD1    N1 3643   4.388   4.496  10.107  0.2994  0.1352  0.3826
  236MPD1    H6 3644   4.373   4.547  10.193 -1.2005 -2.0662  1.4189
  236MPD1    H7 3645   4.301   4.449  10.084 -1.0209  2.0256  1.5227
  237MPD1     C 3646   0.339   1.886  14.831 -0.5010 -0.3411 -0.1279
  237MPD1    C1 3647   0.251   1.782  14.865  0.4282  0.0512  1.0152
  237MPD1    C2 3648   0.118   1.815  14.890  0.1512 -0.0473 -0.8268
  237MPD1    C3 3649   0.068   1.945  14.874 -1.2213  0.0570  0.2924
  237MPD1    C4 3650   0.156   2.040  14.829  0.8573  0.1621 -0.5725
  237MPD1    C5 3651   0.291   2.014  14.814 -0.2700 -0.2541  0.0672
  237MPD1     H 3652   0.054   1.734  14.925  2.0492 -0.4583  1.6967
  237MPD1    H1 3653   0.124   2.142  14.807 -2.1730 -0.5829  0.3975
  237MPD1    H2 3654   0.445   1.866  14.823 -0.7440 -1.1255 -1.4233
  237MPD1    H3 3655   0.352   2.098  14.785 -1.3207  0.2895 -0.5827
  237MPD1     N 3656   4.680   1.986  14.920 -0.0807 -0.5999  0.1214
  237MPD1    H5 3657   4.656   2.085  14.925 -0.6970 -0.7770  0.6244
  237MPD1    N1 3658   0.307   1.659  14.913 -0.2657  0.5536 -0.3929
  237MPD1    H6 3659   0.242   1.587  14.885 -0.7989  0.1044  2.0703
  237MPD1    H7 3660   0.392   1.640  14.859  0.2587 -1.9427  1.3417
  238MPD1     C 3661   2.064   1.214  14.932  0.5105 -0.7920 -0.0387
  238MPD1    C1 3662   2.041   1.100  15.003  0.4081  0.1847  0.4083
  238MPD1    C2 3663   1.914   1.044  14.988  0.5200 -0.1253 -0.3879
  238MPD1    C3 3664   1.821   1.088  14.893  0.1206  0.5353  0.0814
  238MPD1    C4 3665   1.850   1.193  14.813 -0.7261 -0.2563  0.3803
  238MPD1    C5 3666   1.971   1.257  14.840 -0.3259  0.2533 -0.5275
  238MPD1     H 3667   1.895   0.947  15.032 -1.3971  0.1449 -0.5910
  238MPD1    H1 3668   1.775   1.230  14.743 -0.0910  0.7691  0.2439
  238MPD1    H2 3669   2.148   1.280  14.948 -0.8423  1.5705 -2.7778
  238MPD1    H3 3670   1.996   1.351  14.793  1.7563  0.6291  1.3320
  238MPD1     N 3671   1.692   1.026  14.871  0.2480 -0.3405  0.3136
  238MPD1    H5 3672   1.642   1.059  14.789 -1.5672 -2.3914  0.5789
  238MPD1    N1 3673   2.139   1.054  15.098  0.5163  0.0791  0.1483
  238MPD1    H6 3674   2.118   0.956  15.119 -1.4615  0.6116  0.6822
  238MPD1    H7 3675   2.238   1.061  15.075  0.6846  1.9113  1.4195
  239MPD1     C 3676   1.998   2.036  15.078 -0.5600 -0.1432  0.6138
  239MPD1    C1 3677   1.875   1.977  15.047 -0.5167  0.2081 -0.0490
  239MPD1    C2 3678   1.820   2.014  14.925 -0.0511  0.1249  0.0258
  239MPD1    C3 3679   1.892   2.080  14.828  0.0215 -0.5896  0.2619
  239MPD1    C4 3680   2.021   2.118  14.855  0.6661  0.2211 -0.1066
  239MPD1    C5 3681   2.071   2.105  14.983  0.2797  0.5119  0.0172
  239MPD1     H 3682   1.725   1.968  14.899  1.0777  0.4541 -4.8300
  239MPD1    H1 3683   2.081   2.171  14.782 -0.9352  0.7356 -1.0642
  239MPD1    H2 3684   2.050   2.037  15.173 -1.7487 -1.0966  1.2725
  239MPD1    H3 3685   2.172   2.135  15.012  0.5382 -1.3457  1.0639
  239MPD1     N 3686   1.844   2.119  14.701 -0.1461  0.0695 -0.4707
  239MPD1    H5 3687   1.912   2.161  14.639 -0.0798 -1.8371 -1.7233
  239MPD1    N1 3688   1.800   1.908  15.147  0.2380 -0.1224  0.4103
  239MPD1    H6 3689   1.734   1.843  15.104 -0.2387  0.4625  0.2693
  239MPD1    H7 3690   1.870   1.875  15.213  1.0786  2.0264  0.5761
  240MPD1     C 3691   1.534   1.493  14.033  0.0086  0.1001 -0.0579
  240MPD1    C1 3692   1.397   1.528  14.035 -0.2100 -0.8087  0.3475
  240MPD1    C2 3693   1.312   1.486  14.140  0.4922  0.6737 -0.4307
  240MPD1    C3 3694   1.360   1.430  14.253  0.2340 -0.0370 -0.5711
  240MPD1    C4 3695   1.496   1.398  14.251 -0.6693 -0.0135  0.2821
  240MPD1    C5 3696   1.580   1.440  14.153 -0.2159 -0.0176  0.0323
  240MPD1     H 3697   1.209   1.520  14.135  0.1596 -0.1894  0.4957
  240MPD1    H1 3698   1.542   1.340  14.331 -2.4044  0.3617  1.5491
  240MPD1    H2 3699   1.594   1.520  13.947  0.5963 -1.6765 -0.1872
  240MPD1    H3 3700   1.685   1.413  14.160 -0.5160 -1.9768 -3.1801
  240MPD1     N 3701   1.272   1.391  14.356  0.4073 -0.5771  0.2920
  240MPD1    H5 3702   1.173   1.394  14.331  0.4608  1.3072  0.2756
  240MPD1    N1 3703   1.330   1.591  13.921 -0.5571  0.4140 -0.2582
  240MPD1    H6 3704   1.240   1.631  13.945 -1.1832 -1.6139  0.8047
  240MPD1    H7 3705   1.389   1.644  13.857  0.6112 -0.7620 -0.1783
  241MPD1     C 3706   1.197   0.903  15.348  0.1583  0.2714 -0.5249
  241MPD1    C1 3707   1.309   0.961  15.288 -0.6033  0.3156 -0.1221
  241MPD1    C2 3708   1.279   1.037  15.173 -0.3499  0.1603  0.0491
  241MPD1    C3 3709   1.151   1.051  15.119 -0.2773  0.1151 -0.1736
  241MPD1    C4 3710   1.046   0.995  15.195 -0.4966 -0.1171 -0.0913
  241MPD1    C5 3711   1.072   0.922  15.309 -0.4808 -0.7506 -0.3512
  241MPD1     H 3712   1.363   1.068  15.113  2.2088 -0.7081  3.1814
  241MPD1    H1 3713   0.946   1.002  15.154 -0.3593 -0.7724 -0.5244
  241MPD1    H2 3714   1.210   0.843  15.437 -1.5362  1.9181  0.8181
  241MPD1    H3 3715   0.988   0.873  15.359 -0.7548 -0.4236 -0.4895
  241MPD1     N 3716   1.121   1.115  14.997 -0.4197 -0.4421  1.0649
  241MPD1    H5 3717   1.023   1.129  14.976 -0.2705 -2.6979 -1.0286
  241MPD1    N1 3718   1.435   0.920  15.319  0.2506  0.3533 -1.1064
  241MPD1    H6 3719   1.447   0.916  15.420 -0.2212 -0.3809 -1.0813
  241MPD1    H7 3720   1.503   0.989  15.287  0.9872  0.2466  0.1979
  242MPD1     C 3721   0.957   3.611  16.059 -0.5326  0.0812  1.1033
  242MPD1    C1 3722   0.839   3.640  15.997 -0.3219 -0.2528 -0.4273
  242MPD1    C2 3723   0.832   3.758  15.924  0.4164  0.3086  0.1089
  242MPD1    C3 3724   0.941   3.848  15.910  0.4576  0.4285  0.2365
  242MPD1    C4 3725   1.062   3.802  15.967 -0.0665 -0.9246 -0.0825
  242MPD1    C5 3726   1.067   3.689  16.039 -0.0778 -0.0271  0.2324
  242MPD1     H 3727   0.745   3.790  15.868  1.9725  2.8938 -0.8773
  242MPD1    H1 3728   1.158   3.851  15.953  0.2403 -1.4137  0.3261
  242MPD1    H2 3729   0.965   3.522  16.121  3.7111 -0.9031 -0.8600
  242MPD1    H3 3730   1.164   3.656  16.075  0.0489 -1.2836 -1.2498
  242MPD1     N 3731   0.939   3.975  15.850  0.1822  1.0176 -0.4793
  242MPD1    H5 3732   1.024   4.030  15.846  1.1394 -0.3730  0.5500
  242MPD1    N1 3733   0.727   3.553  16.012  0.4428 -0.0331 -0.1864
  242MPD1    H6 3734   0.651   3.555  15.944  0.8686  2.1990 -0.5955
  242MPD1    H7 3735   0.759   3.461  16.041  3.3794  0.6412 -1.3295
  243MPD1     C 3736   2.185   3.882   0.114 -0.1541  0.8253  0.2986
  243MPD1    C1 3737   2.317   3.873   0.124 -0.7817  0.5019  0.9939
  243MPD1    C2 3738   2.385   3.759   0.072  0.2779  0.1328  0.3603
  243MPD1    C3 3739   2.311   3.651   0.036  0.3815  0.0057  0.8798
  243MPD1    C4 3740   2.181   3.656   0.045 -0.6363  0.7003 -0.1689
  243MPD1    C5 3741   2.114   3.775   0.074 -0.1540 -0.3082  0.0664
  243MPD1     H 3742   2.493   3.752   0.075  0.2772  0.9341  2.0121
  243MPD1    H1 3743   2.117   3.570   0.025  0.5583 -0.2534  0.1410
  243MPD1    H2 3744   2.123   3.970   0.130 -0.0431  1.0008 -0.2360
  243MPD1    H3 3745   2.005   3.780   0.069 -0.0964  0.6981 -0.1068
  243MPD1     N 3746   2.380   3.531   0.006 -0.0124 -0.5501 -0.3674
  243MPD1    H5 3747   2.480   3.525   0.016 -0.1399 -0.8468  0.6325
  243MPD1    N1 3748   2.398   3.984   0.144  0.8226  0.1514 -0.2170
  243MPD1    H6 3749   2.492   3.970   0.179 -0.3662 -0.3594  2.8572
  243MPD1    H7 3750   2.350   4.048   0.208 -1.3764  0.7823 -2.5174
  244MPD1     C 3751   2.862   2.941   0.542 -0.2486 -0.0908  0.1879
  244MPD1    C1 3752   2.736   2.902   0.505 -0.2768  0.0409  0.0019
  244MPD1    C2 3753   2.663   2.972   0.411  0.3498  0.3033  0.1222
  244MPD1    C3 3754   2.720   3.075   0.339  0.4863 -0.2127 -0.6790
  244MPD1    C4 3755   2.852   3.116   0.370 -0.8344 -0.1503  0.1611
  244MPD1    C5 3756   2.916   3.048   0.475  0.1413  0.2960  0.5652
  244MPD1     H 3757   2.561   2.937   0.395  0.1291  0.5945  0.8929
  244MPD1    H1 3758   2.911   3.195   0.325  3.0503 -2.5530  1.0149
  244MPD1    H2 3759   2.904   2.895   0.630 -1.3694  1.6446  1.6381
  244MPD1    H3 3760   3.022   3.063   0.494  0.1340  1.5647 -0.3563
  244MPD1     N 3761   2.645   3.130   0.233 -0.0941  0.4722 -0.2325
  244MPD1    H5 3762   2.552   3.094   0.213 -0.8360  1.7779  0.8355
  244MPD1    N1 3763   2.670   2.813   0.596  0.3705  0.2998 -0.8051
  244MPD1    H6 3764   2.737   2.746   0.634  0.8454  1.7732  0.9371
  244MPD1    H7 3765   2.593   2.772   0.544 -1.1950  2.4858 -0.2151
  245MPD1     C 3766   4.471   3.808  13.535 -0.3305  0.0060  0.4826
  245MPD1    C1 3767   4.521   3.820  13.412 -0.6577  0.5718  0.4273
  245MPD1    C2 3768   4.588   3.935  13.382  0.2149 -0.1041  0.0023
  245MPD1    C3 3769   4.628   4.015  13.486  0.7419  0.0183 -0.7773
  245MPD1    C4 3770   4.577   4.003  13.611  0.1653  0.1215  0.3531
  245MPD1    C5 3771   4.492   3.898  13.633  0.3613  0.2946  0.0294
  245MPD1     H 3772   4.611   3.968  13.281 -1.9672  0.1818 -0.4147
  245MPD1    H1 3773   4.605   4.070  13.692 -0.5803  0.0929  0.6369
  245MPD1    H2 3774   4.419   3.715  13.556  1.0827 -0.5740  1.4123
  245MPD1    H3 3775   4.448   3.887  13.731  0.1409  2.7280  0.2101
  245MPD1     N 3776   4.721   4.111  13.452 -0.0827  0.6048 -0.1258
  245MPD1    H5 3777   0.006   4.121  13.355  2.1271 -0.6606  0.3511
  245MPD1    N1 3778   4.486   3.727  13.309 -0.4969 -0.5975 -0.3307
  245MPD1    H6 3779   4.476   3.630  13.340  2.7384 -1.3199 -1.4765
  245MPD1    H7 3780   4.550   3.732  13.230  0.0173  0.2708  0.1448
  246MPD1     C 3781   4.033   0.414   8.641  0.1533 -0.2540  0.1656
  246MPD1    C1 3782   4.004   0.467   8.764  0.2717  0.5655 -0.0515
  246MPD1    C2 3783   4.095   0.547   8.825 -0.2070  0.4631  0.5531
  246MPD1    C3 3784   4.213   0.578   8.765 -0.5067  0.1342  0.1917
  246MPD1    C4 3785   4.228   0.541   8.633 -0.5340 -0.0708 -0.0903
  246MPD1    C5 3786   4.149   0.445   8.574  0.5168  0.5659 -0.7825
  246MPD1     H 3787   4.078   0.577   8.928 -2.9130  0.7371  0.0034
  246MPD1    H1 3788   4.324   0.558   8.586 -0.0463 -0.8184  0.6487
  246MPD1    H2 3789   3.962   0.347   8.596 -1.2307  1.6076 -0.4081
  246MPD1    H3 3790   4.173   0.410   8.474 -0.7306 -0.5963 -0.6692
  246MPD1     N 3791   4.314   0.651   8.833 -0.0159  0.2040 -0.0872
  246MPD1    H5 3792   4.303   0.656   8.934  0.1167 -1.4521  0.0142
  246MPD1    N1 3793   3.878   0.441   8.819 -0.4122 -0.3979 -0.2475
  246MPD1    H6 3794   3.873   0.472   8.916 -2.4690 -3.1442  0.4977
  246MPD1    H7 3795   3.865   0.341   8.828 -1.0345 -0.2930  0.0065
  247MPD1     C 3796   3.851   3.319  16.994 -0.3989 -0.1548  0.5853
  247MPD1    C1 3797   3.851   3.408  16.888  0.2114  0.6001 -0.2985
  247MPD1    C2 3798   3.878   3.363  16.761  0.1606 -0.6510 -0.5471
  247MPD1    C3 3799   3.879   3.221  16.733  0.0153 -0.3963 -0.2219
  247MPD1    C4 3800   3.863   3.129  16.834  0.1151 -0.5054 -0.7584
  247MPD1    C5 3801   3.856   3.184  16.962  0.4941 -0.2995 -0.5120
  247MPD1     H 3802   3.909   3.435  16.686 -1.0072  0.6625  0.2278
  247MPD1    H1 3803   3.840   3.024  16.822 -0.2298 -0.3484 -1.4114
  247MPD1    H2 3804   3.836   3.340  17.099  1.5632 -2.1143  1.2477
  247MPD1    H3 3805   3.851   3.116  17.045  1.5730 -0.6469 -0.7293
  247MPD1     N 3806   3.869   3.167  16.600  0.2559 -0.3854  0.0154
  247MPD1    H5 3807   3.877   3.067  16.584  0.5243 -0.1445 -1.3244
  247MPD1    N1 3808   3.864   3.542  16.925 -0.6764  0.5674 -0.0837
  247MPD1    H6 3809   3.852   3.616  16.857 -4.7247 -2.1181 -2.3079
  247MPD1    H7 3810   3.821   3.575  17.011 -0.2531  1.1187 -0.0855
  248MPD1     C 3811   0.214   2.743   0.319  0.2197 -0.0020 -0.0958
  248MPD1    C1 3812   0.301   2.847   0.358 -0.2343 -0.0875 -0.0135
  248MPD1    C2 3813   0.247   2.939   0.441 -0.8246 -0.3068 -0.9057
  248MPD1    C3 3814   0.112   2.943   0.466 -0.0626 -1.5397  0.0060
  248MPD1    C4 3815   0.035   2.846   0.410  0.0028  0.2482 -0.5824
  248MPD1    C5 3816   0.088   2.740   0.356  0.1472 -0.0705  0.7282
  248MPD1     H 3817   0.314   3.013   0.484 -0.5215 -1.0847 -0.0211
  248MPD1    H1 3818   4.669   2.841   0.424 -0.0112  1.1501 -0.3534
  248MPD1    H2 3819   0.247   2.651   0.272  0.7799 -1.0585  2.3447
  248MPD1    H3 3820   0.026   2.665   0.308  0.1198  0.1859  0.3552
  248MPD1     N 3821   0.070   3.056   0.553 -0.6326  0.0176 -0.4135
  248MPD1    H5 3822   0.143   3.116   0.591  0.5903 -2.0736  0.5263
  248MPD1    N1 3823   0.439   2.837   0.320 -0.5603 -0.0316  0.3647
  248MPD1    H6 3824   0.475   2.931   0.302 -0.2673 -0.4975 -1.4668
  248MPD1    H7 3825   0.462   2.783   0.236  0.8431  1.1977 -0.0493
  249MPD1     C 3826   0.975   1.291  11.988 -0.1284 -0.2397  0.2002
  249MPD1    C1 3827   1.106   1.303  12.003 -0.2136 -0.2665 -0.2585
  249MPD1    C2 3828   1.171   1.377  11.897 -0.3744 -0.3340 -0.5053
  249MPD1    C3 3829   1.102   1.439  11.793 -0.0856 -0.4868  0.0791
  249MPD1    C4 3830   0.963   1.424  11.795 -0.2662  0.4752  0.2990
  249MPD1    C5 3831   0.903   1.358  11.892 -0.3252  0.6027  0.8725
  249MPD1     H 3832   1.280   1.377  11.896 -0.3829  0.0924 -1.8129
  249MPD1    H1 3833   0.898   1.473  11.723 -1.0404  0.2138  0.8196
  249MPD1    H2 3834   0.909   1.235  12.054  1.7469 -1.9592  0.5823
  249MPD1    H3 3835   0.795   1.347  11.894 -0.2769 -0.8397 -4.6836
  249MPD1     N 3836   1.171   1.492  11.679  0.2307 -0.6093 -0.0959
  249MPD1    H5 3837   1.272   1.503  11.686  0.5444 -2.2067 -2.2294
  249MPD1    N1 3838   1.187   1.234  12.099  0.1774 -0.0962  0.2690
  249MPD1    H6 3839   1.148   1.218  12.192  0.1707  0.2712  0.3267
  249MPD1    H7 3840   1.284   1.262  12.105  0.0447  0.4055  0.0094
  250MPD2     C 3841   3.026   2.643  13.066 -0.7254  0.1009  0.5541
  250MPD2    C1 3842   2.973   2.717  12.959 -0.1059  0.1826  0.5312
  250MPD2    C2 3843   2.903   2.653  12.860  0.3281  0.8975 -0.1771
  250MPD2    C3 3844   2.876   2.515  12.872  1.0884  0.4161  0.0570
  250MPD2    C4 3845   2.930   2.441  12.973 -0.4018  0.2032  0.2926
  250MPD2    C5 3846   3.004   2.508  13.069  0.7001 -0.0595 -0.1440
  250MPD2     H 3847   2.855   2.710  12.782 -2.7140 -0.2647  0.8247
  250MPD2    H1 3848   2.925   2.334  12.987 -2.0608  0.4781  1.6929
  250MPD2    H2 3849   3.075   2.693  13.148  1.2311  0.5106 -0.8834
  250MPD2    H3 3850   3.055   2.462  13.152  1.5827  0.8765 -0.1679
  250MPD2     N 3851   2.774   2.447  12.795 -0.3946  0.3820  1.0106
  250MPD2    H5 3852   2.754   2.350  12.819  1.3048  0.0377  1.0670
  250MPD2    N1 3853   3.009   2.852  12.955 -0.6297 -0.0248 -0.1448
  250MPD2    H7 3854   3.051   2.889  13.039  1.1506  0.5920 -1.3174
  251TMC3    C1 3855   3.044   3.070  12.885 -0.4649  0.3587 -0.1465
  251TMC3    C2 3856   2.949   3.170  12.899 -0.4075  0.2311 -0.2346
  251TMC3    C3 3857   2.968   3.255  13.002  0.1172  0.6290  0.0107
  251TMC3    C4 3858   3.147   3.054  12.976 -0.1680  0.5036 -0.0402
  251TMC3    C5 3859   3.147   3.132  13.089 -0.2810 -0.0399 -0.0860
  251TMC3    C6 3860   3.066   3.239  13.093 -0.2847  0.2011  0.0080
  251TMC3     C 3861   2.994   2.943  12.849 -0.2897  0.3074 -0.6125
  251TMC3     O 3862   2.934   2.926  12.745 -0.5532  0.1419  0.3629
  251TMC3     H 3863   2.863   3.187  12.835 -2.3012 -1.0565  1.9725
  251TMC3    H1 3864   3.219   2.973  12.972 -1.2757 -0.5726  1.2624
  251TMC3    H2 3865   3.054   3.287  13.190  1.3544 -0.2624  0.4378
  251TMC3    C7 3866   3.181   3.064  13.205  0.2719 -0.0594 -0.3796
  251TMC3    C8 3867   2.886   3.377  13.005 -0.1151 -0.5204  0.3069
  251TMC3    O1 3868   3.143   2.944  13.200  0.0807 -0.0873  0.4743
  251TMC3    O2 3869   2.772   3.364  12.957 -0.0604  0.3618 -0.1979
  252TMC3    C1 3870   3.454   3.512   9.550  0.1080 -0.3579  0.0725
  252TMC3    C2 3871   3.589   3.526   9.565  0.4022  0.0946  0.3724
  252TMC3    C3 3872   3.635   3.633   9.640  0.2530 -0.1345 -0.2725
  252TMC3    C4 3873   3.367   3.609   9.610  0.0675  0.2395 -0.0467
  252TMC3    C5 3874   3.421   3.709   9.684  0.2830 -0.5754 -0.1113
  252TMC3    C6 3875   3.554   3.723   9.697 -0.3319  0.5468  0.2323
  252TMC3     C 3876   3.409   3.397   9.477  0.3888  0.1219  0.4716
  252TMC3     O 3877   3.472   3.290   9.486  0.1660 -0.1745  0.2149
  252TMC3     H 3878   3.654   3.443   9.540 -0.2554  0.1204 -1.3645
  252TMC3    H1 3879   3.262   3.611   9.586  0.4195  0.8053 -1.5861
  252TMC3    H2 3880   3.592   3.813   9.745  0.7762 -1.2116  2.6588
  252TMC3    C7 3881   3.335   3.797   9.749 -0.2838 -0.5189  0.2761
  252TMC3    C8 3882   3.776   3.636   9.672  0.0793 -0.1883 -0.0731
  252TMC3    O1 3883   3.382   3.906   9.769  0.0147  0.0523  0.6463
  252TMC3    O2 3884   3.847   3.557   9.609  0.1047 -0.1320  0.1942
  253MPD2     C 3885   4.231   2.369  15.224 -0.3950 -0.6447 -0.6302
  253MPD2    C1 3886   4.091   2.387  15.218  0.2394 -0.0018 -0.7878
  253MPD2    C2 3887   4.006   2.358  15.328 -0.1483  0.1337 -0.2599
  253MPD2    C3 3888   4.060   2.294  15.433 -0.2930 -0.1802 -0.3966
  253MPD2    C4 3889   4.194   2.252  15.431 -0.0596 -0.1331 -0.1597
  253MPD2    C5 3890   4.279   2.288  15.328 -0.7925 -1.3796 -0.5687
  253MPD2     H 3891   3.902   2.385  15.321 -0.9384 -2.9399 -0.6957
  253MPD2    H1 3892   4.226   2.194  15.517  1.4309 -2.0203 -1.9967
  253MPD2    H2 3893   4.295   2.412  15.147  1.0941 -0.7212  0.5739
  253MPD2    H3 3894   4.387   2.273  15.330 -0.5355  0.5295 -0.2142
  253MPD2     N 3895   3.980   2.257  15.538  0.4529  0.2317 -0.4337
  253MPD2    H5 3896   4.024   2.185  15.594 -0.3980  1.2793  1.5846
  253MPD2    N1 3897   4.023   2.463  15.119  0.2833  0.3981 -0.7281
  253MPD2    H7 3898   3.922   2.456  15.116  0.3006 -1.3304  2.2249
  254TMC3    C1 3899   3.803   2.269  15.696  0.2845 -0.2642 -0.6675
  254TMC3    C2 3900   3.680   2.322  15.732  0.3144 -0.0427 -0.0114
  254TMC3    C3 3901   3.621   2.263  15.843  0.6960 -0.2298  0.3479
  254TMC3    C4 3902   3.868   2.162  15.759 -0.0211 -0.6187  0.6141
  254TMC3    C5 3903   3.807   2.121  15.870  0.8055  1.5968 -0.8807
  254TMC3    C6 3904   3.680   2.164  15.911  0.1408  0.1483 -0.3743
  254TMC3     C 3905   3.855   2.309  15.563 -0.4359  0.1773 -0.7735
  254TMC3     O 3906   3.786   2.389  15.502  0.4900 -0.3623  0.0926
  254TMC3     H 3907   3.634   2.401  15.673 -0.6792  0.4846  1.4757
  254TMC3    H1 3908   3.967   2.127  15.734 -0.2324 -1.7513  1.3732
  254TMC3    H2 3909   3.636   2.129  16.004 -1.4671  1.0436 -0.8032
  254TMC3    C7 3910   3.889   2.077  15.980 -0.6555  0.2842  0.2175
  254TMC3    C8 3911   3.545   2.347  15.939 -0.5838  0.0866  0.0322
  254TMC3    O1 3912   3.831   2.035  16.078 -0.8458  0.4370 -0.0553
  254TMC3    O2 3913   3.476   2.285  16.021 -0.1620 -0.5642 -0.0868
  255MPD2     C 3914   2.364   0.358  10.784 -0.7794 -0.3199 -0.2803
  255MPD2    C1 3915   2.474   0.442  10.757  0.0928 -0.5987 -0.3369
  255MPD2    C2 3916   2.574   0.391  10.675 -0.5909 -0.6050 -0.1978
  255MPD2    C3 3917   2.567   0.268  10.625 -0.1287  0.8968  0.2249
  255MPD2    C4 3918   2.463   0.187  10.646 -0.5107  0.3167  0.6332
  255MPD2    C5 3919   2.372   0.234  10.731  1.1607  0.4471 -0.0451
  255MPD2     H 3920   2.653   0.458  10.643 -0.2751 -0.8958 -0.0165
  255MPD2    H1 3921   2.456   0.085  10.608  0.1208  0.7089 -0.5651
  255MPD2    H2 3922   2.292   0.386  10.859 -0.4422 -1.2619  0.3918
  255MPD2    H3 3923   2.279   0.182  10.754  1.0913  0.3574 -0.5266
  255MPD2     N 3924   2.679   0.243  10.537 -0.2958 -0.1014 -0.6659
  255MPD2    H5 3925   2.745   0.318  10.517  2.2963 -1.8416  1.4132
  255MPD2    N1 3926   2.475   0.579  10.801  0.4546 -0.3722 -0.0708
  255MPD2    H7 3927   2.561   0.626  10.773  0.1074  0.9757  1.1656
  256TMC3    C1 3928   2.414   0.790  10.846 -0.1204  0.3793  0.5824
  256TMC3    C2 3929   2.535   0.831  10.786 -0.7772 -0.3717  0.3348
  256TMC3    C3 3930   2.535   0.942  10.701 -0.0306  0.7926  0.0053
  256TMC3    C4 3931   2.308   0.868  10.846 -0.2549  0.3486 -0.1701
  256TMC3    C5 3932   2.314   0.982  10.767  0.0024  0.1439 -0.5845
  256TMC3    C6 3933   2.423   1.019  10.695 -0.3451  0.6153  0.5420
  256TMC3     C 3934   2.381   0.652  10.864 -0.7632  0.1898  0.3757
  256TMC3     O 3935   2.263   0.616  10.894 -0.5169 -0.0126 -0.2338
  256TMC3     H 3936   2.629   0.779  10.799 -0.0640  0.9437  0.5357
  256TMC3    H1 3937   2.220   0.820  10.887 -1.5711  2.5040 -0.5098
  256TMC3    H2 3938   2.411   1.103  10.627 -2.2086  0.3382  0.5140
  256TMC3    C7 3939   2.187   1.049  10.725 -0.0140 -0.1568 -0.6877
  256TMC3    C8 3940   2.613   0.936  10.575 -0.4497  0.6558  0.2022
  256TMC3    O1 3941   2.182   1.125  10.626 -0.1206 -0.1880  0.4770
  256TMC3    O2 3942   2.661   0.827  10.550 -0.6766  0.1565  0.1720
  257MPD2     C 3943   1.529   2.722  13.442 -0.2221  0.6151 -0.4420
  257MPD2    C1 3944   1.484   2.624  13.353 -0.0329  0.1283 -0.5489
  257MPD2    C2 3945   1.501   2.492  13.380  0.3505  0.5956  0.2765
  257MPD2    C3 3946   1.562   2.453  13.499 -0.0677  0.1467  0.1235
  257MPD2    C4 3947   1.599   2.552  13.590 -0.2681  0.0202  0.1815
  257MPD2    C5 3948   1.580   2.682  13.567  0.5908  0.4169  0.3204
  257MPD2     H 3949   1.473   2.411  13.315  0.7108  0.4424  0.3087
  257MPD2    H1 3950   1.631   2.517  13.687 -1.5758 -1.3844  0.1123
  257MPD2    H2 3951   1.522   2.826  13.416 -1.4304  0.1194 -2.1102
  257MPD2    H3 3952   1.608   2.754  13.644  0.6020  1.3305 -0.5398
  257MPD2     N 3953   1.587   2.310  13.525 -0.8087 -0.9025 -0.3730
  257MPD2    H5 3954   1.577   2.245  13.448  0.5106 -0.2384 -1.1049
  257MPD2    N1 3955   1.426   2.678  13.240  0.0562 -0.3690 -0.3017
  257MPD2    H7 3956   1.432   2.776  13.215  0.8055  0.1105  1.8087
  258TMC3    C1 3957   1.627   2.112  13.663  0.0767  0.1851 -1.3599
  258TMC3    C2 3958   1.716   2.064  13.574 -0.0381 -0.6817  0.2937
  258TMC3    C3 3959   1.796   1.955  13.605  0.2717 -0.2274  0.0132
  258TMC3    C4 3960   1.608   2.052  13.782 -0.1881 -0.1448 -0.7011
  258TMC3    C5 3961   1.677   1.940  13.805 -0.4728 -0.1019 -0.2195
  258TMC3    C6 3962   1.778   1.892  13.726  0.1392  0.6225  0.3795
  258TMC3     C 3963   1.597   2.256  13.659 -0.4172  0.4461 -0.1649
  258TMC3     O 3964   1.586   2.314  13.766  0.1796  0.5583 -0.0069
  258TMC3     H 3965   1.731   2.116  13.480 -0.4222  0.3140  0.7840
  258TMC3    H1 3966   1.547   2.098  13.859 -0.5496  0.9221 -1.6210
  258TMC3    H2 3967   1.848   1.816  13.759 -0.8207 -1.3481 -2.0953
  258TMC3    C7 3968   1.625   1.865  13.915  0.2573  0.4150 -0.1284
  258TMC3    C8 3969   1.855   1.879  13.500  0.8565 -0.1071  0.0842
  258TMC3    O1 3970   1.510   1.892  13.952 -0.1589  0.0868 -0.1003
  258TMC3    O2 3971   1.862   1.757  13.525  0.0562  0.0320  0.5893
  259MPD2     C 3972   0.846   4.144   0.585 -0.0833 -0.0780  1.1045
  259MPD2    C1 3973   0.825   4.018   0.646  0.3167 -0.0375  0.5641
  259MPD2    C2 3974   0.851   3.894   0.581  0.0308 -0.5252 -0.2562
  259MPD2    C3 3975   0.921   3.897   0.455  0.1060 -0.0989  0.4331
  259MPD2    C4 3976   0.956   4.024   0.405  0.3349 -0.4793 -0.3926
  259MPD2    C5 3977   0.922   4.141   0.468  0.1979  0.2681  0.2223
  259MPD2     H 3978   0.843   3.798   0.631 -4.4903 -0.0775 -0.1321
  259MPD2    H1 3979   1.015   4.040   0.315  1.4682 -0.1046  0.4157
  259MPD2    H2 3980   0.817   4.238   0.629  0.2310  0.4817  0.0966
  259MPD2    H3 3981   0.943   4.233   0.415  2.2917 -0.6639 -0.5730
  259MPD2     N 3982   0.949   3.774   0.386  0.2130 -0.2057  0.5932
  259MPD2    H5 3983   0.918   3.687   0.428 -2.4305 -0.2985 -1.6029
  259MPD2    N1 3984   0.789   4.024   0.780  0.0990 -0.3198  0.1311
  259MPD2    H7 3985   0.797   4.113   0.828  0.5561 -0.3749  0.1584
  260TMC3    C1 3986   1.069   3.627   0.243  0.1478 -0.5912  0.9751
  260TMC3    C2 3987   1.191   3.627   0.186 -0.2261  0.8648  0.0577
  260TMC3    C3 3988   1.278   3.532   0.227  0.5891 -0.3483 -0.4695
  260TMC3    C4 3989   1.037   3.537   0.341 -0.2999  0.9600  0.5192
  260TMC3    C5 3990   1.131   3.448   0.390  0.6108  0.2014  0.2236
  260TMC3    C6 3991   1.256   3.446   0.331  0.2979  0.1739 -0.5272
  260TMC3     C 3992   1.015   3.764   0.263 -0.0276 -0.1933 -0.1901
  260TMC3     O 3993   1.049   3.846   0.176 -0.0310  0.9139 -0.6633
  260TMC3     H 3994   1.217   3.686   0.098  0.2629 -0.6822 -0.8304
  260TMC3    H1 3995   0.933   3.517   0.364  0.0845 -1.0757  0.4281
  260TMC3    H2 3996   1.333   3.390   0.382 -1.1734  0.6970  2.2965
  260TMC3    C7 3997   1.093   3.314   0.425 -0.4501  0.0926  0.5872
  260TMC3    C8 3998   1.333   3.459   0.118  0.5238 -0.4847  0.6580
  260TMC3    O1 3999   1.171   3.231   0.381 -0.2186  0.0134  0.1024
  260TMC3    O2 4000   1.402   3.516   0.033 -0.0201  0.0002  0.0998
  261MPD2     C 4001   2.006   2.688  12.555  0.7858  1.0776 -0.3436
  261MPD2    C1 4002   2.131   2.677  12.491  0.7070  0.7597 -0.8696
  261MPD2    C2 4003   2.155   2.757  12.379  0.1146  0.0849 -0.1579
  261MPD2    C3 4004   2.060   2.846  12.335  0.3265 -0.2815  0.2408
  261MPD2    C4 4005   1.929   2.841  12.389  0.4516 -0.2432  0.5986
  261MPD2    C5 4006   1.908   2.767  12.500 -0.2818 -0.0656 -0.2408
  261MPD2     H 4007   2.252   2.762  12.331  0.1257  0.9493 -0.0341
  261MPD2    H1 4008   1.839   2.888  12.353  0.3285  0.1663  1.4520
  261MPD2    H2 4009   1.980   2.643  12.650  0.2572 -0.0684 -1.0326
  261MPD2    H3 4010   1.813   2.764  12.552  0.0677 -2.0932  0.2934
  261MPD2     N 4011   2.091   2.941  12.236  0.5894  0.3020  0.0550
  261MPD2    H5 4012   2.182   2.924  12.196  0.9417 -0.6691  1.2792
  261MPD2    N1 4013   2.232   2.596  12.538  0.7196 -0.6150  0.3865
  261MPD2    H7 4014   2.319   2.602  12.485 -0.5608  0.6299 -1.5898
  262TMC3    C1 4015   2.087   3.112  12.079 -0.0480 -0.4787 -0.3792
  262TMC3    C2 4016   2.047   3.240  12.059 -0.6655 -0.2021 -0.2362
  262TMC3    C3 4017   2.143   3.333  12.007  1.0818  0.0547  0.7075
  262TMC3    C4 4018   2.212   3.066  12.047  0.2245 -0.2576 -0.2735
  262TMC3    C5 4019   2.295   3.156  11.995  0.2944 -0.0115 -0.2511
  262TMC3    C6 4020   2.272   3.291  11.975 -0.1409 -0.8589  0.8440
  262TMC3     C 4021   2.012   3.039  12.180  0.1749 -0.5966  0.1130
  262TMC3     O 4022   1.902   3.089  12.203  0.3937  0.1823 -0.5461
  262TMC3     H 4023   1.955   3.281  12.099 -0.3662 -0.4478  0.7076
  262TMC3    H1 4024   2.245   2.962  12.044  0.4031 -0.1841 -0.8700
  262TMC3    H2 4025   2.341   3.364  11.933 -0.8525 -1.1450 -0.8405
  262TMC3    C7 4026   2.411   3.098  11.927  0.6306  0.0788 -0.0544
  262TMC3    C8 4027   2.125   3.475  12.020  0.7874 -0.3729 -0.5371
  262TMC3    O1 4028   2.429   2.978  11.917  0.5035  0.6581  0.0582
  262TMC3    O2 4029   2.222   3.542  11.980  0.1957  0.3688 -0.9321
  263MPD2     C 4030   3.077   1.840  11.638  0.1204 -0.0852 -0.3373
  263MPD2    C1 4031   3.195   1.888  11.601  0.5370 -0.1197 -0.0291
  263MPD2    C2 4032   3.209   1.991  11.507 -0.0462  0.5338 -0.6769
  263MPD2    C3 4033   3.093   2.046  11.446  0.6986 -0.3437  0.8152
  263MPD2    C4 4034   2.971   1.994  11.488 -0.1544 -0.0044 -0.0248
  263MPD2    C5 4035   2.971   1.890  11.581 -0.0238  0.3797 -0.0864
  263MPD2     H 4036   3.305   2.028  11.474  0.4062 -1.1100 -1.2608
  263MPD2    H1 4037   2.879   2.027  11.440  0.2016 -0.0617 -0.7525
  263MPD2    H2 4038   3.065   1.754  11.702 -1.2178 -0.8045 -1.5442
  263MPD2    H3 4039   2.880   1.840  11.610 -0.0657  0.5210  0.0257
  263MPD2     N 4040   3.110   2.152  11.351 -0.0148 -0.0514 -0.2492
  263MPD2    H5 4041   3.203   2.180  11.322 -0.0409  0.6615  0.3516
  263MPD2    N1 4042   3.302   1.835  11.676  0.2071 -0.5016 -0.2864
  263MPD2    H7 4043   3.269   1.774  11.751 -1.4401  1.9252  0.9480
  264TMC3    C1 4044   3.062   2.316  11.187  0.1178 -0.1833 -0.1893
  264TMC3    C2 4045   2.993   2.429  11.161  0.2207  0.5841 -0.5773
  264TMC3    C3 4046   3.033   2.504  11.053 -0.2011  0.9574 -0.7989
  264TMC3    C4 4047   3.162   2.272  11.099 -0.0027  0.2798 -0.0000
  264TMC3    C5 4048   3.187   2.336  10.979  0.5455 -0.2091  0.1365
  264TMC3    C6 4049   3.117   2.453  10.958  0.7001  0.0525  0.8997
  264TMC3     C 4050   3.011   2.238  11.303  0.0474  0.6762 -0.2504
  264TMC3     O 4051   2.907   2.273  11.358 -0.0808  0.4057 -0.5095
  264TMC3     H 4052   2.909   2.453  11.224 -1.2713 -0.0721 -2.3136
  264TMC3    H1 4053   3.215   2.180  11.117 -1.4248 -0.4625  0.3575
  264TMC3    H2 4054   3.149   2.521  10.879  1.2969  1.3338  2.2371
  264TMC3    C7 4055   3.322   2.384  10.967 -0.0777 -0.2538  0.3778
  264TMC3    C8 4056   3.024   2.648  11.052 -0.2145  0.0325  0.3927
  264TMC3    O1 4057   3.394   2.329  10.882  0.1501 -0.0676  0.5032
  264TMC3    O2 4058   3.041   2.715  10.954  0.0376 -0.4817 -0.1078
  265MPD2     C 4059   0.704   1.929  15.737 -0.3299 -0.4857 -0.2012
  265MPD2    C1 4060   0.683   2.045  15.664  0.0361  0.1058  0.3478
  265MPD2    C2 4061   0.703   2.046  15.521  0.9025 -0.1568  0.3657
  265MPD2    C3 4062   0.734   1.924  15.454 -0.2260 -0.3191  0.0265
  265MPD2    C4 4063   0.754   1.813  15.526  0.2276  0.3950 -0.4741
  265MPD2    C5 4064   0.735   1.813  15.669 -0.4322  0.2326 -0.0201
  265MPD2     H 4065   0.693   2.140  15.468  3.9024 -0.5381 -0.8967
  265MPD2    H1 4066   0.791   1.725  15.474 -1.2475 -0.2687 -0.4002
  265MPD2    H2 4067   0.681   1.924  15.843  0.9453  0.4872  0.1229
  265MPD2    H3 4068   0.751   1.720  15.723 -1.8407  0.1609  0.2746
  265MPD2     N 4069   0.733   1.907  15.314 -0.6253 -0.3111  0.1096
  265MPD2    H5 4070   0.764   1.817  15.280 -0.7668  0.4010 -1.9101
  265MPD2    N1 4071   0.655   2.165  15.732  0.3540  0.1201 -0.6344
  265MPD2    H7 4072   0.630   2.242  15.671 -1.4378 -0.8826 -1.1718
  266TMC3    C1 4073   0.621   2.330  15.897  0.1014 -0.4699 -0.9563
  266TMC3    C2 4074   0.673   2.380  16.016 -0.4479  0.8099  0.1982
  266TMC3    C3 4075   0.604   2.486  16.066  0.5515 -0.0680  0.2380
  266TMC3    C4 4076   0.519   2.377  15.828 -0.0491  0.8396 -0.0204
  266TMC3    C5 4077   0.466   2.494  15.871 -1.1252  0.1228 -0.0062
  266TMC3    C6 4078   0.498   2.542  15.996  0.2533 -0.7648 -0.2458
  266TMC3     C 4079   0.668   2.190  15.867  0.0882  0.2151 -0.3588
  266TMC3     O 4080   0.729   2.127  15.953  0.6511 -0.0420 -0.1206
  266TMC3     H 4081   0.757   2.334  16.066 -2.6077 -0.8304  2.3500
  266TMC3    H1 4082   0.496   2.338  15.729 -3.0088 -0.0550  1.0470
  266TMC3    H2 4083   0.446   2.632  16.029  1.5001  0.5711 -1.9262
  266TMC3    C7 4084   0.402   2.579  15.773  1.0179 -0.5004  0.2717
  266TMC3    C8 4085   0.681   2.554  16.170  0.1336 -0.0825 -0.0144
  266TMC3    O1 4086   0.353   2.680  15.824 -0.1585  0.1052 -0.0559
  266TMC3    O2 4087   0.795   2.511  16.193  0.0656 -0.1138  0.3055
  267MPD2     C 4088   2.837   4.197   0.680  0.4581 -0.7674 -0.2877
  267MPD2    C1 4089   2.886   4.142   0.561 -0.1670 -0.3789 -0.5570
  267MPD2    C2 4090   2.836   4.184   0.443  0.6314 -0.3168 -0.1910
  267MPD2    C3 4091   2.725   4.264   0.429 -0.4578 -0.5727 -0.6178
  267MPD2    C4 4092   2.678   4.322   0.543 -0.4973 -0.2711  0.0089
  267MPD2    C5 4093   2.731   4.279   0.666 -0.0651 -0.0933  0.2909
  267MPD2     H 4094   2.889   4.159   0.351  0.3952 -0.6065 -0.2447
  267MPD2    H1 4095   2.592   4.387   0.535  0.6377  1.3349  0.7898
  267MPD2    H2 4096   2.886   4.179   0.775  1.6493 -3.7839 -1.4493
  267MPD2    H3 4097   2.688   4.329   0.753  1.6521 -2.0002  2.2424
  267MPD2     N 4098   2.677   4.302   0.307 -0.3099 -0.2055 -0.1328
  267MPD2    H5 4099   2.619   4.385   0.295  1.5449  0.8163 -2.0423
  267MPD2    N1 4100   2.993   4.046   0.577 -0.2593  0.3297  0.3215
  267MPD2    H7 4101   3.009   4.029   0.676  0.2587 -0.0084  0.1813
  268TMC3    C1 4102   3.159   3.892   0.505 -0.1252  0.0041  0.3700
  268TMC3    C2 4103   3.271   3.875   0.419  0.2801  0.4545 -0.3654
  268TMC3    C3 4104   3.353   3.771   0.450 -0.2103  0.3388  0.2590
  268TMC3    C4 4105   3.131   3.805   0.606  0.1463 -0.1474 -0.4425
  268TMC3    C5 4106   3.223   3.709   0.635 -0.2508 -0.7388  0.0583
  268TMC3    C6 4107   3.327   3.687   0.552 -0.0388  0.2824  0.0830
  268TMC3     C 4108   3.068   4.001   0.473  0.4248  0.2350  0.2487
  268TMC3     O 4109   3.087   4.054   0.365 -0.6026 -0.0450 -0.2414
  268TMC3     H 4110   3.296   3.962   0.360  2.3354  0.5595  0.6814
  268TMC3    H1 4111   3.049   3.813   0.677  1.0596  1.4626  0.4443
  268TMC3    H2 4112   3.398   3.616   0.592 -0.0497  0.0450 -0.3163
  268TMC3    C7 4113   3.249   3.671   0.773 -0.5159 -0.7423  1.0977
  268TMC3    C8 4114   3.478   3.768   0.382  0.2289 -0.6254 -0.1624
  268TMC3    O1 4115   3.270   3.551   0.792  0.3754 -0.0210 -0.6427
  268TMC3    O2 4116   3.564   3.698   0.433  0.0651  0.2478  0.4568
  269MPD2     C 4117   3.191   2.643  15.674  0.5645 -0.1691  0.0065
  269MPD2    C1 4118   3.069   2.665  15.729 -0.5150  0.3199  0.1251
  269MPD2    C2 4119   3.012   2.795  15.726  0.3595 -0.6856  0.1574
  269MPD2    C3 4120   3.084   2.893  15.660  0.2183 -0.1506 -0.0821
  269MPD2    C4 4121   3.205   2.872  15.602 -0.1065 -0.3171  0.3280
  269MPD2    C5 4122   3.259   2.747  15.617  0.1614 -0.5597  0.9225
  269MPD2     H 4123   2.918   2.817  15.775  0.3085 -0.5469  0.0009
  269MPD2    H1 4124   3.255   2.940  15.533 -0.5156  2.0901  2.4080
  269MPD2    H2 4125   3.235   2.544  15.668 -0.7563 -0.7988  0.7378
  269MPD2    H3 4126   3.355   2.722  15.573 -0.0607  1.0959 -0.4907
  269MPD2     N 4127   3.018   3.015  15.640 -0.9214  0.3021  0.9536
  269MPD2    H5 4128   2.922   3.021  15.672 -1.1087 -0.4814  0.5521
  269MPD2    N1 4129   2.992   2.551  15.769  0.5575  0.3923 -0.3226
  269MPD2    H7 4130   3.049   2.467  15.769  0.6601  0.4724 -2.8569
  270TMC3    C1 4131   2.822   2.417  15.845 -0.3237  0.5166  0.2407
  270TMC3    C2 4132   2.704   2.394  15.786  0.6729  0.5122 -0.3260
  270TMC3    C3 4133   2.675   2.264  15.766  0.3715 -0.1602 -0.4448
  270TMC3    C4 4134   2.900   2.319  15.894 -0.7430 -0.9505 -0.3602
  270TMC3    C5 4135   2.844   2.191  15.896 -0.1936  0.1274 -1.1959
  270TMC3    C6 4136   2.736   2.159  15.820 -0.5822  0.2239 -0.0174
  270TMC3     C 4137   2.871   2.551  15.834 -0.1674  0.4818  0.2903
  270TMC3     O 4138   2.790   2.640  15.851  0.3818 -0.3603 -0.4355
  270TMC3     H 4139   2.657   2.472  15.727  1.4811 -0.0976 -1.7705
  270TMC3    H1 4140   2.994   2.328  15.947 -1.9882  0.0200  1.6818
  270TMC3    H2 4141   2.703   2.057  15.803  1.3591 -0.2533 -0.8861
  270TMC3    C7 4142   2.938   2.081  15.919 -1.0198  0.1620  0.7448
  270TMC3    C8 4143   2.597   2.243  15.653 -0.1000 -0.2966 -0.8877
  270TMC3    O1 4144   3.051   2.117  15.914 -0.2294 -0.6824 -0.0923
  270TMC3    O2 4145   2.480   2.239  15.677 -0.7474 -0.4313  0.1748
  271MPD2     C 4146   2.429   2.275  13.883  0.7430 -0.3008  0.0115
  271MPD2    C1 4147   2.462   2.350  13.997 -0.3930  0.2452  0.3212
  271MPD2    C2 4148   2.437   2.485  13.996  0.3731  0.2368 -0.1491
  271MPD2    C3 4149   2.390   2.552  13.886  0.2122 -0.1074  0.2831
  271MPD2    C4 4150   2.357   2.478  13.769 -0.3046 -0.1809  0.0804
  271MPD2    C5 4151   2.383   2.343  13.773 -0.7209  0.0178  0.1955
  271MPD2     H 4152   2.452   2.543  14.087 -0.2305  0.7584 -0.3828
  271MPD2    H1 4153   2.322   2.524  13.677 -1.9858  2.4985  2.0759
  271MPD2    H2 4154   2.461   2.172  13.879 -0.7847 -0.7657 -0.2148
  271MPD2    H3 4155   2.365   2.289  13.681 -3.5181 -0.9885  1.3427
  271MPD2     N 4156   2.360   2.695  13.887  0.3615  0.2442  0.2802
  271MPD2    H5 4157   2.319   2.732  13.802 -0.8742 -2.6625 -0.3945
  271MPD2    N1 4158   2.518   2.288  14.112  0.2564 -0.7209  0.9348
  271MPD2    H7 4159   2.519   2.342  14.199 -0.7115  0.5569  0.1652
  272TMC3    C1 4160   2.624   2.122  14.239 -0.1153 -0.0102  0.4669
  272TMC3    C2 4161   2.753   2.075  14.248 -0.4299 -0.5428  0.2624
  272TMC3    C3 4162   2.789   2.057  14.378  0.1555 -0.1716 -0.5925
  272TMC3    C4 4163   2.536   2.159  14.337 -0.0772  0.1592 -0.2762
  272TMC3    C5 4164   2.579   2.145  14.465 -0.5255  0.0799 -0.0148
  272TMC3    C6 4165   2.706   2.096  14.485  0.0990  0.2713 -0.4477
  272TMC3     C 4166   2.579   2.163  14.112  0.5005 -0.4379 -0.6633
  272TMC3     O 4167   2.613   2.098  14.014 -0.0630  0.7207 -0.7830
  272TMC3     H 4168   2.815   2.045  14.165 -1.0433  1.6950 -0.9960
  272TMC3    H1 4169   2.430   2.170  14.319 -0.3031 -0.8248  0.4757
  272TMC3    H2 4170   2.741   2.098  14.587 -0.0445 -0.3110 -0.3871
  272TMC3    C7 4171   2.493   2.187  14.567  0.2111 -0.4740  0.1997
  272TMC3    C8 4172   2.928   2.039  14.415 -0.0251  0.7859 -0.5459
  272TMC3    O1 4173   2.373   2.200  14.540 -0.3520  0.2069 -0.2799
  272TMC3    O2 4174   3.010   2.070  14.331  0.0071 -0.3242 -0.2456
  273MPD2     C 4175   3.837   0.191  11.736  0.2600  0.1402  0.4735
  273MPD2    C1 4176   3.925   0.292  11.772  0.1702  0.7963 -0.1756
  273MPD2    C2 4177   3.965   0.386  11.675  0.4253 -0.0053 -0.5007
  273MPD2    C3 4178   3.907   0.379  11.549  0.1068  0.1619  0.9254
  273MPD2    C4 4179   3.812   0.282  11.518 -0.3882  0.1203  0.6559
  273MPD2    C5 4180   3.781   0.186  11.608 -0.1853 -0.3506 -0.6489
  273MPD2     H 4181   4.028   0.469  11.707  0.4121 -0.3565  0.4085
  273MPD2    H1 4182   3.752   0.283  11.428 -2.1905  0.2737  1.8560
  273MPD2    H2 4183   3.795   0.120  11.806  0.9304  0.8853  1.6255
  273MPD2    H3 4184   3.709   0.108  11.586 -0.0630 -0.4406 -0.7290
  273MPD2     N 4185   3.914   0.482  11.451 -0.0770 -0.2216 -0.3717
  273MPD2    H5 4186   3.855   0.481  11.369 -0.9438  1.5684  0.2315
  273MPD2    N1 4187   3.972   0.292  11.907  0.2801 -0.7923 -0.3304
  273MPD2    H7 4188   3.958   0.208  11.962  0.5964 -1.5001 -1.3275
  274TMC3    C1 4189   3.967   0.710  11.404  0.1574  0.1410  0.4374
  274TMC3    C2 4190   3.851   0.727  11.337 -0.0672 -0.3238  0.0543
  274TMC3    C3 4191   3.814   0.850  11.295  0.3160 -0.3574 -0.7598
  274TMC3    C4 4192   4.058   0.814  11.424  0.0995 -0.1785 -0.4103
  274TMC3    C5 4193   4.020   0.934  11.382  0.4541  0.4964 -0.4019
  274TMC3    C6 4194   3.896   0.957  11.322 -0.2077  0.4949  0.0833
  274TMC3     C 4195   4.001   0.589  11.472 -0.0593  0.1773  0.3414
  274TMC3     O 4196   4.101   0.591  11.539 -0.0679 -0.2697 -0.3162
  274TMC3     H 4197   3.775   0.650  11.347 -0.1262  0.0633  2.7728
  274TMC3    H1 4198   4.148   0.805  11.482 -1.3706  0.4743  1.9638
  274TMC3    H2 4199   3.877   1.059  11.292  3.1093  0.5212 -1.8872
  274TMC3    C7 4200   4.110   1.044  11.422 -0.2299 -0.2126  0.3765
  274TMC3    C8 4201   3.706   0.869  11.202  0.1331  0.1958 -0.7251
  274TMC3    O1 4202   4.231   1.020  11.441 -0.3234 -0.3137  0.1479
  274TMC3    O2 4203   3.656   0.978  11.202  0.2829 -0.4797  0.4387
  275MPD2     C 4204   3.738   3.473  14.324  0.6154  0.0664 -0.1369
  275MPD2    C1 4205   3.645   3.481  14.423  0.4935 -0.4856 -0.0471
  275MPD2    C2 4206   3.523   3.434  14.390  0.3340  0.3048  0.0282
  275MPD2    C3 4207   3.487   3.356  14.278 -0.3024  0.2660 -0.0997
  275MPD2    C4 4208   3.580   3.365  14.182 -0.2019  0.0766  0.3916
  275MPD2    C5 4209   3.703   3.419  14.202 -0.0007 -0.1250 -0.6722
  275MPD2     H 4210   3.441   3.454  14.459  2.2612  2.2977  1.7737
  275MPD2    H1 4211   3.553   3.328  14.084 -2.1612 -1.4793  1.5299
  275MPD2    H2 4212   3.838   3.514  14.336  1.1587 -0.8315 -1.5951
  275MPD2    H3 4213   3.773   3.414  14.119  0.1233  1.4511 -0.6629
  275MPD2     N 4214   3.362   3.293  14.260  0.5279 -0.3361 -0.3887
  275MPD2    H5 4215   3.347   3.255  14.167 -0.2772 -0.0134 -0.3989
  275MPD2    N1 4216   3.667   3.538  14.548 -0.7207  0.2660  0.2705
  275MPD2    H7 4217   3.592   3.538  14.617 -3.2858  0.6892 -2.5150
  276TMC3    C1 4218   3.769   3.628  14.743 -0.3559 -0.2039 -0.4776
  276TMC3    C2 4219   3.667   3.582  14.820 -0.2667 -0.2921  0.5846
  276TMC3    C3 4220   3.645   3.644  14.936  0.4227  0.4179 -0.0055
  276TMC3    C4 4221   3.858   3.718  14.795  0.0090  0.7130 -0.3013
  276TMC3    C5 4222   3.837   3.778  14.913  0.4011 -0.0496 -0.2598
  276TMC3    C6 4223   3.727   3.743  14.983  0.1584 -0.8023  0.5573
  276TMC3     C 4224   3.786   3.587  14.603 -0.2901  0.0502  0.3394
  276TMC3     O 4225   3.890   3.610  14.542 -0.7843  0.2421 -0.5151
  276TMC3     H 4226   3.604   3.498  14.792  2.2135 -1.5186 -1.3081
  276TMC3    H1 4227   3.932   3.753  14.725 -1.2073 -0.4698 -2.1794
  276TMC3    H2 4228   3.719   3.788  15.081 -0.5427 -1.0667  0.6232
  276TMC3    C7 4229   3.960   3.786  15.001  0.6108 -0.6584 -0.0708
  276TMC3    C8 4230   3.599   3.557  15.036 -1.0749  0.0682  0.2902
  276TMC3    O1 4231   3.943   3.803  15.118 -0.4440 -0.2915 -0.4310
  276TMC3    O2 4232   3.498   3.585  15.099 -0.1757  0.1261  0.1743
  277MPD2     C 4233   0.994   2.723  13.415 -0.2447  0.4718  0.0090
  277MPD2    C1 4234   0.895   2.775  13.490 -0.1763 -0.0545 -0.2629
  277MPD2    C2 4235   0.835   2.703  13.590 -0.8257 -0.6203 -0.1572
  277MPD2    C3 4236   0.860   2.566  13.599 -0.8736 -0.2633 -0.2214
  277MPD2    C4 4237   0.943   2.507  13.512  0.1971  0.2008 -0.3616
  277MPD2    C5 4238   1.009   2.584  13.416  0.6046 -0.0865  0.0327
  277MPD2     H 4239   0.763   2.756  13.651 -0.5131 -1.0304  0.5643
  277MPD2    H1 4240   0.977   2.404  13.512 -0.8158 -0.1434 -0.6541
  277MPD2    H2 4241   1.065   2.778  13.354  0.4029 -0.1049  0.2410
  277MPD2    H3 4242   1.089   2.541  13.356  0.0064  0.3313 -1.0620
  277MPD2     N 4243   0.782   2.496  13.695  0.5600 -0.4599 -0.3180
  277MPD2    H5 4244   0.722   2.556  13.752  0.3374 -2.3182  1.3989
  277MPD2    N1 4245   0.865   2.911  13.472  0.4020 -0.2089 -0.3564
  277MPD2    H7 4246   0.908   2.962  13.396 -0.6320  0.4440 -0.4952
  278TMC3    C1 4247   0.634   2.315  13.738 -0.3376 -0.9145 -0.4314
  278TMC3    C2 4248   0.585   2.197  13.692 -0.1707  0.2042  0.5525
  278TMC3    C3 4249   0.476   2.144  13.750 -0.3553 -0.6444  0.7295
  278TMC3    C4 4250   0.574   2.386  13.840  0.1616  0.5013 -0.4453
  278TMC3    C5 4251   0.453   2.344  13.872 -0.5064 -0.3694 -0.7800
  278TMC3    C6 4252   0.406   2.217  13.838  0.2924  0.1048 -0.5129
  278TMC3     C 4253   0.755   2.366  13.676 -0.6655 -0.4666 -0.2026
  278TMC3     O 4254   0.795   2.296  13.584 -0.7277 -0.0330 -0.0521
  278TMC3     H 4255   0.630   2.150  13.605 -1.2527  1.5067 -0.7029
  278TMC3    H1 4256   0.616   2.481  13.871  0.9116  0.1552 -0.3905
  278TMC3    H2 4257   0.308   2.178  13.864  0.1216  0.6450 -0.3432
  278TMC3    C7 4258   0.381   2.414  13.984 -0.4174  0.3310 -0.3900
  278TMC3    C8 4259   0.442   2.007  13.720 -0.2880  0.1502  0.4374
  278TMC3    O1 4260   0.454   2.472  14.065  0.1121 -0.1944  0.7084
  278TMC3    O2 4261   0.380   1.949  13.808  0.1196  0.0785  0.5206
  279MPD2     C 4262   0.330   1.963   0.013  0.1478  0.3922 -0.4351
  279MPD2    C1 4263   0.192   1.982   0.027 -0.7627  0.1997 -0.9192
  279MPD2    C2 4264   0.135   2.086  17.715 -0.1936  0.1830 -0.1122
  279MPD2    C3 4265   0.209   2.165  17.635  0.1911 -0.0574  0.3161
  279MPD2    C4 4266   0.349   2.144  17.626 -0.3188 -0.2045  0.2468
  279MPD2    C5 4267   0.406   2.046  17.702  0.0947  0.4111 -0.3125
  279MPD2     H 4268   0.028   2.100  17.717 -0.1209  0.6737  0.2864
  279MPD2    H1 4269   0.406   2.194  17.548 -2.4995  2.1293  0.1105
  279MPD2    H2 4270   0.385   1.897   0.079  2.2126  1.4255 -1.0988
  279MPD2    H3 4271   0.513   2.034  17.705 -0.3079 -3.4564 -1.0545
  279MPD2     N 4272   0.146   2.266  17.558  0.1010 -0.6211 -0.1196
  279MPD2    H5 4273   0.206   2.324  17.500 -0.0274 -1.3725 -0.9877
  279MPD2    N1 4274   0.118   1.901   0.120  0.0506  0.3810  0.0313
  279MPD2    H7 4275   0.169   1.836   0.179  1.6740  2.5490  1.0301
  280TMC3    C1 4276   4.679   1.818   0.248  0.1901  0.0065  0.7519
  280TMC3    C2 4277   4.555   1.754   0.217  0.3241  0.5356 -0.1838
  280TMC3    C3 4278   4.447   1.783   0.296  0.0121 -0.0515 -0.5160
  280TMC3    C4 4279   4.686   1.895   0.364  0.6768 -0.7003 -0.2779
  280TMC3    C5 4280   4.570   1.926   0.426 -0.4156 -0.2919  0.5133
  280TMC3    C6 4281   4.448   1.868   0.400  0.3334 -0.0435  0.6115
  280TMC3     C 4282   4.723   1.882   0.122  0.8047 -0.2924 -0.4169
  280TMC3     O 4283   4.637   1.928   0.047 -0.3627  0.2578  0.0778
  280TMC3     H 4284   4.549   1.706   0.120 -0.3379 -2.0529  1.1538
  280TMC3    H1 4285   0.037   1.944   0.392  1.1858 -1.2504 -0.9784
  280TMC3    H2 4286   4.364   1.893   0.463 -0.5793 -2.6964  0.4562
  280TMC3    C7 4287   4.563   2.066   0.448  0.9216  0.5219 -0.0018
  280TMC3    C8 4288   4.323   1.702   0.294 -0.0110 -0.4614 -0.4275
  280TMC3    O1 4289   4.657   2.110   0.512  0.6167  0.7265 -0.1175
  280TMC3    O2 4290   4.263   1.682   0.399 -1.0246 -0.2177 -0.1344
  281TMC3    C1 4291   2.953   2.721  13.455  0.4816  0.7477 -0.1368
  281TMC3    C2 4292   3.072   2.762  13.510 -0.1426  0.3168 -0.4511
  281TMC3    C3 4293   3.174   2.664  13.512  1.0012 -0.4586  0.0189
  281TMC3    C4 4294   2.938   2.595  13.407 -0.0191 -0.4845 -0.5437
  281TMC3    C5 4295   3.042   2.504  13.406 -0.2018  0.4923  0.8548
  281TMC3    C6 4296   3.163   2.533  13.457 -0.1178  0.0289 -0.3824
  281TMC3     C 4297   2.873   2.829  13.395 -0.1074 -0.6334 -0.4232
  281TMC3     O 4298   2.782   2.782  13.329 -0.4813 -0.0210  0.3485
  281TMC3     H 4299   3.069   2.838  13.586  0.3814 -0.3561  0.2428
  281TMC3    H1 4300   2.851   2.563  13.350 -1.0306 -0.3246  0.8962
  281TMC3    H2 4301   3.248   2.468  13.473 -0.0871 -0.6059 -3.0090
  281TMC3    C7 4302   3.009   2.363  13.392  0.0589 -0.3421  0.4477
  281TMC3    C8 4303   3.296   2.675  13.601 -1.2042 -0.9213 -0.2716
  281TMC3    O1 4304   2.888   2.335  13.412 -0.7388 -0.1505  0.0008
  281TMC3    O2 4305   3.326   2.566  13.654 -0.0939  0.0827  0.1163
  282MPD2     C 4306   0.525   3.787  15.283  0.2666  0.0790 -0.1229
  282MPD2    C1 4307   0.448   3.900  15.315 -0.1332 -0.3323  0.7474
  282MPD2    C2 4308   0.409   3.990  15.223 -0.7367  0.5663 -0.2409
  282MPD2    C3 4309   0.448   3.970  15.091 -0.7507 -0.2561  0.6088
  282MPD2    C4 4310   0.529   3.862  15.055 -0.1811 -0.2521  0.0055
  282MPD2    C5 4311   0.562   3.771  15.152  0.1908 -0.2123  0.3939
  282MPD2     H 4312   0.356   4.080  15.249 -2.8463 -0.8896  0.5291
  282MPD2    H1 4313   0.570   3.856  14.955 -1.1201  2.0921 -0.5247
  282MPD2    H2 4314   0.553   3.719  15.362  0.2083  0.4368  0.2037
  282MPD2    H3 4315   0.620   3.685  15.121 -0.0683 -0.7289  1.3287
  282MPD2     N 4316   0.418   4.075  14.995 -0.3648 -0.1729 -0.6092
  282MPD2    H5 4317   0.377   4.157  15.038 -1.3041 -0.2128 -1.4329
  282MPD2    N1 4318   0.411   3.929  15.450 -0.7124  0.4221 -0.6261
  282MPD2    H7 4319   0.347   4.007  15.463 -1.3719  0.0086 -1.4406
  283TMC3    C1 4320   0.393   3.913  15.685 -0.2959 -0.0078 -0.2561
  283TMC3    C2 4321   0.393   4.043  15.722 -0.0469  0.3641  0.3182
  283TMC3    C3 4322   0.306   4.076  15.827 -0.0107 -0.5533 -0.1451
  283TMC3    C4 4323   0.318   3.811  15.740 -0.4028  0.1889 -0.1374
  283TMC3    C5 4324   0.237   3.850  15.843  0.2011 -0.1343 -0.1015
  283TMC3    C6 4325   0.229   3.984  15.893  0.1129 -0.3171 -0.3146
  283TMC3     C 4326   0.466   3.874  15.566  0.2608 -0.5227 -0.7077
  283TMC3     O 4327   0.536   3.775  15.577  0.2656 -0.0613  0.2030
  283TMC3     H 4328   0.469   4.111  15.684  0.8698 -0.7799  0.1113
  283TMC3    H1 4329   0.306   3.717  15.687 -1.0201  0.3494 -0.2875
  283TMC3    H2 4330   0.168   4.019  15.976 -0.8198 -0.3736 -0.9849
  283TMC3    C7 4331   0.139   3.756  15.902  0.2982  0.1671  0.2183
  283TMC3    C8 4332   0.314   4.212  15.888 -0.3520 -0.6928 -0.2309
  283TMC3    O1 4333   0.062   3.796  15.984  0.1321  0.2965  0.2371
  283TMC3    O2 4334   0.265   4.221  16.000 -0.1911  1.2658  0.3828
  284MPD2     C 4335   3.258   3.841  12.124 -0.0707  0.1539  0.2726
  284MPD2    C1 4336   3.363   3.755  12.087  0.1367 -1.0115 -1.2331
  284MPD2    C2 4337   3.380   3.641  12.159 -0.1040  0.6185 -0.1617
  284MPD2    C3 4338   3.317   3.625  12.281 -0.2472  0.2871 -0.1085
  284MPD2    C4 4339   3.226   3.717  12.323 -0.7434  0.3739 -0.0671
  284MPD2    C5 4340   3.196   3.824  12.245  0.0163 -0.9365 -0.7857
  284MPD2     H 4341   3.460   3.576  12.127 -0.9408 -0.2147 -0.5892
  284MPD2    H1 4342   3.180   3.712  12.421 -0.0847  0.3720  0.2401
  284MPD2    H2 4343   3.228   3.926  12.064  0.5267  0.7494  0.8007
  284MPD2    H3 4344   3.110   3.884  12.272 -0.1223 -0.8116 -1.4955
  284MPD2     N 4345   3.366   3.520  12.364 -0.4451  0.1079  0.2083
  284MPD2    H5 4346   3.368   3.535  12.464 -3.3355  0.6421  0.1758
  284MPD2    N1 4347   3.443   3.782  11.971 -0.2451 -0.4565  0.2924
  284MPD2    H7 4348   3.503   3.708  11.936  0.0483  0.0643 -0.2933
  285TMC3    C1 4349   3.543   3.905  11.803 -0.1563  0.6619 -0.8484
  285TMC3    C2 4350   3.571   3.793  11.731  0.6063 -0.3228 -0.9971
  285TMC3    C3 4351   3.698   3.787  11.674  0.0771  0.6110 -0.6788
  285TMC3    C4 4352   3.632   4.006  11.803  0.3690 -0.4235 -0.1303
  285TMC3    C5 4353   3.754   4.000  11.739 -0.4468  0.1786 -0.5793
  285TMC3    C6 4354   3.797   3.889  11.680  0.2766 -0.0196 -0.2087
  285TMC3     C 4355   3.452   3.904  11.908  0.5591 -0.1214  0.2820
  285TMC3     O 4356   3.408   4.009  11.952  0.2160 -0.1641 -0.4249
  285TMC3     H 4357   3.504   3.710  11.714  2.0857 -1.8765  0.7615
  285TMC3    H1 4358   3.614   4.099  11.856  1.1419 -2.3130  3.4587
  285TMC3    H2 4359   3.887   3.880  11.621 -0.1500  0.6129 -0.9465
  285TMC3    C7 4360   3.835   4.118  11.709 -0.0288 -0.0469 -0.6111
  285TMC3    C8 4361   3.713   3.677  11.577 -0.2143 -0.0748  0.6832
  285TMC3    O1 4362   3.951   4.101  11.675 -0.0493  0.0953 -0.3261
  285TMC3    O2 4363   3.609   3.610  11.557  0.1358 -0.5094 -0.1685
  286MPD2     C 4364   3.540   1.964   1.726  0.3888 -0.9605  0.1953
  286MPD2    C1 4365   3.587   2.007   1.598  0.0644  0.0166  0.2400
  286MPD2    C2 4366   3.717   1.958   1.566 -0.3323 -0.0066 -0.0587
  286MPD2    C3 4367   3.796   1.885   1.652  0.0741 -0.0284  0.5492
  286MPD2    C4 4368   3.744   1.866   1.780  0.4866  0.9362  0.5229
  286MPD2    C5 4369   3.620   1.908   1.819 -0.4002  0.4009  0.0909
  286MPD2     H 4370   3.759   1.988   1.470 -0.7861 -0.8972 -0.5330
  286MPD2    H1 4371   3.806   1.818   1.854 -0.0748 -1.0052 -0.2551
  286MPD2    H2 4372   3.438   1.991   1.753  1.0440  1.8247 -0.0752
  286MPD2    H3 4373   3.583   1.897   1.921  0.5294 -2.9181  0.0470
  286MPD2     N 4374   3.923   1.827   1.614 -0.2569  0.1250 -0.5895
  286MPD2    H5 4375   3.984   1.783   1.682  0.7850  1.9067 -0.3646
  286MPD2    N1 4376   3.515   2.097   1.517 -0.2845 -0.1448 -0.5424
  286MPD2    H7 4377   3.549   2.118   1.424  2.8960  2.8486  1.3243
  287TMC3    C1 4378   4.084   1.743   1.455  0.9708  0.9709 -0.3684
  287TMC3    C2 4379   4.083   1.656   1.352  0.2920  0.3341  0.0329
  287TMC3    C3 4380   4.199   1.596   1.322  0.3645  0.1436 -0.2174
  287TMC3    C4 4381   4.202   1.768   1.527 -0.0791 -0.7848 -0.9479
  287TMC3    C5 4382   4.317   1.712   1.483 -0.2609  0.1257 -0.3282
  287TMC3    C6 4383   4.320   1.625   1.377 -0.0943 -0.5197 -0.0700
  287TMC3     C 4384   3.961   1.817   1.481  0.3314  0.8682 -0.2224
  287TMC3     O 4385   3.893   1.822   1.380  0.4164 -0.2830  0.7745
  287TMC3     H 4386   3.984   1.639   1.309  1.0320 -0.6960 -1.2633
  287TMC3    H1 4387   4.192   1.838   1.609 -0.7469 -0.3592 -1.3818
  287TMC3    H2 4388   4.408   1.563   1.363 -0.9839 -1.9846  0.8995
  287TMC3    C7 4389   4.433   1.752   1.553 -0.1093  0.5362 -0.0520
  287TMC3    C8 4390   4.202   1.518   1.200  0.1491 -0.2979  0.3823
  287TMC3    O1 4391   4.425   1.816   1.657 -0.3190 -0.0935 -0.0119
  287TMC3    O2 4392   4.103   1.446   1.179  0.0248  0.1554 -0.0035
  288TMC3    C1 4393   0.913   1.678  14.361  0.0978 -0.6546 -0.5397
  288TMC3    C2 4394   0.779   1.675  14.368  0.5673  0.2290  0.5167
  288TMC3    C3 4395   0.708   1.724  14.263  0.3851  0.6002 -0.3890
  288TMC3    C4 4396   0.980   1.715  14.242  0.3717 -0.0896  0.3330
  288TMC3    C5 4397   0.901   1.748  14.130 -0.4181 -0.1288  0.1017
  288TMC3    C6 4398   0.765   1.763  14.148 -0.7576  0.1499  0.5912
  288TMC3     C 4399   0.992   1.679  14.482 -0.0496 -0.0222  0.2195
  288TMC3     O 4400   0.940   1.622  14.581  0.2568 -0.1099  0.4650
  288TMC3     H 4401   0.730   1.650  14.461  1.9251 -1.5648  0.7617
  288TMC3    H1 4402   1.088   1.717  14.238  0.3093  1.8837 -0.4750
  288TMC3    H2 4403   0.699   1.790  14.066  1.2361  0.1551 -1.0165
  288TMC3    C7 4404   0.957   1.757  13.998  0.5071 -0.5421  0.7379
  288TMC3    C8 4405   0.564   1.730  14.282  1.0577 -0.2754  0.3625
  288TMC3    O1 4406   1.053   1.680  13.991  0.0987  0.5443 -0.8708
  288TMC3    O2 4407   0.500   1.818  14.221  0.1582 -0.1578  0.2432
  289MPD2     C 4408   0.682   0.887  14.738 -0.0434  0.9386  0.5317
  289MPD2    C1 4409   0.708   0.990  14.644 -0.0826 -0.0040 -0.0676
  289MPD2    C2 4410   0.609   1.022  14.553 -0.1548 -0.7875 -0.1166
  289MPD2    C3 4411   0.480   0.969  14.562 -0.3609 -0.1817 -0.3281
  289MPD2    C4 4412   0.460   0.862  14.652  0.3432  0.4102 -0.1892
  289MPD2    C5 4413   0.562   0.828  14.734 -0.6698 -0.2602  0.1368
  289MPD2     H 4414   0.629   1.098  14.478 -0.8029 -0.5270 -0.0225
  289MPD2    H1 4415   0.365   0.811  14.660 -0.3560  1.5983 -0.9906
  289MPD2    H2 4416   0.746   0.851  14.818 -0.3045 -0.2646  0.2087
  289MPD2    H3 4417   0.545   0.743  14.800 -0.2838  0.4041  1.0977
  289MPD2     N 4418   0.367   0.996  14.479  0.3185  0.0721  0.5956
  289MPD2    H5 4419   0.294   0.926  14.488 -0.2147  0.8521  2.2270
  289MPD2    N1 4420   0.835   1.051  14.638  0.0487 -0.3640  0.5518
  289MPD2    H7 4421   0.911   1.020  14.698  0.9899 -1.7718 -1.3353
  290TMC3    C1 4422   0.228   1.098  14.309  0.3551  0.0063  0.3714
  290TMC3    C2 4423   0.205   1.211  14.228 -0.6936  0.2370 -0.1229
  290TMC3    C3 4424   0.141   1.192  14.107 -0.6312  0.7514  0.2831
  290TMC3    C4 4425   0.174   0.979  14.270  0.6038 -0.3724  0.4033
  290TMC3    C5 4426   0.106   0.970  14.152 -0.3186 -0.0119  0.9229
  290TMC3    C6 4427   0.096   1.074  14.064  0.3313 -0.0193  0.1000
  290TMC3     C 4428   0.354   1.095  14.383 -0.1422  0.4315 -0.7949
  290TMC3     O 4429   0.419   1.198  14.371  0.3326  0.2593  0.3251
  290TMC3     H 4430   0.240   1.311  14.254  1.3506 -0.6805  0.5930
  290TMC3    H1 4431   0.212   0.891  14.322  0.4287 -0.3777  0.5216
  290TMC3    H2 4432   0.039   1.072  13.972  0.9999  1.0215 -0.3445
  290TMC3    C7 4433   0.048   0.846  14.109 -0.2837  0.0373 -0.0504
  290TMC3    C8 4434   0.102   1.293  14.016  0.3713  0.0950 -1.1834
  290TMC3    O1 4435   4.715   0.852  14.010 -0.4934 -0.8751  0.7993
  290TMC3    O2 4436   4.742   1.279  13.950 -0.3961 -0.6283 -0.8616
  291MPD2     C 4437   4.661   0.764   0.440  0.6194  0.4969  0.5646
  291MPD2    C1 4438   0.024   0.699   0.503 -0.4589 -0.4606 -0.2171
  291MPD2    C2 4439   0.143   0.768   0.529  0.2123 -0.2282  0.1422
  291MPD2    C3 4440   0.153   0.898   0.492 -0.8377  0.1255  0.2134
  291MPD2    C4 4441   0.050   0.964   0.426 -0.7925 -0.6440  0.0246
  291MPD2    C5 4442   4.678   0.898   0.401 -0.0282 -0.4803  0.4188
  291MPD2     H 4443   0.227   0.723   0.580 -0.2497 -0.7622  0.4293
  291MPD2    H1 4444   0.060   1.066   0.389 -0.6041 -0.9738 -0.8477
  291MPD2    H2 4445   4.567   0.712   0.426  0.5992  0.8567 -0.6160
  291MPD2    H3 4446   4.612   0.937   0.324  0.9165 -1.7213 -1.0209
  291MPD2     N 4447   0.271   0.973   0.512 -0.0819 -0.0734 -0.1250
  291MPD2    H5 4448   0.275   1.066   0.471  0.8286 -0.3214 -0.6174
  291MPD2    N1 4449   0.010   0.567   0.544  0.1385 -0.1744  0.2686
  291MPD2    H7 4450   4.662   0.525   0.520  0.9243 -3.5446  3.2984
  292TMC3    C1 4451   0.064   0.351   0.621  0.4003  0.5206  0.5821
  292TMC3    C2 4452   0.014   0.327   0.740 -0.2559 -0.7531  0.0386
  292TMC3    C3 4453   4.667   0.222   0.762  0.0764 -0.9555 -0.1006
  292TMC3    C4 4454   0.035   0.276   0.509 -0.0899 -0.6418 -0.4391
  292TMC3    C5 4455   4.700   0.163   0.540  0.0734 -0.2716  0.2349
  292TMC3    C6 4456   4.654   0.129   0.665 -0.6876 -0.0126  0.3169
  292TMC3     C 4457   0.106   0.482   0.595 -0.0886 -0.2157  0.0308
  292TMC3     O 4458   0.218   0.507   0.630 -0.0638  0.1392 -0.3877
  292TMC3     H 4459   0.021   0.395   0.824 -0.6065  1.1598 -1.4725
  292TMC3    H1 4460   0.086   0.273   0.413 -2.5823 -1.7126 -1.7402
  292TMC3    H2 4461   4.601   0.038   0.691  0.0448 -0.5877 -0.2097
  292TMC3    C7 4462   4.677   0.075   0.423 -0.2211 -0.3609 -0.2088
  292TMC3    C8 4463   4.580   0.218   0.883 -0.3980  0.1371 -0.1375
  292TMC3    O1 4464   4.717   4.702   0.440 -0.2061 -0.2883 -0.3746
  292TMC3    O2 4465   4.630   0.257   0.989 -0.4434  0.2221 -0.6728
  293MPD2     C 4466   1.541   2.609  12.806  0.1100 -0.2052 -0.0326
  293MPD2    C1 4467   1.527   2.505  12.887 -0.1579  0.0498 -0.1163
  293MPD2    C2 4468   1.630   2.481  12.979 -0.4364  0.0884 -0.0049
  293MPD2    C3 4469   1.737   2.572  12.994  1.2074  0.3626 -0.5262
  293MPD2    C4 4470   1.744   2.683  12.914  0.5356 -0.2722  0.1480
  293MPD2    C5 4471   1.642   2.699  12.823 -0.4041  0.2948  0.4032
  293MPD2     H 4472   1.613   2.412  13.062 -1.1742  1.7691  1.2464
  293MPD2    H1 4473   1.820   2.760  12.919 -0.3325  0.6693 -1.1828
  293MPD2    H2 4474   1.464   2.622  12.731 -0.5761 -1.2479  0.4949
  293MPD2    H3 4475   1.655   2.795  12.775 -0.3982 -1.1575 -2.5231
  293MPD2     N 4476   1.831   2.539  13.099  0.0478 -0.3160  0.2528
  293MPD2    H5 4477   1.804   2.465  13.163  0.2710 -1.2044 -0.6834
  293MPD2    N1 4478   1.409   2.432  12.857 -0.0825 -0.3286  0.1308
  293MPD2    H7 4479   1.348   2.478  12.790  0.0552 -0.0705  0.1828
  294TMC3    C1 4480   1.268   2.251  12.864 -0.0601 -0.5377 -0.3832
  294TMC3    C2 4481   1.298   2.128  12.804 -0.6160 -0.2408 -0.0733
  294TMC3    C3 4482   1.269   2.115  12.669  1.1455  0.0690  0.9602
  294TMC3    C4 4483   1.189   2.339  12.789 -0.4776  0.4988  0.1667
  294TMC3    C5 4484   1.155   2.318  12.658 -0.3319 -0.7800 -0.4753
  294TMC3    C6 4485   1.205   2.210  12.594 -0.8798  0.2982  0.6251
  294TMC3     C 4486   1.387   2.311  12.918 -0.2748  0.3134  0.0221
  294TMC3     O 4487   1.457   2.239  12.985 -0.2217  0.1158  0.6465
  294TMC3     H 4488   1.383   2.074  12.843  0.0874  1.7708  1.1564
  294TMC3    H1 4489   1.164   2.436  12.831  0.6830  1.5470 -1.5472
  294TMC3    H2 4490   1.187   2.200  12.488 -1.1951  0.7955  0.6349
  294TMC3    C7 4491   1.118   2.440  12.590 -0.2241  0.4654  0.1849
  294TMC3    C8 4492   1.345   2.021  12.589  0.4024 -0.0479 -0.0655
  294TMC3    O1 4493   1.028   2.504  12.636 -0.2248  0.2056  1.1198
  294TMC3    O2 4494   1.354   1.903  12.629  0.4798 -0.9080  0.0077
  295MPD2     C 4495   2.443   1.708   0.919 -0.1948  0.1238  0.7174
  295MPD2    C1 4496   2.380   1.757   0.811  0.5025  0.8671  0.8028
  295MPD2    C2 4497   2.260   1.826   0.824 -0.9656 -0.1194  0.3944
  295MPD2    C3 4498   2.198   1.846   0.951  0.5807 -0.6468 -0.6966
  295MPD2    C4 4499   2.267   1.798   1.060  0.5660 -0.5969  0.4595
  295MPD2    C5 4500   2.390   1.738   1.043  0.3764 -0.0147 -0.2599
  295MPD2     H 4501   2.233   1.889   0.740  0.7965 -0.3291 -0.3291
  295MPD2    H1 4502   2.234   1.824   1.160  1.8246  1.7539  0.2579
  295MPD2    H2 4503   2.545   1.672   0.926 -0.6238 -1.6938 -2.3489
  295MPD2    H3 4504   2.450   1.717   1.131 -1.8631 -1.1478  1.0247
  295MPD2     N 4505   2.080   1.920   0.979  0.0164  0.5720 -0.0281
  295MPD2    H5 4506   2.057   1.936   1.077 -2.3255 -2.1053 -0.1276
  295MPD2    N1 4507   2.431   1.739   0.683  0.2688  0.9844 -0.3169
  295MPD2    H7 4508   2.373   1.791   0.618  1.2836  0.6391 -1.4883
  296TMC3    C1 4509   1.884   2.042   0.925  0.5042  0.2391 -0.2886
  296TMC3    C2 4510   1.832   2.146   0.849  0.4761  0.4275  1.0289
  296TMC3    C3 4511   1.722   2.207   0.899  0.1145  0.2945  0.2336
  296TMC3    C4 4512   1.814   1.983   1.027 -0.1297  0.1771  0.4062
  296TMC3    C5 4513   1.700   2.038   1.070 -0.3020  0.3146  1.0495
  296TMC3    C6 4514   1.654   2.154   1.003 -0.1610  0.4295 -0.7392
  296TMC3     C 4515   1.999   1.969   0.876  0.2016  0.2017 -0.3159
  296TMC3     O 4516   2.022   1.962   0.755  0.9903  1.0302  0.1470
  296TMC3     H 4517   1.899   2.193   0.777 -2.7152  1.2193 -1.4132
  296TMC3    H1 4518   1.851   1.888   1.064 -0.7238 -0.6257 -1.0742
  296TMC3    H2 4519   1.563   2.205   1.035 -0.8976  0.6278 -3.1879
  296TMC3    C7 4520   1.634   1.982   1.186  0.0303 -0.3253  0.0075
  296TMC3    C8 4521   1.679   2.333   0.850  0.0756 -0.5667 -0.4181
  296TMC3    O1 4522   1.568   2.063   1.253 -0.3780 -0.7144 -0.4243
  296TMC3    O2 4523   1.683   2.353   0.727  0.0764  0.2185  0.1241
  297MPD2     C 4524   4.369   2.380  16.637  0.7547  0.5794 -0.4187
  297MPD2    C1 4525   4.341   2.454  16.522  0.5754  0.1069  0.1248
  297MPD2    C2 4526   4.422   2.562  16.492 -0.5519  0.1311 -0.3039
  297MPD2    C3 4527   4.527   2.603  16.580 -0.9934 -0.1739  0.0226
  297MPD2    C4 4528   4.559   2.532  16.695  0.4837 -1.1155  1.2448
  297MPD2    C5 4529   4.481   2.417  16.710 -0.0979  0.5264  0.0700
  297MPD2     H 4530   4.407   2.620  16.402 -0.1664 -1.1829 -1.2065
  297MPD2    H1 4531   4.627   2.561  16.774  0.2442  3.2401 -0.1767
  297MPD2    H2 4532   4.317   2.287  16.659 -0.7329  1.1780 -1.3804
  297MPD2    H3 4533   4.502   2.354  16.796  0.3115  1.5418  0.7060
  297MPD2     N 4534   4.593   2.720  16.546  0.1460  0.4636 -0.2973
  297MPD2    H5 4535   4.586   2.745  16.447  0.7260 -1.4731 -0.8313
  297MPD2    N1 4536   4.227   2.436  16.441  0.0491 -0.8911  0.3357
  297MPD2    H7 4537   4.218   2.511  16.372 -1.1929 -0.5880  0.8272
  298TMC3    C1 4538   4.006   2.401  16.389  0.0885 -0.4447 -0.3307
  298TMC3    C2 4539   4.034   2.417  16.256 -0.0635  0.4086  0.0050
  298TMC3    C3 4540   3.941   2.479  16.178  0.2078  0.0641  0.2348
  298TMC3    C4 4541   3.883   2.437  16.443  0.8838 -0.1252  0.5720
  298TMC3    C5 4542   3.791   2.497  16.368  0.1959  0.1422  0.0238
  298TMC3    C6 4543   3.811   2.509  16.224 -0.2369  0.1474 -0.6266
  298TMC3     C 4544   4.110   2.374  16.485  0.0484  0.3081  0.2644
  298TMC3     O 4545   4.074   2.334  16.594 -0.2979  0.0414  0.2255
  298TMC3     H 4546   4.123   2.385  16.205 -0.3156 -1.1289  0.5489
  298TMC3    H1 4547   3.871   2.431  16.551  1.3856  1.2658  0.7032
  298TMC3    H2 4548   3.743   2.561  16.157 -0.1207 -0.9124 -1.5575
  298TMC3    C7 4549   3.711   2.608  16.438  0.0911  0.7489 -0.3970
  298TMC3    C8 4550   3.957   2.498  16.032  0.0496  0.3835 -0.0309
  298TMC3    O1 4551   3.678   2.596  16.554 -0.1589 -0.6215 -0.4426
  298TMC3    O2 4552   3.858   2.497  15.961 -0.1416 -0.0280 -0.2111
  299MPD2     C 4553   4.614   3.347  10.870  0.7346  0.0357  0.3209
  299MPD2    C1 4554   4.695   3.358  10.761  0.5399  0.0525 -0.6149
  299MPD2    C2 4555   4.637   3.343  10.636  0.6782 -0.0356  0.5708
  299MPD2    C3 4556   4.500   3.311  10.623 -0.7636 -0.3886  0.2837
  299MPD2    C4 4557   4.424   3.309  10.739 -0.3986 -0.8820 -0.4331
  299MPD2    C5 4558   4.481   3.325  10.862 -0.1553  0.3951  0.5456
  299MPD2     H 4559   4.690   3.340  10.542  0.1522 -0.6317  0.2929
  299MPD2    H1 4560   4.317   3.289  10.742 -1.0044  2.4460 -0.6200
  299MPD2    H2 4561   4.654   3.361  10.970  2.0829  2.3152 -0.5379
  299MPD2    H3 4562   4.417   3.328  10.950 -1.1498  0.7731 -0.2005
  299MPD2     N 4563   4.432   3.279  10.501  0.5854  0.3796 -0.5680
  299MPD2    H5 4564   4.336   3.249  10.512  0.3149  1.5623  0.2588
  299MPD2    N1 4565   0.093   3.386  10.781  0.0999  0.3458  0.2020
  299MPD2    H7 4566   0.119   3.385  10.879  1.0759 -0.2539 -0.0641
  300TMC3    C1 4567   4.380   3.292  10.277  0.2644 -0.0022 -0.2853
  300TMC3    C2 4568   4.393   3.374  10.170  0.9657  0.2508  0.2912
  300TMC3    C3 4569   4.291   3.398  10.085  0.7932  0.2360  0.1447
  300TMC3    C4 4570   4.265   3.229  10.298  0.4388  0.4750 -0.3426
  300TMC3    C5 4571   4.168   3.243  10.200 -0.0795  0.3898  0.9729
  300TMC3    C6 4572   4.176   3.328  10.096  0.9532 -0.2219 -0.3518
  300TMC3     C 4573   4.482   3.299  10.375 -0.2079 -0.2347  0.6276
  300TMC3     O 4574   4.590   3.344  10.339  0.3134  0.0895 -0.5147
  300TMC3     H 4575   4.486   3.428  10.156  0.6454  0.7599  0.1083
  300TMC3    H1 4576   4.263   3.160  10.382  1.8996  0.4219 -0.3544
  300TMC3    H2 4577   4.095   3.337  10.025  3.3646 -1.5508 -3.3029
  300TMC3    C7 4578   4.041   3.159  10.212 -0.0341  0.4011 -0.1280
  300TMC3    C8 4579   4.270   3.542  10.058 -0.6221 -0.2508 -0.2547
  300TMC3    O1 4580   3.978   3.142  10.110 -0.3524 -0.6772  0.0712
  300TMC3    O2 4581   4.370   3.605  10.031  0.3434 -0.5506 -0.1718
  301MPD2     C 4582   1.446   3.913   1.590  0.0021 -0.2387 -0.0063
  301MPD2    C1 4583   1.493   3.975   1.475 -0.1535 -0.1673 -0.2926
  301MPD2    C2 4584   1.599   3.915   1.399  0.2367 -0.1053  0.3331
  301MPD2    C3 4585   1.663   3.795   1.444 -0.2634 -0.8557 -0.6194
  301MPD2    C4 4586   1.627   3.754   1.567  0.0359 -0.4669 -0.5746
  301MPD2    C5 4587   1.516   3.801   1.632 -0.7022 -0.0934  0.7171
  301MPD2     H 4588   1.626   3.959   1.303 -1.0028 -1.0954 -0.4756
  301MPD2    H1 4589   1.678   3.673   1.620  1.1946  1.3965  1.1449
  301MPD2    H2 4590   1.366   3.954   1.650  1.2269  1.3862  0.4924
  301MPD2    H3 4591   1.485   3.741   1.717 -0.8437 -1.9844 -0.6683
  301MPD2     N 4592   1.772   3.724   1.385  0.0050 -0.1744 -0.9340
  301MPD2    H5 4593   1.818   3.653   1.441 -0.0478  1.6246  1.3855
  301MPD2    N1 4594   1.420   4.085   1.424 -0.3847  0.3671  0.0295
  301MPD2    H7 4595   1.455   4.111   1.332  0.0925  2.9881  0.9577
  302TMC3    C1 4596   1.923   3.676   1.213 -0.2973 -0.7872  0.2469
  302TMC3    C2 4597   1.982   3.587   1.291 -0.9850 -0.4660  0.4013
  302TMC3    C3 4598   2.106   3.551   1.248 -0.0487  0.2652  0.1067
  302TMC3    C4 4599   1.973   3.729   1.099 -0.1070  0.3888  0.0100
  302TMC3    C5 4600   2.087   3.676   1.052 -0.1735 -0.3578 -0.3061
  302TMC3    C6 4601   2.160   3.593   1.129 -0.3739 -0.1601 -0.2637
  302TMC3     C 4602   1.803   3.746   1.256  0.2228 -0.4465 -0.3604
  302TMC3     O 4603   1.731   3.787   1.165  0.6953 -0.4776 -0.1193
  302TMC3     H 4604   1.933   3.540   1.376  0.8302 -0.5338  1.4049
  302TMC3    H1 4605   1.937   3.823   1.057 -0.6149  1.1096  2.0332
  302TMC3    H2 4606   2.255   3.549   1.100  0.6165 -0.2475  3.1009
  302TMC3    C7 4607   2.128   3.702   0.924  0.3119 -0.6080  0.4913
  302TMC3    C8 4608   2.185   3.473   1.338 -0.2242 -0.3897 -0.3868
  302TMC3    O1 4609   2.232   3.645   0.892  0.5203  0.6964  0.1412
  302TMC3    O2 4610   2.268   3.401   1.289 -0.8375  0.1572 -0.4368
  303MPD2     C 4611   2.269   2.316  11.471  0.4122 -0.4578 -0.2398
  303MPD2    C1 4612   2.250   2.257  11.348  0.1627 -0.4088  0.3126
  303MPD2    C2 4613   2.239   2.333  11.235  0.4076 -0.5041 -0.3472
  303MPD2    C3 4614   2.242   2.472  11.244 -0.9429 -0.2834 -0.2920
  303MPD2    C4 4615   2.263   2.530  11.361 -0.7358 -0.3722  0.3102
  303MPD2    C5 4616   2.278   2.452  11.473  0.7182  0.3285 -0.7804
  303MPD2     H 4617   2.225   2.278  11.143  1.3262  0.9850 -1.3855
  303MPD2    H1 4618   2.267   2.639  11.365 -1.8650 -0.2283 -2.0981
  303MPD2    H2 4619   2.270   2.267  11.567 -0.5003 -2.4951 -1.2837
  303MPD2    H3 4620   2.282   2.501  11.570  0.5534 -0.0594 -0.5777
  303MPD2     N 4621   2.241   2.564  11.135 -0.1786 -0.2100  0.3871
  303MPD2    H5 4622   2.253   2.663  11.154  3.3935 -0.3423 -0.9832
  303MPD2    N1 4623   2.226   2.116  11.350  0.0685 -0.4743  0.4615
  303MPD2    H7 4624   2.241   2.065  11.436 -1.7290 -2.0531 -0.1517
  304TMC3    C1 4625   2.171   1.909  11.257  0.6469 -0.1651  0.0204
  304TMC3    C2 4626   2.070   1.842  11.188  0.1540  0.5120  0.1309
  304TMC3    C3 4627   2.090   1.714  11.145  0.4104  0.6642  0.0085
  304TMC3    C4 4628   2.292   1.850  11.266  0.3128  0.1908  0.5607
  304TMC3    C5 4629   2.315   1.730  11.216  0.4546  0.0833  0.4888
  304TMC3    C6 4630   2.216   1.655  11.157 -0.4262  0.9927  0.3350
  304TMC3     C 4631   2.160   2.051  11.248  0.7000 -0.6845  0.6809
  304TMC3     O 4632   2.078   2.096  11.162 -0.2329  0.5048 -0.1508
  304TMC3     H 4633   1.976   1.895  11.173  1.2333  1.7071 -2.5023
  304TMC3    H1 4634   2.371   1.910  11.309  1.8763 -1.4920  0.0351
  304TMC3    H2 4635   2.227   1.554  11.119 -0.7840  1.3089 -0.6087
  304TMC3    C7 4636   2.436   1.724  11.143  0.0235  0.2207 -0.5497
  304TMC3    C8 4637   2.058   1.701  11.004  0.4868 -0.2685  0.7196
  304TMC3    O1 4638   2.525   1.801  11.174  0.3833  0.4052 -0.4519
  304TMC3    O2 4639   2.151   1.666  10.928  0.0063 -0.5124  0.4770
  305MPD2     C 4640   1.095   4.358  14.228 -0.8820 -0.1635 -0.2193
  305MPD2    C1 4641   1.009   4.242  14.228 -0.8754  0.8378  0.0344
  305MPD2    C2 4642   0.979   4.181  14.107  0.5466 -0.5300 -0.4910
  305MPD2    C3 4643   1.015   4.240  13.983  0.5582 -0.1486 -0.6654
  305MPD2    C4 4644   1.087   4.360  13.990  0.6848  0.7656  0.3693
  305MPD2    C5 4645   1.136   4.411  14.108  1.3220  0.0727  0.4443
  305MPD2     H 4646   0.917   4.092  14.106 -0.0739 -0.1437  1.4384
  305MPD2    H1 4647   1.104   4.415  13.898  1.6217  1.6265  1.0575
  305MPD2    H2 4648   1.139   4.397  14.319  1.0248 -1.3972 -0.6179
  305MPD2    H3 4649   1.212   4.488  14.110  0.9399  0.4528  0.2801
  305MPD2     N 4650   0.983   4.197  13.853  0.5692 -0.2948 -0.1665
  305MPD2    H5 4651   1.030   4.239  13.773 -0.8692  1.0012 -0.3222
  305MPD2    N1 4652   0.969   4.201  14.358 -0.2584  0.2608 -0.6239
  305MPD2    H7 4653   0.992   4.268  14.430  0.9280  0.1077 -0.8575
  306TMC3    C1 4654   0.874   4.069  14.522  0.1938  0.4730  0.3409
  306TMC3    C2 4655   0.869   3.952  14.587 -0.1792  0.0143 -0.2658
  306TMC3    C3 4656   0.853   3.948  14.725 -0.1772 -0.3129 -0.0185
  306TMC3    C4 4657   0.832   4.178  14.588 -0.8366 -0.1685 -0.8182
  306TMC3    C5 4658   0.802   4.168  14.724 -0.7461  0.1691  0.2201
  306TMC3    C6 4659   0.810   4.054  14.799  0.3825 -0.3266 -0.0298
  306TMC3     C 4660   0.905   4.084  14.385  0.2116 -0.4294  0.4313
  306TMC3     O 4661   0.868   3.992  14.314  0.1417  0.2809  0.1316
  306TMC3     H 4662   0.913   3.871  14.530 -2.7980 -0.9810 -0.8858
  306TMC3    H1 4663   0.811   4.266  14.530 -1.7546 -0.4961 -0.9880
  306TMC3    H2 4664   0.780   4.046  14.903 -0.0541 -0.5669 -0.1743
  306TMC3    C7 4665   0.738   4.288  14.782  0.7292  0.7451  0.1786
  306TMC3    C8 4666   0.921   3.827  14.781 -0.3300 -0.1112  0.1940
  306TMC3    O1 4667   0.714   4.385  14.709  0.1422 -0.0388  0.4680
  306TMC3    O2 4668   0.965   3.745  14.703 -0.0062 -0.2021  0.4237
  307MPD2     C 4669   3.650   2.446   0.456 -0.3181  0.3074 -0.1924
  307MPD2    C1 4670   3.590   2.573   0.461 -0.2988 -0.0202 -0.0738
  307MPD2    C2 4671   3.512   2.604   0.574 -0.4543 -0.3560 -0.2381
  307MPD2    C3 4672   3.478   2.506   0.670  0.2281  0.0161  0.8376
  307MPD2    C4 4673   3.550   2.388   0.669  1.1381 -0.1239  0.1046
  307MPD2    C5 4674   3.632   2.356   0.562 -0.3630  0.0310  0.4632
  307MPD2     H 4675   3.462   2.700   0.581  0.5474  0.2985 -1.9987
  307MPD2    H1 4676   3.557   2.314   0.747 -1.2591 -0.1753  0.2877
  307MPD2    H2 4677   3.721   2.415   0.381 -1.4578  0.3474 -1.2755
  307MPD2    H3 4678   3.681   2.259   0.569 -0.0808  0.2951  2.1205
  307MPD2     N 4679   3.371   2.533   0.762 -0.0489 -0.4742 -0.1577
  307MPD2    H5 4680   3.324   2.622   0.749 -1.5808 -1.0133  1.7060
  307MPD2    N1 4681   3.597   2.660   0.353  0.3495  0.1465 -0.4269
  307MPD2    H7 4682   3.548   2.748   0.368  2.1141  1.1101 -0.3240
  308TMC3    C1 4683   2.954   2.433   0.920 -0.1846 -0.6289  0.6537
  308TMC3    C2 4684   2.922   2.567   0.929  0.1683  0.0091  0.1481
  308TMC3    C3 4685   3.013   2.659   0.914 -0.2585  0.0171 -0.5073
  308TMC3    C4 4686   3.083   2.391   0.906 -0.9162  0.4697  1.0071
  308TMC3    C5 4687   3.181   2.484   0.885  0.3460 -0.8918  0.2418
  308TMC3    C6 4688   3.147   2.620   0.884 -0.1274  0.2059  0.3267
  308TMC3     C 4689   2.845   2.333   0.935 -0.1764 -0.6031 -0.6602
  308TMC3     O 4690   2.872   2.214   0.936  0.1138 -0.0121  0.5679
  308TMC3     H 4691   2.820   2.599   0.942 -0.8227 -1.8556 -2.9605
  308TMC3    H1 4692   3.118   2.289   0.894 -0.7883  0.8878 -2.1226
  308TMC3    H2 4693   3.220   2.696   0.857  0.5370  0.3065  2.3522
  308TMC3    C7 4694   3.306   2.440   0.833 -0.4734 -0.9322  0.5677
  308TMC3    C8 4695   2.972   2.787   0.871 -0.4789  0.3473  0.5107
  308TMC3    O1 4696   3.326   2.320   0.831  0.2126  0.0267 -0.1294
  308TMC3    O2 4697   3.050   2.835   0.790 -0.0143  0.3840  0.2622
  309MPD2     C 4698   2.610   2.873  17.329 -0.1851 -0.2228 -0.1033
  309MPD2    C1 4699   2.505   2.919  17.240  0.2869  0.8828  0.1924
  309MPD2    C2 4700   2.384   2.966  17.293 -0.0378  0.5822  0.3901
  309MPD2    C3 4701   2.363   2.973  17.425 -0.2875  0.0424  0.3132
  309MPD2    C4 4702   2.467   2.938  17.508  0.3411 -0.2043  0.0100
  309MPD2    C5 4703   2.588   2.890  17.460 -0.0604 -0.4757  0.1500
  309MPD2     H 4704   2.305   3.001  17.227 -0.6913 -0.3884  0.6580
  309MPD2    H1 4705   2.468   2.964  17.613 -1.9670 -0.5191  0.1153
  309MPD2    H2 4706   2.711   2.840  17.303 -0.1879 -0.5188  0.2717
  309MPD2    H3 4707   2.665   2.879  17.535  0.1886  1.8420  0.2365
  309MPD2     N 4708   2.242   3.020  17.480 -0.6100 -0.0330  0.0595
  309MPD2    H5 4709   2.162   3.042  17.422 -0.3306 -2.0412 -1.0821
  309MPD2    N1 4710   2.528   2.927  17.099  0.2016 -0.3261  0.1424
  309MPD2    H7 4711   2.444   2.931  17.042 -0.0295 -1.1212  0.4190
  310TMC3    C1 4712   2.651   2.957  16.898 -0.4363  0.1010 -0.4045
  310TMC3    C2 4713   2.539   2.997  16.832  0.1714 -1.1515  0.2076
  310TMC3    C3 4714   2.547   3.038  16.701  0.3847  0.6830 -0.8989
  310TMC3    C4 4715   2.771   2.979  16.844 -0.3386 -0.4367 -0.0940
  310TMC3    C5 4716   2.781   3.005  16.706  0.0083 -0.5156 -0.1936
  310TMC3    C6 4717   2.670   3.046  16.638  0.1311  0.0741  0.4803
  310TMC3     C 4718   2.652   2.931  17.042  0.1035 -0.0304  0.2799
  310TMC3     O 4719   2.764   2.921  17.094 -0.4550 -0.2072 -0.1724
  310TMC3     H 4720   2.444   2.974  16.879 -0.3087  1.0567  0.3381
  310TMC3    H1 4721   2.856   2.933  16.894 -1.2110 -0.0333  1.7464
  310TMC3    H2 4722   2.673   3.066  16.532  0.8660  2.0907  0.8797
  310TMC3    C7 4723   2.865   2.907  16.640 -0.3914  0.3977 -0.0894
  310TMC3    C8 4724   2.424   3.075  16.632  0.8484  0.4963  0.6129
  310TMC3    O1 4725   2.907   2.813  16.709  0.2058  0.1085 -0.0601
  310TMC3    O2 4726   2.319   3.038  16.674 -0.1802 -0.3279  0.0670
  311MPD2     C 4727   4.493   3.951  12.988  0.5027 -0.4740 -0.4588
  311MPD2    C1 4728   4.504   4.090  12.988  0.8087  0.1834 -0.5398
  311MPD2    C2 4729   4.395   4.170  13.026  0.2002  0.5142 -0.0654
  311MPD2    C3 4730   4.275   4.113  13.058  0.2324 -0.1452  0.8099
  311MPD2    C4 4731   4.263   3.974  13.049  0.0646  0.8749  0.8234
  311MPD2    C5 4732   4.369   3.897  13.010 -0.6223 -0.1952 -0.1589
  311MPD2     H 4733   4.402   4.278  13.026 -1.5364  0.6155  0.1255
  311MPD2    H1 4734   4.171   3.922  13.070  0.9539  0.1718  3.0266
  311MPD2    H2 4735   4.574   3.884  12.965  1.6214  0.4722  0.6939
  311MPD2    H3 4736   4.355   3.790  13.007  0.9628 -0.4180  0.2335
  311MPD2     N 4737   4.164   4.191  13.100 -0.1733 -0.4125  0.3657
  311MPD2    H5 4738   4.176   4.292  13.101 -0.7211 -0.3232 -2.8720
  311MPD2    N1 4739   4.630   4.151  12.944  0.0384 -0.2139 -0.2787
  311MPD2    H7 4740   4.640   4.252  12.948 -1.4161 -0.0907  0.1278
  312TMC3    C1 4741   3.948   4.256  13.120  0.0310 -0.0848  0.3391
  312TMC3    C2 4742   3.834   4.223  13.051 -0.6441 -0.4879 -0.4398
  312TMC3    C3 4743   3.749   4.327  13.031 -0.8256 -0.1357 -0.0104
  312TMC3    C4 4744   3.962   4.363  13.205  0.9061  0.8651 -0.3977
  312TMC3    C5 4745   3.864   4.463  13.198 -0.4264 -0.2095 -0.0113
  312TMC3    C6 4746   3.759   4.444  13.105  0.4614 -0.0222 -0.4259
  312TMC3     C 4747   4.040   4.146  13.134  0.3100 -0.4824 -0.8414
  312TMC3     O 4748   3.989   4.032  13.140 -0.4814  0.3260  0.2687
  312TMC3     H 4749   3.825   4.130  12.997  0.6521 -0.8283 -0.0580
  312TMC3    H1 4750   4.041   4.364  13.280  0.5082  0.0638  0.0424
  312TMC3    H2 4751   3.681   4.519  13.098 -1.0297 -1.3178  2.2677
  312TMC3    C7 4752   3.823   4.536  13.314 -0.1810 -0.6779 -0.0718
  312TMC3    C8 4753   3.626   4.293  12.962  0.4550 -0.2819 -0.1722
  312TMC3    O1 4754   3.704   4.559  13.322 -0.4928  0.1966 -0.7780
  312TMC3    O2 4755   3.576   4.180  12.990  0.2122 -0.0481  0.0103
  313MPD2     C 4756   3.546   3.745  11.200  0.0079 -0.0293  0.4607
  313MPD2    C1 4757   3.606   3.839  11.120 -0.1948 -0.1824 -0.2617
  313MPD2    C2 4758   3.614   3.818  10.985  0.2594  0.1777 -0.1648
  313MPD2    C3 4759   3.569   3.696  10.929  0.1695  0.3824 -0.3275
  313MPD2    C4 4760   3.536   3.594  11.019 -0.5333 -0.0870  0.7260
  313MPD2    C5 4761   3.523   3.620  11.152  0.2754 -0.7909  0.4393
  313MPD2     H 4762   3.652   3.897  10.921 -0.1235  1.2124  0.8930
  313MPD2    H1 4763   3.514   3.492  10.989  0.6331  0.1764 -1.0862
  313MPD2    H2 4764   3.518   3.775  11.300 -3.1345 -1.8020  0.0923
  313MPD2    H3 4765   3.475   3.554  11.223 -1.0259 -0.4463 -0.1223
  313MPD2     N 4766   3.564   3.687  10.791 -0.0162  0.0582  0.6929
  313MPD2    H5 4767   3.579   3.771  10.737  0.2786 -1.3962 -1.4592
  313MPD2    N1 4768   3.661   3.959  11.163 -0.2029  0.1992  0.3546
  313MPD2    H7 4769   3.685   4.021  11.086 -1.7575 -0.0216 -0.3121
  314TMC3    C1 4770   3.734   4.138  11.293 -0.6937 -0.5163 -0.5027
  314TMC3    C2 4771   3.850   4.160  11.361  0.3659  0.1335 -0.6740
  314TMC3    C3 4772   3.900   4.290  11.353 -0.8946  0.0218 -0.7513
  314TMC3    C4 4773   3.673   4.236  11.217  0.2751 -0.4022  0.9087
  314TMC3    C5 4774   3.719   4.365  11.220 -0.5180 -0.2480 -0.5576
  314TMC3    C6 4775   3.838   4.388  11.286 -0.0115  1.2025  0.2269
  314TMC3     C 4776   3.689   3.998  11.287 -0.0624  0.1478  0.0910
  314TMC3     O 4777   3.693   3.940  11.393  0.5692 -0.3610 -0.2790
  314TMC3     H 4778   3.909   4.082  11.408  0.5957 -0.6334 -2.2308
  314TMC3    H1 4779   3.585   4.215  11.157  0.9357  0.8358 -0.4904
  314TMC3    H2 4780   3.884   4.485  11.271  0.7390  0.3961 -2.7158
  314TMC3    C7 4781   3.696   4.441  11.100 -0.0031  0.4354 -0.5037
  314TMC3    C8 4782   4.038   4.302  11.341  0.8189  0.3206 -0.2430
  314TMC3    O1 4783   3.707   4.565  11.113  0.5485 -0.1230 -0.7436
  314TMC3    O2 4784   4.082   4.373  11.253  0.5527  0.1305  0.1002
  315MPD2     C 4785   3.592   2.043  17.663 -0.0062 -0.1115  0.3843
  315MPD2    C1 4786   3.669   2.067   0.014 -0.5368  0.0962 -0.1509
  315MPD2    C2 4787   3.752   2.173   0.022 -0.6456 -0.1418 -0.2081
  315MPD2    C3 4788   3.764   2.269  17.683 -0.3998  0.9629  0.0639
  315MPD2    C4 4789   3.690   2.242  17.568  0.9451 -0.4657 -0.2539
  315MPD2    C5 4790   3.608   2.135  17.561 -0.5762 -0.4515 -0.0883
  315MPD2     H 4791   3.796   2.184   0.120 -1.2877 -1.5009  0.2244
  315MPD2    H1 4792   3.692   2.306  17.481 -0.7937 -0.2253 -0.1116
  315MPD2    H2 4793   3.517   1.966  17.653 -0.8675  0.5948  1.4122
  315MPD2    H3 4794   3.555   2.131  17.467  0.0073 -0.2119 -0.4237
  315MPD2     N 4795   3.848   2.374  17.706  0.3486  0.3643 -0.4458
  315MPD2    H5 4796   3.879   2.381   0.039  2.6688  1.4941 -1.2606
  315MPD2    N1 4797   3.670   1.980   0.122 -0.6285  0.1840 -0.0789
  315MPD2    H7 4798   3.713   2.013   0.208  1.4851 -1.8032 -0.3715
  316TMC3    C1 4799   3.957   2.582  17.672  0.2068  0.3807 -0.1726
  316TMC3    C2 4800   4.035   2.564   0.019 -1.0959 -0.0342 -0.6300
  316TMC3    C3 4801   4.108   2.663   0.078 -0.2322  0.8608  0.6567
  316TMC3    C4 4802   3.933   2.709  17.626  0.5116 -0.0133 -0.1814
  316TMC3    C5 4803   3.998   2.810  17.688  0.8749 -0.3871  1.2136
  316TMC3    C6 4804   4.085   2.789   0.030  0.0016 -0.0743 -0.5213
  316TMC3     C 4805   3.873   2.477  17.620 -0.4347  0.2861  1.2929
  316TMC3     O 4806   3.824   2.493  17.506 -0.6494 -0.3937 -0.1315
  316TMC3     H 4807   4.043   2.459   0.044  2.6464  0.3679 -0.2141
  316TMC3    H1 4808   3.862   2.715  17.544  1.2747 -1.9300 -0.9660
  316TMC3    H2 4809   4.125   2.875   0.082 -0.3474 -0.1921 -0.0539
  316TMC3    C7 4810   3.940   2.939  17.672  0.2073  0.4874  0.2862
  316TMC3    C8 4811   4.194   2.643   0.194 -0.4485 -0.1514 -0.0230
  316TMC3    O1 4812   3.925   2.993   0.017  0.2602  0.0283 -0.1912
  316TMC3    O2 4813   4.222   2.743   0.258  0.0949 -0.3505  0.0081
  317MPD2     C 4814   0.685   1.524  13.259  0.5303  0.0641 -0.5045
  317MPD2    C1 4815   0.730   1.422  13.175  0.7189  0.8370  0.3209
  317MPD2    C2 4816   0.729   1.290  13.226  1.1066  0.0162  0.4787
  317MPD2    C3 4817   0.688   1.264  13.359 -0.6285  0.0006 -0.2795
  317MPD2    C4 4818   0.647   1.367  13.437 -0.5655  0.2778  0.4345
  317MPD2    C5 4819   0.648   1.500  13.389 -0.2118  0.2328 -0.6884
  317MPD2     H 4820   0.756   1.210  13.157  2.5574  1.8741 -1.1388
  317MPD2    H1 4821   0.604   1.364  13.536  1.1449  0.1051  1.1690
  317MPD2    H2 4822   0.702   1.630  13.238  0.7577  0.1288  0.0115
  317MPD2    H3 4823   0.615   1.578  13.456  0.2734 -0.5735  0.4785
  317MPD2     N 4824   0.689   1.125  13.415 -0.0752 -0.5516  0.2095
  317MPD2    H5 4825   0.729   1.057  13.351 -0.1872 -0.2640 -0.1644
  317MPD2    N1 4826   0.787   1.445  13.047 -0.1202 -0.7852 -0.2080
  317MPD2    H7 4827   0.815   1.361  12.997 -2.2922 -1.8340  0.3390
  318TMC3    C1 4828   0.697   0.945  13.575 -1.0754 -0.3231 -0.2411
  318TMC3    C2 4829   0.688   0.842  13.483  0.3189  0.3401 -0.3774
  318TMC3    C3 4830   0.739   0.721  13.511  0.2008 -0.1914  0.6745
  318TMC3    C4 4831   0.761   0.928  13.697 -0.6429  0.6689  0.1058
  318TMC3    C5 4832   0.812   0.805  13.716 -0.2437 -0.4919  0.0038
  318TMC3    C6 4833   0.804   0.700  13.626  0.3570  0.4825 -0.7559
  318TMC3     C 4834   0.660   1.084  13.549  0.5685 -0.0480 -0.3656
  318TMC3     O 4835   0.615   1.152  13.642 -0.1319  0.1201 -0.2174
  318TMC3     H 4836   0.650   0.860  13.383 -0.0711  0.8237 -0.1464
  318TMC3    H1 4837   0.776   1.010  13.767  1.3489  0.5652 -0.2020
  318TMC3    H2 4838   0.834   0.599  13.652  1.2492  0.6384 -1.1669
  318TMC3    C7 4839   0.900   0.792  13.832  0.6540  0.4182  0.3595
  318TMC3    C8 4840   0.747   0.624  13.399 -0.5331  0.3767 -0.0307
  318TMC3    O1 4841   0.867   0.871  13.920 -0.4936 -0.5897  0.4994
  318TMC3    O2 4842   0.846   0.550  13.403  0.6055 -0.5198  0.5968
  319MPD2     C 4843   2.169   2.124  16.353  0.2149 -0.7269  0.3199
  319MPD2    C1 4844   2.062   2.155  16.434 -0.6557 -0.0107 -0.5156
  319MPD2    C2 4845   1.932   2.117  16.398 -0.7662  0.1687  0.5195
  319MPD2    C3 4846   1.908   2.049  16.282  0.1478  1.0877 -0.1540
  319MPD2    C4 4847   2.023   2.014  16.210  0.3783 -0.1298 -0.1391
  319MPD2    C5 4848   2.150   2.049  16.245  0.5485 -0.4049  0.1669
  319MPD2     H 4849   1.853   2.157  16.460 -1.5108 -0.0008 -0.3190
  319MPD2    H1 4850   2.006   1.952  16.123 -3.6943  1.1557 -0.2387
  319MPD2    H2 4851   2.272   2.154  16.370  0.2189 -0.1013 -0.8120
  319MPD2    H3 4852   2.227   2.027  16.172  1.8398 -0.2115  1.4762
  319MPD2     N 4853   1.776   2.001  16.245  0.4348 -0.0671 -0.0481
  319MPD2    H5 4854   1.775   1.939  16.166 -0.1239 -0.3521  0.1873
  319MPD2    N1 4855   2.078   2.231  16.549 -0.1788  0.4542  0.2056
  319MPD2    H7 4856   1.994   2.259  16.598 -1.1308  2.6731 -2.6987
  320TMC3    C1 4857   1.549   1.970  16.253  0.2760 -0.6311 -0.6882
  320TMC3    C2 4858   1.531   2.025  16.132  0.5139 -0.1267 -0.2364
  320TMC3    C3 4859   1.404   2.019  16.087 -0.5349  0.0844 -0.5672
  320TMC3    C4 4860   1.445   1.921  16.324  0.7507  0.6784 -0.2497
  320TMC3    C5 4861   1.324   1.914  16.274  0.7330 -0.0837 -0.4793
  320TMC3    C6 4862   1.302   1.961  16.153 -0.3798 -0.9538  0.5078
  320TMC3     C 4863   1.662   2.030  16.317 -0.2137  0.2446 -0.5650
  320TMC3     O 4864   1.640   2.090  16.428  0.2017 -0.3552 -0.3034
  320TMC3     H 4865   1.614   2.078  16.085  1.6576 -0.6656  1.1609
  320TMC3    H1 4866   1.466   1.894  16.427  1.6619  0.8791 -0.3831
  320TMC3    H2 4867   1.203   1.967  16.110  0.5541 -1.1347 -1.6351
  320TMC3    C7 4868   1.218   1.821  16.316 -0.1318  0.4753  0.1528
  320TMC3    C8 4869   1.373   2.058  15.951 -0.2873  0.2218 -0.3897
  320TMC3    O1 4870   1.134   1.786  16.234  0.7084 -0.4223  0.1705
  320TMC3    O2 4871   1.367   1.967  15.871 -0.3588 -0.2414 -0.1658
  321TMC3    C1 4872   2.187   2.382  16.696  0.3348  0.2776  0.8385
  321TMC3    C2 4873   2.269   2.489  16.699 -0.5183  0.1843  0.0965
  321TMC3    C3 4874   2.242   2.597  16.773 -0.1432 -0.0643 -0.3501
  321TMC3    C4 4875   2.063   2.391  16.759  0.2749 -0.2861 -0.6403
  321TMC3    C5 4876   2.022   2.503  16.822  0.1077 -0.5962 -0.0048
  321TMC3    C6 4877   2.111   2.605  16.826  0.4601  0.3321 -0.1581
  321TMC3     C 4878   2.197   2.292  16.585  0.3825  0.2747 -0.0890
  321TMC3     O 4879   2.308   2.288  16.538 -0.7025 -0.5828 -0.3484
  321TMC3     H 4880   2.359   2.493  16.639 -1.3149  1.4066 -0.9993
  321TMC3    H1 4881   2.005   2.301  16.771  1.7407 -1.2686 -0.9145
  321TMC3    H2 4882   2.077   2.691  16.883  1.2160  1.2430 -1.0879
  321TMC3    C7 4883   1.980   2.463  16.955  0.2224 -0.1219 -0.8617
  321TMC3    C8 4884   2.348   2.651  16.857 -0.1132  0.2242  0.2550
  321TMC3    O1 4885   2.062   2.393  17.013 -0.6142 -0.8140 -0.0228
  321TMC3    O2 4886   2.310   2.714  16.958  0.5988  0.1695  0.6346
  322MPD2     C 4887   0.602   3.495  13.927 -0.3238 -0.1143 -0.2821
  322MPD2    C1 4888   0.647   3.431  14.042 -0.2393 -0.2895  0.1958
  322MPD2    C2 4889   0.760   3.348  14.037  0.3582 -0.4058  0.1779
  322MPD2    C3 4890   0.808   3.315  13.914  0.0462 -0.1062 -0.0568
  322MPD2    C4 4891   0.749   3.362  13.799 -0.3226  0.2528  0.9242
  322MPD2    C5 4892   0.647   3.451  13.803 -0.0532 -0.1674  0.9501
  322MPD2     H 4893   0.802   3.297  14.123  0.7198 -0.0505  0.2124
  322MPD2    H1 4894   0.799   3.346  13.704 -0.8565 -0.3390  0.7434
  322MPD2    H2 4895   0.522   3.567  13.917  0.2325  0.8582  2.1309
  322MPD2    H3 4896   0.607   3.500  13.715  0.7227 -1.6851 -0.2604
  322MPD2     N 4897   0.919   3.228  13.910  0.0721  0.6947  0.1411
  322MPD2    H5 4898   0.964   3.213  14.000  0.6114  1.4401 -0.0097
  322MPD2    N1 4899   0.586   3.474  14.161  0.0873  0.0822  0.6180
  322MPD2    H7 4900   0.525   3.552  14.183 -0.6046 -0.7267  1.5568
  323TMC3    C1 4901   0.636   3.498  14.389  0.5079 -1.1146 -0.0420
  323TMC3    C2 4902   0.707   3.609  14.351  0.2325 -0.2794 -0.8685
  323TMC3    C3 4903   0.834   3.607  14.401  0.3901 -0.0753  0.5672
  323TMC3    C4 4904   0.673   3.417  14.491  0.0482 -0.4332  0.7957
  323TMC3    C5 4905   0.795   3.428  14.548  0.2781  0.1908  0.7104
  323TMC3    C6 4906   0.876   3.520  14.497 -0.3330  0.5299 -0.1373
  323TMC3     C 4907   0.615   3.404  14.273  0.0004  0.7598  0.7659
  323TMC3     O 4908   0.643   3.284  14.289 -0.5062 -0.1335 -0.3155
  323TMC3     H 4909   0.661   3.676  14.279  0.8660  0.2587 -0.7690
  323TMC3    H1 4910   0.615   3.327  14.508  1.3277 -1.5527 -0.8428
  323TMC3    H2 4911   0.964   3.541  14.558 -0.1676  0.5264 -0.3725
  323TMC3    C7 4912   0.860   3.297  14.560  1.0023  0.5594  0.0735
  323TMC3    C8 4913   0.929   3.685  14.328  0.7837 -0.3092 -1.0405
  323TMC3    O1 4914   0.974   3.284  14.517  1.0523  0.2793  0.0111
  323TMC3    O2 4915   1.043   3.699  14.372  0.2123  0.5141  0.1860
  324MPD2     C 4916   2.316   0.540  14.417  0.0505 -0.2981 -0.0440
  324MPD2    C1 4917   2.331   0.420  14.342  0.0993 -0.3824 -0.1129
  324MPD2    C2 4918   2.218   0.357  14.297  0.3778  0.3212  0.6118
  324MPD2    C3 4919   2.091   0.400  14.338  0.5338 -0.0078 -0.0338
  324MPD2    C4 4920   2.086   0.516  14.415  0.8667 -0.3249 -0.0594
  324MPD2    C5 4921   2.195   0.583  14.458  0.7618 -0.2297 -0.4745
  324MPD2     H 4922   2.223   0.259  14.252 -0.2212  0.2729  0.6514
  324MPD2    H1 4923   1.992   0.551  14.456  1.1294 -1.3210  1.3965
  324MPD2    H2 4924   2.399   0.589  14.465  0.1047 -0.0228 -0.4154
  324MPD2    H3 4925   2.194   0.671  14.521  1.1444  1.1242 -2.3379
  324MPD2     N 4926   1.974   0.330  14.318 -0.3162 -0.2047 -0.2057
  324MPD2    H5 4927   1.889   0.365  14.360  0.2463  1.8262 -0.7325
  324MPD2    N1 4928   2.458   0.367  14.305  0.0774  0.5397  0.1994
  324MPD2    H7 4929   2.460   0.279  14.254  1.2287  0.3230  0.6221
  325TMC3    C1 4930   1.837   0.156  14.266 -0.2789  0.1436 -0.4138
  325TMC3    C2 4931   1.772   0.079  14.165  0.4488 -0.2533  0.1076
  325TMC3    C3 4932   1.650   0.023  14.189  0.5546 -0.1574  0.6317
  325TMC3    C4 4933   1.776   0.166  14.389  0.4856  0.2758  0.7246
  325TMC3    C5 4934   1.658   0.098  14.412  0.3874  0.1525  0.8301
  325TMC3    C6 4935   1.598   0.026  14.315  0.1890 -0.1356  0.0813
  325TMC3     C 4936   1.968   0.216  14.245 -0.1107 -0.2196  0.5629
  325TMC3     O 4937   2.034   0.173  14.149 -0.2688 -0.2643 -0.3675
  325TMC3     H 4938   1.818   0.069  14.068 -0.7059  0.1075 -0.4732
  325TMC3    H1 4939   1.835   0.198  14.474 -0.2022 -0.2872  1.4126
  325TMC3    H2 4940   1.514   4.704  14.340 -0.2684 -0.3280 -1.9437
  325TMC3    C7 4941   1.592   0.122  14.538 -0.5243 -0.4748  0.3656
  325TMC3    C8 4942   1.567   4.724  14.069  0.0860 -0.0736 -0.2754
  325TMC3    O1 4943   1.663   0.170  14.628 -0.1570  0.0573 -0.0253
  325TMC3    O2 4944   1.632   4.660  13.988 -0.5544  0.5127 -0.1525
  326MPD2     C 4945   3.752   1.435  10.312 -0.1619 -0.7831 -0.1401
  326MPD2    C1 4946   3.722   1.471  10.446  0.2961  0.1819  0.6094
  326MPD2    C2 4947   3.815   1.557  10.509 -0.4760 -0.1635 -0.0829
  326MPD2    C3 4948   3.940   1.597  10.451 -0.3499 -0.2631 -0.4026
  326MPD2    C4 4949   3.960   1.555  10.320  0.4117 -0.6806 -0.3311
  326MPD2    C5 4950   3.870   1.475  10.255  0.4845 -0.2781  0.6123
  326MPD2     H 4951   3.796   1.589  10.611  0.2679 -1.5544  0.4994
  326MPD2    H1 4952   4.052   1.581  10.269  0.6793 -0.6797  0.1525
  326MPD2    H2 4953   3.684   1.373  10.254  1.0965 -1.2669 -1.0872
  326MPD2    H3 4954   3.901   1.439  10.157 -0.1681 -2.4070  1.1941
  326MPD2     N 4955   4.039   1.679  10.524 -0.5716 -0.1101  0.2823
  326MPD2    H5 4956   4.120   1.710  10.472 -2.0218 -0.3712 -2.1107
  326MPD2    N1 4957   3.613   1.421  10.515 -0.0730  0.4449 -0.4480
  326MPD2    H7 4958   3.587   1.457  10.606  0.1880  0.7290 -0.4871
  327TMC3    C1 4959   3.430   1.296  10.572 -0.1229 -0.1403  0.3301
  327TMC3    C2 4960   3.362   1.411  10.595  0.1670 -0.4147 -0.2271
  327TMC3    C3 4961   3.285   1.402  10.703  0.0528  0.1108 -0.2176
  327TMC3    C4 4962   3.428   1.182  10.646  0.3506 -0.1578  0.2763
  327TMC3    C5 4963   3.359   1.188  10.767  0.1524 -0.0443 -0.5521
  327TMC3    C6 4964   3.280   1.297  10.795  0.8667 -0.0007  0.1716
  327TMC3     C 4965   3.544   1.308  10.480 -0.3923 -1.0353  0.3559
  327TMC3     O 4966   3.573   1.223  10.396  0.1827 -0.0739 -0.2476
  327TMC3     H 4967   3.367   1.491  10.521  0.4283 -0.8240 -0.6494
  327TMC3    H1 4968   3.503   1.108  10.619 -1.7658 -2.3331  0.3263
  327TMC3    H2 4969   3.206   1.303  10.874  0.6366  1.6902 -0.1779
  327TMC3    C7 4970   3.369   1.075  10.855 -0.1381 -0.6416  0.1437
  327TMC3    C8 4971   3.208   1.515  10.732  0.3334  0.3581 -0.3228
  327TMC3    O1 4972   3.370   1.092  10.981  0.2384 -0.0574  0.2467
  327TMC3    O2 4973   3.190   1.586  10.632 -0.0498  0.5071  0.5523
  328MPD2     C 4974   1.345   0.898  17.282 -0.1700 -0.0929 -0.7740
  328MPD2    C1 4975   1.235   0.834  17.239  0.3504  0.1453  0.2190
  328MPD2    C2 4976   1.145   0.897  17.155  0.1674  0.3239  0.5531
  328MPD2    C3 4977   1.169   1.033  17.128 -0.3579 -0.5833 -0.3417
  328MPD2    C4 4978   1.287   1.092  17.174 -0.2851 -0.3665 -0.2001
  328MPD2    C5 4979   1.381   1.023  17.247  0.0657 -0.6794 -0.0749
  328MPD2     H 4980   1.059   0.837  17.129 -0.8861  2.0202  0.1557
  328MPD2    H1 4981   1.315   1.192  17.142 -1.2495  0.3461  1.1561
  328MPD2    H2 4982   1.427   0.855  17.338  0.7214  1.8790 -0.5627
  328MPD2    H3 4983   1.479   1.067  17.263 -0.1380 -0.1020 -0.3852
  328MPD2     N 4984   1.079   1.107  17.052  0.6821  0.2611  0.8146
  328MPD2    H5 4985   1.097   1.207  17.057  1.4402  0.2572 -1.8184
  328MPD2    N1 4986   1.208   0.702  17.285 -0.6614  0.1397  0.6296
  328MPD2    H7 4987   1.121   0.664  17.250  0.6039 -1.5519 -0.6712
  329TMC3    C1 4988   1.216   0.497  17.386 -0.3171  0.9009 -0.5739
  329TMC3    C2 4989   1.091   0.508  17.438 -0.1190  0.4367 -0.2352
  329TMC3    C3 4990   1.033   0.388  17.469 -0.4534  0.0546  0.0897
  329TMC3    C4 4991   1.289   0.384  17.378 -0.0207  0.0652 -0.3657
  329TMC3    C5 4992   1.228   0.266  17.416  0.1287 -0.3312  0.3880
  329TMC3    C6 4993   1.094   0.263  17.455 -0.6042  0.0964  0.1684
  329TMC3     C 4994   1.291   0.619  17.361  0.1386 -0.2327 -0.6027
  329TMC3     O 4995   1.404   0.631  17.404 -0.4607 -0.6508  0.1398
  329TMC3     H 4996   1.051   0.608  17.448 -1.1549  0.0476 -0.5004
  329TMC3    H1 4997   1.393   0.377  17.347  0.1096 -0.7997  0.2487
  329TMC3    H2 4998   1.045   0.173  17.492 -1.4886  1.4889  2.3744
  329TMC3    C7 4999   1.309   0.152  17.436 -0.6756 -0.4512  0.6481
  329TMC3    C8 5000   0.921   0.383  17.554  0.5300  0.1643  0.3242
  329TMC3    O1 5001   1.395   0.127  17.352 -0.2021  0.2163  0.2086
  329TMC3    O2 5002   0.875   0.272  17.577  0.3099 -0.1491  0.2759
  330TMC3    C1 5003   4.421   1.032   9.421 -0.3217 -0.2272 -0.1539
  330TMC3    C2 5004   4.302   0.972   9.403  0.2001  0.2668 -0.2525
  330TMC3    C3 5005   4.271   0.861   9.480  0.6051 -0.8183  0.4148
  330TMC3    C4 5006   4.515   0.990   9.511 -0.3413  0.1812  0.0853
  330TMC3    C5 5007   4.486   0.877   9.585  0.0435 -0.5937  0.0002
  330TMC3    C6 5008   4.359   0.818   9.574  0.8236  0.8308  0.5558
  330TMC3     C 5009   4.462   1.141   9.328 -0.4870  0.0364 -0.5099
  330TMC3     O 5010   4.578   1.161   9.302  1.3490 -0.0222 -0.0136
  330TMC3     H 5011   4.232   1.001   9.325 -0.2015 -0.9618 -0.3388
  330TMC3    H1 5012   4.607   1.047   9.525 -0.5052  0.9787 -2.2089
  330TMC3    H2 5013   4.342   0.722   9.624  0.9004  0.7678  0.4604
  330TMC3    C7 5014   4.570   0.842   9.696  0.6936  0.0763 -0.1281
  330TMC3    C8 5015   4.150   0.793   9.450 -0.0203  0.5659 -0.2635
  330TMC3    O1 5016   4.517   0.774   9.782 -0.1051 -0.7380 -0.0377
  330TMC3    O2 5017   4.097   0.825   9.345 -0.2328  0.5256 -0.5791
  331MPD2     C 5018   2.543   4.685  13.010 -0.4494  0.7600  0.2521
  331MPD2    C1 5019   2.420   4.710  12.943 -0.0944  0.0800 -0.1680
  331MPD2    C2 5020   2.315   4.624  12.963  0.9849 -0.4854 -0.0972
  331MPD2    C3 5021   2.320   4.523  13.054 -0.1322  0.1173  0.3032
  331MPD2    C4 5022   2.435   4.502  13.125 -0.1417  0.0706 -0.0313
  331MPD2    C5 5023   2.548   4.585  13.105  0.2321 -0.5031  0.0531
  331MPD2     H 5024   2.228   4.636  12.899  0.0870  2.5850  1.6480
  331MPD2    H1 5025   2.460   4.428  13.201 -0.3632 -1.2463 -1.2375
  331MPD2    H2 5026   2.619   0.014  12.979  1.0973 -0.9956  0.0744
  331MPD2    H3 5027   2.640   4.565  13.158  0.6452 -1.0848 -0.8763
  331MPD2     N 5028   2.209   4.441  13.068 -0.3300  0.1779  0.7453
  331MPD2    H5 5029   2.133   4.453  13.002  1.4669 -4.0542 -2.0721
  331MPD2    N1 5030   2.401   0.082  12.853 -0.0948 -0.6710 -0.2134
  331MPD2    H7 5031   2.456   0.166  12.863 -0.3147 -0.2061 -2.9727
  332TMC3    C1 5032   2.064   4.272  13.154  0.0444  0.1556 -1.2811
  332TMC3    C2 5033   1.960   4.326  13.079 -0.2775 -1.1265 -0.5891
  332TMC3    C3 5034   1.859   4.241  13.038  0.1316 -0.7902  0.4955
  332TMC3    C4 5035   2.074   4.143  13.178 -0.1469  0.1512 -0.4445
  332TMC3    C5 5036   1.972   4.062  13.148 -0.4548  0.6217 -0.3259
  332TMC3    C6 5037   1.866   4.108  13.068  0.1256  0.6195  0.0561
  332TMC3     C 5038   2.187   4.348  13.170  0.2320 -0.2725  0.3148
  332TMC3     O 5039   2.264   4.308  13.261  0.3739  0.2362  0.2499
  332TMC3     H 5040   1.960   4.432  13.058  1.0226 -0.6759  1.6867
  332TMC3    H1 5041   2.168   4.111  13.221 -0.8983 -1.8073 -0.2914
  332TMC3    H2 5042   1.800   4.030  13.029  0.0486  1.3592 -1.3020
  332TMC3    C7 5043   2.019   3.938  13.099 -1.1305  0.5144  0.3125
  332TMC3    C8 5044   1.806   4.264  12.906  0.6308 -0.0646 -1.0249
  332TMC3    O1 5045   1.939   3.845  13.104 -0.5747  0.4473 -0.0532
  332TMC3    O2 5046   1.854   4.359  12.842  0.1280 -0.6294 -0.0797
  333MPD2     C 5047   2.377   4.535  11.422  0.1188 -0.1478  0.5305
  333MPD2    C1 5048   2.414   4.478  11.303 -0.5733 -0.1539 -0.1860
  333MPD2    C2 5049   2.386   4.343  11.282  0.2760 -0.5241  0.7085
  333MPD2    C3 5050   2.335   4.269  11.381 -0.3822  0.0587 -0.2492
  333MPD2    C4 5051   2.306   4.324  11.505  0.0754  0.3528  0.0591
  333MPD2    C5 5052   2.316   4.456  11.517  0.4636  0.3464  0.0369
  333MPD2     H 5053   2.400   4.294  11.186 -0.8115  0.8295 -0.1375
  333MPD2    H1 5054   2.277   4.267  11.593 -0.2825  1.5657  0.7196
  333MPD2    H2 5055   2.401   4.634  11.459  0.4346 -1.0747  2.8283
  333MPD2    H3 5056   2.287   4.496  11.614 -0.1365 -1.1735  0.4763
  333MPD2     N 5057   2.314   4.133  11.350 -0.2758  0.0215 -0.5620
  333MPD2    H5 5058   2.346   4.097  11.260  1.8371 -4.2097  1.8715
  333MPD2    N1 5059   2.482   4.561  11.212 -0.5455 -0.9302 -0.3897
  333MPD2    H7 5060   2.495   4.657  11.242  3.1384 -1.9542  1.2676
  334TMC3    C1 5061   2.606   4.633  11.021  0.0980 -0.4369 -0.8649
  334TMC3    C2 5062   2.686   4.603  10.918  0.3892 -0.1396  0.2689
  334TMC3    C3 5063   2.746   4.707  10.848  0.8064 -0.0731 -0.3706
  334TMC3    C4 5064   2.568   0.018  11.055 -0.0408  0.1563  0.5473
  334TMC3    C5 5065   2.632   0.116  10.989  0.6352  0.2689 -0.1019
  334TMC3    C6 5066   2.729   0.092  10.892 -1.2465  0.6138  0.6971
  334TMC3     C 5067   2.549   4.521  11.102  0.5207 -0.0007 -0.4377
  334TMC3     O 5068   2.579   4.405  11.074 -0.3809 -0.3985  0.0617
  334TMC3     H 5069   2.708   4.498  10.898  0.9291  0.3480 -1.7285
  334TMC3    H1 5070   2.510   0.034  11.146  1.5855  2.8857  1.0874
  334TMC3    H2 5071   2.766   0.181  10.842  0.3007  0.1900  1.1018
  334TMC3    C7 5072   2.630   0.249  11.042  0.5732 -0.2848 -0.1827
  334TMC3    C8 5073   2.810   4.689  10.720  0.2010  0.1319 -0.4098
  334TMC3    O1 5074   2.731   0.317  11.032 -0.5452 -0.9586  0.1774
  334TMC3    O2 5075   2.768   4.606  10.642 -0.8586 -0.6918 -0.1369
  335TMC3    C1 5076   2.011   1.471  17.400  0.1883 -0.2725 -0.4702
  335TMC3    C2 5077   1.897   1.422  17.335  0.4340 -0.8184  0.6273
  335TMC3    C3 5078   1.918   1.366  17.211  0.3814  0.2328  0.2837
  335TMC3    C4 5079   2.133   1.471  17.346  0.2509  0.6141 -0.1383
  335TMC3    C5 5080   2.141   1.414  17.223  0.4846 -0.2667 -0.1426
  335TMC3    C6 5081   2.037   1.357  17.155 -0.1521 -0.1594 -0.2005
  335TMC3     C 5082   1.993   1.503  17.540 -0.1419  0.3459 -0.6356
  335TMC3     O 5083   2.096   1.526  17.599  0.3397  0.0449 -0.1441
  335TMC3     H 5084   1.804   1.404  17.388  0.5628 -0.0113  1.1252
  335TMC3    H1 5085   2.215   1.510  17.405  1.0099  2.6501 -2.5149
  335TMC3    H2 5086   2.046   1.327  17.051 -1.3632 -0.1622 -0.3024
  335TMC3    C7 5087   2.272   1.393  17.160 -0.3744  0.0290  0.6321
  335TMC3    C8 5088   1.819   1.267  17.175 -0.3331  0.0795 -0.7982
  335TMC3    O1 5089   2.281   1.302  17.076  0.2670  0.3720 -0.4429
  335TMC3    O2 5090   1.709   1.303  17.128 -0.2197 -0.4157 -0.0042
  336MPD2     C 5091   1.475   3.284  16.203 -0.0345 -0.1497 -0.1891
  336MPD2    C1 5092   1.384   3.195  16.145 -0.2873  0.7184 -0.5905
  336MPD2    C2 5093   1.382   3.066  16.203  0.1345  0.0680  0.9131
  336MPD2    C3 5094   1.461   3.030  16.312 -0.1335  0.5288 -0.0951
  336MPD2    C4 5095   1.542   3.123  16.369  0.0058 -0.7350  0.2341
  336MPD2    C5 5096   1.547   3.249  16.316  0.1638 -0.4777 -0.4217
  336MPD2     H 5097   1.322   2.988  16.157 -3.2209  2.8472  0.5201
  336MPD2    H1 5098   1.598   3.091  16.456 -0.1401 -0.8796  0.2747
  336MPD2    H2 5099   1.482   3.388  16.173 -2.5566  0.3246  0.8526
  336MPD2    H3 5100   1.613   3.324  16.357 -0.7541 -0.1112  0.3836
  336MPD2     N 5101   1.477   2.900  16.357 -0.7168 -0.5183  0.2424
  336MPD2    H5 5102   1.533   2.894  16.442  2.3252  1.5863 -1.5994
  336MPD2    N1 5103   1.296   3.218  16.035 -0.5281 -0.5629 -0.3481
  336MPD2    H7 5104   1.229   3.144  16.016 -1.1389  0.1062 -0.8385
  337TMC3    C1 5105   1.179   3.343  15.866 -0.4872 -0.4696 -0.5482
  337TMC3    C2 5106   1.061   3.283  15.877  0.3409  0.0720 -0.7089
  337TMC3    C3 5107   0.963   3.315  15.787 -0.6727  0.5173 -0.2772
  337TMC3    C4 5108   1.197   3.446  15.784  0.3918 -0.0456  1.0082
  337TMC3    C5 5109   1.099   3.467  15.687 -0.2893  0.1560 -0.3879
  337TMC3    C6 5110   0.980   3.403  15.682  0.0541  0.3422 -0.5245
  337TMC3     C 5111   1.288   3.331  15.962 -0.2004  0.2914 -0.1752
  337TMC3     O 5112   1.350   3.433  15.984  0.0319 -0.3196 -0.1077
  337TMC3     H 5113   1.051   3.203  15.949 -0.2868  0.4731 -0.3457
  337TMC3    H1 5114   1.291   3.499  15.778  2.0009 -3.0721 -0.6736
  337TMC3    H2 5115   0.918   3.416  15.594 -0.9594  0.4457  0.1998
  337TMC3    C7 5116   1.123   3.592  15.612  0.0258  0.2108 -0.7485
  337TMC3    C8 5117   0.845   3.229  15.784 -0.0767 -0.1591 -0.3921
  337TMC3    O1 5118   1.243   3.628  15.608  0.3634 -0.5542 -0.1484
  337TMC3    O2 5119   0.853   3.117  15.839 -0.0580  0.0120  0.2752
  338MPD2     C 5120   1.970   2.965   1.347  0.5006  0.1515  0.6000
  338MPD2    C1 5121   1.882   2.961   1.240 -0.4469  0.4009  0.0445
  338MPD2    C2 5122   1.789   3.057   1.224  0.3012 -0.0611 -0.4929
  338MPD2    C3 5123   1.782   3.163   1.308  0.0769  0.0718 -0.0949
  338MPD2    C4 5124   1.869   3.173   1.415  0.1244 -0.2495  0.0794
  338MPD2    C5 5125   1.957   3.069   1.437 -0.2101 -0.0501 -0.2516
  338MPD2     H 5126   1.726   3.052   1.136  1.5513  0.1641 -1.4068
  338MPD2    H1 5127   1.878   3.250   1.490  0.0860  0.7143 -0.9123
  338MPD2    H2 5128   2.039   2.885   1.371  0.3500  0.8218  3.3366
  338MPD2    H3 5129   2.023   3.088   1.521 -1.2604 -0.3263  0.6436
  338MPD2     N 5130   1.696   3.271   1.271 -0.3447  0.3216  0.2127
  338MPD2    H5 5131   1.631   3.254   1.195 -2.5385 -0.1620  2.2111
  338MPD2    N1 5132   1.889   2.855   1.140  0.7540 -0.3075 -0.2534
  338MPD2    H7 5133   1.833   2.867   1.056  1.6023  1.2020 -0.5935
  339TMC3    C1 5134   1.579   3.470   1.292 -0.6282 -0.8514 -0.3185
  339TMC3    C2 5135   1.507   3.541   1.387 -0.8544 -0.3593 -0.9364
  339TMC3    C3 5136   1.388   3.590   1.343  0.0556 -0.5637 -0.5618
  339TMC3    C4 5137   1.540   3.458   1.161 -0.1147 -0.3564 -0.4049
  339TMC3    C5 5138   1.417   3.505   1.127 -0.1154  0.1880 -0.0389
  339TMC3    C6 5139   1.333   3.566   1.222 -0.4195  0.0418 -0.7086
  339TMC3     C 5140   1.685   3.387   1.342  0.1837 -0.2818 -0.0586
  339TMC3     O 5141   1.737   3.436   1.446 -0.4557  0.0550 -0.2548
  339TMC3     H 5142   1.538   3.527   1.490  1.5724 -1.8892 -1.8769
  339TMC3    H1 5143   1.607   3.411   1.090  0.5259 -0.9728  0.6090
  339TMC3    H2 5144   1.233   3.600   1.196 -0.3549  0.6562 -0.1462
  339TMC3    C7 5145   1.357   3.439   1.012 -1.0424  0.9059 -0.4414
  339TMC3    C8 5146   1.307   3.633   1.455  0.7066  0.0421 -0.2037
  339TMC3    O1 5147   1.439   3.392   0.936 -0.1377 -0.2938 -0.2518
  339TMC3    O2 5148   1.217   3.711   1.422  0.0715  0.5412  0.3226
  340MPD2     C 5149   1.672   1.039  10.746 -0.2274  0.0643 -0.3544
  340MPD2    C1 5150   1.755   1.087  10.649  0.0924 -0.4631  1.2544
  340MPD2    C2 5151   1.891   1.088  10.670  0.4364  0.2765  0.2744
  340MPD2    C3 5152   1.950   1.031  10.784  0.3589 -0.5537 -0.2821
  340MPD2    C4 5153   1.863   0.982  10.880  1.0008 -0.1544 -0.9667
  340MPD2    C5 5154   1.728   0.988  10.858 -0.4155 -0.4047  0.8097
  340MPD2     H 5155   1.948   1.122  10.585 -0.6072  1.1022 -0.0992
  340MPD2    H1 5156   1.903   0.937  10.970 -0.2381  1.2366  0.2727
  340MPD2    H2 5157   1.564   1.034  10.739 -0.2182 -0.6146  0.0106
  340MPD2    H3 5158   1.654   0.957  10.932 -2.4858  0.0006 -1.0731
  340MPD2     N 5159   2.086   1.015  10.816 -0.2323 -0.6338 -0.0733
  340MPD2    H5 5160   2.113   0.962  10.898 -1.3539 -2.2514 -0.7397
  340MPD2    N1 5161   1.709   1.149  10.534 -0.8494 -0.7000 -0.0316
  340MPD2    H7 5162   1.778   1.193  10.474 -0.5739  0.8073  1.4131
  341TMC3    C1 5163   1.570   1.246  10.377  0.5917 -0.2120 -0.2954
  341TMC3    C2 5164   1.458   1.228  10.313  0.5620 -0.4913  0.0637
  341TMC3    C3 5165   1.447   1.295  10.192  0.4290 -0.3072  0.6247
  341TMC3    C4 5166   1.676   1.320  10.327 -0.0297  0.4829 -0.4535
  341TMC3    C5 5167   1.663   1.381  10.208 -0.1114 -0.0458  0.4395
  341TMC3    C6 5168   1.545   1.382  10.141 -0.4329 -0.1022  0.0411
  341TMC3     C 5169   1.580   1.182  10.507 -0.1695 -0.5066 -0.5579
  341TMC3     O 5170   1.482   1.149  10.566  0.4692 -0.1373 -0.0058
  341TMC3     H 5171   1.380   1.159  10.343 -1.9110  1.0103 -2.8301
  341TMC3    H1 5172   1.770   1.333  10.379  0.8853 -1.9405 -1.5220
  341TMC3    H2 5173   1.530   1.426  10.043 -0.0320 -0.2527 -0.0866
  341TMC3    C7 5174   1.787   1.376  10.132 -0.4731 -0.9551  0.1799
  341TMC3    C8 5175   1.326   1.273  10.124  0.2405 -0.0570  0.7434
  341TMC3    O1 5176   1.872   1.297  10.166  0.4336 -0.0431  0.5957
  341TMC3    O2 5177   1.270   1.164  10.146 -0.0089  0.3554 -0.2789
  342MPD2     C 5178   4.451   3.610  17.427 -0.2701  0.6620  0.0375
  342MPD2    C1 5179   4.584   3.614  17.458 -0.5579 -0.1444 -0.5062
  342MPD2    C2 5180   4.647   3.744  17.454  0.3244 -0.0288 -0.0646
  342MPD2    C3 5181   4.581   3.868  17.450 -0.0921  0.8650 -0.0385
  342MPD2    C4 5182   4.443   3.858  17.414 -0.1055 -0.3367 -0.3551
  342MPD2    C5 5183   4.384   3.736  17.403 -0.2659  0.6269  0.0718
  342MPD2     H 5184   0.011   3.735  17.476  0.0108 -2.7166  0.2470
  342MPD2    H1 5185   4.380   3.944  17.395  0.5958  0.5633  1.3737
  342MPD2    H2 5186   4.397   3.518  17.405 -0.1738  0.9191 -1.2772
  342MPD2    H3 5187   4.279   3.720  17.381  0.0731  1.3757 -2.0902
  342MPD2     N 5188   4.633   3.998  17.476 -0.0851  0.2826  0.2981
  342MPD2    H5 5189   4.561   4.069  17.482  0.8187  1.0732  1.6074
  342MPD2    N1 5190   4.662   3.497  17.476 -0.1691  0.2398  0.1249
  342MPD2    H7 5191   0.019   3.515  17.464 -0.0031 -3.0085 -3.5258
  343TMC3    C1 5192   4.706   3.271  17.462 -0.2969  0.8452  0.4302
  343TMC3    C2 5193   0.048   3.297  17.355 -0.2094  0.2538  0.5580
  343TMC3    C3 5194   0.087   3.187  17.274  0.7310  0.1876  0.8094
  343TMC3    C4 5195   4.670   3.146  17.495 -0.1246  0.0568 -0.0866
  343TMC3    C5 5196   4.707   3.046  17.412 -0.0156  0.4206  0.3461
  343TMC3    C6 5197   0.047   3.061  17.303 -0.3733 -0.8489  0.4907
  343TMC3     C 5198   4.606   3.373  17.483 -0.2635 -0.0079 -0.3121
  343TMC3     O 5199   4.493   3.333  17.508 -0.4145  0.1943  0.4563
  343TMC3     H 5200   0.074   3.400  17.333  2.1690 -0.4119  0.2872
  343TMC3    H1 5201   4.591   3.128  17.568  0.0077 -0.4433 -0.0620
  343TMC3    H2 5202   0.075   2.967  17.257 -3.0623 -0.4519 -1.9547
  343TMC3    C7 5203   4.628   2.924  17.427 -0.5428 -0.3253  0.4820
  343TMC3    C8 5204   0.140   3.223  17.145 -0.6501  0.5809 -0.2984
  343TMC3    O1 5205   4.560   2.875  17.340  0.2786  0.0739  0.9235
  343TMC3    O2 5206   0.159   3.342  17.129 -0.5837  0.1819  0.1887
  344MPD2     C 5207   0.936   3.592  10.723  0.4342  0.1224  0.0104
  344MPD2    C1 5208   0.819   3.657  10.690 -0.4934  0.2368  0.5115
  344MPD2    C2 5209   0.824   3.786  10.645 -0.0436 -0.0850  0.8023
  344MPD2    C3 5210   0.945   3.841  10.622  0.6361  0.4066 -0.0706
  344MPD2    C4 5211   1.065   3.773  10.646 -0.5266  0.2254  0.3623
  344MPD2    C5 5212   1.059   3.648  10.700  0.5531 -0.0277 -0.0945
  344MPD2     H 5213   0.731   3.842  10.644  0.2669  0.4255  0.6990
  344MPD2    H1 5214   1.163   3.813  10.621 -0.1735 -0.8319  0.0563
  344MPD2    H2 5215   0.935   3.488  10.752 -0.6805  0.8330  2.4475
  344MPD2    H3 5216   1.154   3.599  10.719  0.1864 -0.9610 -0.6653
  344MPD2     N 5217   0.965   3.979  10.598 -0.4535 -0.4078  0.5054
  344MPD2    H5 5218   1.060   4.007  10.616 -0.1263 -0.9779 -0.3439
  344MPD2    N1 5219   0.696   3.592  10.713  0.9770  0.0677 -0.2271
  344MPD2    H7 5220   0.609   3.622  10.670  0.7811  1.1775  0.9348
  345TMC3    C1 5221   0.925   4.211  10.548 -0.0888  0.5588  0.4860
  345TMC3    C2 5222   1.025   4.238  10.638  0.6033 -0.1394  0.4736
  345TMC3    C3 5223   1.086   4.359  10.612  0.5288  0.2903  0.2932
  345TMC3    C4 5224   0.871   4.300  10.458 -0.3237 -0.3293 -0.4348
  345TMC3    C5 5225   0.941   4.413  10.432 -0.3823  0.3903 -0.6162
  345TMC3    C6 5226   1.052   4.440  10.504 -0.2955 -0.0674  0.4668
  345TMC3     C 5227   0.872   4.071  10.553  0.1346  0.1418  0.7213
  345TMC3     O 5228   0.764   4.046  10.505  0.8433  0.2856 -0.0669
  345TMC3     H 5229   1.056   4.171  10.717 -0.4445 -0.8781  0.2585
  345TMC3    H1 5230   0.779   4.268  10.410  1.3284 -1.0633 -3.1474
  345TMC3    H2 5231   1.110   4.530  10.485  0.8287 -1.3979 -2.4679
  345TMC3    C7 5232   0.882   4.526  10.364  0.0143  0.6717 -0.2215
  345TMC3    C8 5233   1.199   4.399  10.695  0.4195 -0.6588  0.3525
  345TMC3    O1 5234   0.945   4.629  10.383 -0.4288 -0.0393 -1.0862
  345TMC3    O2 5235   1.268   4.310  10.751 -0.2445 -0.3243  0.3636
  346MPD2     C 5236   0.343   0.275  13.852 -0.2657 -0.4349  0.2154
  346MPD2    C1 5237   0.448   0.191  13.887  0.5190 -0.0235  0.7219
  346MPD2    C2 5238   0.521   0.221  13.999  0.1260 -0.1667  0.2576
  346MPD2    C3 5239   0.491   0.326  14.079 -1.0204  0.7991  0.3990
  346MPD2    C4 5240   0.393   0.419  14.039  0.2994  0.3651 -0.6582
  346MPD2    C5 5241   0.316   0.390  13.929  1.1525  0.0595 -0.5454
  346MPD2     H 5242   0.602   0.154  14.026 -1.0919 -1.6578  0.1979
  346MPD2    H1 5243   0.370   0.514  14.085 -0.8478 -0.4209  0.4103
  346MPD2    H2 5244   0.282   0.261  13.764 -1.2472 -0.2843  0.8704
  346MPD2    H3 5245   0.240   0.461  13.903 -0.1217 -1.6510 -1.4947
  346MPD2     N 5246   0.559   0.343  14.203  0.2471  0.2247  0.2772
  346MPD2    H5 5247   0.642   0.286  14.218 -0.0163 -0.1161  0.4385
  346MPD2    N1 5248   0.494   0.095  13.796  0.4654  0.4734  0.4466
  346MPD2    H7 5249   0.586   0.058  13.817 -0.3020 -2.5117 -1.4058
  347TMC3    C1 5250   0.618   0.438  14.407  0.2386 -0.3022 -0.1987
  347TMC3    C2 5251   0.746   0.388  14.403 -0.5247  0.7264  0.1717
  347TMC3    C3 5252   0.824   0.383  14.526  0.0312 -0.3948  0.1133
  347TMC3    C4 5253   0.560   0.473  14.527  0.4343  0.1672 -0.1655
  347TMC3    C5 5254   0.641   0.470  14.640 -0.4481  0.7018  0.0920
  347TMC3    C6 5255   0.772   0.425  14.646 -0.1530 -0.3170  0.8213
  347TMC3     C 5256   0.538   0.454  14.287  0.0970 -0.7104 -0.4382
  347TMC3     O 5257   0.438   0.520  14.299 -0.0565  0.2074 -0.4072
  347TMC3     H 5258   0.791   0.357  14.309 -0.5200 -0.3666  0.5412
  347TMC3    H1 5259   0.456   0.500  14.538  0.3113 -0.8905  1.2537
  347TMC3    H2 5260   0.826   0.405  14.738 -0.0198 -1.0376  0.5802
  347TMC3    C7 5261   0.568   0.469  14.768  0.1447 -0.0752 -0.5383
  347TMC3    C8 5262   0.957   0.328  14.526  0.0156  0.3088  0.5302
  347TMC3    O1 5263   0.449   0.458  14.767  0.2317 -0.8538 -0.1972
  347TMC3    O2 5264   0.980   0.261  14.424  0.2475  0.5205 -0.0384
  348MPD2     C 5265   4.138   4.612  12.101  0.5308 -0.0289  0.1246
  348MPD2    C1 5266   4.252   4.689  12.127  0.1289 -0.1446 -0.3741
  348MPD2    C2 5267   4.298   0.038  12.036 -0.2237 -0.3571 -0.4317
  348MPD2    C3 5268   4.244   0.049  11.913  0.4226 -0.0605  0.5186
  348MPD2    C4 5269   4.132   4.713  11.886  0.1999  1.1061 -0.5508
  348MPD2    C5 5270   4.078   4.624  11.977 -0.3813  0.3463  0.1302
  348MPD2     H 5271   4.388   0.093  12.060 -1.2132  0.5251  1.2586
  348MPD2    H1 5272   4.083   4.721  11.789 -4.1116 -0.7493  1.4792
  348MPD2    H2 5273   4.107   4.535  12.171  2.6773 -0.5260  0.5262
  348MPD2    H3 5274   3.993   4.559  11.965  1.3609 -1.8338 -0.4157
  348MPD2     N 5275   4.298   0.148  11.828 -0.3148  0.0225  0.0428
  348MPD2    H5 5276   4.383   0.195  11.858 -0.8001  0.7024  0.3712
  348MPD2    N1 5277   4.326   4.680  12.246 -0.5448  0.1707  0.0257
  348MPD2    H7 5278   4.400   0.008  12.253 -1.1793  0.7854  0.7380
  349TMC3    C1 5279   4.427   4.574  12.437  0.3145  0.4798 -0.1178
  349TMC3    C2 5280   4.439   4.450  12.494 -0.2269  0.2002 -0.2716
  349TMC3    C3 5281   4.562   4.400  12.521 -0.5554  0.3320  0.8027
  349TMC3    C4 5282   4.544   4.649  12.420  0.5009  0.2278  0.9774
  349TMC3    C5 5283   4.671   4.605  12.457  0.2036 -0.7023 -0.3643
  349TMC3    C6 5284   4.678   4.472  12.502  0.1002  0.1749 -0.7413
  349TMC3     C 5285   4.316   4.590  12.350  0.4451  0.4902  0.1319
  349TMC3     O 5286   4.225   4.512  12.375  0.3507  0.1477 -0.1419
  349TMC3     H 5287   4.347   4.397  12.518  0.0635 -0.3809 -0.4482
  349TMC3    H1 5288   4.530   0.005  12.375  0.4523 -0.0710  0.3457
  349TMC3    H2 5289   0.033   4.423  12.508 -0.1943 -0.3902 -0.5727
  349TMC3    C7 5290   0.024   4.650  12.369 -0.1964 -0.3367 -0.1518
  349TMC3    C8 5291   4.574   4.263  12.561  0.3213 -0.1725 -0.3046
  349TMC3    O1 5292   0.126   4.706  12.408 -0.6466  0.1830  0.3006
  349TMC3    O2 5293   4.669   4.236  12.633  0.2408  0.2619 -0.1664
  350MPD2     C 5294   2.794   3.350  10.481 -0.1242  0.4376 -0.0783
  350MPD2    C1 5295   2.863   3.283  10.389 -0.3594 -0.1260  0.6932
  350MPD2    C2 5296   2.993   3.319  10.372  0.5937 -0.3995  0.9560
  350MPD2    C3 5297   3.037   3.441  10.415 -0.0093  0.1703  0.1415
  350MPD2    C4 5298   2.954   3.519  10.495  0.8086  0.7716  0.3237
  350MPD2    C5 5299   2.831   3.472  10.528 -0.3206 -0.2229  0.4658
  350MPD2     H 5300   3.047   3.253  10.304 -0.5138 -1.8082  1.4489
  350MPD2    H1 5301   2.981   3.612  10.544 -0.3286 -0.2327  2.8510
  350MPD2    H2 5302   2.691   3.328  10.509 -0.3856  1.0742 -0.5478
  350MPD2    H3 5303   2.759   3.522  10.591  0.2951  1.4926 -0.1870
  350MPD2     N 5304   3.170   3.481  10.389  0.1764 -0.5228  0.3464
  350MPD2    H5 5305   3.226   3.423  10.327 -0.8931 -1.0158 -0.1616
  350MPD2    N1 5306   2.823   3.156  10.341  0.1879  0.2965 -0.2477
  350MPD2    H7 5307   2.890   3.092  10.301  0.9371 -0.0342  1.5079
  351TMC3    C1 5308   2.699   2.972  10.287 -0.6212  0.3437 -0.4824
  351TMC3    C2 5309   2.819   2.896  10.297  1.3061 -0.0856 -0.3800
  351TMC3    C3 5310   2.810   2.764  10.262  0.2163 -0.3468 -0.6054
  351TMC3    C4 5311   2.585   2.922  10.234  0.1797 -0.4717  0.6741
  351TMC3    C5 5312   2.591   2.793  10.195  0.1739  0.3082  0.0630
  351TMC3    C6 5313   2.704   2.713  10.194  0.2627 -0.2573  0.8587
  351TMC3     C 5314   2.697   3.105  10.344  0.1848 -0.1560  0.3264
  351TMC3     O 5315   2.595   3.170  10.345 -0.0362 -0.5164  0.4302
  351TMC3     H 5316   2.908   2.930  10.348 -0.1509  0.3724  1.8619
  351TMC3    H1 5317   2.493   2.979  10.225 -0.0466 -1.1864 -1.4173
  351TMC3    H2 5318   2.704   2.609  10.164  2.6962 -0.8406  2.9530
  351TMC3    C7 5319   2.466   2.738  10.138 -0.4778  0.3578  0.3903
  351TMC3    C8 5320   2.932   2.705  10.221  0.4972  0.2333 -0.1697
  351TMC3    O1 5321   2.364   2.804  10.146  0.7892 -0.7985  0.6836
  351TMC3    O2 5322   2.927   2.629  10.125  0.0492  0.0862  0.2728
  352MPD2     C 5323   1.804   0.128   1.395  0.2980 -0.8060 -0.8479
  352MPD2    C1 5324   1.696   0.154   1.305  0.1494  0.1941 -0.6032
  352MPD2    C2 5325   1.602   0.050   1.276  0.4078 -0.2428 -0.7342
  352MPD2    C3 5326   1.615   4.667   1.339  0.1922 -0.6439  0.0477
  352MPD2    C4 5327   1.712   4.649   1.435 -0.1562  0.6210  0.5419
  352MPD2    C5 5328   1.809   0.001   1.454 -0.2327  0.5837  0.2512
  352MPD2     H 5329   1.535   0.065   1.192 -0.5753 -0.6412 -0.0182
  352MPD2    H1 5330   1.723   4.551   1.480 -0.1020  1.7500  2.9877
  352MPD2    H2 5331   1.890   0.191   1.415  1.1699 -2.5235  0.7383
  352MPD2    H3 5332   1.886   4.701   1.519 -0.6426  0.7991  0.8757
  352MPD2     N 5333   1.521   4.564   1.329  0.3323 -0.1527  0.4935
  352MPD2    H5 5334   1.548   4.482   1.383  0.4488 -0.0077  0.6560
  352MPD2    N1 5335   1.695   0.276   1.238 -0.0811 -0.4809 -0.1445
  352MPD2    H7 5336   1.765   0.343   1.268 -0.7840  0.0286  0.3450
  353TMC3    C1 5337   1.330   4.449   1.279 -0.1657  0.1958  0.1852
  353TMC3    C2 5338   1.328   4.385   1.397  0.1992 -0.3120 -0.6159
  353TMC3    C3 5339   1.275   4.254   1.398  0.0894  0.4172  0.2400
  353TMC3    C4 5340   1.271   4.409   1.163  0.0381 -0.6218  0.8185
  353TMC3    C5 5341   1.228   4.281   1.164 -0.2259 -0.4674 -0.4068
  353TMC3    C6 5342   1.235   4.202   1.276  0.5157  0.9393 -0.1879
  353TMC3     C 5343   1.401   4.572   1.267  0.2202  0.1389  0.3691
  353TMC3     O 5344   1.349   4.654   1.191 -0.5010  0.1105 -0.1666
  353TMC3     H 5345   1.386   4.424   1.480  1.3422  1.1537 -2.1007
  353TMC3    H1 5346   1.274   4.469   1.073  2.8294  1.9220  2.5960
  353TMC3    H2 5347   1.218   4.095   1.286 -1.8890  1.1376 -2.1496
  353TMC3    C7 5348   1.217   4.214   1.038 -0.2583 -0.8015  0.7677
  353TMC3    C8 5349   1.336   4.164   1.489  0.4745  0.2603  1.0044
  353TMC3    O1 5350   1.258   4.264   0.934 -0.5649 -0.6051 -0.4355
  353TMC3    O2 5351   1.306   4.170   1.607 -0.2317 -0.0488 -0.0316
  354TMC3    C1 5352   3.397   1.252  13.633  0.7129 -0.6780  0.3918
  354TMC3    C2 5353   3.463   1.358  13.678 -0.2248 -0.2614  0.0303
  354TMC3    C3 5354   3.435   1.472  13.605 -0.5510 -0.0037  0.6282
  354TMC3    C4 5355   3.309   1.253  13.527 -0.1505  0.6542 -0.3450
  354TMC3    C5 5356   3.287   1.371  13.460 -0.2071  0.6786 -0.1411
  354TMC3    C6 5357   3.353   1.483  13.499 -0.3807  0.0775  0.5464
  354TMC3     C 5358   3.358   1.148  13.730 -0.0882 -1.1146  0.2213
  354TMC3     O 5359   3.259   1.081  13.713 -0.5569 -0.5711  0.0633
  354TMC3     H 5360   3.525   1.365  13.767 -2.7508  3.1895  1.5401
  354TMC3    H1 5361   3.241   1.172  13.506  0.3584  0.2312 -0.3771
  354TMC3    H2 5362   3.332   1.576  13.446  0.1864 -0.6512 -0.9510
  354TMC3    C7 5363   3.306   1.341  13.318  0.2505 -0.2894 -0.9952
  354TMC3    C8 5364   3.529   1.574  13.616 -0.1587 -0.3399 -0.1317
  354TMC3    O1 5365   3.341   1.230  13.278 -0.0511  0.3760  0.0188
  354TMC3    O2 5366   3.484   1.686  13.589  0.4822 -0.3112 -0.1202
  355MPD2     C 5367   3.294   2.439  11.797 -0.3231  0.4933  0.0630
  355MPD2    C1 5368   3.373   2.421  11.688  0.2840  0.6345  0.0730
  355MPD2    C2 5369   3.512   2.431  11.715  0.2802 -0.0242 -0.0037
  355MPD2    C3 5370   3.562   2.465  11.834  0.2706 -0.0802  0.1488
  355MPD2    C4 5371   3.484   2.473  11.950 -0.1320 -0.3183  0.4051
  355MPD2    C5 5372   3.350   2.457  11.924 -0.0597 -0.4574  0.4793
  355MPD2     H 5373   3.577   2.404  11.633 -0.3437  0.2747 -0.5964
  355MPD2    H1 5374   3.516   2.483  12.053 -3.0047 -2.5641  1.5070
  355MPD2    H2 5375   3.186   2.435  11.787 -0.4694 -0.0283  1.8404
  355MPD2    H3 5376   3.292   2.474  12.014  0.3091  0.0766  0.6181
  355MPD2     N 5377   3.703   2.490  11.842 -0.8246  0.0650  0.3442
  355MPD2    H5 5378   3.736   2.507  11.937 -2.5240 -0.7565  1.0836
  355MPD2    N1 5379   3.312   2.392  11.562  0.4595 -0.0748  0.0305
  355MPD2    H7 5380   3.213   2.370  11.566  0.2439  0.7955 -0.3184
  356TMC3    C1 5381   3.922   2.539  11.795 -0.1598 -0.3651 -0.2819
  356TMC3    C2 5382   4.009   2.594  11.704  0.2061  0.4133  0.1929
  356TMC3    C3 5383   4.132   2.636  11.749 -0.0323 -0.4768 -0.1794
  356TMC3    C4 5384   3.961   2.503  11.923 -0.3981  0.2193  0.5776
  356TMC3    C5 5385   4.090   2.539  11.954 -0.1667  0.2455  0.2209
  356TMC3    C6 5386   4.181   2.605  11.870 -0.1725  0.2785  0.2266
  356TMC3     C 5387   3.797   2.504  11.740  0.1908  0.3505 -0.4609
  356TMC3     O 5388   3.786   2.494  11.615  0.4559  0.7880  0.3428
  356TMC3     H 5389   3.977   2.626  11.605 -2.8220  0.2495  1.1113
  356TMC3    H1 5390   3.899   2.446  11.990 -0.6556  0.1226  0.2551
  356TMC3    H2 5391   4.288   2.611  11.887 -0.1284 -2.3196  0.8290
  356TMC3    C7 5392   4.109   2.535  12.097  0.5740 -0.6520 -0.1925
  356TMC3    C8 5393   4.223   2.700  11.652 -0.3488 -0.5574 -0.6098
  356TMC3    O1 5394   4.017   2.496  12.168  0.1003  0.6572  0.1699
  356TMC3    O2 5395   4.213   2.669  11.536  0.1910  0.1617  0.3160
  357MPD2     C 5396   3.122   1.975   1.381  0.0312  0.5703 -0.5469
  357MPD2    C1 5397   3.202   1.906   1.290 -0.4889  0.0036  0.0759
  357MPD2    C2 5398   3.195   1.934   1.158 -0.1668  0.8069  0.2147
  357MPD2    C3 5399   3.103   2.025   1.110  0.4951 -0.5548  0.6970
  357MPD2    C4 5400   3.023   2.101   1.197 -0.1031  0.1329  0.5953
  357MPD2    C5 5401   3.035   2.071   1.331 -0.5571 -0.5770 -0.3909
  357MPD2     H 5402   3.258   1.875   1.092  1.1232  1.6396  0.7043
  357MPD2    H1 5403   2.941   2.166   1.169 -1.5745 -2.2289 -0.5465
  357MPD2    H2 5404   3.123   1.959   1.488 -1.1112 -1.1002 -0.7969
  357MPD2    H3 5405   2.968   2.119   1.401  2.0747  2.5557 -0.0170
  357MPD2     N 5406   3.074   2.040   0.968  0.1680  0.4852  0.0929
  357MPD2    H5 5407   2.986   2.087   0.948  1.3818  3.6803  2.3126
  357MPD2    N1 5408   3.283   1.796   1.329 -0.5204  0.1084 -0.4030
  357MPD2    H7 5409   3.324   1.740   1.255  0.1332 -0.1564  0.1558
  358TMC3    C1 5410   3.376   1.630   1.476  0.2713 -0.2918  0.7108
  358TMC3    C2 5411   3.348   1.533   1.391 -0.2214 -0.2150  0.3499
  358TMC3    C3 5412   3.421   1.417   1.400 -0.2027  0.4339  0.2796
  358TMC3    C4 5413   3.481   1.619   1.555  0.2165 -0.2867 -0.2900
  358TMC3    C5 5414   3.539   1.496   1.576 -0.3479  0.0512  0.1454
  358TMC3    C6 5415   3.509   1.391   1.499 -0.2469  0.5719 -1.0497
  358TMC3     C 5416   3.315   1.759   1.465  0.2915  0.1132  0.5959
  358TMC3     O 5417   3.305   1.823   1.569  0.2848 -0.0029 -0.0972
  358TMC3     H 5418   3.258   1.535   1.330 -1.7752 -0.9114  2.6331
  358TMC3    H1 5419   3.517   1.709   1.603 -0.6944  0.1681 -0.4607
  358TMC3    H2 5420   3.579   1.309   1.502  0.0973  0.9384  0.7000
  358TMC3    C7 5421   3.662   1.500   1.649  0.3591  0.3060  0.1422
  358TMC3    C8 5422   3.408   1.333   1.283 -0.6787 -0.3184  0.9212
  358TMC3    O1 5423   3.766   1.469   1.594  0.1045 -0.9902 -0.3307
  358TMC3    O2 5424   3.336   1.384   1.193 -0.4445 -0.3024  1.0118
  359MPD2     C 5425   3.723   4.737  12.487  0.6713 -0.2424  0.0668
  359MPD2    C1 5426   3.711   0.106  12.407  0.3142  0.8505  0.5265
  359MPD2    C2 5427   3.592   0.150  12.364  0.9278 -0.2588 -0.8173
  359MPD2    C3 5428   3.479   0.093  12.420  0.3585  0.6337 -0.5538
  359MPD2    C4 5429   3.492   4.723  12.500  0.1400 -0.2498  0.1065
  359MPD2    C5 5430   3.613   4.672  12.532  0.5763 -0.1499 -0.2039
  359MPD2     H 5431   3.579   0.231  12.293  0.3565 -0.1196 -0.5609
  359MPD2    H1 5432   3.405   4.682  12.551 -0.6872 -0.3158 -1.3480
  359MPD2    H2 5433   3.816   4.700  12.528  0.7312 -0.2838 -0.1058
  359MPD2    H3 5434   3.621   4.576  12.582 -0.4367 -0.2095 -0.1547
  359MPD2     N 5435   3.349   0.137  12.386 -0.7640 -0.8437 -0.1583
  359MPD2    H5 5436   3.284   0.082  12.442 -0.1647 -1.0477  0.3429
  359MPD2    N1 5437   3.825   0.177  12.360 -0.1687 -0.4314 -0.6165
  359MPD2    H7 5438   3.805   0.260  12.304  1.0524 -0.0637 -0.5089
  360TMC3    C1 5439   4.051   0.227  12.300 -0.3311 -0.5364 -0.1994
  360TMC3    C2 5440   4.171   0.271  12.347 -0.2547  0.1860  0.1222
  360TMC3    C3 5441   4.258   0.335  12.260  0.5074  0.5516  0.1888
  360TMC3    C4 5442   4.006   0.286  12.186 -0.2620  0.0342  0.1773
  360TMC3    C5 5443   4.090   0.355  12.108 -0.2879  0.2672  0.5916
  360TMC3    C6 5444   4.220   0.373  12.134 -0.6253  0.3427  0.0374
  360TMC3     C 5445   3.959   0.146  12.380  0.0432 -1.0893  0.2908
  360TMC3     O 5446   4.010   0.063  12.452 -0.3307 -0.0318  0.0585
  360TMC3     H 5447   4.202   0.228  12.442  0.0489 -1.1792 -0.6083
  360TMC3    H1 5448   3.902   0.278  12.155  0.4349  0.9068 -2.3934
  360TMC3    H2 5449   4.290   0.410  12.059 -2.3194 -0.3149 -1.8811
  360TMC3    C7 5450   4.050   0.390  11.971 -0.7990 -0.1785  0.0698
  360TMC3    C8 5451   4.398   0.302  12.278 -0.0038  0.2181  0.1896
  360TMC3    O1 5452   4.071   0.502  11.934  0.5833  0.2415  0.4969
  360TMC3    O2 5453   4.422   0.209  12.353 -0.2492 -0.1268  0.2567
  361MPD2     C 5454   0.977   4.625  17.180  0.1765 -0.1024  0.4078
  361MPD2    C1 5455   0.944   4.502  17.135  0.4720  0.0835  0.2702
  361MPD2    C2 5456   1.028   4.398  17.165 -0.2955 -0.7521 -0.7486
  361MPD2    C3 5457   1.143   4.420  17.237 -0.1237  0.3406 -0.2811
  361MPD2    C4 5458   1.174   4.547  17.280 -0.0892 -0.3057 -0.0857
  361MPD2    C5 5459   1.079   4.646  17.266  0.2378 -0.6059  0.8022
  361MPD2     H 5460   1.017   4.296  17.130 -0.3955 -1.3486  1.0291
  361MPD2    H1 5461   1.275   4.571  17.311  0.0450  1.9256 -2.2943
  361MPD2    H2 5462   0.911   4.709  17.158 -0.3723 -0.4630  0.6752
  361MPD2    H3 5463   1.100   0.004  17.304 -1.1216 -0.5046  1.2707
  361MPD2     N 5464   1.245   4.330  17.260 -0.2820  0.4204 -0.3568
  361MPD2    H5 5465   1.332   4.367  17.295 -0.6015  1.7824 -1.0220
  361MPD2    N1 5466   0.827   4.465  17.064  0.0884  0.4418 -0.8462
  361MPD2    H7 5467   0.827   4.373  17.021  0.4420 -0.0869  0.3007
  362TMC3    C1 5468   0.636   4.485  16.944 -0.1122  0.0534 -0.3626
  362TMC3    C2 5469   0.579   4.369  16.983 -0.0409 -0.2059 -0.2829
  362TMC3    C3 5470   0.479   4.308  16.911 -0.1659 -0.0490 -0.2425
  362TMC3    C4 5471   0.586   4.553  16.840  0.2531 -0.3044  0.2124
  362TMC3    C5 5472   0.474   4.500  16.778 -0.6971  0.0214  0.4484
  362TMC3    C6 5473   0.423   4.379  16.809  0.3267 -0.1454 -0.0218
  362TMC3     C 5474   0.725   4.549  17.030 -0.6341  1.6719 -0.3300
  362TMC3     O 5475   0.707   4.668  17.055 -0.3669 -0.0888  0.1919
  362TMC3     H 5476   0.627   4.306  17.057  0.7581  0.2854 -0.3862
  362TMC3    H1 5477   0.627   4.648  16.806 -0.3927  0.5660  1.8489
  362TMC3    H2 5478   0.329   4.336  16.777 -0.1229 -1.1565  2.6944
  362TMC3    C7 5479   0.420   4.572  16.663  0.6940 -0.8717 -0.6008
  362TMC3    C8 5480   0.386   4.229  16.989  0.1843 -0.4933  0.3743
  362TMC3    O1 5481   0.453   4.688  16.661  0.0975 -0.0014 -0.6033
  362TMC3    O2 5482   0.311   4.160  16.923  0.3174  0.0881 -0.5169
  363TMC3    C1 5483   3.992   2.772  10.006  0.2124  0.2465  0.5716
  363TMC3    C2 5484   3.961   2.649  10.055 -0.0071  0.4549 -0.5219
  363TMC3    C3 5485   3.830   2.610  10.064 -0.4566 -0.3619 -0.4627
  363TMC3    C4 5486   3.893   2.861   9.967  0.1520  0.4562 -0.2367
  363TMC3    C5 5487   3.765   2.824   9.993  0.4655 -0.4515 -0.1461
  363TMC3    C6 5488   3.732   2.700  10.043 -0.3021 -0.5432  0.5443
  363TMC3     C 5489   4.126   2.823  10.039 -0.1101  0.8557 -0.3139
  363TMC3     O 5490   4.200   2.753  10.107 -0.2036 -0.2615  0.0726
  363TMC3     H 5491   4.039   2.590  10.101 -1.3707 -0.2050  0.9241
  363TMC3    H1 5492   3.923   2.961   9.940  0.2928  0.1828 -1.0894
  363TMC3    H2 5493   3.634   2.661  10.067  0.7478 -1.4521  3.3796
  363TMC3    C7 5494   3.657   2.909   9.970 -0.5467 -1.2783 -0.2368
  363TMC3    C8 5495   3.801   2.485  10.122 -0.8089 -0.7205 -0.5681
  363TMC3    O1 5496   3.554   2.855   9.950  0.0163  0.1260 -0.2178
  363TMC3    O2 5497   3.695   2.469  10.179  0.3586 -0.1021 -0.0682
  364MPD2     C 5498   2.985   1.871  11.018 -0.1796  0.2306 -0.8191
  364MPD2    C1 5499   3.043   1.877  10.894 -0.8105 -0.5432 -0.9617
  364MPD2    C2 5500   3.110   1.769  10.851  0.5093  0.0976 -0.5046
  364MPD2    C3 5501   3.115   1.649  10.924 -0.1778  0.1838  0.0101
  364MPD2    C4 5502   3.053   1.646  11.050 -0.4956 -0.1115 -0.1449
  364MPD2    C5 5503   2.991   1.760  11.099 -0.1687  0.1154 -0.1238
  364MPD2     H 5504   3.150   1.765  10.750  0.6006  1.0935 -0.5020
  364MPD2    H1 5505   3.059   1.555  11.109  1.7757  0.7556  0.9217
  364MPD2    H2 5506   2.929   1.956  11.054  1.3400  1.7916 -2.1700
  364MPD2    H3 5507   2.940   1.765  11.195  2.8564  0.3768  1.4941
  364MPD2     N 5508   3.167   1.531  10.864 -0.7531 -0.6775  0.1271
  364MPD2    H5 5509   3.184   1.460  10.934  1.7749 -1.6122 -1.4514
  364MPD2    N1 5510   3.033   2.000  10.823 -0.2270 -0.1606 -0.2148
  364MPD2    H7 5511   2.971   2.068  10.865 -1.6535 -2.2767  1.0984
  365TMC3    C1 5512   3.076   2.157  10.643  0.4797  0.5265  0.7098
  365TMC3    C2 5513   3.130   2.179  10.521  0.2535 -0.4422  0.5076
  365TMC3    C3 5514   3.071   2.272  10.435 -0.4317  0.3412 -0.2693
  365TMC3    C4 5515   2.973   2.236  10.683  0.8768 -0.7082  0.0303
  365TMC3    C5 5516   2.932   2.337  10.606  0.8573 -1.3224 -0.0044
  365TMC3    C6 5517   2.974   2.357  10.479 -0.0805  0.2827  0.6948
  365TMC3     C 5518   3.107   2.033  10.713 -0.0014  0.1807  0.0564
  365TMC3     O 5519   3.213   1.983  10.674 -0.0738 -0.2628  0.2669
  365TMC3     H 5520   3.217   2.122  10.490 -0.2767  0.4677 -2.7188
  365TMC3    H1 5521   2.928   2.224  10.781  0.9248  1.1332  0.2646
  365TMC3    H2 5522   2.921   2.427  10.415  1.6229 -0.4628 -1.5154
  365TMC3    C7 5523   2.887   2.463  10.662 -0.5368 -0.4542  0.0394
  365TMC3    C8 5524   3.088   2.260  10.283  0.4039 -0.3307 -0.3880
  365TMC3    O1 5525   2.909   2.569  10.606  0.0461 -0.2344 -0.3123
  365TMC3    O2 5526   3.017   2.323  10.203  0.0752  0.3035  0.1333
  366MPD2     C 5527   0.968   2.292  15.354  0.1985 -0.4955  0.4860
  366MPD2    C1 5528   1.056   2.380  15.398  0.4087 -0.6845  0.3526
  366MPD2    C2 5529   1.190   2.335  15.413 -0.6218 -0.3894  0.0963
  366MPD2    C3 5530   1.231   2.206  15.388 -0.2868 -0.1529 -0.4738
  366MPD2    C4 5531   1.133   2.119  15.348  0.3416 -0.1701 -0.4638
  366MPD2    C5 5532   1.003   2.155  15.324  0.1350 -0.0032  0.7757
  366MPD2     H 5533   1.270   2.402  15.445 -0.7568 -0.9443  1.5900
  366MPD2    H1 5534   1.149   2.012  15.346  2.1966  0.1121 -0.6517
  366MPD2    H2 5535   0.865   2.325  15.346  0.1530 -0.6123  0.5880
  366MPD2    H3 5536   0.933   2.081  15.286 -1.8735  1.5990  1.3394
  366MPD2     N 5537   1.363   2.168  15.420 -0.7189 -0.7948 -0.4297
  366MPD2    H5 5538   1.434   2.238  15.441 -1.1844  0.5559 -3.4410
  366MPD2    N1 5539   1.032   2.518  15.421 -0.1553  0.6784  0.2040
  366MPD2    H7 5540   1.115   2.563  15.459 -0.2144 -0.3718  1.5927
  367TMC3    C1 5541   0.911   2.720  15.459  0.5832 -0.1626 -0.0665
  367TMC3    C2 5542   1.018   2.758  15.532 -0.2240 -0.9908 -0.2680
  367TMC3    C3 5543   1.022   2.894  15.561 -0.2357 -0.3161  0.3766
  367TMC3    C4 5544   0.818   2.812  15.402 -0.7857 -0.5014  0.6541
  367TMC3    C5 5545   0.843   2.944  15.424  0.5072 -0.0468  0.3652
  367TMC3    C6 5546   0.944   2.994  15.508  0.2241  0.4838  0.6284
  367TMC3     C 5547   0.905   2.583  15.415 -0.2108 -0.3197 -0.0083
  367TMC3     O 5548   0.802   2.539  15.367 -0.5864  0.2000  0.3887
  367TMC3     H 5549   1.078   2.687  15.587  0.7876  0.8850  1.0385
  367TMC3    H1 5550   0.733   2.773  15.348 -0.7196  1.0870 -0.5981
  367TMC3    H2 5551   0.957   3.097  15.540  2.8284  0.0204  1.0336
  367TMC3    C7 5552   0.763   3.039  15.356  0.1876 -0.6739 -0.0430
  367TMC3    C8 5553   1.129   2.927  15.654  0.0683  0.0106  0.7724
  367TMC3    O1 5554   0.767   3.157  15.397 -0.0809  0.0540  0.6798
  367TMC3    O2 5555   1.182   2.838  15.722  0.4186  0.6357  0.0094
  368MPD2     C 5556   2.166   0.061  13.295 -0.1481 -0.0217  0.0561
  368MPD2    C1 5557   2.198   0.190  13.252 -0.2401  0.8363 -0.2108
  368MPD2    C2 5558   2.335   0.218  13.258  0.7443 -0.1053  0.1159
  368MPD2    C3 5559   2.431   0.136  13.312  0.2957 -0.8891  0.5634
  368MPD2    C4 5560   2.387   0.017  13.364 -0.5317 -0.1250  0.1205
  368MPD2    C5 5561   2.257   4.714  13.343 -0.0558  0.9965  0.1636
  368MPD2     H 5562   2.361   0.321  13.236  0.5149 -0.7578 -3.1137
  368MPD2    H1 5563   2.460   4.685  13.395  1.2867  0.9271 -1.6458
  368MPD2    H2 5564   2.068   0.017  13.285 -0.1165 -0.0844  0.0233
  368MPD2    H3 5565   2.217   4.615  13.362  0.7932  0.7148  0.4743
  368MPD2     N 5566   2.568   0.161  13.328  0.3941  0.1610 -1.4310
  368MPD2    H5 5567   2.633   0.091  13.363 -0.9785 -0.1179  0.5770
  368MPD2    N1 5568   2.092   0.272  13.192 -0.3877  0.2005  0.0378
  368MPD2    H7 5569   2.003   0.224  13.198  0.3138 -1.1507 -0.2808
  369TMC3    C1 5570   2.002   0.434  13.044 -0.4692 -0.2121 -0.0415
  369TMC3    C2 5571   2.029   0.506  12.926 -0.2229 -0.1046  0.5317
  369TMC3    C3 5572   1.924   0.533  12.846 -0.4311 -0.4750  0.4896
  369TMC3    C4 5573   1.875   0.397  13.076 -0.1315 -0.8130 -0.1191
  369TMC3    C5 5574   1.771   0.414  12.979  0.4011  0.3170  0.1893
  369TMC3    C6 5575   1.800   0.480  12.862 -0.2742  0.8773 -0.6833
  369TMC3     C 5576   2.119   0.387  13.115 -0.4720  0.7794  0.7802
  369TMC3     O 5577   2.230   0.428  13.088  0.3423 -0.1951  0.3356
  369TMC3     H 5578   2.132   0.540  12.917 -0.8084  1.7365  0.8317
  369TMC3    H1 5579   1.857   0.350  13.172 -1.3083 -1.5888 -0.7190
  369TMC3    H2 5580   1.724   0.510  12.791 -1.7349  1.8486  1.2913
  369TMC3    C7 5581   1.644   0.355  13.011  0.0838 -0.4616  0.9313
  369TMC3    C8 5582   1.941   0.630  12.732 -0.7092  0.0890 -0.1353
  369TMC3    O1 5583   1.648   0.287  13.113  0.5341 -0.1312 -0.0670
  369TMC3    O2 5584   1.832   0.680  12.701  0.1440  0.1313  0.0107
  370TMC3    C1 5585   1.794   0.271  16.296 -0.1576 -0.0536 -0.2922
  370TMC3    C2 5586   1.782   0.256  16.430 -0.9217  0.3284  0.2937
  370TMC3    C3 5587   1.708   0.150  16.484  0.5440 -0.0639  0.3893
  370TMC3    C4 5588   1.745   0.177  16.205 -0.3798 -0.4358  0.9193
  370TMC3    C5 5589   1.685   0.066  16.268  0.4903 -0.3419 -0.1561
  370TMC3    C6 5590   1.667   0.048  16.405 -0.9659 -0.4419 -0.3050
  370TMC3     C 5591   1.882   0.381  16.246  0.0170  0.3112 -0.0672
  370TMC3     O 5592   1.931   0.456  16.327  0.4155  0.1820 -0.4145
  370TMC3     H 5593   1.825   0.333  16.493  0.5920  0.1199 -0.4957
  370TMC3    H1 5594   1.741   0.194  16.098  0.1252 -1.4897  0.7427
  370TMC3    H2 5595   1.612   4.706  16.446  1.6515 -1.7441  0.5134
  370TMC3    C7 5596   1.703   4.684  16.200 -1.2068  1.1846  0.0550
  370TMC3    C8 5597   1.769   0.105  16.607  0.4323  0.2131  0.0533
  370TMC3    O1 5598   1.695   4.586  16.266  0.1123  0.3727  0.1360
  370TMC3    O2 5599   1.800   4.727  16.610 -0.2907  0.0843  0.2477
  371TMC3    C1 5600   2.967   3.237  15.592  0.1426 -0.1296 -0.2798
  371TMC3    C2 5601   2.852   3.231  15.665 -1.1332 -0.0497  0.4607
  371TMC3    C3 5602   2.777   3.347  15.668 -0.3318 -0.2870 -0.4568
  371TMC3    C4 5603   3.003   3.355  15.523  0.2528 -0.2126  0.2830
  371TMC3    C5 5604   2.909   3.463  15.517  0.0015 -1.1968 -0.5571
  371TMC3    C6 5605   2.804   3.465  15.602  0.0787  0.2102  0.3599
  371TMC3     C 5606   3.068   3.129  15.587  0.0673 -0.1702  0.7656
  371TMC3     O 5607   3.175   3.143  15.528  0.2476  0.2830 -0.0136
  371TMC3     H 5608   2.810   3.138  15.700  0.8371 -1.2740 -0.3808
  371TMC3    H1 5609   3.098   3.357  15.471  1.1080 -1.4841  1.8162
  371TMC3    H2 5610   2.730   3.544  15.604  0.6924  0.7737  0.9263
  371TMC3    C7 5611   2.908   3.547  15.398  0.1996 -0.5358  0.1400
  371TMC3    C8 5612   2.640   3.344  15.732  0.2229 -0.1778  0.2858
  371TMC3    O1 5613   2.818   3.627  15.405  0.2551 -0.1795 -0.2384
  371TMC3    O2 5614   2.570   3.242  15.730  0.5655 -0.9664 -0.6976
  372MPD2     C 5615   2.693   0.396  13.629 -0.6506 -0.5346 -0.1184
  372MPD2    C1 5616   2.764   0.281  13.635 -0.8539 -0.7410 -0.4638
  372MPD2    C2 5617   2.690   0.167  13.655  0.5456 -0.0130  0.2579
  372MPD2    C3 5618   2.549   0.169  13.652  0.2441  0.2528 -0.1754
  372MPD2    C4 5619   2.483   0.289  13.616  0.1372 -0.0103 -0.6647
  372MPD2    C5 5620   2.558   0.404  13.613  0.3205  0.0975 -0.2596
  372MPD2     H 5621   2.738   0.074  13.681 -0.8713 -0.4170  1.4688
  372MPD2    H1 5622   2.377   0.299  13.595  0.4306  1.0827 -1.6354
  372MPD2    H2 5623   2.728   0.498  13.624  0.4244 -0.9601 -1.5017
  372MPD2    H3 5624   2.513   0.499  13.589 -2.9230 -1.8892 -2.1363
  372MPD2     N 5625   2.476   0.046  13.659  0.1114  0.4150 -0.0513
  372MPD2    H5 5626   2.535   4.708  13.681 -3.8842 -2.2697  0.9390
  372MPD2    N1 5627   2.905   0.274  13.641  0.1906  0.8192  0.3858
  372MPD2    H7 5628   2.948   0.182  13.642 -0.9988  0.2267 -2.0382
  373TMC3    C1 5629   2.295   4.651  13.726  0.5599  0.3432  0.3798
  373TMC3    C2 5630   2.201   4.663  13.830 -0.2312  0.0351  1.0699
  373TMC3    C3 5631   2.144   4.543  13.864 -0.6092  0.2297  0.2677
  373TMC3    C4 5632   2.347   4.537  13.670 -1.1616  0.3138  0.2303
  373TMC3    C5 5633   2.268   4.426  13.705  0.9304  0.7541  0.0218
  373TMC3    C6 5634   2.169   4.432  13.793  0.2121 -0.1743 -0.4280
  373TMC3     C 5635   2.340   0.042  13.674  0.2970 -0.5442 -0.3431
  373TMC3     O 5636   2.249   0.127  13.677  0.4993  0.3479 -0.1961
  373TMC3     H 5637   2.161   0.017  13.864 -0.9903 -0.5819  1.9054
  373TMC3    H1 5638   2.413   4.544  13.585 -0.8817  0.1157  0.4315
  373TMC3    H2 5639   2.105   4.347  13.811 -1.3608  0.8449 -1.2302
  373TMC3    C7 5640   2.331   4.297  13.679 -0.3501  0.4082 -0.1834
  373TMC3    C8 5641   2.036   4.549  13.955  0.4345  0.4976 -0.0840
  373TMC3    O1 5642   2.444   4.305  13.617 -0.4574  0.0462 -0.3662
  373TMC3    O2 5643   1.980   4.658  13.952  0.3339 -0.2490 -0.0066
  374TMC3    C1 5644   3.740   0.929   9.788  0.2517 -0.3443  0.1039
  374TMC3    C2 5645   3.871   0.931   9.818  0.0032 -0.6958 -0.0049
  374TMC3    C3 5646   3.956   0.986   9.722  0.3641  0.5875  0.3436
  374TMC3    C4 5647   3.687   0.977   9.663  0.3367  0.4977 -0.3965
  374TMC3    C5 5648   3.778   1.026   9.571 -0.5214 -0.0174 -0.9682
  374TMC3    C6 5649   3.909   1.032   9.607  0.3651  0.5370  0.7017
  374TMC3     C 5650   3.638   0.896   9.888 -0.1964 -0.7002  0.4882
  374TMC3     O 5651   3.541   0.833   9.852  0.1700 -0.0512 -0.0784
  374TMC3     H 5652   3.906   0.903   9.916 -1.1277  0.4309  0.7252
  374TMC3    H1 5653   3.589   0.947   9.629  0.1614 -0.6220  1.1076
  374TMC3    H2 5654   3.988   1.053   9.536 -1.1778  1.8615 -0.6312
  374TMC3    C7 5655   3.759   1.006   9.429  0.6492  0.0771 -0.6445
  374TMC3    C8 5656   4.091   1.030   9.760  0.4701 -0.1304  0.0959
  374TMC3    O1 5657   3.671   0.934   9.389 -0.0644 -0.0766 -0.0566
  374TMC3    O2 5658   4.137   1.123   9.696  0.0594  0.4611 -0.2536
  375MPD2     C 5659   3.525   0.773  17.118 -0.0934  0.3928 -0.3265
  375MPD2    C1 5660   3.411   0.701  17.088 -0.3039 -0.0735 -0.1718
  375MPD2    C2 5661   3.421   0.580  17.025  0.2466 -0.2745  0.4793
  375MPD2    C3 5662   3.549   0.532  16.992  0.6603 -0.6632  0.0029
  375MPD2    C4 5663   3.657   0.606  17.019  0.2142  0.1106 -0.3749
  375MPD2    C5 5664   3.645   0.717  17.088 -0.4496  0.4437  0.4915
  375MPD2     H 5665   3.329   0.532  16.994 -0.7727  1.7003  0.4082
  375MPD2    H1 5666   3.756   0.566  16.999 -0.3751 -2.2750  1.5163
  375MPD2    H2 5667   3.522   0.872  17.161  2.7676  0.4139 -0.2153
  375MPD2    H3 5668   3.732   0.774  17.117 -1.0435  2.2297 -1.2411
  375MPD2     N 5669   3.565   0.408  16.927  0.1508 -0.0143 -0.3701
  375MPD2    H5 5670   3.660   0.380  16.907  0.1789 -0.4849  0.4351
  375MPD2    N1 5671   3.280   0.751  17.105  0.0926 -0.0683  0.0727
  375MPD2    H7 5672   3.206   0.683  17.092  1.1846 -0.7584 -2.4016
  376TMC3    C1 5673   3.520   0.236  16.775 -0.7893 -0.2427 -0.6065
  376TMC3    C2 5674   3.654   0.207  16.768 -0.0599 -0.1042  0.1425
  376TMC3    C3 5675   3.701   0.183  16.642  0.3543 -0.1126  0.1447
  376TMC3    C4 5676   3.436   0.221  16.669 -0.1485  0.6089 -0.3996
  376TMC3    C5 5677   3.487   0.194  16.549  0.6352  0.3451 -0.3950
  376TMC3    C6 5678   3.622   0.177  16.531  0.9789 -0.3793 -0.0539
  376TMC3     C 5679   3.465   0.330  16.873  0.2373  0.7237  0.7113
  376TMC3     O 5680   3.346   0.330  16.889 -0.3621 -0.1810  0.5724
  376TMC3     H 5681   3.709   0.200  16.862  1.7830 -3.2865 -1.1770
  376TMC3    H1 5682   3.330   0.242  16.683 -0.6208 -2.3362  0.3294
  376TMC3    H2 5683   3.679   0.171  16.439  0.9705 -3.0204  0.1118
  376TMC3    C7 5684   3.406   0.179  16.432 -0.3347  0.1794 -0.0813
  376TMC3    C8 5685   3.840   0.190  16.625  0.1306  0.0675  1.3021
  376TMC3    O1 5686   3.470   0.213  16.330 -0.7425  0.5423 -0.2089
  376TMC3    O2 5687   3.874   0.245  16.523  0.5672 -0.3589  0.3278
  377MPD2     C 5688   1.458   0.098  12.044 -0.0382  0.0022  0.0650
  377MPD2    C1 5689   1.504   0.132  12.170  0.0402  0.3907  0.1196
  377MPD2    C2 5690   1.424   0.113  12.280  0.0996 -0.0649 -0.3942
  377MPD2    C3 5691   1.304   0.043  12.266  0.7294  0.1649  0.4035
  377MPD2    C4 5692   1.261   0.001  12.142  0.7376  0.0255 -0.1156
  377MPD2    C5 5693   1.337   0.039  12.034 -0.2245  0.1732  0.2228
  377MPD2     H 5694   1.450   0.143  12.381 -0.3519 -1.5329  0.1612
  377MPD2    H1 5695   1.164   4.698  12.125  0.3234  0.5488  0.8381
  377MPD2    H2 5696   1.518   0.119  11.956 -0.3183  1.1870  0.1575
  377MPD2    H3 5697   1.300   0.018  11.935  3.0152 -1.0605 -0.7398
  377MPD2     N 5698   1.221   0.036  12.379  0.4515  0.0653  0.2718
  377MPD2    H5 5699   1.244   0.086  12.464 -0.9365 -0.6405  1.0664
  377MPD2    N1 5700   1.636   0.188  12.179 -0.3762 -0.3932  0.3545
  377MPD2    H7 5701   1.681   0.208  12.091 -1.4048  1.5121  0.2541
  378TMC3    C1 5702   1.781   0.543  12.359  0.7190 -0.2547 -0.6816
  378TMC3    C2 5703   1.761   0.420  12.396  0.0159  0.3265 -0.1269
  378TMC3    C3 5704   1.784   0.326  12.299  0.5467  0.4587 -0.3355
  378TMC3    C4 5705   1.836   0.579  12.242 -0.3972  0.0282  0.5012
  378TMC3    C5 5706   1.880   0.485  12.154  0.3116 -0.0658  0.3277
  378TMC3    C6 5707   1.838   0.355  12.181  0.0398 -0.2416  0.3808
  378TMC3     C 5708   1.672   0.624  12.407  0.1040  0.0224  0.2673
  378TMC3     O 5709   1.618   0.594  12.512 -0.1833  0.4546  1.1311
  378TMC3     H 5710   1.691   0.394  12.475  0.2483 -0.5047 -0.1909
  378TMC3    H1 5711   1.865   0.680  12.216 -0.0308 -0.3494 -0.5700
  378TMC3    H2 5712   1.859   0.273  12.113 -0.9280  1.9612 -2.5792
  378TMC3    C7 5713   1.965   0.527  12.032  0.2264  0.8202  0.7165
  378TMC3    C8 5714   1.691   0.216  12.302  0.1937  0.2912  0.5885
  378TMC3    O1 5715   2.007   0.639  12.024  0.2085  0.4137 -0.1759
  378TMC3    O2 5716   1.665   0.169  12.415  0.5634 -0.0358 -0.4130
  379MPD2     C 5717   2.182   3.249  16.206 -0.2324  0.9058 -0.2952
  379MPD2    C1 5718   2.142   3.156  16.301 -0.7763  0.3368 -0.5987
  379MPD2    C2 5719   2.227   3.129  16.407  0.1522 -0.5307  0.5725
  379MPD2    C3 5720   2.356   3.192  16.419  0.6672 -0.2386 -0.5071
  379MPD2    C4 5721   2.394   3.276  16.326  0.1232  0.4939 -0.1531
  379MPD2    C5 5722   2.308   3.303  16.220 -0.8151 -0.6110  0.2742
  379MPD2     H 5723   2.196   3.058  16.483 -1.1982  1.3376  1.7805
  379MPD2    H1 5724   2.491   3.324  16.332  0.4943 -0.5082  1.8394
  379MPD2    H2 5725   2.116   3.270  16.123  0.2988  0.2075 -0.8872
  379MPD2    H3 5726   2.344   3.367  16.141  1.2718  0.3224  1.9867
  379MPD2     N 5727   2.442   3.162  16.522 -0.1379  0.2190  0.3595
  379MPD2    H5 5728   2.535   3.202  16.509 -0.2752  0.3031 -0.3202
  379MPD2    N1 5729   2.020   3.097  16.265  0.5034 -0.1418  0.3345
  379MPD2    H7 5730   1.962   3.146  16.199 -0.8120 -1.3043  0.6288
  380TMC3    C1 5731   1.861   2.929  16.245 -0.1449  0.2314  0.4102
  380TMC3    C2 5732   1.886   2.806  16.186  1.0883  0.4346 -0.0555
  380TMC3    C3 5733   1.835   2.768  16.070  0.4160 -0.6809  0.1686
  380TMC3    C4 5734   1.773   3.018  16.184  0.0674 -0.6084  0.4419
  380TMC3    C5 5735   1.721   2.975  16.067  0.4509  0.0701  0.5745
  380TMC3    C6 5736   1.746   2.854  16.012 -0.4395 -0.1731  0.8403
  380TMC3     C 5737   1.976   2.983  16.321  0.1862 -0.4327  0.5473
  380TMC3     O 5738   2.045   2.904  16.381  0.0085  0.1438  0.5666
  380TMC3     H 5739   1.943   2.737  16.248  1.7864  0.4429 -0.6878
  380TMC3    H1 5740   1.748   3.119  16.215 -2.0028 -1.4800  1.6405
  380TMC3    H2 5741   1.718   2.826  15.911 -0.8732  2.2660  0.2899
  380TMC3    C7 5742   1.688   3.070  15.964  0.7688  0.1231  0.0724
  380TMC3    C8 5743   1.951   2.745  15.982  0.2514 -0.7962  0.1914
  380TMC3    O1 5744   1.739   3.182  15.975 -0.9598  0.9281 -0.0454
  380TMC3    O2 5745   1.932   2.744  15.864 -0.2111 -0.1675 -0.4268
  381TMC3    C1 5746   1.767   4.210  16.541 -0.1762  0.2582  0.2828
  381TMC3    C2 5747   1.820   4.299  16.451 -0.3770  0.2975 -0.6801
  381TMC3    C3 5748   1.878   4.418  16.501  0.1619  0.0677 -0.3746
  381TMC3    C4 5749   1.756   4.239  16.673 -0.4591  0.0921 -0.7139
  381TMC3    C5 5750   1.806   4.363  16.718  0.1752  0.1748 -0.4293
  381TMC3    C6 5751   1.876   4.445  16.635 -0.2344  0.1274  0.5535
  381TMC3     C 5752   1.709   4.088  16.496 -0.1073 -0.1591  0.0229
  381TMC3     O 5753   1.708   3.996  16.577  0.5240 -0.1203  0.0585
  381TMC3     H 5754   1.822   4.285  16.344 -1.2443 -4.1377 -0.1115
  381TMC3    H1 5755   1.712   4.171  16.745  1.2212  2.0075  2.1493
  381TMC3    H2 5756   1.924   4.535  16.671  3.0687 -1.5978  0.5135
  381TMC3    C7 5757   1.833   4.364  16.858 -0.5590 -0.0078 -0.0830
  381TMC3    C8 5758   1.973   4.483  16.414  0.0702  0.4208  0.1363
  381TMC3    O1 5759   1.861   4.255  16.910 -0.2219 -0.0905 -0.0247
  381TMC3    O2 5760   2.008   4.416  16.314 -0.3952 -0.1187  0.8154
  382MPD2     C 5761   1.437   1.824  16.916  0.7347  0.0991 -0.6972
  382MPD2    C1 5762   1.423   1.905  17.030  0.3421 -0.1350  0.2370
  382MPD2    C2 5763   1.323   1.866  17.114 -0.3817 -0.2032  1.1457
  382MPD2    C3 5764   1.241   1.754  17.096  0.2066 -0.2686 -1.0108
  382MPD2    C4 5765   1.259   1.679  16.982  0.3990 -0.1024  0.4325
  382MPD2    C5 5766   1.363   1.715  16.895  0.1662 -0.1145 -0.8548
  382MPD2     H 5767   1.310   1.927  17.202  2.0476  0.9131  0.7401
  382MPD2    H1 5768   1.198   1.590  16.967 -0.6112  0.2952  2.1664
  382MPD2    H2 5769   1.524   1.832  16.851  1.3567 -1.5074 -0.0790
  382MPD2    H3 5770   1.382   1.644  16.815  1.9332 -0.3621 -0.2001
  382MPD2     N 5771   1.129   1.723  17.182  0.8932  0.0948 -0.5673
  382MPD2    H5 5772   1.055   1.665  17.143 -0.2908  0.4132  1.2013
  382MPD2    N1 5773   1.513   2.012  17.059 -0.0900 -0.2887 -0.6440
  382MPD2    H7 5774   1.480   2.086  17.120 -1.9089 -2.1005  0.5701
  383TMC3    C1 5775   0.980   1.728  17.361 -0.1950  0.9378 -0.1958
  383TMC3    C2 5776   0.925   1.611  17.336  0.0010 -0.4769  0.0239
  383TMC3    C3 5777   0.787   1.609  17.361 -0.4326 -0.4815 -0.9234
  383TMC3    C4 5778   0.920   1.842  17.408  1.0827  0.5228  1.1376
  383TMC3    C5 5779   0.791   1.827  17.444  0.0246  0.7262  0.4746
  383TMC3    C6 5780   0.718   1.715  17.422  0.0949  0.4495 -0.0461
  383TMC3     C 5781   1.110   1.767  17.310  0.2805  0.2017 -0.2086
  383TMC3     O 5782   1.184   1.834  17.381 -0.2592  0.1210  0.1183
  383TMC3     H 5783   0.955   1.537  17.263  2.1647 -0.9519  1.3978
  383TMC3    H1 5784   0.982   1.924  17.444  0.8519  1.2209 -0.0749
  383TMC3    H2 5785   0.612   1.715  17.447  0.2632 -1.0816  0.6754
  383TMC3    C7 5786   0.770   1.903  17.570  0.4435 -0.2344  0.3614
  383TMC3    C8 5787   0.702   1.514  17.296 -0.2416  0.1966 -0.0011
  383TMC3    O1 5788   0.793   2.024  17.568 -0.7429 -0.0963  0.0396
  383TMC3    O2 5789   0.587   1.541  17.279 -0.0951  0.3938  0.3773
  384MPD2     C 5790   2.404   3.581  12.270  0.1988 -0.8755 -0.8069
  384MPD2    C1 5791   2.408   3.449  12.304 -0.0609 -0.5345  0.4991
  384MPD2    C2 5792   2.513   3.374  12.255 -0.2143  0.0618 -0.5288
  384MPD2    C3 5793   2.612   3.434  12.180 -0.1048 -0.0555  0.6357
  384MPD2    C4 5794   2.600   3.560  12.140  0.4668  0.3414 -0.1970
  384MPD2    C5 5795   2.500   3.642  12.188  0.9123 -0.0482 -0.3093
  384MPD2     H 5796   2.508   3.273  12.293 -3.3562  0.5681  0.3823
  384MPD2    H1 5797   2.667   3.613  12.073  1.7508  0.4943  1.2157
  384MPD2    H2 5798   2.330   3.654  12.299  1.3971  0.1423 -0.3028
  384MPD2    H3 5799   2.494   3.747  12.163 -2.2167 -0.2740 -0.5604
  384MPD2     N 5800   2.726   3.369  12.126  0.5888 -0.6084 -0.5062
  384MPD2    H5 5801   2.784   3.421  12.061 -0.1114  2.7499  1.5801
  384MPD2    N1 5802   2.294   3.408  12.370  0.4579 -0.5542 -0.4593
  384MPD2    H7 5803   2.239   3.488  12.399  1.2620 -0.2802  0.3034
  385TMC3    C1 5804   2.716   3.140  12.232  0.1604  0.8457 -0.3566
  385TMC3    C2 5805   2.729   3.011  12.192  0.6247 -0.1127  0.1640
  385TMC3    C3 5806   2.750   2.920  12.292 -0.1019  0.7468 -0.0379
  385TMC3    C4 5807   2.739   3.174  12.358  0.5268  0.2800  0.1263
  385TMC3    C5 5808   2.757   3.083  12.457  0.3487 -0.2034 -0.1592
  385TMC3    C6 5809   2.758   2.955  12.428  0.1866  0.1402  0.4060
  385TMC3     C 5810   2.771   3.235  12.137 -0.1474  0.0015 -0.4114
  385TMC3     O 5811   2.862   3.190  12.070  0.0250  0.8377  0.4637
  385TMC3     H 5812   2.723   2.991  12.086 -0.1225  1.7110 -0.1375
  385TMC3    H1 5813   2.739   3.279  12.386 -2.2651  0.2896  0.1262
  385TMC3    H2 5814   2.751   2.869  12.494  2.2381 -1.2658 -1.1914
  385TMC3    C7 5815   2.694   3.118  12.576 -0.0953 -0.2155 -0.1470
  385TMC3    C8 5816   2.826   2.800  12.259 -0.0565 -0.4873 -0.0170
  385TMC3    O1 5817   2.622   3.217  12.568  0.1276 -0.3256  0.3946
  385TMC3    O2 5818   2.907   2.758  12.341 -0.2539 -0.6607  0.3302
  386TMC3    C1 5819   3.330   4.601  11.653  0.7974 -0.4265  0.1681
  386TMC3    C2 5820   3.305   4.684  11.549  0.1768  0.1459 -0.0836
  386TMC3    C3 5821   3.177   4.718  11.513  0.5126 -0.0326  0.3403
  386TMC3    C4 5822   3.229   4.546  11.719 -0.3352  0.0611  0.1992
  386TMC3    C5 5823   3.100   4.578  11.681 -0.8157 -0.0646  0.2701
  386TMC3    C6 5824   3.074   4.652  11.570 -0.1290 -0.2534 -0.2235
  386TMC3     C 5825   3.439   4.647  11.733 -0.2877  0.1202 -0.4374
  386TMC3     O 5826   3.476   0.018  11.700  0.7399 -0.4065  0.0199
  386TMC3     H 5827   3.384   0.001  11.505 -1.9701  1.4304 -2.2332
  386TMC3    H1 5828   3.241   4.489  11.811  1.7973 -0.0901 -0.1824
  386TMC3    H2 5829   2.980   4.705  11.563 -0.8767 -1.2486  2.5248
  386TMC3    C7 5830   3.021   4.627  11.797 -0.5650 -0.4759  0.2889
  386TMC3    C8 5831   3.147   0.119  11.508  0.1831 -0.0593 -0.1689
  386TMC3    O1 5832   3.032   0.004  11.812  0.0649 -1.0194  0.4792
  386TMC3    O2 5833   3.039   0.149  11.466  0.0567  0.0268 -0.2079
  387MPD2     C 5834   0.576   1.315  10.331 -0.4462  0.0449  0.2244
  387MPD2    C1 5835   0.607   1.261  10.458 -0.1308 -0.4664  0.2247
  387MPD2    C2 5836   0.587   1.122  10.476 -0.4684  0.1316 -0.6193
  387MPD2    C3 5837   0.545   1.049  10.367 -0.0530 -0.0302 -0.3333
  387MPD2    C4 5838   0.502   1.107  10.250 -0.7022 -0.0397 -0.1725
  387MPD2    C5 5839   0.525   1.234  10.232  0.1803  0.7325  0.3152
  387MPD2     H 5840   0.635   1.074  10.560 -0.6187  2.3793  0.7503
  387MPD2    H1 5841   0.462   1.050  10.167  0.4125 -0.0813 -0.6849
  387MPD2    H2 5842   0.589   1.420  10.306 -0.9342 -0.4798 -2.2748
  387MPD2    H3 5843   0.488   1.280  10.141  1.1244 -0.2487 -0.5728
  387MPD2     N 5844   0.550   0.912  10.381 -0.3861  0.7593 -0.1709
  387MPD2    H5 5845   0.598   0.885  10.466  1.0697  2.6337 -0.3925
  387MPD2    N1 5846   0.679   1.325  10.561 -0.0437  0.3386 -0.2494
  387MPD2    H7 5847   0.686   1.279  10.652  1.1816 -0.2644 -0.6371
  388TMC3    C1 5848   0.850   1.461  10.649  0.3800  0.9300 -0.5042
  388TMC3    C2 5849   0.919   1.579  10.645 -0.4063 -0.3415  0.0380
  388TMC3    C3 5850   1.037   1.594  10.719  0.2568  0.6194  0.1221
  388TMC3    C4 5851   0.898   1.352  10.718  0.1849  0.8410  0.0623
  388TMC3    C5 5852   1.017   1.372  10.785  0.2630  0.5695  0.2655
  388TMC3    C6 5853   1.085   1.493  10.789  0.2003 -0.2974 -0.6663
  388TMC3     C 5854   0.760   1.432  10.544 -0.0033 -0.0726 -0.0252
  388TMC3     O 5855   0.780   1.500  10.440 -0.0479 -0.2971  0.0857
  388TMC3     H 5856   0.887   1.652  10.572  0.5538 -0.1657 -0.2003
  388TMC3    H1 5857   0.847   1.257  10.710 -0.6380  1.3484 -0.6764
  388TMC3    H2 5858   1.185   1.511  10.826  0.1201 -1.0408 -0.0913
  388TMC3    C7 5859   1.095   1.250  10.800 -0.1369 -0.2958  0.1007
  388TMC3    C8 5860   1.113   1.718  10.715  0.0138 -0.3430 -0.5151
  388TMC3    O1 5861   1.136   1.226  10.910  0.0353 -0.5151 -0.5270
  388TMC3    O2 5862   1.084   1.796  10.629  0.8496 -0.3770 -0.0490
  389MPD2     C 5863   4.673   3.863  11.370 -0.4347  0.4217 -0.1033
  389MPD2    C1 5864   4.624   3.757  11.301  0.3902  0.0493 -0.7852
  389MPD2    C2 5865   4.583   3.645  11.368  0.6467 -0.3682  0.4839
  389MPD2    C3 5866   4.594   3.641  11.506 -0.3311 -0.0176 -0.2552
  389MPD2    C4 5867   4.626   3.755  11.575 -0.1493  0.1806 -0.7840
  389MPD2    C5 5868   4.673   3.861  11.503  0.3165 -0.7054 -0.3174
  389MPD2     H 5869   4.551   3.553  11.320 -3.0095  0.1060  1.9621
  389MPD2    H1 5870   4.624   3.761  11.684  2.4171 -1.8561 -0.5986
  389MPD2    H2 5871   4.705   3.953  11.320 -0.2704  0.7205  0.5339
  389MPD2    H3 5872   4.681   3.953  11.560 -1.1626  0.6106 -2.2290
  389MPD2     N 5873   4.558   3.530  11.586  0.5592  0.4901  0.0853
  389MPD2    H5 5874   4.527   3.550  11.681  0.2459 -1.6625  0.4344
  389MPD2    N1 5875   4.626   3.758  11.162 -0.6894 -0.0794  0.0491
  389MPD2    H7 5876   4.684   3.825  11.113  0.1816  1.4565  3.2150
  390TMC3    C1 5877   4.481   3.320  11.650 -0.3138 -0.8495  0.6160
  390TMC3    C2 5878   4.393   3.227  11.601 -0.6095 -0.3862  0.3902
  390TMC3    C3 5879   4.296   3.185  11.687  0.2517  0.1476 -0.4632
  390TMC3    C4 5880   4.470   3.364  11.784  0.0534  0.1026  0.4089
  390TMC3    C5 5881   4.372   3.317  11.863  0.0331  0.1544 -0.7994
  390TMC3    C6 5882   4.277   3.232  11.820  0.8046  0.1872 -0.1345
  390TMC3     C 5883   4.531   3.405  11.546 -0.3886  0.1657  0.0740
  390TMC3     O 5884   4.527   3.359  11.433  0.0434 -0.1517  0.1495
  390TMC3     H 5885   4.405   3.184  11.502  0.9969 -1.2027  0.9293
  390TMC3    H1 5886   4.542   3.432  11.827 -2.8466  3.2159  0.3750
  390TMC3    H2 5887   4.189   3.209  11.878 -0.4621  0.7019 -1.8328
  390TMC3    C7 5888   4.376   3.356  11.999  0.0695  0.3748 -0.0302
  390TMC3    C8 5889   4.186   3.128  11.615 -0.2902  0.6724 -0.5084
  390TMC3    O1 5890   4.481   3.412  12.040  0.5268 -0.2230  0.7006
  390TMC3    O2 5891   4.195   3.083  11.499  1.1152  0.2515  0.1421
  391MPD2     C 5892   4.123   0.230  11.039  0.3850  0.4039  0.1398
  391MPD2    C1 5893   4.227   0.313  11.083  0.9762  0.7279 -0.5331
  391MPD2    C2 5894   4.300   0.388  10.994 -0.5193  0.2128 -0.6845
  391MPD2    C3 5895   4.274   0.389  10.859  0.5003  0.0735 -0.3069
  391MPD2    C4 5896   4.181   0.297  10.818 -0.3131  0.6358  0.1294
  391MPD2    C5 5897   4.106   0.227  10.906 -0.2421  0.6024 -0.4856
  391MPD2     H 5898   4.373   0.462  11.026 -2.0671  0.6521  1.8415
  391MPD2    H1 5899   4.150   0.285  10.715  0.0603 -1.5865  0.2724
  391MPD2    H2 5900   4.063   0.163  11.099 -0.4318 -0.7360 -1.9250
  391MPD2    H3 5901   4.016   0.172  10.878  1.0456 -0.7414 -1.9802
  391MPD2     N 5902   4.331   0.486  10.772 -0.0629 -0.3024  0.0087
  391MPD2    H5 5903   4.392   0.548  10.825 -1.7180  0.3753  1.0981
  391MPD2    N1 5904   4.257   0.315  11.223  0.2635  0.1989  0.0767
  391MPD2    H7 5905   4.201   0.257  11.285 -1.3906  1.6225 -0.0744
  392TMC3    C1 5906   4.368   0.616  10.586 -0.6408 -0.2060  0.5668
  392TMC3    C2 5907   4.367   0.639  10.453 -1.0822 -0.2699  0.5487
  392TMC3    C3 5908   4.432   0.742  10.403  0.0407 -0.3558  0.1666
  392TMC3    C4 5909   4.417   0.707  10.670  0.1409 -0.2006  0.0924
  392TMC3    C5 5910   4.487   0.813  10.620 -0.4749 -0.0501  0.5829
  392TMC3    C6 5911   4.504   0.826  10.479 -0.2963  0.0237  0.0032
  392TMC3     C 5912   4.300   0.498  10.635 -0.2918  0.7450  0.9497
  392TMC3     O 5913   4.222   0.440  10.561  0.3069 -0.2725 -0.0249
  392TMC3     H 5914   4.284   0.589  10.404 -0.6677 -0.0296 -0.4027
  392TMC3    H1 5915   4.409   0.697  10.778  1.4419 -0.8399  0.1273
  392TMC3    H2 5916   4.567   0.904  10.437  1.5798 -0.9745  0.9813
  392TMC3    C7 5917   4.529   0.918  10.704  0.8118 -0.2496 -0.2718
  392TMC3    C8 5918   4.406   0.769  10.264  0.2575  0.0658 -0.1683
  392TMC3    O1 5919   4.531   0.903  10.825 -0.2522  0.5377 -0.5589
  392TMC3    O2 5920   4.338   0.692  10.201  0.2941 -0.2813  0.0885
  393TMC3    C1 5921   3.182   3.589  10.974 -0.4170  0.1071  0.2171
  393TMC3    C2 5922   3.088   3.575  11.062  0.3119  0.1919  0.8071
  393TMC3    C3 5923   3.008   3.469  11.058  1.2363  0.5708  0.6860
  393TMC3    C4 5924   3.201   3.495  10.874  0.3912 -0.7804 -0.4799
  393TMC3    C5 5925   3.124   3.378  10.877  0.5928 -0.5268 -0.7393
  393TMC3    C6 5926   3.027   3.367  10.968 -0.2016 -0.1320  0.2633
  393TMC3     C 5927   3.234   3.722  10.925  0.2019  0.1454  0.1323
  393TMC3     O 5928   3.246   3.736  10.805 -0.2952 -0.0598 -0.2618
  393TMC3     H 5929   3.070   3.652  11.136 -2.2343 -0.5069  0.8916
  393TMC3    H1 5930   3.266   3.517  10.790  3.1188 -3.8594  0.8121
  393TMC3    H2 5931   2.968   3.275  10.965  0.3000 -0.3932 -1.9810
  393TMC3    C7 5932   3.138   3.270  10.774  0.3429 -0.3413  0.1726
  393TMC3    C8 5933   2.897   3.451  11.151  0.1861  0.7381 -0.3067
  393TMC3    O1 5934   3.062   3.172  10.779  0.2215  0.6738  0.6806
  393TMC3    O2 5935   2.823   3.355  11.128  0.0418 -0.0109 -0.0011
  394TMC3    C1 5936   4.576   3.698  10.938 -0.2992  0.4060  0.0275
  394TMC3    C2 5937   4.474   3.663  10.858 -0.5106  0.1680  0.0428
  394TMC3    C3 5938   4.479   3.695  10.726  0.3323 -0.1746 -0.2232
  394TMC3    C4 5939   4.692   3.755  10.890 -0.0209 -0.6403 -0.0768
  394TMC3    C5 5940   4.691   3.781  10.755  0.1032  0.0108  0.0072
  394TMC3    C6 5941   4.583   3.759  10.675 -0.4188  0.0617  0.1429
  394TMC3     C 5942   4.555   3.676  11.082 -0.2907 -0.0671  0.3422
  394TMC3     O 5943   4.461   3.604  11.114  0.0615  0.4297 -0.0801
  394TMC3     H 5944   4.378   3.632  10.897 -1.0361  1.1580 -0.4823
  394TMC3    H1 5945   0.034   3.762  10.958 -0.3215  1.1070  0.0946
  394TMC3    H2 5946   4.583   3.804  10.576 -1.9612  1.4733  0.7930
  394TMC3    C7 5947   0.058   3.855  10.696  0.7965 -0.0043 -0.5441
  394TMC3    C8 5948   4.346   3.728  10.665  0.6271  0.7009  1.4221
  394TMC3    O1 5949   0.045   3.907  10.587 -0.1144  0.1613 -0.3722
  394TMC3    O2 5950   4.254   3.719  10.746 -0.8619 -0.4674  0.0101
  395TMC3    C1 5951   4.090   0.276  14.942 -0.3980  0.9431 -0.7571
  395TMC3    C2 5952   3.967   0.331  14.950  0.7925 -0.2012  0.0723
  395TMC3    C3 5953   3.946   0.461  14.906  0.7449 -0.0451 -0.2396
  395TMC3    C4 5954   4.193   0.349  14.893  0.4610  0.1835  0.4622
  395TMC3    C5 5955   4.169   0.479  14.861  0.2587 -0.2812 -0.3513
  395TMC3    C6 5956   4.048   0.544  14.866  0.1620  0.1041  0.1713
  395TMC3     C 5957   4.131   0.198  15.059  0.0867 -0.0908 -0.0195
  395TMC3     O 5958   4.042   0.189  15.142  0.3708 -0.2671  0.6452
  395TMC3     H 5959   3.892   0.263  14.989  0.1082  0.0913 -0.7182
  395TMC3    H1 5960   4.295   0.312  14.890  0.5732  0.4936  0.4122
  395TMC3    H2 5961   4.030   0.646  14.834  1.6966  0.3502  0.1375
  395TMC3    C7 5962   4.285   0.552  14.829  0.2655  0.4045  0.5412
  395TMC3    C8 5963   3.822   0.528  14.927 -0.2134  1.3288 -1.0522
  395TMC3    O1 5964   4.291   0.672  14.869  0.2118 -0.0706 -0.0252
  395TMC3    O2 5965   3.799   0.629  14.858 -0.1323  0.0929  0.1423
  396MPD2     C 5966   4.108   1.249  17.200  0.0280  0.2856  1.1318
  396MPD2    C1 5967   4.198   1.355  17.215 -0.0601  0.1109  0.1925
  396MPD2    C2 5968   4.206   1.461  17.122 -0.3296  0.0789  0.0772
  396MPD2    C3 5969   4.113   1.469  17.020  0.0894 -0.2014 -0.0860
  396MPD2    C4 5970   4.039   1.352  16.990 -0.2880  0.3724  0.0436
  396MPD2    C5 5971   4.039   1.247  17.083  0.5746 -0.5273 -0.9906
  396MPD2     H 5972   4.276   1.543  17.133 -1.2119  1.1332 -2.2060
  396MPD2    H1 5973   3.969   1.357  16.907  0.8645  0.2051 -0.9410
  396MPD2    H2 5974   4.104   1.157  17.257  2.4596 -0.2500  0.4374
  396MPD2    H3 5975   3.982   1.155  17.071  1.4196 -0.6743 -3.7620
  396MPD2     N 5976   4.100   1.589  16.953 -0.1403  0.1643  0.3538
  396MPD2    H5 5977   4.152   1.663  16.998 -1.4771  1.0560  0.4021
  396MPD2    N1 5978   4.299   1.359  17.319 -0.4647  0.3534 -0.3771
  396MPD2    H7 5979   4.371   1.429  17.310  0.1354 -0.2083  0.0809
  397TMC3    C1 5980   4.440   1.269  17.481  0.2972 -1.3633  0.5457
  397TMC3    C2 5981   4.538   1.293  17.386  0.2254 -0.4262 -0.1799
  397TMC3    C3 5982   4.637   1.203  17.373  0.1421  0.0239 -0.1242
  397TMC3    C4 5983   4.443   1.153  17.559 -0.6840 -0.5471 -0.6545
  397TMC3    C5 5984   4.543   1.064  17.535  0.1409 -0.3825 -0.3384
  397TMC3    C6 5985   4.631   1.081  17.431 -0.0861  0.8352  0.1341
  397TMC3     C 5986   4.315   1.257  17.408 -0.3109 -0.4886 -0.1543
  397TMC3     O 5987   4.253   1.152  17.422  0.7917 -0.7155  0.1186
  397TMC3     H 5988   4.571   1.394  17.365 -1.9380 -0.3321 -3.2584
  397TMC3    H1 5989   4.365   1.127  17.630 -0.6106  1.0780  0.0212
  397TMC3    H2 5990   4.705   1.003  17.412  0.1769  1.3170 -0.8456
  397TMC3    C7 5991   4.532   0.926  17.584  0.3746  0.1417  0.4142
  397TMC3    C8 5992   0.024   1.219  17.316 -0.6137  0.0595  0.6448
  397TMC3    O1 5993   4.568   0.834  17.520 -0.0882 -0.3080  0.3583
  397TMC3    O2 5994   0.105   1.150  17.373  0.5854 -0.2724 -0.1795
  398MPD2     C 5995   2.193   3.306   0.372  0.4259  0.3895  0.2988
  398MPD2    C1 5996   2.291   3.219   0.401  0.0233 -0.2560 -0.1312
  398MPD2    C2 5997   2.420   3.263   0.422  0.1136  0.0619 -0.5792
  398MPD2    C3 5998   2.455   3.392   0.391  0.2093  0.4023  0.1625
  398MPD2    C4 5999   2.361   3.485   0.358 -0.2810  0.4258 -0.4844
  398MPD2    C5 6000   2.231   3.438   0.344  0.4410 -0.7419  0.2114
  398MPD2     H 6001   2.498   3.194   0.450  0.2519  0.4658  0.0340
  398MPD2    H1 6002   2.388   3.589   0.345  0.0866  0.3628 -0.2226
  398MPD2    H2 6003   2.087   3.286   0.367  0.5704 -0.8995  2.1272
  398MPD2    H3 6004   2.150   3.501   0.311  2.3820  0.6707 -1.9083
  398MPD2     N 6005   2.594   3.420   0.416 -0.0531 -0.9630 -0.2551
  398MPD2    H5 6006   2.658   3.348   0.449  0.6355  0.4395  1.5425
  398MPD2    N1 6007   2.261   3.088   0.433 -0.0343  0.0632  1.1481
  398MPD2    H7 6008   2.337   3.044   0.483  1.0058 -2.6322 -2.8160
  399TMC3    C1 6009   2.176   2.879   0.459 -1.1418  0.2487  1.5620
  399TMC3    C2 6010   2.255   2.876   0.573  0.2357  0.6164  0.3288
  399TMC3    C3 6011   2.279   2.755   0.625 -0.3252  0.2514  0.5525
  399TMC3    C4 6012   2.152   2.769   0.383 -0.5573  0.9492  0.1865
  399TMC3    C5 6013   2.182   2.646   0.441 -0.1373  0.0532 -0.3263
  399TMC3    C6 6014   2.244   2.641   0.559  0.2226  0.0028 -1.0851
  399TMC3     C 6015   2.153   3.009   0.401 -0.0578 -0.2344 -0.2777
  399TMC3     O 6016   2.054   3.025   0.336 -0.1106  0.1623 -0.1389
  399TMC3     H 6017   2.237   2.956   0.643  0.6855 -0.0752  1.2240
  399TMC3    H1 6018   2.090   2.776   0.294  1.1129 -1.1265 -1.1240
  399TMC3    H2 6019   2.263   2.545   0.607  0.9307 -0.1626 -1.6968
  399TMC3    C7 6020   2.184   2.517   0.371 -0.4804  0.4688  0.3626
  399TMC3    C8 6021   2.282   2.739   0.770 -0.6000  0.3344 -0.0093
  399TMC3    O1 6022   2.233   2.419   0.427 -0.4475  0.0085  0.0890
  399TMC3    O2 6023   2.280   2.621   0.808  0.0338 -0.4595  0.4371
  400TMC3    C1 6024   0.884   1.153  16.933 -0.9368 -0.0878  0.2757
  400TMC3    C2 6025   0.782   1.111  16.850 -0.4149 -0.3615 -0.3661
  400TMC3    C3 6026   0.677   1.194  16.820 -0.4924  0.2883 -0.1062
  400TMC3    C4 6027   0.896   1.285  16.981 -0.6996 -0.6056  1.1030
  400TMC3    C5 6028   0.803   1.366  16.931 -0.1495  0.3322 -0.1161
  400TMC3    C6 6029   0.693   1.326  16.850  0.2603  0.4129 -0.5853
  400TMC3     C 6030   0.974   1.054  16.984 -0.1532 -0.8218  0.6707
  400TMC3     O 6031   0.950   0.933  16.955 -0.4614  0.0469  0.6575
  400TMC3     H 6032   0.769   1.004  16.836 -1.8248 -0.3970  1.2419
  400TMC3    H1 6033   0.976   1.312  17.049  0.7851  2.4647 -1.9298
  400TMC3    H2 6034   0.632   1.398  16.796  0.4905  1.2372  0.2557
  400TMC3    C7 6035   0.827   1.509  16.965 -0.4228 -0.1382  0.9073
  400TMC3    C8 6036   0.540   1.143  16.783  0.4802 -0.5342 -0.1388
  400TMC3    O1 6037   0.937   1.533  17.005 -0.5221  0.2704  0.2044
  400TMC3    O2 6038   0.454   1.229  16.798 -0.0601 -0.2486  0.1084
  401MPD2     C 6039   3.397   4.382   1.079 -0.0233  0.5199  0.1948
  401MPD2    C1 6040   3.493   4.336   0.987 -0.3371 -0.1243 -0.4098
  401MPD2    C2 6041   3.535   4.207   0.994  0.5269  0.2947  0.5337
  401MPD2    C3 6042   3.481   4.120   1.085 -0.6121 -0.1500 -0.4017
  401MPD2    C4 6043   3.391   4.165   1.174 -0.8323  0.0658  0.0231
  401MPD2    C5 6044   3.344   4.294   1.167  0.0799 -0.4159 -0.8243
  401MPD2     H 6045   3.614   4.169   0.930 -0.5988 -0.8161 -0.1962
  401MPD2    H1 6046   3.357   4.098   1.253  2.2899 -3.2960 -1.4686
  401MPD2    H2 6047   3.370   4.486   1.077 -2.4537 -0.2052 -3.4241
  401MPD2    H3 6048   3.257   4.315   1.228  1.2071 -2.1348  1.3658
  401MPD2     N 6049   3.544   3.993   1.083 -0.4644  0.1210  0.6966
  401MPD2    H5 6050   3.599   3.979   0.999 -2.3402  1.1459 -0.7168
  401MPD2    N1 6051   3.558   4.425   0.899 -0.2631  0.1091 -0.0586
  401MPD2    H7 6052   3.620   4.374   0.837 -1.9020 -1.8848 -0.0516
  402TMC3    C1 6053   3.604   3.783   1.154 -0.4217  0.2013 -0.0550
  402TMC3    C2 6054   3.679   3.722   1.251  0.5539 -0.8759  0.1786
  402TMC3    C3 6055   3.777   3.631   1.224  0.4388 -0.1896  0.0904
  402TMC3    C4 6056   3.622   3.741   1.022 -0.7171  0.0151  0.1953
  402TMC3    C5 6057   3.727   3.659   0.997 -0.3213  0.1617 -0.0949
  402TMC3    C6 6058   3.811   3.602   1.092 -0.3677  0.1795 -0.4622
  402TMC3     C 6059   3.541   3.905   1.191 -0.1923  0.2610 -0.0464
  402TMC3     O 6060   3.498   3.923   1.306  0.3904 -0.0746 -0.0168
  402TMC3     H 6061   3.665   3.747   1.355 -1.7550 -1.5123  0.0019
  402TMC3    H1 6062   3.547   3.772   0.950  0.5890  0.7028 -0.8859
  402TMC3    H2 6063   3.891   3.531   1.078  2.3406  3.0185  0.5886
  402TMC3    C7 6064   3.740   3.598   0.869  0.0221 -0.7507 -0.2811
  402TMC3    C8 6065   3.859   3.564   1.325  0.1945  0.8975  0.3276
  402TMC3    O1 6066   3.644   3.587   0.799 -0.1841 -0.0053 -0.1118
  402TMC3    O2 6067   3.932   3.470   1.298  0.2334  0.2587 -0.1708
  403MPD2     C 6068   2.256   3.100  13.383  0.1536  0.1908 -0.3789
  403MPD2    C1 6069   2.286   2.987  13.445 -0.3160 -0.9225  0.3996
  403MPD2    C2 6070   2.394   2.979  13.524 -0.5473  0.1579 -0.3211
  403MPD2    C3 6071   2.476   3.088  13.556 -0.4012 -0.3751  0.1051
  403MPD2    C4 6072   2.440   3.210  13.490 -0.3885  0.1735  0.0880
  403MPD2    C5 6073   2.327   3.209  13.410  0.1547 -0.5268  0.2176
  403MPD2     H 6074   2.414   2.887  13.579 -2.0294  0.7186  1.1580
  403MPD2    H1 6075   2.494   3.300  13.519 -0.4192  0.4235 -0.6516
  403MPD2    H2 6076   2.160   3.107  13.333  0.1286  1.3985 -0.1586
  403MPD2    H3 6077   2.302   3.307  13.371 -0.2725 -0.7479 -0.0705
  403MPD2     N 6078   2.582   3.077  13.648  0.4343  0.6073  0.2382
  403MPD2    H5 6079   2.601   2.983  13.682 -1.1053 -0.4357 -1.7830
  403MPD2    N1 6080   2.187   2.886  13.437 -0.2577 -0.0484  0.9890
  403MPD2    H7 6081   2.119   2.897  13.363 -0.4928  0.7984  1.3297
  404TMC3    C1 6082   2.097   2.666  13.442  0.0554 -0.7858  0.4893
  404TMC3    C2 6083   2.041   2.574  13.521  0.5285  0.3971 -0.1330
  404TMC3    C3 6084   1.966   2.479  13.461  0.6210 -0.5543  0.1297
  404TMC3    C4 6085   2.088   2.669  13.309  0.4221  0.6156  0.0665
  404TMC3    C5 6086   2.007   2.573  13.250 -1.0502  0.6581 -0.0516
  404TMC3    C6 6087   1.946   2.480  13.328  0.5766  0.7579 -0.5410
  404TMC3     C 6088   2.186   2.763  13.506 -0.9903 -0.7649 -0.1821
  404TMC3     O 6089   2.236   2.731  13.612  0.1522 -0.0276  0.3043
  404TMC3     H 6090   2.073   2.571  13.624 -0.5587  2.8608  0.2797
  404TMC3    H1 6091   2.142   2.745  13.254  2.2255 -1.4267 -1.0204
  404TMC3    H2 6092   1.890   2.398  13.286  1.1439 -1.1271  2.4050
  404TMC3    C7 6093   1.949   2.605  13.114 -0.1166 -0.2070  0.4689
  404TMC3    C8 6094   1.958   2.353  13.527 -0.4228 -0.2773  0.0588
  404TMC3    O1 6095   2.004   2.686  13.045  0.2111  0.0788  0.2285
  404TMC3    O2 6096   1.968   2.255  13.459 -0.4954  0.1765  0.0163
  405MPD2     C 6097   2.680   3.114  15.414  0.3412 -0.2690  0.7110
  405MPD2    C1 6098   2.625   2.999  15.353 -0.2840 -0.3339 -0.8706
  405MPD2    C2 6099   2.577   2.994  15.224  0.1278 -0.1379 -1.1168
  405MPD2    C3 6100   2.586   3.116  15.154  0.5446  0.4323 -0.0006
  405MPD2    C4 6101   2.640   3.232  15.209  0.0020  0.6278  0.4606
  405MPD2    C5 6102   2.690   3.226  15.339 -0.0533  0.0244  0.0590
  405MPD2     H 6103   2.537   2.907  15.172 -0.1878 -0.9976  0.5802
  405MPD2    H1 6104   2.633   3.328  15.159  1.0857  0.0924 -0.7257
  405MPD2    H2 6105   2.698   3.118  15.521  0.4899 -0.4756  0.6929
  405MPD2    H3 6106   2.732   3.316  15.383  2.6760 -1.4551  0.4763
  405MPD2     N 6107   2.510   3.116  15.037 -0.3145  0.0497 -0.4435
  405MPD2    H5 6108   2.473   3.022  15.020 -0.9121  0.5838 -2.0688
  405MPD2    N1 6109   2.609   2.882  15.426 -0.4454  0.5553 -0.5693
  405MPD2    H7 6110   2.557   2.812  15.374  0.7559 -0.4697 -0.4152
  406TMC3    C1 6111   2.130   3.277  14.808  0.0102  0.4729 -1.0127
  406TMC3    C2 6112   2.082   3.149  14.793 -1.0430  0.1842  0.3798
  406TMC3    C3 6113   2.160   3.043  14.826 -0.5170 -0.1227 -0.6360
  406TMC3    C4 6114   2.258   3.301  14.849 -0.0071 -0.7584 -0.5145
  406TMC3    C5 6115   2.338   3.190  14.884  0.3268 -0.7501  0.7160
  406TMC3    C6 6116   2.293   3.063  14.869  0.3728  0.3479 -0.2382
  406TMC3     C 6117   2.032   3.382  14.837 -0.1507  0.1666 -0.2269
  406TMC3     O 6118   2.071   3.495  14.825 -0.1671  0.3926  0.1888
  406TMC3     H 6119   1.996   3.128  14.731 -0.8113  1.7618 -0.4769
  406TMC3    H1 6120   2.296   3.402  14.835 -0.5377 -0.5514 -0.4457
  406TMC3    H2 6121   2.362   2.980  14.881  1.6409  1.4092 -0.1784
  406TMC3    C7 6122   2.459   3.224  14.964  0.6587 -0.3501 -1.2907
  406TMC3    C8 6123   2.081   2.945  14.901  0.1683  0.2862 -0.9224
  406TMC3    O1 6124   2.496   3.342  14.972 -0.4691 -0.5251 -0.6420
  406TMC3    O2 6125   1.975   2.993  14.941  0.4606 -0.0052 -0.2150
  407MPD2     C 6126   0.016   0.600  10.407  1.1722 -0.0359 -0.3562
  407MPD2    C1 6127   0.104   0.681  10.343 -0.3607  0.6151  0.2414
  407MPD2    C2 6128   0.153   0.790  10.419 -0.7039 -0.2248  0.0507
  407MPD2    C3 6129   0.130   0.805  10.553  0.1672  0.5406 -0.2146
  407MPD2    C4 6130   0.071   0.702  10.617 -0.2464 -0.7321 -0.2957
  407MPD2    C5 6131   0.010   0.597  10.544  0.4350 -0.1678  0.7985
  407MPD2     H 6132   0.203   0.868  10.362  1.7944 -1.1786  0.9240
  407MPD2    H1 6133   0.085   0.697  10.724 -0.6564  0.5963 -0.1824
  407MPD2    H2 6134   4.724   0.516  10.348  0.2999  0.1640 -0.1423
  407MPD2    H3 6135   4.691   0.525  10.599 -0.4072  1.1315  1.5782
  407MPD2     N 6136   0.186   0.908  10.629  0.3716 -0.5692 -0.0477
  407MPD2    H5 6137   0.205   0.897  10.728  1.1229 -1.4931 -0.2909
  407MPD2    N1 6138   0.135   0.676  10.207 -0.4263  0.0167  0.5076
  407MPD2    H7 6139   0.196   0.746  10.166 -3.7720  3.3659  1.2027
  408TMC3    C1 6140   0.141   0.603   9.982  0.3267 -0.1569  0.2575
  408TMC3    C2 6141   0.272   0.641   9.973 -1.3809 -0.1497  0.1684
  408TMC3    C3 6142   0.328   0.610   9.851 -0.2259 -1.0619  0.2360
  408TMC3    C4 6143   0.078   0.533   9.883  0.5071 -0.2155 -1.2660
  408TMC3    C5 6144   0.143   0.497   9.769 -0.3651  0.5176  0.8244
  408TMC3    C6 6145   0.273   0.532   9.758  1.0355 -0.3279  0.1978
  408TMC3     C 6146   0.074   0.601  10.113 -0.0364  0.0343  0.3327
  408TMC3     O 6147   4.710   0.535  10.127 -0.5371 -0.0207 -0.7129
  408TMC3     H 6148   0.342   0.680  10.046  0.7104 -0.0433 -1.8987
  408TMC3    H1 6149   4.714   0.514   9.899  0.7670  0.0051  0.7221
  408TMC3    H2 6150   0.329   0.502   9.670  1.7754 -0.2025  0.6246
  408TMC3    C7 6151   0.068   0.493   9.644 -0.1736 -0.4243 -0.4800
  408TMC3    C8 6152   0.467   0.617   9.838  0.1553 -0.6153 -0.2970
  408TMC3    O1 6153   0.125   0.498   9.536 -0.7936  0.1474  0.4200
  408TMC3    O2 6154   0.524   0.514   9.813 -0.5194  0.0935 -0.7929
  409MPD2     C 6155   4.440   0.412  17.085  0.0650 -0.0050  0.7302
  409MPD2    C1 6156   4.551   0.444  17.159  0.7969  0.0185 -0.1714
  409MPD2    C2 6157   4.613   0.568  17.144  0.0210  0.6867  0.2841
  409MPD2    C3 6158   4.577   0.660  17.043 -0.5352  0.4594  0.6532
  409MPD2    C4 6159   4.466   0.615  16.965  0.3993 -0.2773 -0.3397
  409MPD2    C5 6160   4.396   0.505  16.997  0.0281 -0.1910  1.2290
  409MPD2     H 6161   4.690   0.595  17.215  0.3844 -0.0518  0.1598
  409MPD2    H1 6162   4.438   0.668  16.875  1.6438  0.3679 -0.3521
  409MPD2    H2 6163   4.384   0.320  17.094 -2.1517  1.2670 -0.1634
  409MPD2    H3 6164   4.300   0.485  16.950 -1.4535  0.5246  3.9318
  409MPD2     N 6165   4.637   0.783  17.010  0.7712  0.1709 -0.0430
  409MPD2    H5 6166   4.602   0.823  16.924  1.9270 -2.2850 -1.6391
  409MPD2    N1 6167   4.595   0.353  17.261 -0.6156 -0.2140  0.0753
  409MPD2    H7 6168   4.659   0.388  17.331  0.3549  0.4263 -1.1274
  410TMC3    C1 6169   0.049   0.968  17.013 -0.1526 -0.2467  0.1618
  410TMC3    C2 6170   0.162   1.030  17.053 -0.0007  0.2062  0.0800
  410TMC3    C3 6171   0.194   1.155  17.007  0.5351 -0.2676  0.2042
  410TMC3    C4 6172   4.707   1.031  16.928  0.9869 -0.2730 -0.8178
  410TMC3    C5 6173   4.737   1.154  16.884 -0.1652 -0.6113 -0.2207
  410TMC3    C6 6174   0.106   1.224  16.935 -0.9149 -0.8457 -0.4341
  410TMC3     C 6175   4.741   0.845  17.078  0.3693  0.2134 -0.6247
  410TMC3     O 6176   0.064   0.795  17.171 -0.1145  0.0930  0.8704
  410TMC3     H 6177   0.217   0.994  17.139 -0.0463  0.2193  0.1142
  410TMC3    H1 6178   4.610   0.990  16.900  0.7882 -0.7861  0.6016
  410TMC3    H2 6179   0.148   1.312  16.888  0.3369 -0.9843  0.4323
  410TMC3    C7 6180   4.676   1.178  16.753 -0.0145 -0.5804 -0.1923
  410TMC3    C8 6181   0.317   1.220  17.055  1.0115 -0.7095  0.5777
  410TMC3    O1 6182   4.587   1.101  16.713  0.0996 -0.2487  0.0129
  410TMC3    O2 6183   0.306   1.338  17.085 -0.4215  0.0613  0.0568
  411MPD2     C 6184   4.577   1.186  14.348 -0.0872 -1.3973  0.0283
  411MPD2    C1 6185   4.573   1.201  14.484  0.8124  0.0801 -0.4109
  411MPD2    C2 6186   4.509   1.106  14.565 -0.3740  0.1053  0.5156
  411MPD2    C3 6187   4.466   0.987  14.506  0.6570  0.4897 -0.1650
  411MPD2    C4 6188   4.490   0.971  14.377  0.1043 -0.4281  0.0417
  411MPD2    C5 6189   4.534   1.066  14.294 -0.1533  0.1676  0.3148
  411MPD2     H 6190   4.482   1.134  14.666 -2.5916  0.9996 -0.3402
  411MPD2    H1 6191   4.437   0.891  14.328 -2.3019  0.3291  1.3959
  411MPD2    H2 6192   4.619   1.269  14.292 -0.0396 -0.9884  0.6751
  411MPD2    H3 6193   4.548   1.055  14.187  0.1463  0.1358  0.3570
  411MPD2     N 6194   4.369   0.899  14.554  0.6925  0.2801  0.3102
  411MPD2    H5 6195   4.329   0.831  14.490 -0.8133 -1.2164  2.8475
  411MPD2    N1 6196   4.601   1.330  14.528  0.1138 -0.6457 -0.3005
  411MPD2    H7 6197   4.627   1.400  14.459  0.7001  0.8338  1.4120
  412TMC3    C1 6198   4.166   0.856  14.653  0.0324 -0.1088 -0.4396
  412TMC3    C2 6199   4.073   0.951  14.680  0.0962  0.2790 -0.7108
  412TMC3    C3 6200   3.951   0.937  14.621 -0.3602  0.1887  0.3425
  412TMC3    C4 6201   4.146   0.758  14.554 -0.1154 -0.2677 -0.6127
  412TMC3    C5 6202   4.026   0.753  14.488  1.1400  0.1317  0.0764
  412TMC3    C6 6203   3.929   0.838  14.529  0.1355 -0.2653  0.3067
  412TMC3     C 6204   4.301   0.906  14.674 -1.1277 -0.0263  0.3229
  412TMC3     O 6205   4.321   0.984  14.764  0.1857 -0.0954  0.0124
  412TMC3     H 6206   4.101   1.032  14.746  0.2935  0.2492 -0.7558
  412TMC3    H1 6207   4.230   0.694  14.529  0.7333  0.4150  0.4818
  412TMC3    H2 6208   3.836   0.830  14.473  0.5722  1.9405 -0.7593
  412TMC3    C7 6209   4.036   0.760  14.350  0.1822 -0.0531 -0.1420
  412TMC3    C8 6210   3.899   1.061  14.575 -0.0644 -0.1187  0.3596
  412TMC3    O1 6211   3.959   0.838  14.297  0.1967 -0.4042  0.1920
  412TMC3    O2 6212   3.975   1.157  14.581  0.5304  0.4319 -0.3861
  413MPD2     C 6213   1.412   4.378  15.855 -0.4442  0.5620  0.0851
  413MPD2    C1 6214   1.346   4.355  15.737 -0.7597 -0.5679  0.5108
  413MPD2    C2 6215   1.409   4.330  15.617 -0.1204  1.1867 -0.3961
  413MPD2    C3 6216   1.545   4.320  15.617  1.0910  0.1007  0.4591
  413MPD2    C4 6217   1.607   4.317  15.736 -0.1355  0.1469  0.2521
  413MPD2    C5 6218   1.545   4.351  15.848  0.1286  0.8462  0.3414
  413MPD2     H 6219   1.356   4.298  15.528  0.2590 -0.1438 -0.1481
  413MPD2    H1 6220   1.715   4.302  15.731 -0.2306  0.0459 -1.3790
  413MPD2    H2 6221   1.363   4.414  15.945  0.5206 -0.7971  1.1671
  413MPD2    H3 6222   1.608   4.372  15.933 -0.7025  1.5488  0.7896
  413MPD2     N 6223   1.604   4.284  15.491 -0.3252  0.0910 -0.9297
  413MPD2    H5 6224   1.535   4.261  15.420 -0.8476 -3.0278  0.5427
  413MPD2    N1 6225   1.209   4.372  15.745  0.0877  0.8522 -0.2651
  413MPD2    H7 6226   1.163   4.391  15.833 -0.5347 -1.2507 -0.1566
  414TMC3    C1 6227   1.746   4.188  15.335 -0.0370  1.0215 -0.5203
  414TMC3    C2 6228   1.814   4.074  15.367  0.1210 -0.1627 -0.0236
  414TMC3    C3 6229   1.803   3.968  15.289 -0.3455  0.2868  0.0323
  414TMC3    C4 6230   1.675   4.198  15.219 -0.4292  0.7609  0.6394
  414TMC3    C5 6231   1.682   4.088  15.132 -0.0262 -0.0295  1.0382
  414TMC3    C6 6232   1.737   3.969  15.171  0.3284 -0.0762  0.2167
  414TMC3     C 6233   1.731   4.273  15.459  0.6937  0.1479  0.1200
  414TMC3     O 6234   1.826   4.281  15.539 -0.3758 -0.0669 -0.0785
  414TMC3     H 6235   1.831   4.071  15.474  1.0760 -0.4122 -0.1864
  414TMC3    H1 6236   1.637   4.291  15.178  0.0523  0.6787  0.0228
  414TMC3    H2 6237   1.714   3.881  15.113  0.2412  0.2168 -0.1954
  414TMC3    C7 6238   1.575   4.090  15.037  0.6559  0.5415  0.0148
  414TMC3    C8 6239   1.890   3.853  15.310  0.8352  0.3680  0.3459
  414TMC3    O1 6240   1.483   4.165  15.081 -0.5244  0.2678  0.0618
  414TMC3    O2 6241   1.866   3.754  15.244 -0.0716 -0.0552 -0.0822
  415TMC3    C1 6242   2.309   2.619  10.916  0.5446 -0.4639 -1.1897
  415TMC3    C2 6243   2.305   2.752  10.948  0.0202  0.2327  0.2416
  415TMC3    C3 6244   2.350   2.841  10.849  0.8421  0.0225 -0.0603
  415TMC3    C4 6245   2.361   2.570  10.799  0.9732 -0.6136 -0.4522
  415TMC3    C5 6246   2.406   2.664  10.708  0.1176  0.5331  0.4161
  415TMC3    C6 6247   2.405   2.799  10.736  0.0586 -0.3226  0.3144
  415TMC3     C 6248   2.269   2.516  11.008  0.2163  0.2716 -0.1606
  415TMC3     O 6249   2.277   2.399  10.965 -0.3771 -0.3936  0.6870
  415TMC3     H 6250   2.257   2.793  11.037  3.6148  1.8692  1.4050
  415TMC3    H1 6251   2.385   2.465  10.790 -3.4906 -1.4743 -2.2265
  415TMC3    H2 6252   2.440   2.857  10.651 -0.8346 -0.6604 -0.2885
  415TMC3    C7 6253   2.479   2.615  10.592  0.4294 -0.6090 -0.0993
  415TMC3    C8 6254   2.317   2.985  10.866 -0.4414 -0.2237 -1.0364
  415TMC3    O1 6255   2.569   2.687  10.544 -0.2034  0.0663 -0.3856
  415TMC3    O2 6256   2.222   3.014  10.937 -0.1588  0.1225  0.0945
  416MPD2     C 6257   4.137   1.464  11.708  0.1565 -0.0560  0.9791
  416MPD2    C1 6258   4.009   1.459  11.654 -0.2895  0.0624  0.8382
  416MPD2    C2 6259   3.986   1.361  11.558 -0.2445 -0.3252  0.0958
  416MPD2    C3 6260   4.081   1.266  11.518  0.1259 -0.0273  0.1815
  416MPD2    C4 6261   4.212   1.287  11.561  0.3699 -0.1766  0.3963
  416MPD2    C5 6262   4.232   1.379  11.661  0.2059 -0.2973 -0.2747
  416MPD2     H 6263   3.883   1.342  11.529 -0.5177 -0.4160  1.1485
  416MPD2    H1 6264   4.292   1.215  11.542 -1.4052 -2.0284 -0.0735
  416MPD2    H2 6265   4.160   1.537  11.785  1.3923 -0.3897  0.9279
  416MPD2    H3 6266   4.330   1.391  11.706 -0.1156 -2.6847  1.0804
  416MPD2     N 6267   4.031   1.151  11.452  0.3930  0.8475 -0.2835
  416MPD2    H5 6268   3.930   1.145  11.445  0.3060  1.7120  0.1614
  416MPD2    N1 6269   3.911   1.545  11.718 -0.2457  0.3152 -0.5202
  416MPD2    H7 6270   3.927   1.589  11.808 -0.2454 -0.4190 -0.1573
  417TMC3    C1 6271   3.712   1.665  11.731  0.4752 -0.2427 -0.3960
  417TMC3    C2 6272   3.722   1.655  11.873 -0.5707  0.4506  0.4194
  417TMC3    C3 6273   3.622   1.722  11.940  0.5067  0.6021  1.1580
  417TMC3    C4 6274   3.615   1.730  11.656  0.1526  0.0110 -0.0723
  417TMC3    C5 6275   3.525   1.793  11.736  0.5473 -0.2675 -0.8160
  417TMC3    C6 6276   3.519   1.785  11.877 -0.2709  0.6806 -0.5444
  417TMC3     C 6277   3.790   1.571  11.658 -0.0239 -0.2433  0.4906
  417TMC3     O 6278   3.749   1.545  11.541  0.0475 -0.6275 -1.2402
  417TMC3     H 6279   3.782   1.576  11.917 -0.8090 -0.7968 -1.5202
  417TMC3    H1 6280   3.619   1.740  11.549 -1.4585  0.6918 -0.0726
  417TMC3    H2 6281   3.439   1.829  11.935  0.6904 -0.3087  1.5262
  417TMC3    C7 6282   3.430   1.871  11.658  0.2765  0.0174 -0.4140
  417TMC3    C8 6283   3.627   1.721  12.084 -0.1149  0.3261  0.4061
  417TMC3    O1 6284   3.483   1.943  11.571  0.2120  1.0653  0.1836
  417TMC3    O2 6285   3.557   1.797  12.148 -0.2414 -0.0694  0.0495
  418TMC3    C1 6286   3.016   3.543   0.399 -0.1843 -0.2832 -0.2081
  418TMC3    C2 6287   2.889   3.582   0.374  0.3161  0.0638 -0.0791
  418TMC3    C3 6288   2.788   3.541   0.457 -0.3433 -0.5826 -0.3684
  418TMC3    C4 6289   3.040   3.450   0.501  0.4021  0.0881  0.3231
  418TMC3    C5 6290   2.937   3.403   0.572 -0.6744 -0.2457  0.2569
  418TMC3    C6 6291   2.806   3.441   0.550 -0.5713 -0.3912  0.0368
  418TMC3     C 6292   3.112   3.563   0.293 -0.4790  0.0578  0.2970
  418TMC3     O 6293   3.102   3.660   0.221  0.3086  0.7297 -0.0536
  418TMC3     H 6294   2.871   3.658   0.299  2.5823  0.1752 -0.5136
  418TMC3    H1 6295   3.142   3.422   0.523 -0.2360 -1.8002  0.9146
  418TMC3    H2 6296   2.723   3.401   0.607  0.0355 -3.0727 -0.9808
  418TMC3    C7 6297   2.968   3.314   0.682 -0.0595  0.0403 -0.0155
  418TMC3    C8 6298   2.662   3.541   0.393 -0.0573  0.1662 -0.2158
  418TMC3    O1 6299   3.072   3.250   0.680  0.0547 -0.2282  0.4589
  418TMC3    O2 6300   2.632   3.627   0.311 -0.0856  0.6555 -0.0756
  419MPD2     C 6301   1.640   1.128  12.982 -0.2948 -0.1804 -0.2705
  419MPD2    C1 6302   1.562   1.216  12.905 -0.6046 -0.0371 -0.0862
  419MPD2    C2 6303   1.448   1.265  12.961  0.2831 -0.3555  0.4695
  419MPD2    C3 6304   1.422   1.239  13.097  0.1479 -0.2797 -0.8376
  419MPD2    C4 6305   1.496   1.144  13.166 -0.8536 -1.0962 -0.8927
  419MPD2    C5 6306   1.602   1.092  13.106 -1.0241 -0.9857 -0.5542
  419MPD2     H 6307   1.387   1.331  12.901 -2.3589 -0.9683  2.4496
  419MPD2    H1 6308   1.488   1.125  13.273  0.0045  1.3929 -0.4001
  419MPD2    H2 6309   1.734   1.083  12.953  0.1206  1.4156 -1.3578
  419MPD2    H3 6310   1.673   1.033  13.164  0.4362  1.6894  0.3484
  419MPD2     N 6311   1.320   1.317  13.154 -0.1070 -0.1070  1.3673
  419MPD2    H5 6312   1.282   1.389  13.094  0.5059 -0.4432  0.5787
  419MPD2    N1 6313   1.592   1.255  12.774 -0.3643 -1.0821 -0.4837
  419MPD2    H7 6314   1.521   1.314  12.732 -0.6000  0.1803  1.6570
  420TMC3    C1 6315   1.143   1.373  13.297  0.1310  0.0808  0.6657
  420TMC3    C2 6316   1.124   1.491  13.225  0.7388 -0.4319 -0.2284
  420TMC3    C3 6317   1.043   1.590  13.277 -0.3162  0.7273 -0.9565
  420TMC3    C4 6318   1.079   1.357  13.415  0.6604 -0.3448 -0.2186
  420TMC3    C5 6319   0.991   1.454  13.465 -0.1816  0.5364  0.1491
  420TMC3    C6 6320   0.978   1.572  13.395  0.6687  0.2183  0.2800
  420TMC3     C 6321   1.263   1.301  13.277  1.2617 -0.0621  0.0450
  420TMC3     O 6322   1.300   1.220  13.363  0.3098 -0.4016  0.0187
  420TMC3     H 6323   1.182   1.505  13.135 -1.0696 -1.4857 -1.5620
  420TMC3    H1 6324   1.092   1.270  13.479  2.6782  1.0469  1.2758
  420TMC3    H2 6325   0.932   1.656  13.445  0.1593  0.1597 -0.0880
  420TMC3    C7 6326   0.944   1.436  13.599  1.0233 -0.0730 -0.1622
  420TMC3    C8 6327   1.007   1.712  13.202  0.5724  0.9025  0.5221
  420TMC3    O1 6328   0.992   1.343  13.664 -0.2476  0.0185 -0.5914
  420TMC3    O2 6329   0.919   1.777  13.255 -0.8013  0.6264 -0.4374
  421TMC3    C1 6330   2.799   3.134  13.743 -0.1424 -0.7136  0.2644
  421TMC3    C2 6331   2.878   3.230  13.810  0.2414  0.9850  0.0124
  421TMC3    C3 6332   2.986   3.181  13.876  0.6427  0.0666  0.7014
  421TMC3    C4 6333   2.830   3.000  13.754 -0.3296 -0.1936  0.2699
  421TMC3    C5 6334   2.929   2.959  13.831  0.1904  0.8076  0.0138
  421TMC3    C6 6335   3.014   3.046  13.885  0.0243 -0.0082 -0.9395
  421TMC3     C 6336   2.676   3.176  13.677  0.3381 -0.5730 -0.9898
  421TMC3     O 6337   2.655   3.298  13.672 -0.3221 -0.2875 -0.7715
  421TMC3     H 6338   2.841   3.332  13.811 -0.8069  0.5915  1.8324
  421TMC3    H1 6339   2.773   2.934  13.691  0.6154  0.8634 -1.6728
  421TMC3    H2 6340   3.100   3.007  13.938 -1.0324 -0.1341  0.6594
  421TMC3    C7 6341   2.963   2.818  13.839 -0.8235 -0.3081 -0.2345
  421TMC3    C8 6342   3.069   3.271  13.943  0.2793 -0.4503 -0.0188
  421TMC3    O1 6343   3.078   2.795  13.873 -0.1729 -0.4240 -0.2753
  421TMC3    O2 6344   3.182   3.233  13.978 -0.2953 -0.2648  0.5817
  422TMC3    C1 6345   0.280   4.212  12.717  0.0379  0.0377  0.3701
  422TMC3    C2 6346   0.280   4.340  12.754 -0.3017 -0.1587  0.1449
  422TMC3    C3 6347   0.201   4.394  12.856  0.5170  0.0828 -0.0558
  422TMC3    C4 6348   0.189   4.126  12.765  0.6707 -0.2290  0.1556
  422TMC3    C5 6349   0.109   4.175  12.868  0.4096  0.8563  0.0668
  422TMC3    C6 6350   0.110   4.311  12.922 -0.2850 -0.0672  0.0057
  422TMC3     C 6351   0.319   4.193  12.576 -0.4631  0.1641 -0.1600
  422TMC3     O 6352   0.436   4.200  12.547  0.1019 -0.2744 -0.1003
  422TMC3     H 6353   0.346   4.406  12.698 -0.6633 -0.6520 -0.8692
  422TMC3    H1 6354   0.171   4.028  12.723 -0.0012  1.0562 -2.5363
  422TMC3    H2 6355   0.068   4.327  13.021 -0.0843  1.1584 -0.1139
  422TMC3    C7 6356   4.737   4.084  12.890  0.0512  0.7428 -0.2688
  422TMC3    C8 6357   0.153   4.534  12.821 -0.0088 -0.3041  0.7491
  422TMC3    O1 6358   0.003   3.970  12.854 -0.0211  0.1940 -0.1858
  422TMC3    O2 6359   0.240   4.588  12.754  0.5522  1.2301  0.3128
  423MPD2     C 6360   1.437   0.585   0.489  0.6874  0.0153  0.8514
  423MPD2    C1 6361   1.536   0.515   0.555  0.7529 -0.1452 -0.7028
  423MPD2    C2 6362   1.629   0.446   0.479 -0.1143  0.2013  0.3297
  423MPD2    C3 6363   1.625   0.455   0.346 -0.4164  0.3392  0.3246
  423MPD2    C4 6364   1.525   0.528   0.284  0.2276 -0.3021 -0.4005
  423MPD2    C5 6365   1.431   0.591   0.354  0.0003 -0.1116 -0.4770
  423MPD2     H 6366   1.700   0.381   0.529  0.0164  1.3715  1.6614
  423MPD2    H1 6367   1.524   0.535   0.176  0.5710  0.9350 -0.3242
  423MPD2    H2 6368   1.364   0.642   0.545 -0.3935 -1.0857  0.5648
  423MPD2    H3 6369   1.346   0.641   0.308 -0.2516 -0.3765 -0.3017
  423MPD2     N 6370   1.730   0.397   0.265 -0.7553  0.1972  0.3055
  423MPD2    H5 6371   1.725   0.414   0.165 -1.2154  4.0611  0.9871
  423MPD2    N1 6372   1.545   0.508   0.695 -0.0964 -0.1701  0.5298
  423MPD2    H7 6373   1.614   0.455   0.747  1.5216  2.0032  0.6233
  424TMC3    C1 6374   1.521   0.570   0.921 -0.4424  0.0537  0.0745
  424TMC3    C2 6375   1.570   0.449   0.954 -0.4191  0.6101  0.5055
  424TMC3    C3 6376   1.614   0.431   1.086  0.4235  0.1227  0.7690
  424TMC3    C4 6377   1.504   0.668   1.015 -0.3615  0.0703  0.1268
  424TMC3    C5 6378   1.520   0.636   1.150 -0.2828 -0.3126  0.3744
  424TMC3    C6 6379   1.593   0.522   1.186 -0.4787 -0.2389  0.0703
  424TMC3     C 6380   1.475   0.588   0.787  0.0056  0.4016 -0.0777
  424TMC3     O 6381   1.394   0.678   0.776  0.2188 -0.1187 -0.3478
  424TMC3     H 6382   1.571   0.368   0.882 -0.8951  0.4111  0.7257
  424TMC3    H1 6383   1.446   0.756   0.991 -0.8624  0.0718  1.3337
  424TMC3    H2 6384   1.617   0.493   1.287 -1.4108 -0.9048  0.1006
  424TMC3    C7 6385   1.410   0.650   1.248  0.1598 -1.1211 -0.2259
  424TMC3    C8 6386   1.617   0.299   1.126  0.3712 -0.4047  0.3068
  424TMC3    O1 6387   1.421   0.568   1.339  0.1171  0.4240 -0.4031
  424TMC3    O2 6388   1.565   0.216   1.052 -0.7035  0.3477  0.5059
  425MPD2     C 6389   0.800   4.114   0.118 -0.5857 -0.9589  0.0568
  425MPD2    C1 6390   0.772   4.081  17.753 -0.3834  0.1146  0.2203
  425MPD2    C2 6391   0.648   4.111  17.696 -1.0217 -0.0515  0.7687
  425MPD2    C3 6392   0.556   4.187   0.001 -0.3981  0.5474 -0.2724
  425MPD2    C4 6393   0.579   4.222   0.135 -0.7090 -0.2917 -0.4858
  425MPD2    C5 6394   0.707   4.192   0.188 -0.2419 -0.7762 -0.3988
  425MPD2     H 6395   0.622   4.076  17.597 -1.0136  2.4873 -0.1182
  425MPD2    H1 6396   0.507   4.272   0.198  0.2193  0.5420 -0.0967
  425MPD2    H2 6397   0.892   4.093   0.172  0.3586 -0.7772 -1.4592
  425MPD2    H3 6398   0.732   4.232   0.285 -4.3288  1.0881 -0.1331
  425MPD2     N 6399   0.434   4.212  17.697  0.0947 -0.1385 -0.3792
  425MPD2    H5 6400   0.438   4.194  17.597  2.1340 -0.7569 -0.1859
  425MPD2    N1 6401   0.866   3.994  17.691  0.0160  0.0522 -0.4940
  425MPD2    H7 6402   0.947   3.963  17.745 -0.0619 -2.5288 -1.8413
  426TMC3    C1 6403   0.977   3.875  17.523  0.4881 -0.2112 -0.0422
  426TMC3    C2 6404   0.990   3.873  17.387  0.1633  0.2707 -0.4996
  426TMC3    C3 6405   1.037   3.758  17.327  0.3184  0.8406 -0.6009
  426TMC3    C4 6406   1.005   3.766  17.605  0.4997 -0.4384 -0.6959
  426TMC3    C5 6407   1.049   3.655  17.543 -0.1564 -0.4168 -0.1527
  426TMC3    C6 6408   1.074   3.652  17.408  0.3181 -0.3208  0.8918
  426TMC3     C 6409   0.863   3.956  17.560 -0.5796  0.0249  0.2872
  426TMC3     O 6410   0.789   3.987  17.470  0.2508 -0.1465  0.5640
  426TMC3     H 6411   0.952   3.960  17.335 -0.7952  0.5163  0.6160
  426TMC3    H1 6412   0.988   3.768  17.712 -2.6976  3.0242 -1.2428
  426TMC3    H2 6413   1.115   3.565  17.358 -1.7023 -0.1371 -1.0910
  426TMC3    C7 6414   1.037   3.528  17.615  0.2284  0.0510  0.1839
  426TMC3    C8 6415   1.019   3.739  17.184 -0.2543  0.8697 -0.0243
  426TMC3    O1 6416   1.107   3.435  17.570 -0.4845 -0.5603 -0.1663
  426TMC3    O2 6417   1.004   3.623  17.145  0.9211 -0.2073  0.5257
  427MPD2     C 6418   3.897   1.291  14.874 -0.0843 -0.5298 -0.0714
  427MPD2    C1 6419   3.857   1.254  14.998 -0.0417 -0.4142  0.2605
  427MPD2    C2 6420   3.723   1.266  15.032  0.1315 -0.2711 -0.4315
  427MPD2    C3 6421   3.639   1.328  14.939 -0.2713 -0.0448 -0.2493
  427MPD2    C4 6422   3.675   1.338  14.805  0.3850  0.2537  0.1745
  427MPD2    C5 6423   3.808   1.333  14.782  0.1128  0.4978  0.0225
  427MPD2     H 6424   3.687   1.235  15.129  0.9531 -0.6536 -0.2499
  427MPD2    H1 6425   3.605   1.357  14.725 -0.2635  0.6339  0.8234
  427MPD2    H2 6426   4.002   1.291  14.846  0.1025  0.5940  0.6234
  427MPD2    H3 6427   3.842   1.350  14.680  2.3888  1.0558  0.8699
  427MPD2     N 6428   3.504   1.352  14.966  0.5379  0.4767  0.0620
  427MPD2    H5 6429   3.452   1.401  14.893 -0.7315 -0.4824  0.3309
  427MPD2    N1 6430   3.948   1.206  15.099  0.3412  0.5780  0.1557
  427MPD2    H7 6431   3.909   1.186  15.190  0.4097  2.3848  0.5749
  428TMC3    C1 6432   4.153   1.151  15.205 -0.0319 -0.7734  0.2908
  428TMC3    C2 6433   4.113   1.042  15.281 -0.0604 -0.7138  0.3839
  428TMC3    C3 6434   4.158   1.040  15.416  0.7451  0.0895 -0.1538
  428TMC3    C4 6435   4.257   1.230  15.248 -0.2139 -0.5389  0.7139
  428TMC3    C5 6436   4.320   1.202  15.365 -0.7129  0.3547  0.0729
  428TMC3    C6 6437   4.277   1.110  15.450  0.5164 -0.6268  0.0510
  428TMC3     C 6438   4.085   1.191  15.084 -0.1555  0.3246  0.2172
  428TMC3     O 6439   4.159   1.212  14.989 -0.2609 -0.2985 -0.0051
  428TMC3     H 6440   4.031   0.981  15.246 -0.2489  0.7094 -1.6366
  428TMC3    H1 6441   4.274   1.319  15.189 -0.6086 -0.0437  1.3460
  428TMC3    H2 6442   4.337   1.088  15.538 -1.1394 -1.0272  1.0977
  428TMC3    C7 6443   4.438   1.283  15.410 -0.2229  0.7240  0.0133
  428TMC3    C8 6444   4.125   0.933  15.509  0.2610 -0.4121  1.1024
  428TMC3    O1 6445   4.446   1.290  15.529 -0.3054 -0.2522  0.5096
  428TMC3    O2 6446   4.083   0.824  15.470  0.1892  0.1892 -0.4592
  429MPD2     C 6447   4.646   1.408  17.735  0.3601 -1.3569 -0.2520
  429MPD2    C1 6448   0.031   1.398  17.686 -1.2352  0.8018 -0.0427
  429MPD2    C2 6449   0.088   1.499  17.609 -0.6744 -0.0739  0.0504
  429MPD2    C3 6450   0.009   1.610  17.573  0.4489 -1.3364 -0.3279
  429MPD2    C4 6451   4.622   1.618  17.621 -0.0364 -0.0771  0.2658
  429MPD2    C5 6452   4.570   1.514  17.691  1.0906 -0.7473  0.2075
  429MPD2     H 6453   0.184   1.479  17.562  0.7391  1.6247  2.2332
  429MPD2    H1 6454   4.554   1.700  17.600  0.2580 -0.6545 -2.8824
  429MPD2    H2 6455   4.595   1.325   0.021  0.6506 -1.7353 -0.5854
  429MPD2    H3 6456   4.463   1.521  17.702  1.1724 -0.6785  0.9467
  429MPD2     N 6457   0.076   1.719  17.500  0.5224  0.2295 -0.2395
  429MPD2    H5 6458   0.168   1.699  17.462  0.8225 -0.5713  0.8915
  429MPD2    N1 6459   0.101   1.273  17.688 -0.0857  0.0511 -0.4289
  429MPD2    H7 6460   0.190   1.274  17.639 -0.3813 -0.3426 -0.9660
  430TMC3    C1 6461   0.085   1.909  17.351  0.2583  0.0852 -0.0631
  430TMC3    C2 6462   0.024   2.002  17.265 -0.1012  0.5292 -0.1918
  430TMC3    C3 6463   0.099   2.078  17.180 -0.0241 -0.4173 -0.1240
  430TMC3    C4 6464   0.219   1.897  17.350 -1.2300 -0.5255  0.5962
  430TMC3    C5 6465   0.295   1.971  17.263  0.6394  0.1948 -0.2216
  430TMC3    C6 6466   0.239   2.074  17.188  0.4957  0.7567 -0.6906
  430TMC3     C 6467   0.007   1.825  17.438  0.3284  0.3020 -0.1757
  430TMC3     O 6468   4.628   1.849  17.433 -0.0541 -0.5330 -0.0500
  430TMC3     H 6469   4.658   2.005  17.261 -0.0643  1.3956 -0.7288
  430TMC3    H1 6470   0.272   1.809  17.384 -1.6634 -0.8325  0.4868
  430TMC3    H2 6471   0.283   2.118  17.099  1.8762  1.4516  0.3388
  430TMC3    C7 6472   0.401   1.891  17.199  0.1057 -0.2556  0.8708
  430TMC3    C8 6473   0.048   2.082  17.046  0.1324  0.2721  0.0021
  430TMC3    O1 6474   0.387   1.769  17.197 -0.4762  0.3017 -0.3531
  430TMC3    O2 6475   4.700   2.005  17.011 -1.0690 -0.5325 -0.0279
  431MPD2     C 6476   1.623   2.097  12.376  0.2571  0.1176  0.3414
  431MPD2    C1 6477   1.527   2.018  12.433  0.1987 -0.2595 -0.8552
  431MPD2    C2 6478   1.530   1.878  12.413 -0.2736 -0.0888 -0.2483
  431MPD2    C3 6479   1.642   1.820  12.347  0.3126  0.9192  0.4723
  431MPD2    C4 6480   1.740   1.898  12.292 -0.6826  0.2376 -0.1022
  431MPD2    C5 6481   1.722   2.036  12.301 -0.3683 -0.2348 -0.2101
  431MPD2     H 6482   1.448   1.817  12.448  0.0245 -0.7755 -0.7523
  431MPD2    H1 6483   1.836   1.866  12.253 -0.4468 -1.8493  2.1644
  431MPD2    H2 6484   1.633   2.204  12.383  0.8212  0.0705  0.2664
  431MPD2    H3 6485   1.791   2.106  12.255 -1.2156  0.0763 -1.0115
  431MPD2     N 6486   1.665   1.682  12.348  0.3807  0.0679 -1.1185
  431MPD2    H5 6487   1.747   1.646  12.301  0.5275  0.2287 -0.9855
  431MPD2    N1 6488   1.429   2.087  12.504  0.4285  0.2246 -0.0618
  431MPD2    H7 6489   1.427   2.188  12.499  0.2071  0.3519  3.0945
  432TMC3    C1 6490   1.658   1.458  12.419  0.2985 -0.1839  0.0882
  432TMC3    C2 6491   1.760   1.428  12.334 -0.4059 -0.4626  0.1911
  432TMC3    C3 6492   1.824   1.315  12.371 -0.2171 -0.9242 -0.2897
  432TMC3    C4 6493   1.624   1.384  12.528  0.4226 -0.0515 -0.4246
  432TMC3    C5 6494   1.701   1.277  12.561  0.5879 -0.5362  0.2294
  432TMC3    C6 6495   1.796   1.239  12.475 -1.0124 -0.1407  0.3711
  432TMC3     C 6496   1.592   1.586  12.414 -0.2107  0.4239 -0.0759
  432TMC3     O 6497   1.495   1.599  12.488  0.6392  0.1040 -0.0469
  432TMC3     H 6498   1.795   1.493  12.254  0.3917  0.6873  1.4643
  432TMC3    H1 6499   1.563   1.435  12.602  0.9384  2.2959 -1.6530
  432TMC3    H2 6500   1.853   1.147  12.477  2.2453  1.8309 -1.4050
  432TMC3    C7 6501   1.699   1.221  12.692 -0.6366 -0.2604 -0.3621
  432TMC3    C8 6502   1.946   1.288  12.295  0.4438  0.4808  0.1250
  432TMC3    O1 6503   1.786   1.141  12.716 -0.1154  0.5387  0.2827
  432TMC3    O2 6504   1.977   1.172  12.270 -0.1470 -0.4673  0.6058
  433MPD2     C 6505   0.250   1.036  11.144 -1.1384  0.8166 -0.5470
  433MPD2    C1 6506   0.306   0.922  11.194  0.3312 -0.3073 -0.8904
  433MPD2    C2 6507   0.300   0.897  11.334 -0.3495 -0.0180  0.2408
  433MPD2    C3 6508   0.233   0.988  11.417 -0.1657  0.2800 -0.0604
  433MPD2    C4 6509   0.185   1.106  11.367 -0.2566  0.0893  0.1706
  433MPD2    C5 6510   0.179   1.121  11.231 -0.1181  0.2942 -0.6544
  433MPD2     H 6511   0.337   0.803  11.375  1.6058  0.1459 -1.1184
  433MPD2    H1 6512   0.130   1.181  11.422 -3.7044 -1.3752 -1.2589
  433MPD2    H2 6513   0.254   1.063  11.039  0.3771  1.9778 -0.1883
  433MPD2    H3 6514   0.125   1.205  11.189 -1.1074 -0.0294 -0.0271
  433MPD2     N 6515   0.240   0.954  11.555 -0.5500 -0.1441 -0.0648
  433MPD2    H5 6516   0.279   0.860  11.564 -0.2767  0.1790  1.9988
  433MPD2    N1 6517   0.375   0.824  11.113 -0.0013  0.3541  0.5762
  433MPD2    H7 6518   0.418   0.748  11.164  1.5711 -0.2080 -1.6072
  434TMC3    C1 6519   0.423   0.675  10.952 -0.2370  0.9825  0.0418
  434TMC3    C2 6520   0.523   0.630  11.032  0.0601 -0.0219 -0.4584
  434TMC3    C3 6521   0.544   0.497  11.037  0.0709  0.3136  0.0171
  434TMC3    C4 6522   0.335   0.593  10.897 -0.0282  0.4392 -0.1493
  434TMC3    C5 6523   0.358   0.459  10.897  0.0016  0.2784  0.2048
  434TMC3    C6 6524   0.460   0.410  10.971 -0.2048 -0.1994 -0.2367
  434TMC3     C 6525   0.365   0.802  10.979 -0.1533 -0.1480 -0.5926
  434TMC3     O 6526   0.290   0.849  10.895  0.3354  0.3406 -0.4136
  434TMC3     H 6527   0.598   0.689  11.083 -0.1271  0.3546 -0.6219
  434TMC3    H1 6528   0.243   0.623  10.847 -0.7514 -0.1587  0.8369
  434TMC3    H2 6529   0.464   0.302  10.972  0.3953 -0.1898 -1.6592
  434TMC3    C7 6530   0.260   0.370  10.838 -0.2912  0.4491  0.5136
  434TMC3    C8 6531   0.676   0.456  11.069  0.0766  0.4368  0.4086
  434TMC3    O1 6532   0.158   0.414  10.788 -0.1903 -0.0094  0.0812
  434TMC3    O2 6533   0.739   0.509  11.160  0.0558  0.8798 -0.0999
  435MPD2     C 6534   1.611   4.630  15.325 -0.0239 -0.2916  0.0240
  435MPD2    C1 6535   1.627   4.679  15.448 -0.0192 -0.0366 -0.2064
  435MPD2    C2 6536   1.750   4.687  15.499  0.0904 -0.5646  0.0843
  435MPD2    C3 6537   1.862   4.638  15.429  0.4606 -0.4797  0.9378
  435MPD2    C4 6538   1.841   4.574  15.312  0.9429 -0.4518  0.5304
  435MPD2    C5 6539   1.712   4.574  15.258  0.7355  0.7679  0.5347
  435MPD2     H 6540   1.780   4.739  15.590  0.3411 -0.6293  0.0391
  435MPD2    H1 6541   1.914   4.530  15.245  0.9148 -0.0651  0.2475
  435MPD2    H2 6542   1.513   4.637  15.280 -0.2855  1.3718  0.8741
  435MPD2    H3 6543   1.702   4.532  15.158  1.9185  0.7059  0.4407
  435MPD2     N 6544   1.986   4.658  15.491  0.0976 -0.0474 -0.0660
  435MPD2    H5 6545   1.989   4.701  15.583 -0.0709  0.1402 -0.1487
  435MPD2    N1 6546   1.520   4.734  15.520 -0.2053  0.2175 -0.1528
  435MPD2    H7 6547   1.545   0.023  15.613  0.0307  1.7705 -0.7411
  436TMC3    C1 6548   1.305   0.216  15.753 -0.2815  0.2406  0.6786
  436TMC3    C2 6549   1.361   0.174  15.631  1.0770  0.2106 -0.8569
  436TMC3    C3 6550   1.299   0.076  15.562  0.0055 -0.0678  0.1995
  436TMC3    C4 6551   1.187   0.158  15.798  0.1911  0.2469 -0.2953
  436TMC3    C5 6552   1.127   0.058  15.722 -0.7277  0.6083 -0.1705
  436TMC3    C6 6553   1.177   0.028  15.600 -0.8707 -0.2858 -0.0568
  436TMC3     C 6554   1.391   0.298  15.835  0.0834  0.0882  0.0523
  436TMC3     O 6555   1.492   0.338  15.784 -0.0954 -0.0665 -0.4016
  436TMC3     H 6556   1.458   0.213  15.600  0.8240  0.1324 -1.7340
  436TMC3    H1 6557   1.137   0.190  15.889 -0.9137 -3.1355  0.2647
  436TMC3    H2 6558   1.141   4.679  15.553 -0.5609 -0.2557 -0.3482
  436TMC3    C7 6559   1.011   4.728  15.760 -0.4769 -0.1436  0.0096
  436TMC3    C8 6560   1.385   4.724  15.489 -0.3356 -0.3883 -0.7092
  436TMC3    O1 6561   0.945   4.681  15.667  0.4149  1.0212  0.1047
  436TMC3    O2 6562   1.328   4.651  15.410  0.2576  0.3572  0.2811
  437TMC3    C1 6563   0.048   2.860  13.053  0.5725  0.0407  0.4462
  437TMC3    C2 6564   0.094   2.738  13.085  0.1740 -0.0924  0.4238
  437TMC3    C3 6565   0.230   2.725  13.082  0.1792 -0.5679 -0.1583
  437TMC3    C4 6566   0.114   2.973  13.018 -1.0475  0.7011 -0.3857
  437TMC3    C5 6567   0.246   2.958  13.043 -0.4706  0.4114 -0.1440
  437TMC3    C6 6568   0.304   2.835  13.066 -0.0310 -0.6871 -0.8109
  437TMC3     C 6569   4.646   2.867  13.070 -0.4686  0.7513 -0.8479
  437TMC3     O 6570   4.586   2.771  13.031  0.0185  0.3940  1.1666
  437TMC3     H 6571   0.020   2.659  13.085  0.6511 -0.5437  0.8594
  437TMC3    H1 6572   0.075   3.073  13.002 -0.7824  0.4087 -2.7711
  437TMC3    H2 6573   0.410   2.815  13.072 -0.2935 -1.8867 -0.2412
  437TMC3    C7 6574   0.335   3.069  12.996 -0.4007 -0.1778  0.8392
  437TMC3    C8 6575   0.295   2.595  13.104 -0.0799 -0.0382 -0.2495
  437TMC3    O1 6576   0.283   3.155  12.929 -0.6099 -0.8982  0.9038
  437TMC3    O2 6577   0.418   2.604  13.098  0.1819 -0.7233  0.3223
  438MPD2     C 6578   3.158   3.199  16.764 -0.3456 -0.3389  0.3684
  438MPD2    C1 6579   3.191   3.098  16.851 -0.2893 -0.7343 -0.1859
  438MPD2    C2 6580   3.186   3.127  16.988  0.3215  0.2039 -0.0988
  438MPD2    C3 6581   3.153   3.252  17.036 -0.6383 -0.0871  0.0760
  438MPD2    C4 6582   3.125   3.351  16.953 -0.3711 -0.2333 -0.6178
  438MPD2    C5 6583   3.120   3.317  16.816  0.5572 -0.2973  0.8455
  438MPD2     H 6584   3.193   3.041  17.054 -0.9831 -0.2136 -0.5133
  438MPD2    H1 6585   3.092   3.450  16.983 -1.3714 -0.9917  0.8086
  438MPD2    H2 6586   3.172   3.191  16.657  0.6814  0.0169  0.4752
  438MPD2    H3 6587   3.089   3.385  16.737  1.8529 -1.6592 -0.8310
  438MPD2     N 6588   3.151   3.268  17.176 -0.6624  0.1953  0.1650
  438MPD2    H5 6589   3.161   3.182  17.230  2.3141 -0.5048 -1.5176
  438MPD2    N1 6590   3.236   2.967  16.817 -0.1390  0.1687  0.2654
  438MPD2    H7 6591   3.268   2.907  16.892 -1.2402  0.4058  0.9275
  439TMC3    C1 6592   3.291   2.797  16.662  0.1993  0.0930 -0.3832
  439TMC3    C2 6593   3.275   2.747  16.534 -0.1698 -0.4692 -0.2043
  439TMC3    C3 6594   3.320   2.620  16.520 -0.0134 -0.3849  0.3990
  439TMC3    C4 6595   3.353   2.723  16.760 -0.7546 -0.1165 -0.3819
  439TMC3    C5 6596   3.396   2.598  16.736  0.3203 -0.2203  0.0382
  439TMC3    C6 6597   3.371   2.540  16.612  0.8587 -0.2246 -0.2305
  439TMC3     C 6598   3.250   2.930  16.684 -0.3000 -0.3954  0.4149
  439TMC3     O 6599   3.214   2.988  16.582 -0.2683 -0.2092  0.0652
  439TMC3     H 6600   3.221   2.800  16.456  1.0886  0.0398 -0.7277
  439TMC3    H1 6601   3.340   2.740  16.866  1.7357  0.7854 -0.2065
  439TMC3    H2 6602   3.392   2.437  16.583 -0.9204 -0.6639  0.0655
  439TMC3    C7 6603   3.503   2.550  16.821  0.2285 -0.2668  0.3919
  439TMC3    C8 6604   3.349   2.572  16.387 -0.1369  0.2107 -0.9039
  439TMC3    O1 6605   3.520   2.596  16.932 -0.3045  0.6021 -0.9812
  439TMC3    O2 6606   3.360   2.452  16.369 -0.4377 -0.2274 -0.2569
  440MPD2     C 6607   1.503   3.127  15.270 -0.5989 -0.2334  0.2954
  440MPD2    C1 6608   1.585   3.234  15.272  0.2226 -0.0719 -0.5379
  440MPD2    C2 6609   1.722   3.214  15.268  0.3375 -0.2466 -0.4106
  440MPD2    C3 6610   1.786   3.094  15.246  0.1962  0.4920 -0.5886
  440MPD2    C4 6611   1.703   2.986  15.239  0.0572  0.5252 -0.2833
  440MPD2    C5 6612   1.564   3.003  15.250 -0.2464 -0.2672 -0.3704
  440MPD2     H 6613   1.773   3.310  15.272  0.7427 -0.4708 -0.2427
  440MPD2    H1 6614   1.741   2.889  15.211 -4.6396 -1.0458 -1.3034
  440MPD2    H2 6615   1.395   3.129  15.276 -0.7208 -0.3757 -2.0040
  440MPD2    H3 6616   1.507   2.912  15.266  0.6382 -0.7462  0.0829
  440MPD2     N 6617   1.920   3.070  15.237 -0.7324 -0.1982 -0.1274
  440MPD2    H5 6618   1.939   2.972  15.219  1.1521  0.2435 -0.4472
  440MPD2    N1 6619   1.531   3.366  15.287 -1.1870 -0.4641 -0.4419
  440MPD2    H7 6620   1.604   3.435  15.297 -1.7406  0.1038 -0.3427
  441TMC3    C1 6621   2.148   3.119  15.251 -0.6479 -0.4358  0.3463
  441TMC3    C2 6622   2.243   3.221  15.247 -0.8710  0.6544  0.1065
  441TMC3    C3 6623   2.329   3.239  15.352  0.8827  0.2824  0.0345
  441TMC3    C4 6624   2.158   3.020  15.346 -0.4215 -0.1450 -0.2633
  441TMC3    C5 6625   2.249   3.039  15.448 -0.0439  0.2546  0.3101
  441TMC3    C6 6626   2.333   3.151  15.458 -0.5510  0.5668 -0.0446
  441TMC3     C 6627   2.015   3.171  15.246  0.1664 -0.2589 -0.3937
  441TMC3     O 6628   2.005   3.289  15.257  0.2840 -0.2322 -0.3848
  441TMC3     H 6629   2.234   3.297  15.171 -0.3005  0.7043  0.0881
  441TMC3    H1 6630   2.085   2.941  15.357 -1.7066  1.3285  1.6489
  441TMC3    H2 6631   2.417   3.152  15.527 -0.5758  0.0104 -0.0063
  441TMC3    C7 6632   2.232   2.961  15.570  0.4657 -0.3503 -0.3031
  441TMC3    C8 6633   2.344   3.372  15.397 -0.0253 -0.2803 -0.2738
  441TMC3    O1 6634   2.162   2.860  15.565  0.0645  0.1450  0.5694
  441TMC3    O2 6635   2.455   3.403  15.445  0.1658 -0.0481 -0.2246
  442MPD2     C 6636   4.481   3.533  17.069 -0.7686 -0.0905 -0.0822
  442MPD2    C1 6637   4.505   3.572  16.939  0.3743 -0.3911  0.1052
  442MPD2    C2 6638   4.545   3.478  16.849  0.5513  0.7610  0.0153
  442MPD2    C3 6639   4.572   3.350  16.894 -0.4806  0.4628 -0.1491
  442MPD2    C4 6640   4.558   3.315  17.031  0.2779  0.2849  0.0446
  442MPD2    C5 6641   4.506   3.407  17.114 -0.4729 -0.2701 -0.3281
  442MPD2     H 6642   4.547   3.509  16.745 -2.6736 -2.5094 -0.9952
  442MPD2    H1 6643   4.577   3.216  17.072 -1.0166 -0.7682 -1.9280
  442MPD2    H2 6644   4.441   3.602  17.142 -0.1404  0.7104 -0.4944
  442MPD2    H3 6645   4.489   3.379  17.217 -1.0637 -0.3171 -0.4350
  442MPD2     N 6646   4.620   3.253  16.809 -0.4816 -0.2084  0.2953
  442MPD2    H5 6647   4.616   3.160  16.849 -3.0088 -0.5297 -0.7367
  442MPD2    N1 6648   4.496   3.711  16.894 -0.4497 -0.3551 -0.4103
  442MPD2    H7 6649   4.512   3.721  16.795 -0.5963  2.1253 -0.1845
  443TMC3    C1 6650   4.426   3.934  16.935 -0.1780 -0.1550 -0.0039
  443TMC3    C2 6651   4.379   3.937  16.808 -0.5353  0.3018 -0.1761
  443TMC3    C3 6652   4.288   4.037  16.786 -0.9668  0.2959 -0.2381
  443TMC3    C4 6653   4.369   4.006  17.041 -0.1907 -0.1430  1.0138
  443TMC3    C5 6654   4.260   4.081  17.014 -0.1352  0.2171 -0.2505
  443TMC3    C6 6655   4.223   4.100  16.889 -0.0104 -0.9268 -0.2346
  443TMC3     C 6656   4.482   3.811  16.984  0.0572 -0.2067 -1.1276
  443TMC3     O 6657   4.520   3.808  17.099  0.0432  0.0348 -0.0088
  443TMC3     H 6658   4.417   3.871  16.731 -1.5315 -0.6315  0.1323
  443TMC3    H1 6659   4.407   3.997  17.142 -0.5135  1.2314  1.2534
  443TMC3    H2 6660   4.128   4.151  16.873  2.3000  4.2696  2.4224
  443TMC3    C7 6661   4.139   4.035  17.090  0.9220  0.1852  0.1349
  443TMC3    C8 6662   4.207   3.991  16.680 -0.6257  0.0037 -0.4646
  443TMC3    O1 6663   4.053   3.980  17.022  0.1592 -0.2542  0.5128
  443TMC3    O2 6664   4.266   3.959  16.579  0.0009  0.3252 -0.3385
  444MPD2     C 6665   0.242   3.244  16.870 -0.2743 -0.7797  0.5586
  444MPD2    C1 6666   0.220   3.123  16.937 -0.3371 -0.5929  0.2305
  444MPD2    C2 6667   0.256   3.011  16.870 -0.0578 -0.6051 -0.2996
  444MPD2    C3 6668   0.300   3.012  16.734  0.0308 -0.7500 -0.7569
  444MPD2    C4 6669   0.316   3.136  16.672  0.3986  0.4227 -0.6290
  444MPD2    C5 6670   0.281   3.247  16.740 -0.1539  0.6772 -0.4973
  444MPD2     H 6671   0.234   2.918  16.921 -2.2595  0.6260  0.9684
  444MPD2    H1 6672   0.346   3.158  16.571  1.0537  0.8594 -0.3406
  444MPD2    H2 6673   0.225   3.342  16.912 -0.7480 -0.8797  0.6015
  444MPD2    H3 6674   0.286   3.347  16.698  0.5798  0.9717  0.2839
  444MPD2     N 6675   0.326   2.895  16.655 -0.4127  0.2703 -0.2232
  444MPD2    H5 6676   0.338   2.908  16.556 -0.4777  0.1524 -0.2467
  444MPD2    N1 6677   0.175   3.117  17.070 -0.0115 -0.3242  0.2717
  444MPD2    H7 6678   0.158   3.026  17.111  0.6006 -0.4310  0.2877
  445TMC3    C1 6679   0.402   2.675  16.634  0.1778 -0.0265 -0.2201
  445TMC3    C2 6680   0.319   2.659  16.526 -0.2170 -0.5974 -0.4885
  445TMC3    C3 6681   0.355   2.565  16.437  0.5444  0.0653 -0.7473
  445TMC3    C4 6682   0.500   2.586  16.664  0.6242 -0.3144  0.0208
  445TMC3    C5 6683   0.537   2.495  16.568  0.3790  0.1237  0.4746
  445TMC3    C6 6684   0.467   2.487  16.445 -0.3280 -0.0583 -0.1437
  445TMC3     C 6685   0.368   2.780  16.723  0.1537  0.1713  0.2935
  445TMC3     O 6686   0.405   2.775  16.840 -0.5387  0.3526  0.0993
  445TMC3     H 6687   0.233   2.725  16.520  1.3621  1.5438  0.3847
  445TMC3    H1 6688   0.564   2.599  16.749 -2.1816  3.2144  1.5830
  445TMC3    H2 6689   0.512   2.451  16.354 -0.3586  2.2449 -1.0722
  445TMC3    C7 6690   0.670   2.435  16.578  0.0924  0.4438 -0.1111
  445TMC3    C8 6691   0.292   2.571  16.312  0.1271 -0.2940  0.0705
  445TMC3    O1 6692   0.742   2.469  16.669 -0.4959 -0.0688  0.4260
  445TMC3    O2 6693   0.242   2.676  16.288  0.0556  0.4235  0.5641
  446MPD2     C 6694   0.019   0.357  11.137  0.1382 -0.3333 -0.1753
  446MPD2    C1 6695   0.105   0.252  11.164 -0.8848 -0.2436 -0.4226
  446MPD2    C2 6696   0.223   0.272  11.234 -0.3570  0.3781 -0.4965
  446MPD2    C3 6697   0.242   0.398  11.292 -0.2466 -0.6263  0.0059
  446MPD2    C4 6698   0.149   0.498  11.277 -0.8277 -0.7192  0.4276
  446MPD2    C5 6699   0.042   0.477  11.194 -0.3184 -0.0381  0.0264
  446MPD2     H 6700   0.291   0.190  11.255  0.1299  0.8843 -0.0758
  446MPD2    H1 6701   0.161   0.599  11.314  2.7223 -0.5510 -1.1907
  446MPD2    H2 6702   4.671   0.350  11.077  0.0124 -1.7232  0.1895
  446MPD2    H3 6703   4.720   0.562  11.175  2.0217  0.7949 -4.0631
  446MPD2     N 6704   0.350   0.432  11.380 -0.2449  0.0118 -0.0427
  446MPD2    H5 6705   0.346   0.518  11.433  1.3258  0.0579  0.0013
  446MPD2    N1 6706   0.079   0.125  11.109  0.1983  0.0860  0.4652
  446MPD2    H7 6707   4.735   0.126  11.055  0.5338  2.0958 -0.0073
  447TMC3    C1 6708   0.576   0.455  11.432  0.0187  0.6872 -0.0184
  447TMC3    C2 6709   0.552   0.587  11.455 -0.2905  0.6987  0.0640
  447TMC3    C3 6710   0.665   0.656  11.489  0.0938 -0.1806  0.5367
  447TMC3    C4 6711   0.702   0.396  11.453 -0.5784 -0.3114  0.5225
  447TMC3    C5 6712   0.800   0.465  11.521 -1.2439 -0.2378 -0.1098
  447TMC3    C6 6713   0.789   0.601  11.526 -0.7550 -0.8246  0.1795
  447TMC3     C 6714   0.472   0.370  11.376 -0.4686  0.0319  0.3976
  447TMC3     O 6715   0.507   0.291  11.291  0.1745  0.0096  0.4126
  447TMC3     H 6716   0.466   0.645  11.422 -0.0624  0.8501 -0.2666
  447TMC3    H1 6717   0.707   0.287  11.446  0.0239 -0.4628  3.2435
  447TMC3    H2 6718   0.866   0.666  11.567 -0.1261 -1.6462  0.3033
  447TMC3    C7 6719   0.933   0.406  11.526  0.3061 -1.1288  0.1545
  447TMC3    C8 6720   0.670   0.783  11.419  0.4913  0.0011 -0.1877
  447TMC3    O1 6721   0.940   0.300  11.461 -0.0170  0.5694  0.2256
  447TMC3    O2 6722   0.578   0.862  11.444 -0.0907 -0.8871  0.2797
  448TMC3    C1 6723   3.899   4.291  17.308  0.8279 -0.3310 -0.7862
  448TMC3    C2 6724   3.853   4.178  17.239  0.2827 -0.0282  0.0877
  448TMC3    C3 6725   3.778   4.092  17.298  0.6070  0.6762  0.6428
  448TMC3    C4 6726   3.878   4.303  17.440  0.1088  0.3139  0.0362
  448TMC3    C5 6727   3.795   4.211  17.499  0.5051  0.5245  0.6838
  448TMC3    C6 6728   3.745   4.102  17.430 -0.3086  0.0881 -0.4579
  448TMC3     C 6729   4.001   4.380  17.244 -0.7845 -0.3211 -0.4789
  448TMC3     O 6730   4.079   4.421  17.324 -0.0076 -0.5735 -0.1142
  448TMC3     H 6731   3.902   4.155  17.145  0.2600  0.9408 -0.1668
  448TMC3    H1 6732   3.924   4.382  17.498  2.1011  0.0553 -1.1786
  448TMC3    H2 6733   3.691   4.018  17.473 -2.0796  2.0216  1.0425
  448TMC3    C7 6734   3.810   4.193  17.640 -0.6248  0.2567 -1.1430
  448TMC3    C8 6735   3.713   3.999  17.213  0.5991  0.9693 -0.5109
  448TMC3    O1 6736   3.900   4.261  17.690  0.9702  0.3824  0.0410
  448TMC3    O2 6737   3.665   3.897  17.262 -0.2490 -0.3962  0.4677
  449MPD2     C 6738   4.659   3.083  14.195 -0.4694 -1.0417  0.3900
  449MPD2    C1 6739   4.558   3.088  14.101 -0.0405  0.5332  0.6389
  449MPD2    C2 6740   4.482   2.974  14.089  1.1206  0.6545  0.0027
  449MPD2    C3 6741   4.490   2.874  14.186 -0.5966  0.0884  0.3506
  449MPD2    C4 6742   4.588   2.873  14.286  0.0847 -0.3278 -0.1995
  449MPD2    C5 6743   4.673   2.976  14.282  0.1536  0.4659 -0.5816
  449MPD2     H 6744   4.402   2.975  14.015  1.3409  0.8893 -0.2293
  449MPD2    H1 6745   4.609   2.790  14.352 -0.2293 -0.5708 -0.3991
  449MPD2    H2 6746   4.734   3.160  14.207  0.1800 -2.1579  3.6940
  449MPD2    H3 6747   0.012   2.973  14.354 -0.7611 -0.8956  0.3839
  449MPD2     N 6748   4.397   2.770  14.163  0.0696  0.4652  0.1284
  449MPD2    H5 6749   4.342   2.782  14.078  0.1199  0.5579  0.1090
  449MPD2    N1 6750   4.526   3.197  14.012 -0.3026 -0.3266 -1.0704
  449MPD2    H7 6751   4.440   3.187  13.960 -0.4127  0.7533 -1.1028
  450TMC3    C1 6752   4.519   3.407  13.923 -0.4026 -0.2143 -0.4083
  450TMC3    C2 6753   4.583   3.438  13.809 -0.9399 -0.2798 -0.1536
  450TMC3    C3 6754   4.507   3.450  13.691  0.2359 -0.2632 -0.1245
  450TMC3    C4 6755   4.386   3.378  13.925  1.0785  0.0040  0.5288
  450TMC3    C5 6756   4.311   3.373  13.804 -1.1621 -1.1271 -0.5320
  450TMC3    C6 6757   4.374   3.413  13.689  0.6732  0.1933  0.7530
  450TMC3     C 6758   4.599   3.312  13.996 -0.4518  0.3280  0.1138
  450TMC3     O 6759   4.695   3.349  14.063 -0.1951  0.4576 -0.1245
  450TMC3     H 6760   4.690   3.454  13.809 -1.0144  0.2378  2.1079
  450TMC3    H1 6761   4.334   3.355  14.017 -0.6045 -1.0878 -0.7116
  450TMC3    H2 6762   4.316   3.412  13.597 -0.5121 -0.2127  1.5101
  450TMC3    C7 6763   4.247   3.243  13.798 -0.5805  0.6900  0.2447
  450TMC3    C8 6764   4.567   3.462  13.565  0.3051  0.0930  0.0375
  450TMC3    O1 6765   4.262   3.170  13.896  0.2512 -0.0356  0.0415
  450TMC3    O2 6766   4.490   3.476  13.469  0.5125 -0.6424  0.2326
  451MPD2     C 6767   1.433   1.117   1.241 -0.4766 -1.3069 -0.4772
  451MPD2    C1 6768   1.451   1.212   1.140  0.0736  0.3542 -0.7605
  451MPD2    C2 6769   1.540   1.177   1.035  0.8714 -0.1155 -0.0657
  451MPD2    C3 6770   1.615   1.064   1.035 -0.9964 -0.0774 -0.2769
  451MPD2    C4 6771   1.587   0.971   1.138 -0.8392 -0.0972 -0.8367
  451MPD2    C5 6772   1.499   0.995   1.236 -0.1005  0.5013  0.2783
  451MPD2     H 6773   1.546   1.252   0.957  0.4987  0.0601  0.0727
  451MPD2    H1 6774   1.652   0.885   1.149 -0.3045  0.3518 -0.5434
  451MPD2    H2 6775   1.376   1.135   1.332  0.0693  2.8161 -0.9223
  451MPD2    H3 6776   1.487   0.925   1.318  0.4745 -2.2185 -1.9434
  451MPD2     N 6777   1.699   1.029   0.925 -0.3156 -0.3277  0.0922
  451MPD2    H5 6778   1.702   0.929   0.910 -1.2329 -0.6133  1.8245
  451MPD2    N1 6779   1.388   1.337   1.162  0.8936 -0.9899  0.0279
  451MPD2    H7 6780   1.329   1.355   1.243  0.1104 -0.1484 -0.7318
  452TMC3    C1 6781   1.799   1.057   0.715  0.1242 -0.0047 -0.1539
  452TMC3    C2 6782   1.712   0.971   0.656 -0.4462  0.5409  0.5461
  452TMC3    C3 6783   1.737   0.939   0.524  0.3368 -0.1634 -0.2299
  452TMC3    C4 6784   1.907   1.116   0.666  0.1187 -0.1383 -0.6722
  452TMC3    C5 6785   1.939   1.067   0.545  0.0946  0.0673 -0.4236
  452TMC3    C6 6786   1.862   0.975   0.475 -0.2379  0.1177 -0.2866
  452TMC3     C 6787   1.766   1.112   0.843  0.0266  0.1557 -0.0700
  452TMC3     O 6788   1.775   1.231   0.862  0.5375  0.1859 -0.8795
  452TMC3     H 6789   1.618   0.937   0.699  0.3249 -1.7542  0.3686
  452TMC3    H1 6790   1.966   1.191   0.719 -0.3315  0.1602 -0.5861
  452TMC3    H2 6791   1.877   0.954   0.369 -1.2226 -0.1930 -0.3587
  452TMC3    C7 6792   2.035   1.143   0.462 -0.2359  0.8361 -0.6598
  452TMC3    C8 6793   1.618   0.927   0.443 -0.3019 -0.0185 -0.0166
  452TMC3    O1 6794   2.059   1.252   0.509  0.2937  0.1019  0.3062
  452TMC3    O2 6795   1.516   0.970   0.488  0.2449  0.6033 -0.4442
  453TMC3    C1 6796   2.394   4.278  12.349 -0.7206 -0.2846 -0.8205
  453TMC3    C2 6797   2.298   4.189  12.363  0.3342  0.9736  1.4704
  453TMC3    C3 6798   2.223   4.155  12.255 -0.4994 -0.2971  0.0691
  453TMC3    C4 6799   2.409   4.338  12.227  0.6515  0.8126  0.2667
  453TMC3    C5 6800   2.317   4.316  12.128  0.1649 -0.7003  0.3438
  453TMC3    C6 6801   2.222   4.215  12.133  0.1842 -0.6222  0.7318
  453TMC3     C 6802   2.530   4.239  12.405 -0.9164  0.4079  0.2775
  453TMC3     O 6803   2.610   4.324  12.440 -0.0848 -0.0157 -0.0832
  453TMC3     H 6804   2.278   4.139  12.457 -0.7591  0.2128  0.8443
  453TMC3    H1 6805   2.490   4.411  12.220  0.9167  0.3217 -1.7869
  453TMC3    H2 6806   2.159   4.187  12.049  0.3522 -0.8597  0.6860
  453TMC3    C7 6807   2.346   4.373  11.996 -0.1115  0.0296 -0.1749
  453TMC3    C8 6808   2.107   4.075  12.275  0.4713  0.2091 -0.6435
  453TMC3    O1 6809   2.328   4.300  11.903 -0.0658  0.2076  0.4805
  453TMC3    O2 6810   2.033   4.104  12.369  0.3836 -0.0223  0.0432
  454MPD2     C 6811   1.138   2.984  16.448 -0.3236 -0.6316  0.2721
  454MPD2    C1 6812   1.082   3.005  16.326  0.7111  0.3632 -0.0767
  454MPD2    C2 6813   1.022   3.128  16.300 -0.1324 -0.0763  0.0254
  454MPD2    C3 6814   1.016   3.221  16.407 -0.2652  0.5098 -0.2961
  454MPD2    C4 6815   1.078   3.195  16.523 -0.6667  0.2464 -0.4238
  454MPD2    C5 6816   1.142   3.080  16.540 -0.6063 -0.5261 -0.0833
  454MPD2     H 6817   0.967   3.141  16.208  2.3903 -0.8799 -1.6034
  454MPD2    H1 6818   1.075   3.268  16.604 -0.6311 -0.2369  0.0136
  454MPD2    H2 6819   1.186   2.888  16.468  0.5489  0.2313  2.3097
  454MPD2    H3 6820   1.180   3.050  16.637  3.0019 -0.6655 -1.5381
  454MPD2     N 6821   0.937   3.339  16.405  0.4151 -0.4286 -0.2215
  454MPD2    H5 6822   0.941   3.394  16.490  0.2061  0.6129 -0.8829
  454MPD2    N1 6823   1.069   2.897  16.238 -0.0848  1.2306 -0.0246
  454MPD2    H7 6824   1.082   2.808  16.284  3.1129  0.8975 -1.5970
  455TMC3    C1 6825   0.742   3.441  16.362 -0.2516 -0.3576 -0.0833
  455TMC3    C2 6826   0.786   3.522  16.464 -0.1252 -0.7986  0.0238
  455TMC3    C3 6827   0.747   3.495  16.593 -0.2123 -0.7510  0.3444
  455TMC3    C4 6828   0.667   3.335  16.403  0.5725 -0.6003 -0.7277
  455TMC3    C5 6829   0.629   3.309  16.528 -0.3010  0.1592 -0.0404
  455TMC3    C6 6830   0.657   3.392  16.629 -0.0870 -0.1581  0.1615
  455TMC3     C 6831   0.858   3.381  16.303 -0.3325  0.0337 -0.0102
  455TMC3     O 6832   0.840   3.331  16.190 -0.1158 -0.0048 -0.4550
  455TMC3     H 6833   0.869   3.589  16.447 -0.8118  0.1633  0.4009
  455TMC3    H1 6834   0.637   3.263  16.326 -0.9097 -0.9389  0.1642
  455TMC3    H2 6835   0.634   3.370  16.733 -1.0873  0.4723  0.0743
  455TMC3    C7 6836   0.626   3.168  16.562 -0.2795  0.2258 -0.7023
  455TMC3    C8 6837   0.798   3.566  16.712 -0.6284  0.1402 -0.0922
  455TMC3    O1 6838   0.650   3.138  16.678 -0.1228 -0.2353 -0.1902
  455TMC3    O2 6839   0.797   3.499  16.815  0.6970 -0.4433 -0.2907
  456MPD2     C 6840   3.605   2.916  16.283 -0.2331  0.3119  0.7986
  456MPD2    C1 6841   3.641   2.837  16.391 -0.7443 -0.4310 -0.6418
  456MPD2    C2 6842   3.619   2.887  16.519  0.3858  0.2757  0.7319
  456MPD2    C3 6843   3.577   3.019  16.539 -0.8709 -0.1447 -0.5207
  456MPD2    C4 6844   3.536   3.088  16.420  0.0604  0.1290  0.0458
  456MPD2    C5 6845   3.558   3.044  16.297  0.6161  0.2650 -0.1608
  456MPD2     H 6846   3.647   2.829  16.606 -0.7381 -1.3045  0.0389
  456MPD2    H1 6847   3.484   3.183  16.428  0.3269  0.3941 -1.4077
  456MPD2    H2 6848   3.613   2.880  16.181 -1.7660  0.6171  0.5727
  456MPD2    H3 6849   3.530   3.107  16.214  1.2251  3.6527  2.1756
  456MPD2     N 6850   3.559   3.080  16.667 -0.1618 -0.2039  0.6077
  456MPD2    H5 6851   3.582   3.026  16.750 -0.3868 -2.9653 -1.0941
  456MPD2    N1 6852   3.705   2.718  16.356  0.7681  0.0255  0.4773
  456MPD2    H7 6853   3.740   2.712  16.261  0.8061  1.2237  0.4052
  457TMC3    C1 6854   3.527   3.252  16.822  0.3214 -0.6318  0.1468
  457TMC3    C2 6855   3.509   3.392  16.842 -0.0303  0.0410  0.2245
  457TMC3    C3 6856   3.476   3.430  16.972 -0.4049 -0.0593  0.5242
  457TMC3    C4 6857   3.528   3.174  16.933  0.5270 -0.4867 -0.3576
  457TMC3    C5 6858   3.507   3.220  17.061  0.2677  0.1619 -0.4162
  457TMC3    C6 6859   3.470   3.349  17.077  0.2383  0.6258  0.2590
  457TMC3     C 6860   3.521   3.209  16.687 -1.2737  0.2670  0.9702
  457TMC3     O 6861   3.511   3.301  16.610  0.2541 -0.4129  0.6423
  457TMC3     H 6862   3.511   3.457  16.755 -0.1274  1.4048  1.2433
  457TMC3    H1 6863   3.545   3.067  16.926  1.1834 -0.3247 -1.2588
  457TMC3    H2 6864   3.442   3.383  17.176 -0.6406 -0.8337  0.5149
  457TMC3    C7 6865   3.575   3.150  17.167 -0.2945 -0.2368 -0.7639
  457TMC3    C8 6866   3.476   3.574  17.001 -0.0396 -0.6234  0.5835
  457TMC3    O1 6867   3.610   3.033  17.151 -0.1417  0.0554  0.4553
  457TMC3    O2 6868   3.501   3.607  17.116  0.1297 -0.3637 -0.1097
  458MPD2     C 6869   0.803   3.164  12.824  0.8180  0.4276  0.0867
  458MPD2    C1 6870   0.811   3.069  12.921  0.7973  0.2556  0.3292
  458MPD2    C2 6871   0.696   3.029  12.993 -0.1444  0.2560 -0.2364
  458MPD2    C3 6872   0.573   3.094  12.965 -0.2208  0.0602 -0.3757
  458MPD2    C4 6873   0.564   3.180  12.861 -0.1388  0.2452  0.7014
  458MPD2    C5 6874   0.678   3.221  12.795 -0.1808  0.0832 -0.0604
  458MPD2     H 6875   0.704   2.942  13.057 -1.7713  0.1875 -0.1126
  458MPD2    H1 6876   0.471   3.224  12.828 -0.2056 -1.7439 -1.7241
  458MPD2    H2 6877   0.893   3.192  12.769 -0.7387  1.1190 -2.1083
  458MPD2    H3 6878   0.668   3.299  12.720  4.2139  1.1958  0.4674
  458MPD2     N 6879   0.463   3.044  13.033 -0.3019  0.3779 -0.0774
  458MPD2    H5 6880   0.487   2.973  13.102 -0.6649  0.5651  0.2348
  458MPD2    N1 6881   0.939   2.997  12.928 -0.0689  0.0158 -0.4324
  458MPD2    H7 6882   1.008   3.020  12.857 -0.1426 -1.4557 -0.9887
  459TMC3    C1 6883   1.112   2.869  13.018  0.1687  0.0217 -0.2776
  459TMC3    C2 6884   1.199   2.956  12.957  0.2276  0.2496 -0.2515
  459TMC3    C3 6885   1.330   2.924  12.967 -0.3545 -0.5405 -0.5995
  459TMC3    C4 6886   1.147   2.745  13.065 -0.1114  0.1455  0.1671
  459TMC3    C5 6887   1.281   2.724  13.067  0.6682  0.0306 -0.3845
  459TMC3    C6 6888   1.374   2.815  13.033  0.3536 -0.1297 -0.3454
  459TMC3     C 6889   0.969   2.900  13.022 -0.1812  0.4853  0.1676
  459TMC3     O 6890   0.904   2.846  13.110  0.2621 -0.1804 -0.0606
  459TMC3     H 6891   1.172   3.049  12.909  0.8854  0.7207  0.2920
  459TMC3    H1 6892   1.075   2.681  13.116 -0.3812 -0.4968 -1.0370
  459TMC3    H2 6893   1.478   2.785  13.034  0.1487 -0.8683 -1.6032
  459TMC3    C7 6894   1.326   2.621  13.162  1.0047 -0.6930 -0.1201
  459TMC3    C8 6895   1.425   2.995  12.888 -0.0295  0.5684 -0.4321
  459TMC3    O1 6896   1.251   2.521  13.176  0.0313  0.4794 -0.7293
  459TMC3    O2 6897   1.541   3.012  12.936 -0.0876 -0.4985 -0.9437
  460MPD2     C 6898   0.918   0.900  11.160 -0.3141 -0.4047  0.0163
  460MPD2    C1 6899   0.795   0.892  11.231  0.2060  0.6037  1.0644
  460MPD2    C2 6900   0.692   0.962  11.180  0.1870 -0.3156  0.0805
  460MPD2    C3 6901   0.699   1.031  11.062 -0.7159 -0.4838  0.5568
  460MPD2    C4 6902   0.823   1.044  10.998 -0.0361 -0.0825 -0.8778
  460MPD2    C5 6903   0.933   0.981  11.050  0.1017 -0.3885  0.1969
  460MPD2     H 6904   0.593   0.957  11.224 -0.2817 -1.3348 -1.0507
  460MPD2    H1 6905   0.838   1.108  10.911  1.1056  1.6597  0.6010
  460MPD2    H2 6906   1.008   0.854  11.201 -0.6871 -1.4787 -0.3594
  460MPD2    H3 6907   1.027   0.985  10.997 -0.0860  2.8628  0.1160
  460MPD2     N 6908   0.575   1.082  11.008 -0.1918 -0.2421 -0.7590
  460MPD2    H5 6909   0.493   1.077  11.068 -0.4986  0.0457 -1.1613
  460MPD2    N1 6910   0.783   0.803  11.344  0.2032 -0.2207  0.5766
  460MPD2    H7 6911   0.846   0.724  11.341  2.0499  1.2720  0.3948
  461TMC3    C1 6912   0.425   1.150  10.849 -0.5324 -0.4451 -0.1384
  461TMC3    C2 6913   0.388   1.064  10.748 -0.2210  0.2826 -0.2053
  461TMC3    C3 6914   0.284   1.115  10.671 -0.3319  0.0286 -0.5074
  461TMC3    C4 6915   0.379   1.278  10.867 -0.3473 -0.6572 -0.1143
  461TMC3    C5 6916   0.283   1.325  10.784 -0.5226 -0.4356 -0.6564
  461TMC3    C6 6917   0.231   1.243  10.685 -0.9899 -0.3924 -0.5177
  461TMC3     C 6918   0.562   1.142  10.885  0.3142 -0.2523 -0.0866
  461TMC3     O 6919   0.640   1.156  10.791 -0.0310  0.2517  0.4296
  461TMC3     H 6920   0.435   0.971  10.719  2.0095  0.3182  3.2976
  461TMC3    H1 6921   0.424   1.349  10.934 -0.9483 -1.7924  1.4873
  461TMC3    H2 6922   0.149   1.276  10.622 -0.9638  2.3691  0.8737
  461TMC3    C7 6923   0.226   1.455  10.811  0.4235  1.0937 -0.0189
  461TMC3    C8 6924   0.223   1.028  10.574 -0.0672 -0.9073  0.4716
  461TMC3    O1 6925   0.239   1.504  10.924 -1.0662 -0.2516 -0.0555
  461TMC3    O2 6926   0.179   1.076  10.470  0.0974  0.4069  0.4933
  462TMC3    C1 6927   0.552   1.150   0.385 -0.6070 -0.1497  0.2379
  462TMC3    C2 6928   0.634   1.047   0.333 -0.7572  0.4386 -0.0006
  462TMC3    C3 6929   0.643   0.927   0.390  0.5507 -0.6811  0.0819
  462TMC3    C4 6930   0.479   1.128   0.499  0.2518 -0.6555  0.0453
  462TMC3    C5 6931   0.497   1.004   0.559 -0.4204  0.0753  0.2286
  462TMC3    C6 6932   0.596   0.918   0.521 -0.5558 -0.4047  0.5688
  462TMC3     C 6933   0.542   1.283   0.321 -0.8187 -0.0025 -0.3280
  462TMC3     O 6934   0.497   1.375   0.384 -0.2312 -0.1807  0.5156
  462TMC3     H 6935   0.706   1.066   0.255 -1.0463 -0.4499 -0.4772
  462TMC3    H1 6936   0.417   1.206   0.542  1.5697  1.1585 -1.3727
  462TMC3    H2 6937   0.581   0.814   0.549 -0.5975 -0.8058 -0.9552
  462TMC3    C7 6938   0.380   0.931   0.597  0.6867 -0.0302 -0.4280
  462TMC3    C8 6939   0.618   0.810   0.293  0.1160 -0.2854 -0.5542
  462TMC3    O1 6940   0.394   0.838   0.678  0.2566 -0.3664  0.3597
  462TMC3    O2 6941   0.507   0.760   0.309  0.0394 -0.4565  0.8524
  463MPD2     C 6942   1.793   0.348   1.630 -0.7342 -0.3817 -0.3106
  463MPD2    C1 6943   1.687   0.418   1.583  0.0617 -0.2925 -0.0421
  463MPD2    C2 6944   1.700   0.553   1.553 -0.0060  0.1951 -0.2596
  463MPD2    C3 6945   1.822   0.615   1.576 -0.2204  0.2165 -0.3010
  463MPD2    C4 6946   1.925   0.544   1.626 -0.5717 -0.4369 -0.7117
  463MPD2    C5 6947   1.907   0.409   1.660  0.2134 -0.5366  0.1176
  463MPD2     H 6948   1.613   0.607   1.516  1.0691  1.7432 -0.5237
  463MPD2    H1 6949   2.019   0.591   1.652 -0.2112 -2.2905  1.3505
  463MPD2    H2 6950   1.794   0.240   1.645  3.6242 -0.4225 -0.8975
  463MPD2    H3 6951   1.978   0.345   1.710 -0.9248 -1.2957  0.7668
  463MPD2     N 6952   1.834   0.755   1.564 -0.3571  0.2725 -0.4088
  463MPD2    H5 6953   1.928   0.792   1.572 -0.5473  0.7122 -0.2183
  463MPD2    N1 6954   1.560   0.361   1.557 -0.0117  0.0788  0.0912
  463MPD2    H7 6955   1.487   0.418   1.516 -1.2194 -2.5680 -1.3866
  464TMC3    C1 6956   1.405   0.183   1.524 -0.4046  0.4709 -0.5918
  464TMC3    C2 6957   1.340   0.251   1.418 -0.2178 -0.1789  0.7284
  464TMC3    C3 6958   1.216   0.197   1.382  0.2047 -0.4189  0.6304
  464TMC3    C4 6959   1.350   0.078   1.582 -0.0421 -0.5963  0.0478
  464TMC3    C5 6960   1.219   0.052   1.557  0.1488 -0.2187  0.3138
  464TMC3    C6 6961   1.142   0.116   1.468 -0.6292  0.3804  0.0634
  464TMC3     C 6962   1.524   0.232   1.585  0.1473 -0.4647 -0.1469
  464TMC3     O 6963   1.588   0.152   1.655  0.3191  0.3912 -0.1682
  464TMC3     H 6964   1.385   0.327   1.356  0.5673  0.7325  2.4256
  464TMC3    H1 6965   1.390   0.037   1.675 -2.1883 -0.2477  1.1333
  464TMC3    H2 6966   1.039   0.097   1.438 -1.0911  0.1308  1.8596
  464TMC3    C7 6967   1.161   4.670   1.609  0.3955  0.2093  0.3791
  464TMC3    C8 6968   1.133   0.299   1.326  0.8212 -0.1583 -0.1373
  464TMC3    O1 6969   1.204   4.642   1.717 -0.8075  0.1652 -0.7344
  464TMC3    O2 6970   1.028   0.326   1.388 -0.1702 -0.4542  0.0939
  465MPD2     C 6971   2.705   3.276  17.123  0.1678  0.1381 -0.4839
  465MPD2    C1 6972   2.572   3.292  17.172  0.7736  1.1050  0.2410
  465MPD2    C2 6973   2.474   3.318  17.073  0.2632 -0.0197  0.3637
  465MPD2    C3 6974   2.511   3.336  16.940 -0.4960  0.3139  0.1972
  465MPD2    C4 6975   2.642   3.324  16.904 -0.0265 -0.1324 -0.4679
  465MPD2    C5 6976   2.743   3.295  16.998 -0.8114 -1.1937  0.1243
  465MPD2     H 6977   2.373   3.339  17.107  0.1339  0.8699 -0.5694
  465MPD2    H1 6978   2.669   3.334  16.799 -1.2510  1.1542 -0.6463
  465MPD2    H2 6979   2.790   3.243  17.182 -0.1511  0.0886 -0.0500
  465MPD2    H3 6980   2.842   3.276  16.960 -0.6153  2.6198 -1.2880
  465MPD2     N 6981   2.410   3.378  16.848 -0.4543  0.2473  0.4132
  465MPD2    H5 6982   2.318   3.380  16.891 -0.8177 -0.8480 -0.3277
  465MPD2    N1 6983   2.549   3.284  17.312 -0.2689  0.0885 -0.1418
  465MPD2    H7 6984   2.450   3.290  17.334 -0.2787 -1.3768  0.2593
  466TMC3    C1 6985   2.105   3.378  16.568 -0.0457  0.0943 -0.6623
  466TMC3    C2 6986   2.109   3.478  16.470  0.6371 -0.9566 -0.4332
  466TMC3    C3 6987   2.217   3.557  16.459 -0.7642 -0.4650 -0.0661
  466TMC3    C4 6988   2.204   3.362  16.660  0.2950  0.6230 -0.3078
  466TMC3    C5 6989   2.312   3.455  16.652  0.4857  0.4584 -0.1299
  466TMC3    C6 6990   2.314   3.550  16.550 -0.2772  0.4013 -0.2370
  466TMC3     C 6991   1.978   3.331  16.615 -0.1037 -0.2488 -0.2550
  466TMC3     O 6992   1.976   3.243  16.702  0.2644  0.7362 -0.1275
  466TMC3     H 6993   2.038   3.488  16.389 -1.1907  0.4632  1.3465
  466TMC3    H1 6994   2.195   3.283  16.734  2.8778 -0.3247 -1.0108
  466TMC3    H2 6995   2.401   3.611  16.527 -1.3511  2.4382  1.0745
  466TMC3    C7 6996   2.430   3.439  16.726  0.4274  0.3125 -0.1974
  466TMC3    C8 6997   2.190   3.691  16.416 -0.0555  0.7618  0.2615
  466TMC3    O1 6998   2.534   3.474  16.672 -0.0315  0.2237  0.1360
  466TMC3    O2 6999   2.108   3.707  16.328 -0.5925  0.4599  0.0470
  467TMC3    C1 7000   3.312   1.869  13.858  0.5884  0.5041  0.0038
  467TMC3    C2 7001   3.259   1.816  13.740 -0.1926 -0.1973  0.4574
  467TMC3    C3 7002   3.135   1.759  13.738  0.1233  0.1579  0.0236
  467TMC3    C4 7003   3.236   1.881  13.969  0.1883  0.9409  0.1351
  467TMC3    C5 7004   3.106   1.830  13.967  0.0113  0.2845  1.0306
  467TMC3    C6 7005   3.051   1.768  13.854 -0.2166  0.0076 -0.2194
  467TMC3     C 7006   3.439   1.935  13.861  0.2885  0.2529  0.0034
  467TMC3     O 7007   3.451   2.018  13.949  0.2303 -0.2501  0.2350
  467TMC3     H 7008   3.313   1.833  13.647 -1.1933 -1.3912 -0.3419
  467TMC3    H1 7009   3.284   1.905  14.063 -0.6308 -0.9202  1.0314
  467TMC3    H2 7010   2.959   1.711  13.856 -1.5392  2.1719 -0.3011
  467TMC3    C7 7011   3.067   1.776  14.099 -0.3345  0.5409 -0.0944
  467TMC3    C8 7012   3.088   1.754  13.604 -0.0045  0.4263 -0.2882
  467TMC3    O1 7013   3.157   1.766  14.183  0.6370 -0.1044  0.2478
  467TMC3    O2 7014   3.114   1.654  13.546  0.6979 -0.0263  0.0360
  468MPD2     C 7015   2.368   0.605  11.311 -0.4110 -0.6367  0.1914
  468MPD2    C1 7016   2.501   0.589  11.295  0.4093  1.1835 -0.2301
  468MPD2    C2 7017   2.553   0.484  11.218  0.0145 -0.2919 -0.1049
  468MPD2    C3 7018   2.468   0.389  11.171  1.3823 -0.6261  0.6279
  468MPD2    C4 7019   2.337   0.398  11.206 -0.3554 -0.6570  0.5538
  468MPD2    C5 7020   2.285   0.503  11.266 -0.2581 -0.7727  0.4951
  468MPD2     H 7021   2.657   0.490  11.189  0.0429 -1.3956 -0.2150
  468MPD2    H1 7022   2.272   0.321  11.167 -1.0858  0.6913 -0.8823
  468MPD2    H2 7023   2.314   0.676  11.373 -0.1038 -1.4769  1.4444
  468MPD2    H3 7024   2.180   0.512  11.288  0.1223  0.2314  1.8995
  468MPD2     N 7025   2.507   0.276  11.101 -0.4087  0.8070 -0.3419
  468MPD2    H5 7026   2.429   0.217  11.072 -1.0204  0.4324  1.9932
  468MPD2    N1 7027   2.593   0.681  11.352 -0.3937  0.6172 -0.9355
  468MPD2    H7 7028   2.689   0.665  11.324 -0.1656 -0.1262  0.2798
  469TMC3    C1 7029   2.687   0.846  11.491 -0.3710  0.4158  0.3273
  469TMC3    C2 7030   2.796   0.768  11.517  0.1375 -0.6572 -0.2801
  469TMC3    C3 7031   2.893   0.825  11.605  0.0376 -0.1359  0.3372
  469TMC3    C4 7032   2.668   0.968  11.542  0.1683 -0.1438 -0.2356
  469TMC3    C5 7033   2.758   1.013  11.644  0.3739 -0.1958  0.2642
  469TMC3    C6 7034   2.877   0.945  11.666 -0.1694 -0.5832 -0.0980
  469TMC3     C 7035   2.565   0.776  11.448  0.5234  0.3365 -0.1137
  469TMC3     O 7036   2.458   0.814  11.492 -0.0741 -0.3196 -0.3294
  469TMC3     H 7037   2.816   0.676  11.463 -0.5958 -0.7746 -0.3510
  469TMC3    H1 7038   2.576   1.022  11.523  0.7057  0.4540 -1.1066
  469TMC3    H2 7039   2.957   0.998  11.717  2.8372 -2.8413 -2.4426
  469TMC3    C7 7040   2.770   1.146  11.669 -0.0731  1.1246 -0.8602
  469TMC3    C8 7041   3.032   0.765  11.618 -0.7366 -0.6459  0.2494
  469TMC3    O1 7042   2.781   1.223  11.576 -0.2548  0.2271  0.0262
  469TMC3    O2 7043   3.125   0.846  11.613  0.2195  0.5562  0.4329
  470TMC3    C1 7044   4.383   1.101   1.206 -0.1865  0.6185  0.0973
  470TMC3    C2 7045   4.488   1.176   1.170  0.3506  0.1495 -0.2306
  470TMC3    C3 7046   4.524   1.274   1.260  0.7932  0.4029  0.2869
  470TMC3    C4 7047   4.318   1.114   1.328  0.1924  0.0645 -0.6222
  470TMC3    C5 7048   4.368   1.210   1.415 -0.6524 -0.0719  0.0921
  470TMC3    C6 7049   4.469   1.293   1.383  0.5861  0.1930  0.2630
  470TMC3     C 7050   4.354   0.980   1.139 -0.4586  0.3551  0.0052
  470TMC3     O 7051   4.240   0.933   1.162  0.4808 -0.2394 -0.2550
  470TMC3     H 7052   4.534   1.157   1.074 -0.6157 -2.3999 -0.2035
  470TMC3    H1 7053   4.249   1.041   1.369  1.7570  0.5515  2.8257
  470TMC3    H2 7054   4.514   1.366   1.450  0.9448 -0.3199  0.5840
  470TMC3    C7 7055   4.338   1.204   1.555  0.9408  0.0345 -0.3964
  470TMC3    C8 7056   4.613   1.383   1.217  0.1774 -0.2774 -0.0473
  470TMC3    O1 7057   4.424   1.245   1.629 -0.6546  0.4061 -0.1524
  470TMC3    O2 7058   4.606   1.488   1.280  0.5868 -0.2919  0.2821
  471MPD2     C 7059   0.093   2.317  16.574 -0.3068 -0.8857  0.0006
  471MPD2    C1 7060   0.056   2.184  16.603  0.3825  0.2737  0.0001
  471MPD2    C2 7061   0.053   2.138  16.733 -0.5188  0.3383  0.6122
  471MPD2    C3 7062   0.085   2.226  16.840 -0.2161  0.2660  0.1720
  471MPD2    C4 7063   0.129   2.351  16.806 -0.3048  0.3987 -0.4575
  471MPD2    C5 7064   0.134   2.393  16.676 -0.3500 -0.1602 -0.0196
  471MPD2     H 7065   0.029   2.034  16.748  0.4667  0.0552  0.2530
  471MPD2    H1 7066   0.167   2.420  16.880 -1.2552  0.0858  0.3132
  471MPD2    H2 7067   0.097   2.366  16.478 -1.9099 -0.9280 -0.0940
  471MPD2    H3 7068   0.173   2.491  16.652 -0.0097  0.5167  3.2357
  471MPD2     N 7069   0.087   2.198  16.983  0.3480  0.4053  0.2346
  471MPD2    H5 7070   0.135   2.266  17.041 -0.4494 -0.8657  2.3591
  471MPD2    N1 7071   0.036   2.089  16.499  0.1013  0.0838  0.0939
  471MPD2    H7 7072   0.029   1.990  16.518 -1.1113 -0.0126 -0.8923
  472TMC3    C1 7073   0.012   2.020  16.276  0.7728  0.2792  0.4793
  472TMC3    C2 7074   4.683   2.030  16.162 -1.0270 -0.6982 -0.9649
  472TMC3    C3 7075   4.658   1.915  16.093 -0.7170  0.3907 -0.4874
  472TMC3    C4 7076   0.081   1.907  16.319 -0.8445  0.0446  0.5224
  472TMC3    C5 7077   0.054   1.793  16.245 -0.2000 -0.2200 -1.0311
  472TMC3    C6 7078   4.712   1.795  16.139  0.2251  0.0372  0.3180
  472TMC3     C 7079   0.011   2.127  16.365  0.0570 -0.1947 -0.2111
  472TMC3     O 7080   4.724   2.235  16.321  0.1722  0.1605 -0.6412
  472TMC3     H 7081   4.637   2.122  16.129  1.0285  0.6565 -0.0462
  472TMC3    H1 7082   0.153   1.899  16.400 -0.3868 -0.6879  0.0485
  472TMC3    H2 7083   4.692   1.707  16.079 -0.8641 -0.3839  1.2897
  472TMC3    C7 7084   0.058   1.667  16.320  0.0064  0.1595  0.0753
  472TMC3    C8 7085   4.521   1.901  16.060  0.0193 -0.4598  0.3358
  472TMC3    O1 7086   0.136   1.669  16.419  0.0469 -0.0938 -0.2317
  472TMC3    O2 7087   4.477   1.927  15.944  0.5809  0.1086  0.1207
  473MPD2     C 7088   0.690   4.473  13.787 -0.0710  0.0321  0.4256
  473MPD2    C1 7089   0.553   4.463  13.803  0.0357 -0.2207 -0.0372
  473MPD2    C2 7090   0.495   4.523  13.918 -0.2114  0.6299  0.3342
  473MPD2    C3 7091   0.573   4.573  14.017  0.0121  0.2445  0.0041
  473MPD2    C4 7092   0.709   4.564  14.010 -0.2853  0.3400 -0.6977
  473MPD2    C5 7093   0.761   4.527  13.892 -0.1673  0.0372 -0.3106
  473MPD2     H 7094   0.387   4.526  13.931 -0.4516 -0.9670 -1.3663
  473MPD2    H1 7095   0.780   4.593  14.087 -0.9678  1.4590 -0.4934
  473MPD2    H2 7096   0.740   4.443  13.696 -0.8224 -1.3060  0.4492
  473MPD2    H3 7097   0.868   4.521  13.876  0.2285 -1.7902  2.9119
  473MPD2     N 7098   0.517   4.629  14.133 -0.3195  0.0910  0.1537
  473MPD2    H5 7099   0.591   4.659  14.196  0.3605 -1.0162 -0.1180
  473MPD2    N1 7100   0.457   4.416  13.708 -0.3234 -0.3083  0.0234
  473MPD2    H7 7101   0.362   4.408  13.744 -0.1819  0.4617  0.5511
  474TMC3    C1 7102   0.373   4.699  14.302 -0.1134 -0.3817  0.4811
  474TMC3    C2 7103   0.255   0.032  14.318 -0.5937 -0.0752  0.8822
  474TMC3    C3 7104   0.263   0.135  14.411 -0.0811  0.2001  0.3071
  474TMC3    C4 7105   0.483   4.704  14.383 -0.1744  0.6368 -0.0577
  474TMC3    C5 7106   0.475   0.047  14.493 -0.0845 -0.3793 -0.7057
  474TMC3    C6 7107   0.377   0.145  14.492 -0.2911 -0.6587  0.1593
  474TMC3     C 7108   0.385   4.640  14.171  0.5299 -0.0321  0.2448
  474TMC3     O 7109   0.287   4.627  14.096  0.3227  0.3095 -0.5228
  474TMC3     H 7110   0.178   0.032  14.241 -0.8793 -1.8858  1.1674
  474TMC3    H1 7111   0.559   4.628  14.367 -2.3319 -1.2213 -1.5390
  474TMC3    H2 7112   0.390   0.232  14.557 -1.5339 -0.2903 -0.0684
  474TMC3    C7 7113   0.594   0.049  14.574 -0.8138  0.2885  0.5004
  474TMC3    C8 7114   0.190   0.262  14.401  0.1221 -0.0758  0.3465
  474TMC3    O1 7115   0.684   4.731  14.515  0.2622 -0.2135  0.1390
  474TMC3    O2 7116   0.221   0.354  14.468 -0.5968 -0.0939  0.4502
  475MPD2     C 7117   3.345   3.105  10.330 -0.3911  0.0555  0.3895
  475MPD2    C1 7118   3.431   3.196  10.386  0.1459  0.0997 -0.0809
  475MPD2    C2 7119   3.400   3.241  10.513 -0.0132 -0.4257  0.7550
  475MPD2    C3 7120   3.287   3.210  10.578 -0.2848  0.2128  0.0998
  475MPD2    C4 7121   3.203   3.116  10.528 -0.2317 -0.3048  0.3748
  475MPD2    C5 7122   3.239   3.062  10.411 -0.1587  1.6189 -0.2308
  475MPD2     H 7123   3.473   3.304  10.563 -1.2063  0.9744  0.7666
  475MPD2    H1 7124   3.105   3.095  10.569 -0.5833 -1.5259 -1.0862
  475MPD2    H2 7125   3.374   3.061  10.235 -2.8722  0.1896 -0.4296
  475MPD2    H3 7126   3.176   2.991  10.359 -0.7553  2.6627 -0.9434
  475MPD2     N 7127   3.251   3.289  10.697  0.1612 -0.2394 -0.5027
  475MPD2    H5 7128   3.313   3.362  10.732  0.7704 -1.1801  0.3768
  475MPD2    N1 7129   3.538   3.243  10.305  0.2372  0.0978  0.4344
  475MPD2    H7 7130   3.574   3.179  10.234 -1.0567 -0.0945 -0.0478
  476TMC3    C1 7131   3.551   3.472  10.388  0.0424  0.1318 -0.0696
  476TMC3    C2 7132   3.427   3.500  10.351  1.1926 -0.9178 -0.4005
  476TMC3    C3 7133   3.366   3.594  10.424  0.0430 -0.2349  0.7985
  476TMC3    C4 7134   3.613   3.516  10.500 -0.9566 -0.0659 -0.2450
  476TMC3    C5 7135   3.548   3.606  10.572  0.1245  0.3650  0.4536
  476TMC3    C6 7136   3.427   3.648  10.535 -0.0672 -0.2183  0.0182
  476TMC3     C 7137   3.614   3.357  10.318 -0.2296 -0.2049 -0.1872
  476TMC3     O 7138   3.715   3.387  10.255  0.1998  0.2474  0.2935
  476TMC3     H 7139   3.383   3.449  10.266  0.0967  0.4632 -0.6724
  476TMC3    H1 7140   3.701   3.469  10.543 -0.2166 -0.9411 -2.6938
  476TMC3    H2 7141   3.377   3.710  10.608 -0.6605  1.2257 -1.6186
  476TMC3    C7 7142   3.542   3.574  10.714  0.2677  0.0416 -1.0250
  476TMC3    C8 7143   3.221   3.601  10.424 -0.2087 -1.1365 -0.3866
  476TMC3    O1 7144   3.505   3.460  10.747  0.6966 -0.4640 -0.1257
  476TMC3    O2 7145   3.169   3.705  10.461 -0.1467  0.2255 -0.5033
  477MPD2     C 7146   0.889   4.069  11.671  0.2432  0.0187  0.2833
  477MPD2    C1 7147   0.992   4.151  11.722 -0.0405 -0.3530  0.0004
  477MPD2    C2 7148   1.096   4.094  11.795 -0.2312 -0.0150 -0.1226
  477MPD2    C3 7149   1.105   3.957  11.819  0.8807  0.3795  0.3278
  477MPD2    C4 7150   1.008   3.879  11.758  0.4874 -0.4105 -0.0506
  477MPD2    C5 7151   0.897   3.935  11.696 -0.2116 -0.0594  0.2987
  477MPD2     H 7152   1.177   4.156  11.832  1.4201 -1.5175 -1.2655
  477MPD2    H1 7153   1.005   3.771  11.769  0.1332 -0.4075 -0.1024
  477MPD2    H2 7154   0.807   4.102  11.609  0.8804  3.5909  1.3459
  477MPD2    H3 7155   0.821   3.870  11.654 -0.4673  0.4334  0.0060
  477MPD2     N 7156   1.195   3.888  11.910 -0.3171  0.2929  0.0375
  477MPD2    H5 7157   1.213   3.788  11.906 -1.9704  0.0273 -0.8062
  477MPD2    N1 7158   0.960   4.286  11.707  0.2383  0.1482 -0.0640
  477MPD2    H7 7159   0.884   4.308  11.645 -0.8890  0.2189  1.3388
  478TMC3    C1 7160   1.011   4.517  11.703  0.4135 -0.5800 -0.3016
  478TMC3    C2 7161   1.009   4.629  11.786  0.3884 -0.1879 -0.2282
  478TMC3    C3 7162   0.947   0.001  11.733 -0.8962  0.5629  0.0419
  478TMC3    C4 7163   0.959   4.521  11.575  0.2520 -0.2657  0.2222
  478TMC3    C5 7164   0.910   4.635  11.522 -0.1568 -0.3077  0.3073
  478TMC3    C6 7165   0.895   0.004  11.609  0.3651  0.4624 -0.4043
  478TMC3     C 7166   1.020   4.393  11.778 -0.5471  0.4161  0.1625
  478TMC3     O 7167   1.088   4.390  11.881 -0.5505 -0.1960 -0.3209
  478TMC3     H 7168   1.041   4.628  11.889 -1.7356  0.1822  0.4348
  478TMC3    H1 7169   0.983   4.442  11.505 -0.3265 -2.3424  2.3891
  478TMC3    H2 7170   0.863   0.097  11.563 -0.1293 -0.8075 -2.6448
  478TMC3    C7 7171   0.920   4.651  11.379  0.2909  0.6010  0.0717
  478TMC3    C8 7172   0.945   0.119  11.818 -0.7087  0.0101  0.7474
  478TMC3    O1 7173   0.926   4.548  11.310  0.2587 -0.7395 -0.5078
  478TMC3    O2 7174   1.044   0.131  11.890 -0.0841  0.1693 -0.3252
  479MPD2     C 7175   4.621   1.530  15.219  0.0283  0.8260  0.0096
  479MPD2    C1 7176   4.578   1.469  15.340  0.2189  0.4414  0.8500
  479MPD2    C2 7177   4.589   1.535  15.460 -0.0801 -0.0282  0.3293
  479MPD2    C3 7178   4.649   1.659  15.466  0.4871  0.0486  0.0845
  479MPD2    C4 7179   4.695   1.715  15.348  0.5945 -0.2865  0.3329
  479MPD2    C5 7180   4.686   1.648  15.227  0.1508 -0.5653 -0.5201
  479MPD2     H 7181   4.561   1.483  15.551  0.8679  0.2756  0.7934
  479MPD2    H1 7182   0.013   1.805  15.355  1.2884 -0.6700 -0.7407
  479MPD2    H2 7183   4.620   1.477  15.125  0.6458 -0.5878  0.8048
  479MPD2    H3 7184   0.000   1.692  15.146  1.5091  0.4026  0.9342
  479MPD2     N 7185   4.673   1.724  15.591 -0.5159  0.4102  0.2004
  479MPD2    H5 7186   4.714   1.816  15.583  2.0060 -0.5114  2.2031
  479MPD2    N1 7187   4.514   1.348  15.319  0.3325 -0.1569  0.0725
  479MPD2    H7 7188   4.503   1.322  15.221 -2.7287 -0.8627  0.6021
  480TMC3    C1 7189   4.375   1.472  15.852 -0.2273 -0.3587 -0.1823
  480TMC3    C2 7190   4.275   1.492  15.768 -0.2770 -0.1716  0.0144
  480TMC3    C3 7191   4.287   1.586  15.660 -0.0933 -0.0080 -0.1179
  480TMC3    C4 7192   4.495   1.530  15.831 -0.5214 -0.6231 -0.1842
  480TMC3    C5 7193   4.503   1.620  15.726 -0.3233 -0.4020 -0.0792
  480TMC3    C6 7194   4.401   1.659  15.646  0.7142  0.7995 -0.1327
  480TMC3     C 7195   4.379   1.351  15.930  0.1008  0.4533 -0.4627
  480TMC3     O 7196   4.489   1.298  15.960  0.1208 -0.2109 -0.4397
  480TMC3     H 7197   4.195   1.420  15.752 -0.0233 -0.1807 -1.1961
  480TMC3    H1 7198   4.582   1.494  15.885 -0.0402  0.6089 -0.1441
  480TMC3    H2 7199   4.410   1.739  15.574  0.4094 -0.3578 -1.4488
  480TMC3    C7 7200   4.629   1.687  15.715 -0.4934 -0.0664 -1.0572
  480TMC3    C8 7201   4.195   1.567  15.546 -0.1811 -0.6067  0.1728
  480TMC3    O1 7202   4.686   1.718  15.816 -0.4718 -0.1825  0.3371
  480TMC3    O2 7203   4.088   1.516  15.578 -0.3801 -0.0305  0.7231
  481MPD2     C 7204   1.177   1.085  14.191 -0.4543 -0.1209  0.4195
  481MPD2    C1 7205   1.089   1.031  14.278  0.1644 -0.6328  0.4571
  481MPD2    C2 7206   1.137   0.991  14.403 -0.2155 -0.5684 -0.8084
  481MPD2    C3 7207   1.266   1.016  14.437 -0.8876 -0.2013 -0.6521
  481MPD2    C4 7208   1.355   1.061  14.347  0.1932  0.1768  0.9453
  481MPD2    C5 7209   1.309   1.096  14.221  0.9490 -0.1026  0.3368
  481MPD2     H 7210   1.067   0.969  14.483  1.5777 -1.4783  0.4949
  481MPD2    H1 7211   1.458   1.084  14.370  0.6689 -0.2874 -0.7135
  481MPD2    H2 7212   1.143   1.119  14.093  0.2710 -1.4252 -0.2845
  481MPD2    H3 7213   1.371   1.136  14.141 -0.5773 -1.1130 -1.3758
  481MPD2     N 7214   1.321   0.978  14.561  0.6716 -0.5357  0.6832
  481MPD2    H5 7215   1.419   1.002  14.570  0.9756 -1.4140 -0.1839
  481MPD2    N1 7216   0.948   1.016  14.241  0.4015 -0.4178 -0.0782
  481MPD2    H7 7217   0.924   1.064  14.155  0.6548  1.9470  1.1776
  482TMC3    C1 7218   0.729   0.960  14.245  0.6036 -0.2707  0.5069
  482TMC3    C2 7219   0.668   0.854  14.175  0.4225 -0.5147  0.1872
  482TMC3    C3 7220   0.556   0.882  14.094  0.3439  0.3738  0.4308
  482TMC3    C4 7221   0.695   1.086  14.216  0.6573  0.0716 -0.7656
  482TMC3    C5 7222   0.581   1.103  14.143  0.1007  0.2642 -0.5484
  482TMC3    C6 7223   0.516   1.010  14.075  0.2755  1.3308 -0.6057
  482TMC3     C 7224   0.860   0.930  14.301  0.1050  0.0841 -0.5880
  482TMC3     O 7225   0.879   0.830  14.373  0.2240 -0.3267  0.0646
  482TMC3     H 7226   0.703   0.755  14.201  4.1098  0.4300 -1.2187
  482TMC3    H1 7227   0.732   1.165  14.281 -0.5605  0.5021 -0.5912
  482TMC3    H2 7228   0.427   1.036  14.018 -0.1733  0.3253 -0.3734
  482TMC3    C7 7229   0.562   1.233  14.088 -0.1621 -0.7575 -0.0836
  482TMC3    C8 7230   0.535   0.788  13.991 -0.9216  0.3525 -0.0777
  482TMC3    O1 7231   0.448   1.278  14.084  0.0000  0.1273  0.1191
  482TMC3    O2 7232   0.603   0.682  13.991  0.0209 -0.7238  0.3286
  483TMC3    C1 7233   3.643   4.613   0.806 -0.5471  0.1276  0.2671
  483TMC3    C2 7234   3.761   4.664   0.844  0.0489 -0.4896  0.3954
  483TMC3    C3 7235   3.868   4.647   0.763  0.1885 -1.4774 -0.3925
  483TMC3    C4 7236   3.627   4.531   0.694  0.3405  0.4140 -0.0296
  483TMC3    C5 7237   3.742   4.500   0.628  0.1897  0.3176 -0.4608
  483TMC3    C6 7238   3.857   4.566   0.654  0.1536  0.3202  0.4374
  483TMC3     C 7239   3.567   4.557   0.914 -0.0027  0.5465 -0.5191
  483TMC3     O 7240   3.543   4.620   1.014 -0.0208  0.2227  0.2469
  483TMC3     H 7241   3.770   4.702   0.945 -0.7313 -1.0263  0.6666
  483TMC3    H1 7242   3.531   4.487   0.670 -0.2649  0.4014  2.3473
  483TMC3    H2 7243   3.947   4.540   0.599  1.5183  2.3920  1.6913
  483TMC3    C7 7244   3.762   4.353   0.613  0.8309 -0.8050  0.5844
  483TMC3    C8 7245   4.001   4.693   0.801 -0.0648  0.4989  0.1426
  483TMC3    O1 7246   3.877   4.307   0.614 -0.0667 -0.3156 -0.1025
  483TMC3    O2 7247   4.081   4.686   0.713 -0.0891  0.1960  0.1512
  484MPD2     C 7248   1.408   3.085  12.525 -0.1899 -0.3097 -0.2665
  484MPD2    C1 7249   1.464   3.055  12.646 -0.4069 -0.2065 -0.6166
  484MPD2    C2 7250   1.603   3.055  12.655  0.1154  0.0738 -0.7847
  484MPD2    C3 7251   1.684   3.107  12.551  0.3210 -0.2225  0.5128
  484MPD2    C4 7252   1.622   3.145  12.434  1.1167 -0.0407 -0.1626
  484MPD2    C5 7253   1.483   3.136  12.423  0.8887  0.4709  0.3045
  484MPD2     H 7254   1.662   3.024  12.740  0.6024  0.3951 -1.0102
  484MPD2    H1 7255   1.680   3.181  12.349  0.4239 -1.5617 -1.2548
  484MPD2    H2 7256   1.301   3.077  12.509 -0.2862 -0.6635  0.5436
  484MPD2    H3 7257   1.439   3.163  12.328  1.2594  0.8638  0.2415
  484MPD2     N 7258   1.828   3.117  12.551 -0.2159 -0.7348  0.4628
  484MPD2    H5 7259   1.866   3.149  12.462 -0.8575  3.0130  1.5390
  484MPD2    N1 7260   1.381   3.023  12.761  0.0645  0.5211 -0.0192
  484MPD2    H7 7261   1.281   3.026  12.747 -0.2226 -0.4614  1.8664
  485TMC3    C1 7262   2.049   3.096  12.634 -0.1852 -0.3370 -0.1677
  485TMC3    C2 7263   2.101   3.150  12.747  0.3816 -0.4296 -0.0269
  485TMC3    C3 7264   2.170   3.266  12.740  0.0866  0.5510 -0.4464
  485TMC3    C4 7265   2.080   3.152  12.518 -0.3149 -0.4871  0.5372
  485TMC3    C5 7266   2.161   3.256  12.509 -0.0085  0.0229  0.0864
  485TMC3    C6 7267   2.215   3.313  12.622  0.3114 -0.4931 -0.2845
  485TMC3     C 7268   1.908   3.064  12.647  0.6029 -0.3074 -0.8565
  485TMC3     O 7269   1.892   3.019  12.758  0.5962 -0.1034  0.2920
  485TMC3     H 7270   2.057   3.125  12.843 -2.1448  1.0049 -0.8451
  485TMC3    H1 7271   2.032   3.109  12.431  0.5998 -0.6480  0.1148
  485TMC3    H2 7272   2.281   3.398  12.607  1.7755 -1.8162 -1.4953
  485TMC3    C7 7273   2.260   3.276  12.400  0.1296 -0.1465  0.3754
  485TMC3    C8 7274   2.274   3.298  12.839  0.0432  0.5116 -0.0675
  485TMC3    O1 7275   2.284   3.174  12.336  0.1645  0.7777 -0.0372
  485TMC3    O2 7276   2.356   3.383  12.814 -0.3057  0.3128 -0.4180
  486MPD2     C 7277   4.279   1.762  12.936 -0.2827 -0.3923 -0.2563
  486MPD2    C1 7278   4.149   1.735  12.890  0.3840  0.0264  0.1993
  486MPD2    C2 7279   4.075   1.838  12.838  0.3058 -0.1484  0.4817
  486MPD2    C3 7280   4.115   1.964  12.844 -0.5047  0.0419 -0.0173
  486MPD2    C4 7281   4.232   1.990  12.912 -0.0406 -0.5397  0.4665
  486MPD2    C5 7282   4.314   1.893  12.950  0.0377 -0.3720 -0.1703
  486MPD2     H 7283   3.978   1.809  12.799  1.1774 -3.1770  0.5338
  486MPD2    H1 7284   4.268   2.090  12.930  1.3016 -1.7237  4.2675
  486MPD2    H2 7285   4.342   1.688  12.984 -0.6132 -0.7070 -0.3070
  486MPD2    H3 7286   4.402   1.920  13.008 -0.0847 -0.3970  0.0261
  486MPD2     N 7287   4.032   2.074  12.810 -0.5047  0.0698 -0.0008
  486MPD2    H5 7288   4.057   2.166  12.843  0.7081  0.6425 -2.5783
  486MPD2    N1 7289   4.102   1.602  12.891 -0.0544 -0.8547 -0.6285
  486MPD2    H7 7290   4.171   1.527  12.903 -0.9409 -1.4031  1.1707
  487TMC3    C1 7291   3.954   1.420  12.865 -0.8024 -0.2963  0.4349
  487TMC3    C2 7292   3.844   1.370  12.796  0.1986 -0.2365  0.3642
  487TMC3    C3 7293   3.798   1.244  12.829 -0.2821  0.1996  0.3543
  487TMC3    C4 7294   4.025   1.340  12.947  0.4577  0.2910 -0.6366
  487TMC3    C5 7295   3.987   1.212  12.963 -0.1101 -0.2712  0.3451
  487TMC3    C6 7296   3.879   1.155  12.889 -0.1219  0.7029 -0.3367
  487TMC3     C 7297   3.970   1.564  12.866  0.6695 -1.3724  0.1393
  487TMC3     O 7298   3.866   1.628  12.855  0.6455  0.6858  0.1556
  487TMC3     H 7299   3.778   1.432  12.737  1.0882 -0.4110 -0.8065
  487TMC3    H1 7300   4.091   1.390  13.018 -0.2594  0.3963 -0.0446
  487TMC3    H2 7301   3.830   1.061  12.911  2.1789 -0.8681 -1.9340
  487TMC3    C7 7302   4.000   1.164  13.100 -0.3767 -0.3306  0.5525
  487TMC3    C8 7303   3.668   1.262  12.893  0.1732 -0.0145  0.0612
  487TMC3    O1 7304   4.106   1.190  13.158 -0.2566  0.4014 -0.1038
  487TMC3    O2 7305   3.645   1.182  12.982 -0.1302  0.6324 -0.2612
  488MPD2     C 7306   4.304   3.002  16.613  0.2708  0.1383 -0.3926
  488MPD2    C1 7307   4.277   3.137  16.622 -0.3474  0.1077  0.2838
  488MPD2    C2 7308   4.246   3.187  16.748 -0.0171  0.2945  0.2787
  488MPD2    C3 7309   4.263   3.114  16.863  0.7138 -0.0185 -0.9791
  488MPD2    C4 7310   4.293   2.981  16.851 -0.1100  0.9297  0.0917
  488MPD2    C5 7311   4.318   2.927  16.727 -0.6171 -0.4501 -0.3567
  488MPD2     H 7312   4.233   3.294  16.758  1.8477  0.5139  0.3319
  488MPD2    H1 7313   4.311   2.920  16.939  2.0239 -1.9058 -2.3113
  488MPD2    H2 7314   4.330   2.957  16.518 -0.9067  0.6900 -0.9734
  488MPD2    H3 7315   4.343   2.821  16.730  1.9428  0.1357 -0.7704
  488MPD2     N 7316   4.229   3.175  16.988  0.0923  0.3755  0.2303
  488MPD2    H5 7317   4.207   3.274  16.985 -1.9676 -0.1120 -0.8374
  488MPD2    N1 7318   4.281   3.231  16.513 -0.0861 -0.1070  0.4716
  488MPD2    H7 7319   4.273   3.330  16.533 -2.9233 -0.2855  0.2538
  489TMC3    C1 7320   4.191   3.200  17.225  0.2124  0.4885 -0.0502
  489TMC3    C2 7321   4.142   3.318  17.199 -0.4536  0.6094  0.3543
  489TMC3    C3 7322   4.102   3.400  17.298 -0.4781  0.1538 -0.1688
  489TMC3    C4 7323   4.201   3.152  17.355 -0.4100 -0.7211  0.2248
  489TMC3    C5 7324   4.153   3.238  17.452 -0.6031  0.8010  0.6819
  489TMC3    C6 7325   4.103   3.368  17.426  0.3840 -0.7985 -0.4211
  489TMC3     C 7326   4.233   3.114  17.108  0.6378 -0.2409 -0.7174
  489TMC3     O 7327   4.277   3.004  17.140 -0.6656 -0.4859 -0.3035
  489TMC3     H 7328   4.139   3.360  17.099 -0.1471  0.7869  0.4178
  489TMC3    H1 7329   4.256   3.060  17.372 -0.4405 -0.7312  0.2675
  489TMC3    H2 7330   4.066   3.423  17.512 -0.3516  1.4701 -2.1808
  489TMC3    C7 7331   4.186   3.215  17.589  0.8162 -0.5691 -0.8125
  489TMC3    C8 7332   4.088   3.541  17.271  0.3543 -0.5993  0.8015
  489TMC3    O1 7333   4.175   3.312  17.659  0.6106  0.4877 -0.3409
  489TMC3    O2 7334   4.144   3.578  17.167 -0.1162  0.4657  0.5256
  490MPD2     C 7335   0.366   2.841  17.216 -0.3368 -0.0926  0.5153
  490MPD2    C1 7336   0.338   2.772  17.334 -0.0211 -0.2020  0.3367
  490MPD2    C2 7337   0.437   2.777  17.436  0.1068 -0.7682 -0.1672
  490MPD2    C3 7338   0.553   2.850  17.415 -0.2149  0.2892  0.3235
  490MPD2    C4 7339   0.575   2.915  17.297  0.2393 -0.1147  0.3814
  490MPD2    C5 7340   0.483   2.907  17.201  0.4295 -0.2530  0.7572
  490MPD2     H 7341   0.423   2.711  17.521  0.1251 -2.0917 -1.1948
  490MPD2    H1 7342   0.662   2.977  17.280  0.5012 -0.4201  0.6160
  490MPD2    H2 7343   0.317   2.837  17.120 -0.8236 -1.2910  0.8062
  490MPD2    H3 7344   0.498   2.966  17.112 -0.5641  1.1443  1.5014
  490MPD2     N 7345   0.660   2.851  17.503 -0.5325 -1.1054 -0.3647
  490MPD2    H5 7346   0.751   2.881  17.471 -0.2270  0.1127  1.6068
  490MPD2    N1 7347   0.232   2.691  17.354 -0.5076 -0.4056 -0.1588
  490MPD2    H7 7348   0.234   2.628  17.433  0.7654  0.3967  0.4554
  491TMC3    C1 7349   0.033   2.567  17.311  0.5266  1.7897  0.5885
  491TMC3    C2 7350   0.071   2.479  17.408 -0.4098  0.2883  0.2518
  491TMC3    C3 7351   0.005   2.360  17.411  0.0776  0.1471  0.1324
  491TMC3    C4 7352   4.676   2.540  17.223  0.5240 -0.1368 -0.3610
  491TMC3    C5 7353   4.614   2.424  17.240 -0.9939  0.0924  0.0531
  491TMC3    C6 7354   4.647   2.327  17.335 -0.1996 -0.0067 -0.6771
  491TMC3     C 7355   0.120   2.674  17.275  0.2119 -0.2736  0.2501
  491TMC3     O 7356   0.092   2.747  17.181  0.8783 -0.3569  0.2550
  491TMC3     H 7357   0.158   2.492  17.471 -1.6903 -0.2700  2.1280
  491TMC3    H1 7358   4.653   2.615  17.148 -1.5943 -0.0111  0.4056
  491TMC3    H2 7359   4.598   2.233  17.354  0.6694 -0.2454  0.3474
  491TMC3    C7 7360   4.507   2.384  17.153  0.4387  0.5486 -0.0210
  491TMC3    C8 7361   0.011   2.282  17.535 -0.2290 -0.0170  0.3805
  491TMC3    O1 7362   4.484   2.268  17.165 -0.1924 -0.2803  0.2593
  491TMC3    O2 7363   4.653   2.220  17.569 -0.4199  0.0656 -0.0338
  492MPD2     C 7364   0.706   2.946  11.179  0.1013 -0.0313  0.1363
  492MPD2    C1 7365   0.579   3.000  11.162  0.3174  1.0507 -1.0532
  492MPD2    C2 7366   0.489   2.968  11.269  1.0033 -0.0358 -0.2534
  492MPD2    C3 7367   0.519   2.886  11.371 -0.7700 -0.1678  0.1859
  492MPD2    C4 7368   0.644   2.834  11.371  0.6601 -0.1342 -0.2684
  492MPD2    C5 7369   0.740   2.866  11.283  1.0524  0.4608 -0.8436
  492MPD2     H 7370   0.389   3.011  11.273  0.7318 -0.3996 -2.9244
  492MPD2    H1 7371   0.675   2.768  11.451  2.0255  0.3052 -0.4321
  492MPD2    H2 7372   0.788   2.971  11.112 -0.5102 -0.1603 -0.6635
  492MPD2    H3 7373   0.844   2.835  11.282  0.7621 -0.4996  0.0371
  492MPD2     N 7374   0.434   2.836  11.471 -0.1632  0.1099  0.2618
  492MPD2    H5 7375   0.476   2.789  11.550 -2.7579 -0.2995  1.3972
  492MPD2    N1 7376   0.554   3.095  11.057 -0.5568 -0.2374 -0.5224
  492MPD2    H7 7377   0.629   3.128  10.996  0.6815  0.2731  1.2799
  493TMC3    C1 7378   0.438   3.237  10.917  0.7136  0.2427 -0.0603
  493TMC3    C2 7379   0.536   3.330  10.913  0.0239 -0.6204  0.1259
  493TMC3    C3 7380   0.538   3.426  10.814  0.6669  0.6670  0.2022
  493TMC3    C4 7381   0.322   3.254  10.845 -0.1972  1.1873 -0.7262
  493TMC3    C5 7382   0.319   3.363  10.759 -0.0153  0.1345 -0.1497
  493TMC3    C6 7383   0.430   3.440  10.731  0.6633 -0.4756  0.4515
  493TMC3     C 7384   0.431   3.141  11.018 -1.0661  1.1065 -1.1677
  493TMC3     O 7385   0.323   3.109  11.059  0.3248 -0.7938 -0.1209
  493TMC3     H 7386   0.607   3.327  10.995  1.1644  3.2578 -0.7335
  493TMC3    H1 7387   0.242   3.181  10.853 -0.7462  1.8437 -0.2741
  493TMC3    H2 7388   0.429   3.500  10.641  1.7184 -0.8826  0.1720
  493TMC3    C7 7389   0.193   3.391  10.695  0.2181  0.4876  0.6298
  493TMC3    C8 7390   0.677   3.486  10.801 -0.3630  0.3521 -0.6358
  493TMC3    O1 7391   0.194   3.410  10.576 -0.2759 -0.7402 -0.0847
  493TMC3    O2 7392   0.762   3.436  10.880  0.1910  0.4375  0.2029
  494TMC3    C1 7393   0.784   0.086   0.295 -0.6236  1.0437  0.5873
  494TMC3    C2 7394   0.802   4.696   0.272 -0.0388  0.3020  0.0799
  494TMC3    C3 7395   0.876   4.662   0.158  0.2154  0.6776 -0.4162
  494TMC3    C4 7396   0.853   0.189   0.223  0.4822  0.3853  0.0035
  494TMC3    C5 7397   0.929   0.145   0.114  0.3762  0.5693  0.2293
  494TMC3    C6 7398   0.935   0.015   0.078  0.3884  0.1403  0.3987
  494TMC3     C 7399   0.712   0.129   0.410 -1.1336 -0.1904  0.2731
  494TMC3     O 7400   0.754   0.234   0.454  0.8160 -0.4771  0.2198
  494TMC3     H 7401   0.776   4.621   0.345 -0.3221  2.1526  1.8681
  494TMC3    H1 7402   0.847   0.291   0.258 -1.4671  0.4594 -0.5600
  494TMC3    H2 7403   1.000   4.729  17.759  1.9907 -1.7971  2.3088
  494TMC3    C7 7404   1.034   0.231   0.071  0.3271  0.2307 -0.5345
  494TMC3    C8 7405   0.938   4.534   0.165 -0.0085 -0.8308  0.4773
  494TMC3    O1 7406   1.104   0.190  17.744 -0.5628  0.6506 -0.4216
  494TMC3    O2 7407   0.950   4.482   0.275 -0.4721 -1.0440 -0.2755
  495TMC3    C1 7408   4.571   1.517  14.667  0.0167  0.0819 -0.2952
  495TMC3    C2 7409   4.595   1.588  14.551 -0.1197  0.5744 -0.0049
  495TMC3    C3 7410   4.514   1.698  14.529  0.5492  0.3304 -0.5981
  495TMC3    C4 7411   4.484   1.553  14.759 -0.4755 -0.4542  0.4576
  495TMC3    C5 7412   4.397   1.647  14.733 -0.0187  0.3906 -0.2314
  495TMC3    C6 7413   4.411   1.727  14.615 -0.3793  0.1090 -0.4666
  495TMC3     C 7414   4.594   1.374  14.660  1.1944 -1.0667  0.6311
  495TMC3     O 7415   4.578   1.312  14.762 -0.6110 -0.0995 -0.3800
  495TMC3     H 7416   4.678   1.573  14.482  1.3019 -0.1861  1.8765
  495TMC3    H1 7417   4.474   1.491  14.848 -1.4531  0.0730  0.7090
  495TMC3    H2 7418   4.333   1.801  14.602 -2.9982 -2.2941  1.5098
  495TMC3    C7 7419   4.274   1.653  14.821  0.8833 -0.5523  0.5664
  495TMC3    C8 7420   4.514   1.759  14.396 -0.3214  0.5190 -0.0071
  495TMC3    O1 7421   4.165   1.686  14.780  0.2156 -0.0889  0.3188
  495TMC3    O2 7422   4.616   1.772  14.334 -0.0348  0.2006  0.3341
  496MPD2     C 7423   1.277   1.698  15.636  0.4221  0.6829  0.4840
  496MPD2    C1 7424   1.345   1.578  15.644  0.0985  0.3826 -0.6290
  496MPD2    C2 7425   1.267   1.465  15.657 -0.5313 -0.0036 -0.1653
  496MPD2    C3 7426   1.127   1.469  15.657  0.3540  0.9057 -0.6772
  496MPD2    C4 7427   1.065   1.591  15.670 -0.7349 -0.5365  0.7001
  496MPD2    C5 7428   1.143   1.708  15.656 -0.3228 -0.2718  0.2820
  496MPD2     H 7429   1.322   1.371  15.652  0.4042  0.4602  1.4683
  496MPD2    H1 7430   0.958   1.602  15.685 -1.2938 -0.6196 -3.3922
  496MPD2    H2 7431   1.322   1.796  15.627  5.4280 -1.9551 -2.9578
  496MPD2    H3 7432   1.097   1.806  15.662 -1.6647 -0.8550 -0.3678
  496MPD2     N 7433   1.038   1.356  15.661 -0.0428  0.0880  0.6007
  496MPD2    H5 7434   0.942   1.387  15.649  0.0233 -0.7161 -1.9301
  496MPD2    N1 7435   1.485   1.567  15.650 -0.4650  0.0599  0.0901
  496MPD2    H7 7436   1.516   1.470  15.653  2.4471  0.9643 -1.9198
  497TMC3    C1 7437   1.188   1.178  15.713 -0.3567 -0.5135  0.2012
  497TMC3    C2 7438   1.270   1.094  15.657 -0.4339 -0.8907  0.7018
  497TMC3    C3 7439   1.387   1.053  15.723 -0.1229 -0.5669  0.4764
  497TMC3    C4 7440   1.205   1.228  15.839  0.2899  0.2390 -0.1349
  497TMC3    C5 7441   1.313   1.177  15.915  0.5402  0.3377 -0.1000
  497TMC3    C6 7442   1.401   1.083  15.855 -0.0003 -0.5006  0.1348
  497TMC3     C 7443   1.067   1.218  15.643  0.0339 -0.2138  0.9343
  497TMC3     O 7444   0.996   1.125  15.606  0.3496 -0.3338  0.3681
  497TMC3     H 7445   1.245   1.044  15.563  1.1704 -0.3373 -0.0270
  497TMC3    H1 7446   1.125   1.283  15.886  1.3986  1.5942  0.1889
  497TMC3    H2 7447   1.493   1.046  15.899  1.0375  1.8800 -0.0295
  497TMC3    C7 7448   1.334   1.218  16.049 -0.0053 -0.1715  0.7890
  497TMC3    C8 7449   1.450   0.930  15.681 -0.2714 -0.4579 -0.4133
  497TMC3    O1 7450   1.232   1.262  16.105 -0.3129 -1.0760 -0.0824
  497TMC3    O2 7451   1.413   0.818  15.720  0.1730 -0.9195  0.4963
  498MPD2     C 7452   2.363   3.450  10.663 -0.5280 -0.0276  0.0814
  498MPD2    C1 7453   2.420   3.362  10.578  0.0194 -0.1943 -0.5698
  498MPD2    C2 7454   2.412   3.229  10.622 -0.7416  0.2513 -0.1711
  498MPD2    C3 7455   2.366   3.189  10.740 -0.9874  0.1776  0.0608
  498MPD2    C4 7456   2.298   3.279  10.825  0.4748 -1.0671  0.1612
  498MPD2    C5 7457   2.309   3.414  10.787 -0.7686  0.7582 -0.0857
  498MPD2     H 7458   2.454   3.154  10.557 -1.4679  0.2274 -0.6085
  498MPD2    H1 7459   2.248   3.251  10.916 -0.1425 -2.0772 -0.4877
  498MPD2    H2 7460   2.380   3.556  10.655 -0.0485 -0.1388 -0.4200
  498MPD2    H3 7461   2.264   3.493  10.847 -0.9368 -0.0886  0.9062
  498MPD2     N 7462   2.384   3.058  10.773 -0.1786 -0.7677 -0.3080
  498MPD2    H5 7463   2.453   3.011  10.715 -2.8154 -1.3967 -2.9689
  498MPD2    N1 7464   2.468   3.390  10.447 -0.0748  0.6728  0.3003
  498MPD2    H7 7465   2.508   3.310  10.399  0.4406  1.8323 -1.2261
  499TMC3    C1 7466   2.519   3.490  10.256 -0.0169 -0.3047  0.5929
  499TMC3    C2 7467   2.473   3.376  10.195 -0.4891  0.1522  0.1363
  499TMC3    C3 7468   2.543   3.333  10.081  0.3138 -0.6545 -0.7641
  499TMC3    C4 7469   2.634   3.559  10.220 -0.3142 -0.4074  0.1964
  499TMC3    C5 7470   2.705   3.504  10.115 -0.2095 -0.6135 -0.0001
  499TMC3    C6 7471   2.660   3.394  10.043  0.1867  0.1642  0.8917
  499TMC3     C 7472   2.479   3.513  10.388  0.4588  0.4840 -0.3887
  499TMC3     O 7473   2.470   3.628  10.428 -0.1149  0.5068  0.1087
  499TMC3     H 7474   2.384   3.331  10.237 -0.5495 -1.4609 -1.7155
  499TMC3    H1 7475   2.683   3.624  10.292 -0.6976 -1.4830  1.4259
  499TMC3    H2 7476   2.710   3.367   9.950  0.2943 -2.0758  1.5963
  499TMC3    C7 7477   2.831   3.555  10.081 -0.0111  0.3149  0.5744
  499TMC3    C8 7478   2.488   3.227  10.004 -0.4434  0.0012 -0.2965
  499TMC3    O1 7479   2.913   3.469  10.043  0.2427  0.1289 -0.4170
  499TMC3    O2 7480   2.368   3.213  10.016 -0.4336 -0.1047 -0.0729
  500MPD2     C 7481   4.563   4.057  11.027  0.2242 -0.1243 -0.4512
  500MPD2    C1 7482   4.633   4.079  10.912  0.2350 -0.7529 -0.0767
  500MPD2    C2 7483   4.564   4.116  10.799  0.3802  0.0133  0.4198
  500MPD2    C3 7484   4.421   4.117  10.799 -0.2186 -0.0097  0.5871
  500MPD2    C4 7485   4.360   4.099  10.922  0.2123  0.1632  0.5710
  500MPD2    C5 7486   4.428   4.075  11.034 -0.8043 -0.0031 -0.1144
  500MPD2     H 7487   4.625   4.136  10.711 -1.1540  2.1326 -0.1533
  500MPD2    H1 7488   4.252   4.104  10.935  0.0108  1.4311 -1.5955
  500MPD2    H2 7489   4.618   4.040  11.119 -1.7041  0.8597  0.8693
  500MPD2    H3 7490   4.374   4.083  11.128 -1.4302  0.4107 -0.5065
  500MPD2     N 7491   4.342   4.140  10.681 -0.0547  0.3594 -0.0807
  500MPD2    H5 7492   4.242   4.142  10.695 -0.3351  2.0109 -2.3544
  500MPD2    N1 7493   0.028   4.102  10.909 -0.2145 -0.1784  0.6753
  500MPD2    H7 7494   0.064   4.157  10.832  2.7671 -1.4557  1.1528
  501TMC3    C1 7495   0.219   4.161  11.032 -0.7060  0.3734  0.2058
  501TMC3    C2 7496   0.224   4.275  10.957 -0.5506 -0.4622  0.0469
  501TMC3    C3 7497   0.339   4.349  10.950 -0.7570  0.0348  1.7355
  501TMC3    C4 7498   0.321   4.111  11.099  0.1263  0.7395 -0.4994
  501TMC3    C5 7499   0.438   4.180  11.089 -0.8710 -0.7606  0.5698
  501TMC3    C6 7500   0.450   4.297  11.015  0.3882 -0.1994  0.4816
  501TMC3     C 7501   0.104   4.072  11.016 -0.1260 -0.6097  0.1970
  501TMC3     O 7502   0.090   3.974  11.088 -0.3872  0.0716  0.2493
  501TMC3     H 7503   0.134   4.325  10.924  0.0132  1.0930  0.9030
  501TMC3    H1 7504   0.309   4.016  11.149  1.6722  2.0675  2.4070
  501TMC3    H2 7505   0.545   4.349  11.020  0.5815 -0.6241  1.2025
  501TMC3    C7 7506   0.556   4.114  11.140 -0.3802 -0.5070 -0.4158
  501TMC3    C8 7507   0.346   4.483  10.900 -0.3540 -0.0083  0.1658
  501TMC3    O1 7508   0.539   4.030  11.226 -0.7331 -0.1317  0.3666
  501TMC3    O2 7509   0.431   4.555  10.947 -0.4188  0.6794 -0.2635
  502TMC3    C1 7510   3.983   2.616  14.948  0.2383  0.2633  0.7809
  502TMC3    C2 7511   3.974   2.751  14.970 -0.4433 -0.1847  0.5893
  502TMC3    C3 7512   3.851   2.806  14.994  0.6643  0.2846 -0.3034
  502TMC3    C4 7513   3.873   2.534  14.929  0.2908  0.1477 -0.1197
  502TMC3    C5 7514   3.751   2.594  14.953  0.2201 -0.8848  1.5939
  502TMC3    C6 7515   3.743   2.732  14.988 -0.2380 -0.0752 -0.8964
  502TMC3     C 7516   4.078   2.543  15.025 -0.0934  0.5776  0.1174
  502TMC3     O 7517   4.188   2.587  15.020  0.7136  0.0082 -0.2521
  502TMC3     H 7518   4.065   2.808  14.985 -0.7638 -0.0168  1.8849
  502TMC3    H1 7519   3.881   2.428  14.911  1.1154  0.3668 -1.0363
  502TMC3    H2 7520   3.647   2.779  15.004 -0.2089 -1.2571  2.6944
  502TMC3    C7 7521   3.688   2.517  15.057 -0.2367  0.1534 -0.1793
  502TMC3    C8 7522   3.837   2.951  15.017 -0.2069 -0.0535 -0.2446
  502TMC3    O1 7523   3.752   2.422  15.102 -0.3540 -0.4537  0.1622
  502TMC3    O2 7524   3.877   3.022  14.922  1.0644 -0.3991 -0.2250
  503MPD2     C 7525   1.424   3.478  17.217 -0.6696 -0.2613 -0.1758
  503MPD2    C1 7526   1.464   3.541  17.333  0.2143 -0.0108 -0.0576
  503MPD2    C2 7527   1.549   3.484  17.424  0.4183 -0.0036 -0.1685
  503MPD2    C3 7528   1.597   3.357  17.407  0.3247 -0.0706  0.7042
  503MPD2    C4 7529   1.554   3.289  17.294  0.7235 -0.3394  0.1322
  503MPD2    C5 7530   1.475   3.351  17.196  0.8543 -1.0215  0.6282
  503MPD2     H 7531   1.578   3.544  17.510  1.0223 -0.5554  0.0173
  503MPD2    H1 7532   1.592   3.193  17.262 -0.2910  0.0575 -2.2916
  503MPD2    H2 7533   1.367   3.522  17.136  1.5251 -1.0563 -2.1210
  503MPD2    H3 7534   1.451   3.298  17.105 -1.5464  1.4147 -0.1614
  503MPD2     N 7535   1.689   3.299  17.501 -0.1157  0.4838 -0.2314
  503MPD2    H5 7536   1.702   3.352  17.587  0.6680  0.4456 -0.3254
  503MPD2    N1 7537   1.442   3.676  17.353  0.6113 -0.9132  0.2977
  503MPD2    H7 7538   1.458   3.709  17.447  0.4883 -2.7170  0.9504
  504TMC3    C1 7539   1.859   3.157  17.585  0.0978 -0.3879 -0.7404
  504TMC3    C2 7540   1.792   3.100  17.691 -0.1559  0.5480 -0.8031
  504TMC3    C3 7541   1.876   3.047   0.025  0.5009 -0.3840 -0.4478
  504TMC3    C4 7542   1.995   3.132  17.552  0.0996 -0.5349 -0.0799
  504TMC3    C5 7543   2.071   3.069  17.644 -0.7728 -0.2638 -1.1625
  504TMC3    C6 7544   2.011   3.028   0.006  0.1660  0.0405 -0.0920
  504TMC3     C 7545   1.769   3.190  17.475 -0.0205  0.0544 -0.2233
  504TMC3     O 7546   1.793   3.138  17.366  0.7181  0.5368 -0.0572
  504TMC3     H 7547   1.688   3.112  17.717 -0.4101 -2.0181 -0.6381
  504TMC3    H1 7548   2.032   3.182  17.463 -1.0804 -1.7643 -1.2648
  504TMC3    H2 7549   2.076   2.972   0.073  0.3391  0.2941 -0.0472
  504TMC3    C7 7550   2.207   3.034  17.615  0.1945 -0.3641 -0.4614
  504TMC3    C8 7551   1.810   2.931   0.078 -0.1700  0.7082  0.1791
  504TMC3    O1 7552   2.279   3.020  17.716  0.0865 -0.3493  0.1942
  504TMC3    O2 7553   1.730   2.870   0.008  0.0935 -0.3403  0.0315
  505MPD2     C 7554   1.835   1.924  10.593 -0.1994 -0.5955  0.6055
  505MPD2    C1 7555   1.950   1.854  10.600  0.5592  0.5540  0.5980
  505MPD2    C2 7556   1.981   1.804  10.726  0.6310 -0.0878 -0.2276
  505MPD2    C3 7557   1.903   1.810  10.840 -0.3253  0.7311  0.8451
  505MPD2    C4 7558   1.780   1.879  10.828  0.0960  0.0683  0.7196
  505MPD2    C5 7559   1.756   1.940  10.707  0.3475  0.4935  0.7018
  505MPD2     H 7560   2.079   1.762  10.744 -0.0387 -1.8584 -0.7736
  505MPD2    H1 7561   1.712   1.885  10.913 -0.6885  1.1459  0.0146
  505MPD2    H2 7562   1.796   1.967  10.502  1.6875 -0.2730 -0.0382
  505MPD2    H3 7563   1.669   2.004  10.706  0.9669  1.3272  0.0092
  505MPD2     N 7564   1.944   1.764  10.969  0.0979 -1.0238  0.4530
  505MPD2    H5 7565   1.884   1.794  11.045  2.4791  1.2310  1.4510
  505MPD2    N1 7566   2.029   1.827  10.485 -0.2374 -0.4887 -0.3970
  505MPD2    H7 7567   1.999   1.861  10.394  0.0391  1.8011  0.3886
  506TMC3    C1 7568   2.213   1.734  10.372  0.3684  0.3047 -0.7627
  506TMC3    C2 7569   2.260   1.853  10.317 -0.3161  0.0301 -0.6681
  506TMC3    C3 7570   2.379   1.846  10.256  1.2190 -0.7219  0.1532
  506TMC3    C4 7571   2.301   1.626  10.382 -0.3491  0.2599  0.4959
  506TMC3    C5 7572   2.424   1.630  10.329 -0.3628 -0.2565 -0.0312
  506TMC3    C6 7573   2.462   1.739  10.259  1.0203  0.1431 -0.0033
  506TMC3     C 7574   2.134   1.741  10.488  0.8764 -0.2258 -0.3889
  506TMC3     O 7575   2.179   1.665  10.575 -0.1191 -0.0671 -0.2398
  506TMC3     H 7576   2.198   1.941  10.305 -2.2069 -0.7304  3.5018
  506TMC3    H1 7577   2.277   1.529  10.423  0.0177  0.3589  0.9475
  506TMC3    H2 7578   2.563   1.740  10.218  0.2547 -1.8897 -1.9470
  506TMC3    C7 7579   2.523   1.587  10.433  0.2926 -0.2160  0.3429
  506TMC3    C8 7580   2.456   1.969  10.243  0.0539  0.1435 -0.0147
  506TMC3    O1 7581   2.639   1.557  10.405  0.2959  0.0634  0.5858
  506TMC3    O2 7582   2.547   1.972  10.161 -0.3135  0.3466 -0.9869
  507TMC3    C1 7583   2.439   2.630  15.692 -0.0246 -0.4195 -0.5369
  507TMC3    C2 7584   2.404   2.561  15.581  0.4319 -0.0969  0.3264
  507TMC3    C3 7585   2.488   2.562  15.474  0.4360  0.0027  0.0753
  507TMC3    C4 7586   2.542   2.718  15.693  0.1293  0.3247 -0.4503
  507TMC3    C5 7587   2.620   2.716  15.576  0.3853 -0.5349  0.7108
  507TMC3    C6 7588   2.598   2.635  15.474  0.2583 -0.3138  0.8703
  507TMC3     C 7589   2.397   2.582  15.821  0.1072 -0.4964  0.0930
  507TMC3     O 7590   2.292   2.519  15.822 -0.8710 -0.1037  0.2955
  507TMC3     H 7591   2.322   2.490  15.587 -0.1717  0.6714  1.1540
  507TMC3    H1 7592   2.576   2.776  15.778 -2.6212 -0.9644  1.5281
  507TMC3    H2 7593   2.674   2.638  15.397 -0.7418 -0.0374 -0.1156
  507TMC3    C7 7594   2.662   2.851  15.546 -0.8317 -0.3706  0.0352
  507TMC3    C8 7595   2.415   2.584  15.350 -0.7220 -0.7486  0.9148
  507TMC3    O1 7596   2.720   2.916  15.632 -0.3192  0.1250 -0.2070
  507TMC3    O2 7597   2.492   2.625  15.264 -0.0835 -0.1764 -0.0430
  508MPD2     C 7598   3.051   0.085  16.372 -0.0918  0.5747 -0.2775
  508MPD2    C1 7599   3.172   0.154  16.352 -0.1574 -0.1061  0.6459
  508MPD2    C2 7600   3.189   0.226  16.231  0.1313 -0.8814 -0.0037
  508MPD2    C3 7601   3.078   0.248  16.144 -0.4875  0.3273 -0.0509
  508MPD2    C4 7602   2.959   0.184  16.172 -0.5792  0.1845 -0.4873
  508MPD2    C5 7603   2.944   0.116  16.289  0.1083  0.3693 -0.3367
  508MPD2     H 7604   3.279   0.284  16.212 -0.6969  0.5483  0.4636
  508MPD2    H1 7605   2.870   0.208  16.115 -0.5856 -1.1759 -1.0609
  508MPD2    H2 7606   3.037   0.044  16.471 -0.0474 -1.4771 -1.1175
  508MPD2    H3 7607   2.847   0.073  16.315 -0.1268  1.0356 -0.1039
  508MPD2     N 7608   3.095   0.342  16.041  0.2220  0.0480  0.9566
  508MPD2    H5 7609   3.183   0.392  16.045  0.3451  0.0116 -1.4357
  508MPD2    N1 7610   3.273   0.153  16.455  0.9487 -0.3461 -0.3440
  508MPD2    H7 7611   3.252   0.116  16.548  0.5749  0.3123 -0.1688
  509TMC3    C1 7612   3.045   0.614  15.661 -0.2666  0.4077  0.1458
  509TMC3    C2 7613   3.181   0.633  15.656  0.6366  0.3035  0.2336
  509TMC3    C3 7614   3.265   0.569  15.743 -0.2951 -0.5252  0.1774
  509TMC3    C4 7615   2.996   0.531  15.760 -0.0855  0.0894  0.0948
  509TMC3    C5 7616   3.086   0.463  15.840 -0.2100  0.0070 -0.6091
  509TMC3    C6 7617   3.220   0.480  15.833 -0.3740 -0.2837  0.8453
  509TMC3     C 7618   2.952   0.662  15.557  0.2300 -0.8753 -0.2261
  509TMC3     O 7619   2.846   0.614  15.526  0.2349  0.2629 -0.0007
  509TMC3     H 7620   3.219   0.683  15.567 -1.1630  0.4488 -0.4548
  509TMC3    H1 7621   2.889   0.516  15.761 -0.1033  0.2420  1.8477
  509TMC3    H2 7622   3.289   0.420  15.892  0.5061  1.3616  1.4858
  509TMC3    C7 7623   3.020   0.363  15.925  0.4006 -0.7297 -0.4689
  509TMC3    C8 7624   3.401   0.618  15.747 -0.5923 -0.9118 -0.1701
  509TMC3    O1 7625   2.902   0.335  15.902 -0.3335 -0.9871 -0.0115
  509TMC3    O2 7626   3.498   0.540  15.760 -0.1371  0.3176 -0.2945
  510MPD2     C 7627   0.890   2.002  14.423 -0.1522 -0.6215  0.4894
  510MPD2    C1 7628   0.958   2.008  14.545 -0.6863  0.7258 -0.0262
  510MPD2    C2 7629   1.089   2.056  14.548 -0.7151  0.3283 -0.1341
  510MPD2    C3 7630   1.154   2.090  14.429 -0.2299  0.2633  0.4633
  510MPD2    C4 7631   1.082   2.078  14.307 -0.1557 -0.4803 -0.2967
  510MPD2    C5 7632   0.950   2.036  14.305  0.2065 -0.3012 -0.4015
  510MPD2     H 7633   1.137   2.066  14.645  0.6423 -1.1214 -0.6548
  510MPD2    H1 7634   1.130   2.091  14.211  0.9044 -0.0056  0.2857
  510MPD2    H2 7635   0.790   1.961  14.423  0.4669 -2.1487 -0.0196
  510MPD2    H3 7636   0.890   2.022  14.216  2.4982  2.8209 -2.4306
  510MPD2     N 7637   1.288   2.136  14.440  0.4439 -0.2587 -0.2067
  510MPD2    H5 7638   1.314   2.176  14.530 -0.2192  0.5760 -0.4014
  510MPD2    N1 7639   0.879   1.982  14.660  0.3469  0.3656 -0.3472
  510MPD2    H7 7640   0.792   1.931  14.652  0.8129 -0.7237  1.4201
  511TMC3    C1 7641   0.829   1.949  14.889 -0.2470  0.3321  0.9161
  511TMC3    C2 7642   0.809   2.009  15.013  0.2039 -0.9474  0.4521
  511TMC3    C3 7643   0.721   1.949  15.087  0.0674 -0.4110  0.1207
  511TMC3    C4 7644   0.775   1.828  14.857  0.2851 -0.6471  0.3054
  511TMC3    C5 7645   0.695   1.770  14.952  0.2781 -0.7681 -0.2788
  511TMC3    C6 7646   0.660   1.829  15.067  0.1936  0.2678  0.1409
  511TMC3     C 7647   0.913   2.015  14.788 -0.4210 -0.1808  0.0236
  511TMC3     O 7648   0.979   2.117  14.819  0.2281 -0.0423 -0.2708
  511TMC3     H 7649   0.847   2.105  15.046  1.0785 -1.5435  1.2033
  511TMC3    H1 7650   0.804   1.781  14.763 -1.0451  2.2006 -1.5309
  511TMC3    H2 7651   0.586   1.781  15.131  0.7816 -0.1222  0.5247
  511TMC3    C7 7652   0.615   1.659  14.902  0.9089  0.6452  0.2397
  511TMC3    C8 7653   0.700   2.001  15.221  0.1475  0.0220 -0.3911
  511TMC3    O1 7654   0.602   1.670  14.779  0.1825 -0.3477  0.0742
  511TMC3    O2 7655   0.688   2.120  15.237 -0.0527 -0.2807 -0.0197
  512TMC3    C1 7656   0.331   1.793  12.823 -0.3078  0.3905  0.7188
  512TMC3    C2 7657   0.381   1.753  12.941 -0.1891  0.8024 -0.6851
  512TMC3    C3 7658   0.361   1.625  12.975 -0.5646 -0.2952 -0.1817
  512TMC3    C4 7659   0.263   1.710  12.736 -0.5871 -0.6603 -0.4428
  512TMC3    C5 7660   0.262   1.579  12.768  0.6285  0.2189  0.0355
  512TMC3    C6 7661   0.299   1.539  12.895  0.2435 -0.1634  0.0690
  512TMC3     C 7662   0.356   1.929  12.786  0.6864  0.0736  0.0465
  512TMC3     O 7663   0.474   1.969  12.785 -0.5474  0.2115  0.5745
  512TMC3     H 7664   0.446   1.825  12.989  1.0674 -1.9313  1.6608
  512TMC3    H1 7665   0.210   1.735  12.644 -2.0118  0.0345  0.5690
  512TMC3    H2 7666   0.258   1.445  12.932  0.1784  0.6686  2.1204
  512TMC3    C7 7667   0.155   1.506  12.711  0.5199  0.2078 -0.2104
  512TMC3    C8 7668   0.338   1.612  13.118 -0.1420 -0.5289  0.2655
  512TMC3    O1 7669   0.057   1.570  12.675  0.4705 -0.7434  0.2604
  512TMC3    O2 7670   0.252   1.530  13.143 -0.6872 -0.9041 -0.6198
  513MPD2     C 7671   1.479   2.063  13.244 -0.1371  0.3511  0.1142
  513MPD2    C1 7672   1.542   1.959  13.176 -0.4991  0.0836  0.1071
  513MPD2    C2 7673   1.573   1.853  13.248 -0.4741 -0.4684 -0.9045
  513MPD2    C3 7674   1.515   1.823  13.372  0.4007  0.7156  0.5098
  513MPD2    C4 7675   1.428   1.914  13.435  0.0560 -0.4931  0.5362
  513MPD2    C5 7676   1.415   2.037  13.366 -0.2590  0.0069 -0.3102
  513MPD2     H 7677   1.646   1.780  13.216 -2.1785 -1.3671 -2.7493
  513MPD2    H1 7678   1.365   1.894  13.520 -1.0249  0.1296 -0.1130
  513MPD2    H2 7679   1.462   2.156  13.191 -0.9082 -0.7541 -1.5661
  513MPD2    H3 7680   1.355   2.117  13.406  0.9114  0.7949 -0.1279
  513MPD2     N 7681   1.541   1.698  13.431  0.0113 -0.6135  0.4659
  513MPD2    H5 7682   1.578   1.626  13.370  0.9502  0.6511 -0.4467
  513MPD2    N1 7683   1.583   1.982  13.040  0.2617  0.4207 -0.0906
  513MPD2    H7 7684   1.559   2.070  12.996 -2.2458  0.8420  2.0791
  514TMC3    C1 7685   1.647   1.905  12.819  0.0623  0.4258 -0.2323
  514TMC3    C2 7686   1.734   2.010  12.791 -0.1927 -0.4247  0.4077
  514TMC3    C3 7687   1.839   1.981  12.709  0.1477 -0.3146  0.4346
  514TMC3    C4 7688   1.660   1.785  12.756 -0.3013 -0.7708  0.3095
  514TMC3    C5 7689   1.763   1.761  12.673 -0.3748 -0.8461 -0.2991
  514TMC3    C6 7690   1.857   1.858  12.654 -0.2324  0.5012 -0.1354
  514TMC3     C 7691   1.623   1.876  12.960  0.5193 -0.7168 -0.0657
  514TMC3     O 7692   1.639   1.761  12.991 -0.0906  0.2776  0.2279
  514TMC3     H 7693   1.715   2.111  12.825  0.4096  0.0602 -0.6747
  514TMC3    H1 7694   1.576   1.717  12.757 -1.5223  0.7891  2.3204
  514TMC3    H2 7695   1.924   1.838  12.571 -0.1264  1.4817 -0.2806
  514TMC3    C7 7696   1.818   1.630  12.691 -0.3420  0.1744 -0.4386
  514TMC3    C8 7697   1.903   2.094  12.641  0.7358  0.2577 -0.0583
  514TMC3    O1 7698   1.902   1.594  12.607 -0.0865 -0.5230  0.4580
  514TMC3    O2 7699   1.834   2.197  12.643  0.2086 -0.1480 -0.0295
  515MPD2     C 7700   4.326   3.064  15.092  0.9062  0.1875  0.8146
  515MPD2    C1 7701   4.421   3.122  15.010 -0.0786 -0.0170  0.4004
  515MPD2    C2 7702   4.525   3.201  15.051  0.3427 -0.3106  0.7724
  515MPD2    C3 7703   4.540   3.230  15.186  0.0495  0.1500 -1.3133
  515MPD2    C4 7704   4.438   3.189  15.272  0.5965 -1.1450 -0.4180
  515MPD2    C5 7705   4.332   3.111  15.222  0.4170 -0.2913 -0.5000
  515MPD2     H 7706   4.602   3.232  14.982  0.2208 -1.2993  0.2017
  515MPD2    H1 7707   4.448   3.199  15.379 -0.8862 -1.3228 -0.2622
  515MPD2    H2 7708   4.251   2.998  15.052  0.2110 -0.6152  3.4645
  515MPD2    H3 7709   4.270   3.064  15.298  0.4328 -1.8172 -1.4484
  515MPD2     N 7710   4.647   3.304  15.241  0.0194 -0.8035  0.0323
  515MPD2    H5 7711   4.652   3.312  15.342 -0.0730 -0.6212  0.0228
  515MPD2    N1 7712   4.414   3.071  14.879 -0.2583 -0.0102 -0.1436
  515MPD2    H7 7713   4.345   3.003  14.850 -1.0734  1.4838 -1.6832
  516TMC3    C1 7714   4.445   3.066  14.656 -0.1601 -0.2915  0.0078
  516TMC3    C2 7715   4.371   3.128  14.554 -0.2007  0.2861  0.5290
  516TMC3    C3 7716   4.299   3.049  14.470 -0.0249  0.1681  0.1721
  516TMC3    C4 7717   4.441   2.932  14.681 -0.7804  0.2830  0.0746
  516TMC3    C5 7718   4.341   2.867  14.606 -0.6099 -0.4526  0.3944
  516TMC3    C6 7719   4.272   2.920  14.500  0.0464  0.0617 -0.0534
  516TMC3     C 7720   4.465   3.145  14.777  0.6575  0.7994 -0.3126
  516TMC3     O 7721   4.520   3.252  14.775 -0.3148 -0.1490  0.3807
  516TMC3     H 7722   4.388   3.235  14.544  1.0985  0.1638  1.4775
  516TMC3    H1 7723   4.512   2.882  14.746 -2.8728 -0.5909  1.6740
  516TMC3    H2 7724   4.201   2.868  14.437 -1.1437 -0.0518  1.3956
  516TMC3    C7 7725   4.318   2.736  14.657 -0.0348 -0.2612  0.1274
  516TMC3    C8 7726   4.221   3.110  14.365 -0.5484 -0.0188  0.2964
  516TMC3    O1 7727   4.409   2.681  14.715  0.3557  0.1103  1.4206
  516TMC3    O2 7728   4.189   3.033  14.273 -0.4190 -0.0587  0.2226
  517MPD2     C 7729   4.486   4.690  17.734  0.3766 -0.2306  0.3196
  517MPD2    C1 7730   4.574   4.626   0.058  0.4970  0.4295  0.0719
  517MPD2    C2 7731   4.617   4.692   0.169  0.4258  0.4030  0.9147
  517MPD2    C3 7732   4.587   0.080   0.199 -0.2847  0.1464  0.4711
  517MPD2    C4 7733   4.514   0.144   0.107  0.4743  0.5488 -0.0231
  517MPD2    C5 7734   4.460   0.085   0.001 -0.0584 -0.3260  1.2266
  517MPD2     H 7735   4.675   4.618   0.223  1.4320 -1.5626 -2.8318
  517MPD2    H1 7736   4.493   0.250   0.118  0.7866  0.7198 -1.0477
  517MPD2    H2 7737   4.443   4.635  17.652 -0.4386 -0.2712  0.7791
  517MPD2    H3 7738   4.407   0.146  17.693  2.8231  2.6032  1.5792
  517MPD2     N 7739   4.611   0.137   0.319  0.2468 -0.0959  0.7840
  517MPD2    H5 7740   4.583   0.234   0.333 -1.6780 -0.9253  2.5042
  517MPD2    N1 7741   4.630   4.501   0.030 -0.6635 -0.0801 -0.3647
  517MPD2    H7 7742   4.687   4.465   0.105 -1.5346 -1.6851 -0.4888
  518TMC3    C1 7743   4.719   4.323  17.681 -0.0385 -1.3287 -0.1128
  518TMC3    C2 7744   4.692   4.221  17.600  1.1299  0.3496 -0.1702
  518TMC3    C3 7745   0.051   4.145  17.548 -0.2431  0.2771 -0.1877
  518TMC3    C4 7746   0.104   4.356  17.711 -0.0116  0.3570 -0.3996
  518TMC3    C5 7747   0.199   4.278  17.662  0.7304  0.0560  0.6664
  518TMC3    C6 7748   0.183   4.167  17.579  0.5225 -0.6630  0.2703
  518TMC3     C 7749   4.624   4.431  17.675  0.2152 -0.5304  0.4670
  518TMC3     O 7750   4.555   4.438  17.575 -0.2663  0.1914  0.5998
  518TMC3     H 7751   4.586   4.209  17.585  1.2122 -2.3195  1.3143
  518TMC3    H1 7752   0.132   4.438   0.012 -1.0493 -0.8757  1.6315
  518TMC3    H2 7753   0.263   4.096  17.564 -0.5615 -1.1391 -3.2076
  518TMC3    C7 7754   0.317   4.273  17.751 -0.0670  0.6243  1.0425
  518TMC3    C8 7755   0.026   4.022  17.484  0.2106 -0.0823 -0.1603
  518TMC3    O1 7756   0.298   4.312   0.103 -0.2994 -0.3973  0.2082
  518TMC3    O2 7757   0.117   3.944  17.462  0.1738  0.3252  0.6139
  519MPD2     C 7758   2.055   3.691  14.202  0.3979 -0.4289 -0.1315
  519MPD2    C1 7759   2.020   3.570  14.248 -0.7820 -0.1193  0.0116
  519MPD2    C2 7760   2.100   3.463  14.222 -1.1029 -0.0447  0.7847
  519MPD2    C3 7761   2.216   3.478  14.147  0.8851 -0.1472  0.8927
  519MPD2    C4 7762   2.253   3.600  14.096 -0.7648 -0.2820 -0.6933
  519MPD2    C5 7763   2.172   3.711  14.137 -0.7573  0.4687 -0.9901
  519MPD2     H 7764   2.075   3.360  14.246 -1.5275 -0.0731  0.2497
  519MPD2    H1 7765   2.334   3.627  14.029  0.0252  0.0546  0.3833
  519MPD2    H2 7766   1.995   3.780  14.219  0.5713 -0.2801 -0.2889
  519MPD2    H3 7767   2.195   3.815  14.117  0.4716  0.4514  0.3624
  519MPD2     N 7768   2.291   3.359  14.102  0.0532  0.2415  0.5377
  519MPD2    H5 7769   2.369   3.387  14.045  0.9831 -1.4152  0.9924
  519MPD2    N1 7770   1.898   3.550  14.321 -0.5261  0.2253 -0.1333
  519MPD2    H7 7771   1.841   3.635  14.324  0.9733  1.2076  0.3938
  520TMC3    C1 7772   2.335   3.152  14.019 -0.5979  0.2691 -0.4086
  520TMC3    C2 7773   2.284   3.174  13.890  0.0148  0.4041  0.5844
  520TMC3    C3 7774   2.238   3.073  13.813  0.1683 -0.3376  0.1709
  520TMC3    C4 7775   2.354   3.019  14.051 -0.7216  0.1224 -0.2096
  520TMC3    C5 7776   2.314   2.914  13.963  0.0865  0.3086  0.4083
  520TMC3    C6 7777   2.249   2.944  13.850  0.1494  0.6699  0.1610
  520TMC3     C 7778   2.267   3.229  14.121 -0.2170 -0.0445  0.8633
  520TMC3     O 7779   2.194   3.166  14.196 -0.8371 -0.8519  0.6241
  520TMC3     H 7780   2.260   3.277  13.865  0.8251 -0.2787 -2.9778
  520TMC3    H1 7781   2.393   3.010  14.152 -3.9201 -1.6866  0.8684
  520TMC3    H2 7782   2.199   2.865  13.795  2.5753  0.9769 -2.4974
  520TMC3    C7 7783   2.371   2.783  13.986 -0.1726 -0.1572 -0.0944
  520TMC3    C8 7784   2.130   3.101  13.723  0.2684  0.4395  0.0277
  520TMC3    O1 7785   2.413   2.768  14.097 -0.0625  0.0524 -0.6198
  520TMC3    O2 7786   2.135   3.211  13.671 -0.4328 -0.6382 -0.2451
  521MPD2     C 7787   2.573   1.575  17.232  0.6495  0.2262  0.3895
  521MPD2    C1 7788   2.504   1.465  17.183  0.1421  0.0866  0.5291
  521MPD2    C2 7789   2.562   1.350  17.148  0.0386 -0.1609  0.3779
  521MPD2    C3 7790   2.699   1.348  17.159  0.3974 -0.1043  0.2175
  521MPD2    C4 7791   2.769   1.462  17.194  0.3181 -0.3556  0.1326
  521MPD2    C5 7792   2.708   1.569  17.240  0.1927  0.3741  0.1027
  521MPD2     H 7793   2.508   1.260  17.119 -1.4744  0.6406  0.7206
  521MPD2    H1 7794   2.878   1.461  17.191  0.2945  0.8184 -1.2613
  521MPD2    H2 7795   2.520   1.662  17.270  1.8934  1.2469 -0.2106
  521MPD2    H3 7796   2.751   1.656  17.289  1.2913 -0.3591  0.4316
  521MPD2     N 7797   2.766   1.224  17.130 -0.3861 -0.3814  0.3751
  521MPD2    H5 7798   2.708   1.163  17.073  2.4983 -0.3933 -2.4975
  521MPD2    N1 7799   2.368   1.480  17.197  0.1828 -0.2751  0.0469
  521MPD2    H7 7800   2.335   1.563  17.245  2.3098 -0.5711  2.0490
  522TMC3    C1 7801   2.925   1.048  17.130  0.3433 -1.3387 -0.8024
  522TMC3    C2 7802   3.038   0.997  17.190  1.1926 -0.7860  0.1184
  522TMC3    C3 7803   3.094   0.885  17.134  0.2672 -0.2968 -0.1382
  522TMC3    C4 7804   2.873   0.998  17.015 -0.2874  0.0144  0.4686
  522TMC3    C5 7805   2.928   0.878  16.968  0.0868  0.0156 -0.9633
  522TMC3    C6 7806   3.039   0.820  17.024  0.0971  0.1019 -0.4223
  522TMC3     C 7807   2.891   1.182  17.176  0.0884 -0.3115 -0.2189
  522TMC3     O 7808   2.946   1.236  17.274  0.0334  0.2135 -0.1365
  522TMC3     H 7809   3.085   1.054  17.269 -1.5824  0.2847  0.9954
  522TMC3    H1 7810   2.823   1.070  16.951  2.3493  2.8521  1.5989
  522TMC3    H2 7811   3.097   0.741  16.978 -1.7131 -2.2702  1.3751
  522TMC3    C7 7812   2.870   0.810  16.852 -0.4837  0.2525 -0.2846
  522TMC3    C8 7813   3.237   0.872  17.151  0.8263 -0.4422  0.2725
  522TMC3    O1 7814   2.927   0.710  16.811  0.0660  0.5182 -0.4742
  522TMC3    O2 7815   3.300   0.967  17.197  0.4699  0.2345  0.0355
  523MPD2     C 7816   0.100   1.729  10.786 -0.5744  0.4783  0.3493
  523MPD2    C1 7817   0.115   1.643  10.683  0.4341 -0.7639  0.2105
  523MPD2    C2 7818   0.055   1.666  10.562 -1.0538  0.0743 -0.0300
  523MPD2    C3 7819   4.706   1.764  10.556 -0.2393 -0.5546  0.0154
  523MPD2    C4 7820   4.679   1.840  10.669 -0.4885 -0.2411 -0.5086
  523MPD2    C5 7821   0.006   1.827  10.786 -0.6058  0.2675 -0.2001
  523MPD2     H 7822   0.078   1.596  10.482 -0.7548 -0.4368  0.5064
  523MPD2    H1 7823   4.602   1.916  10.657  1.0811  1.0858 -2.1585
  523MPD2    H2 7824   0.150   1.706  10.879 -0.4498  1.8404  0.6165
  523MPD2    H3 7825   4.721   1.875  10.880  3.2815 -0.2541  1.1413
  523MPD2     N 7826   4.618   1.772  10.445 -0.7719  0.0775 -0.9333
  523MPD2    H5 7827   4.546   1.843  10.447 -1.9678 -1.2098  0.8932
  523MPD2    N1 7828   0.198   1.521  10.693 -0.0807  0.0802 -0.0623
  523MPD2    H7 7829   0.216   1.473  10.605 -0.1481 -2.1000  1.1109
  524TMC3    C1 7830   4.533   1.733  10.226 -0.9596  0.0168 -0.2443
  524TMC3    C2 7831   4.583   1.744  10.096 -0.0257  1.2143 -0.1375
  524TMC3    C3 7832   4.501   1.823  10.013 -0.2013  0.1603 -0.2493
  524TMC3    C4 7833   4.408   1.759  10.265 -0.2954  0.4176 -0.1634
  524TMC3    C5 7834   4.332   1.829  10.171  0.2702  0.6258  0.3995
  524TMC3    C6 7835   4.375   1.862  10.048 -0.1222 -0.1308  0.4651
  524TMC3     C 7836   4.632   1.698  10.330 -0.4899  0.9774  0.6814
  524TMC3     O 7837   4.738   1.651  10.290 -0.5016 -0.6047 -0.3724
  524TMC3     H 7838   4.689   1.740  10.074 -0.1949  0.4068 -0.8050
  524TMC3    H1 7839   4.370   1.736  10.364  2.2390  1.9098  1.1475
  524TMC3    H2 7840   4.307   1.911   9.979  0.5846  1.8830  1.2053
  524TMC3    C7 7841   4.212   1.895  10.233  0.4857 -0.0340 -0.3041
  524TMC3    C8 7842   4.549   1.837   9.877  0.1784 -0.0117 -0.9236
  524TMC3    O1 7843   4.162   1.836  10.330  0.6004  0.2304  0.0136
  524TMC3    O2 7844   4.644   1.767   9.841 -0.2288  0.7569 -0.4100
  525MPD2     C 7845   2.911   2.412  14.349  0.2539 -0.0880 -0.1837
  525MPD2    C1 7846   2.982   2.498  14.426 -0.4179  0.9228  0.7696
  525MPD2    C2 7847   3.026   2.622  14.374 -0.3094 -0.0136 -0.4238
  525MPD2    C3 7848   2.971   2.676  14.259 -0.9520 -0.0050  0.3341
  525MPD2    C4 7849   2.876   2.597  14.192  1.1142  0.1575 -0.6606
  525MPD2    C5 7850   2.845   2.471  14.234  0.6892  0.0263  0.0243
  525MPD2     H 7851   3.081   2.687  14.441 -1.1180  0.1615  0.0645
  525MPD2    H1 7852   2.825   2.637  14.105 -0.7148  2.1165  1.3122
  525MPD2    H2 7853   2.890   2.314  14.390 -1.6415 -0.2699 -1.6103
  525MPD2    H3 7854   2.776   2.414  14.173  1.3958 -0.2931 -0.4751
  525MPD2     N 7855   2.994   2.808  14.207 -1.2034 -0.6523 -0.0824
  525MPD2    H5 7856   2.914   2.840  14.152 -0.9479  1.0244  0.5167
  525MPD2    N1 7857   3.015   2.458  14.559  0.3592 -0.4517  0.1475
  525MPD2    H7 7858   3.086   2.508  14.612  0.1157 -0.8374  0.8265
  526TMC3    C1 7859   3.017   2.331  14.756  0.4623 -0.6145 -0.0176
  526TMC3    C2 7860   2.936   2.264  14.848  0.3502  0.5062  0.4288
  526TMC3    C3 7861   3.004   2.213  14.955  0.0025 -0.2565 -0.0028
  526TMC3    C4 7862   3.155   2.335  14.760 -0.4444 -0.1979  0.0735
  526TMC3    C5 7863   3.220   2.274  14.864  0.4058 -0.3230 -0.4459
  526TMC3    C6 7864   3.148   2.216  14.963 -0.1879 -0.0346 -0.1484
  526TMC3     C 7865   2.948   2.363  14.635 -0.5972  0.6693  0.4545
  526TMC3     O 7866   2.836   2.317  14.618  0.0494  0.2555  0.0756
  526TMC3     H 7867   2.828   2.259  14.838  0.6789 -2.6276 -1.6285
  526TMC3    H1 7868   3.210   2.373  14.675 -2.2994  0.5957 -0.7869
  526TMC3    H2 7869   3.207   2.178  15.046  1.6326  0.2991 -1.2989
  526TMC3    C7 7870   3.365   2.254  14.865  0.0411 -0.1333 -0.1472
  526TMC3    C8 7871   2.931   2.200  15.081 -0.2244  0.3142 -1.0787
  526TMC3    O1 7872   3.413   2.190  14.958 -0.4529  0.2900  0.4641
  526TMC3    O2 7873   2.995   2.209  15.186 -0.0168 -0.2530 -0.0936
  527MPD2     C 7874   0.933   0.726   1.414  0.5931  0.0447  0.1041
  527MPD2    C1 7875   0.950   0.798   1.293  0.6162 -0.6145  0.5568
  527MPD2    C2 7876   1.073   0.799   1.226 -0.2953 -0.4556  0.9017
  527MPD2    C3 7877   1.174   0.719   1.274  0.6557  0.6893 -0.2675
  527MPD2    C4 7878   1.150   0.639   1.383  0.4063  0.3186 -0.0345
  527MPD2    C5 7879   1.037   0.655   1.456 -0.0378  0.7212  0.0239
  527MPD2     H 7880   1.089   0.856   1.135  2.4710 -1.4419  0.7570
  527MPD2    H1 7881   1.226   0.584   1.437  1.6111  2.6888  0.6838
  527MPD2    H2 7882   0.845   0.739   1.475  1.6691  1.6793  1.3118
  527MPD2    H3 7883   1.029   0.604   1.551  1.2579  0.6405  0.0969
  527MPD2     N 7884   1.300   0.719   1.205 -0.1692  0.8996 -0.0401
  527MPD2    H5 7885   1.303   0.759   1.111 -3.0072  0.7097 -0.2303
  527MPD2    N1 7886   0.843   0.864   1.228  0.2880 -0.4016 -0.0490
  527MPD2    H7 7887   0.865   0.919   1.145  1.1482 -1.5865 -0.5974
  528TMC3    C1 7888   0.642   0.973   1.197  0.0491  0.7083  0.3220
  528TMC3    C2 7889   0.699   1.033   1.086 -0.2559 -0.1415  0.0922
  528TMC3    C3 7890   0.634   1.137   1.026 -0.0830  0.2164 -0.1498
  528TMC3    C4 7891   0.527   1.023   1.249 -0.1070  0.8883  0.1818
  528TMC3    C5 7892   0.467   1.128   1.187  0.4525 -0.1500 -0.3518
  528TMC3    C6 7893   0.519   1.188   1.078 -0.2422 -0.1528  0.1956
  528TMC3     C 7894   0.712   0.866   1.270  0.3087 -0.2560 -0.4273
  528TMC3     O 7895   0.654   0.793   1.354 -0.0798 -0.1630 -0.0708
  528TMC3     H 7896   0.786   0.995   1.034  0.9813  1.1311  1.1990
  528TMC3    H1 7897   0.492   0.978   1.341  0.3253 -2.8454 -1.4584
  528TMC3    H2 7898   0.474   1.278   1.039  0.8437  0.7047  0.9181
  528TMC3    C7 7899   0.344   1.181   1.234 -0.3794 -0.2587 -0.4030
  528TMC3    C8 7900   0.700   1.201   0.911  0.1028  0.0068  0.2378
  528TMC3    O1 7901   0.333   1.304   1.231  0.2799  0.7166  0.5719
  528TMC3    O2 7902   0.794   1.139   0.862  0.1198 -0.0201 -0.5180
  529MPD2     C 7903   3.269   3.736   1.284 -0.0582  0.3878 -0.2017
  529MPD2    C1 7904   3.325   3.641   1.198  0.0344 -0.1642 -0.1221
  529MPD2    C2 7905   3.313   3.649   1.062 -0.9498 -0.9537  0.8222
  529MPD2    C3 7906   3.242   3.753   1.003  0.4255 -0.1842  1.0341
  529MPD2    C4 7907   3.187   3.848   1.092  0.0985 -0.7908 -0.9023
  529MPD2    C5 7908   3.193   3.833   1.228  0.8281 -0.2044  0.4333
  529MPD2     H 7909   3.367   3.572   1.008 -0.1591  1.5303 -1.9537
  529MPD2    H1 7910   3.123   3.928   1.055  0.5755 -0.0365 -0.0890
  529MPD2    H2 7911   3.270   3.731   1.392 -1.5913  0.7635 -0.1754
  529MPD2    H3 7912   3.131   3.907   1.279 -0.2952  0.4704 -1.8745
  529MPD2     N 7913   3.228   3.772   0.865 -0.3232  1.1195  0.1678
  529MPD2    H5 7914   3.184   3.860   0.841 -0.3999  0.9439 -0.3428
  529MPD2    N1 7915   3.390   3.523   1.240  0.4379  0.4268  0.0971
  529MPD2    H7 7916   3.410   3.447   1.176 -0.1152  1.4532 -1.3033
  530TMC3    C1 7917   3.492   3.371   1.385 -0.0972  0.3586  0.0486
  530TMC3    C2 7918   3.606   3.365   1.458  0.7031 -0.3363  0.2539
  530TMC3    C3 7919   3.684   3.257   1.439 -0.5866 -0.4948  0.7142
  530TMC3    C4 7920   3.449   3.263   1.304 -0.5209 -0.7207  0.1559
  530TMC3    C5 7921   3.527   3.154   1.291  0.5184  0.7841 -0.2493
  530TMC3    C6 7922   3.648   3.157   1.349  0.4818 -0.2139 -0.7955
  530TMC3     C 7923   3.431   3.504   1.372 -0.3629 -0.6783 -1.0012
  530TMC3     O 7924   3.455   3.586   1.458  0.0787  0.0650 -0.6771
  530TMC3     H 7925   3.641   3.445   1.522  0.0884  0.6352 -0.6277
  530TMC3    H1 7926   3.370   3.276   1.231 -4.0117  0.2850  4.0430
  530TMC3    H2 7927   3.698   3.061   1.346 -0.5087 -0.7363 -0.4224
  530TMC3    C7 7928   3.457   3.025   1.280  0.4992  0.4836  0.8821
  530TMC3    C8 7929   3.783   3.220   1.542 -0.0176  0.7828 -0.5422
  530TMC3    O1 7930   3.508   2.929   1.225 -0.2661 -0.0760 -0.1999
  530TMC3    O2 7931   3.748   3.257   1.653  0.8429  0.6039  0.1144
  531MPD2     C 7932   1.973   1.291  13.048 -0.1471  0.3714  0.0720
  531MPD2    C1 7933   1.872   1.371  13.093 -0.0440 -0.4325  0.8383
  531MPD2    C2 7934   1.795   1.447  13.010 -0.1738  0.3591 -0.5856
  531MPD2    C3 7935   1.844   1.476  12.883  0.7450 -0.4070 -0.0923
  531MPD2    C4 7936   1.947   1.403  12.837  0.5974  1.2142 -1.1613
  531MPD2    C5 7937   2.009   1.308  12.915  0.1946 -0.7222 -0.4112
  531MPD2     H 7938   1.719   1.514  13.048 -0.3406  0.5943 -1.3517
  531MPD2    H1 7939   1.979   1.413  12.734  2.4382  1.6778 -0.5524
  531MPD2    H2 7940   2.022   1.225  13.118 -1.8603 -0.6972  0.2793
  531MPD2    H3 7941   2.090   1.251  12.871  1.0963 -0.1661  0.5458
  531MPD2     N 7942   1.786   1.585  12.816  0.4042 -0.3026  0.4440
  531MPD2    H5 7943   1.719   1.640  12.869  0.0351 -1.1370  0.8360
  531MPD2    N1 7944   1.842   1.357  13.230  0.1094 -0.5765 -0.0616
  531MPD2    H7 7945   1.896   1.293  13.287 -1.1340 -1.8320 -0.2758
  532TMC3    C1 7946   1.708   1.410  13.426  0.3965 -0.3732 -0.3831
  532TMC3    C2 7947   1.590   1.460  13.473 -0.2087 -0.7422 -0.0774
  532TMC3    C3 7948   1.590   1.530  13.593 -0.3209  0.6129  0.3594
  532TMC3    C4 7949   1.819   1.413  13.509 -0.2535 -0.3994  0.2584
  532TMC3    C5 7950   1.807   1.468  13.635  0.3335 -0.3010 -0.2959
  532TMC3    C6 7951   1.695   1.538  13.673 -0.2372  0.4253 -0.1499
  532TMC3     C 7952   1.726   1.411  13.287  0.2320 -0.5485  0.6898
  532TMC3     O 7953   1.632   1.472  13.239 -0.1068 -0.2732 -0.4233
  532TMC3     H 7954   1.495   1.458  13.420  1.1167  2.6018 -2.5769
  532TMC3    H1 7955   1.917   1.404  13.462 -0.4969  0.2573 -0.3710
  532TMC3    H2 7956   1.694   1.622  13.742  0.5118  0.4725 -0.2023
  532TMC3    C7 7957   1.933   1.517  13.692 -0.1258  0.3452 -1.2533
  532TMC3    C8 7958   1.530   1.666  13.568 -0.2518 -0.3230  0.0796
  532TMC3    O1 7959   1.926   1.596  13.786 -0.2171 -0.1898  0.1133
  532TMC3    O2 7960   1.489   1.727  13.666 -0.1670  0.0348 -0.0462
  533TMC3    C1 7961   3.053   3.030  14.237 -0.5613  0.0979  0.2214
  533TMC3    C2 7962   3.162   3.110  14.243 -0.3964 -0.0838  0.5243
  533TMC3    C3 7963   3.146   3.233  14.310  0.0583 -0.6416 -0.5812
  533TMC3    C4 7964   2.938   3.063  14.294 -0.3490 -0.2027  0.3563
  533TMC3    C5 7965   2.932   3.179  14.368 -0.5336 -0.2010  0.8651
  533TMC3    C6 7966   3.030   3.273  14.367 -0.6586 -0.2910  0.0693
  533TMC3     C 7967   3.084   2.897  14.258  0.5918 -0.7138 -0.4360
  533TMC3     O 7968   3.170   2.877  14.343 -0.0683  0.1024  0.4945
  533TMC3     H 7969   3.250   3.087  14.184  0.3364 -1.2398  2.0649
  533TMC3    H1 7970   2.861   2.987  14.308 -0.2009  0.1872  3.1404
  533TMC3    H2 7971   3.031   3.359  14.434  1.6205  0.2092 -0.6088
  533TMC3    C7 7972   2.881   3.154  14.501  0.2682  0.2860 -0.7305
  533TMC3    C8 7973   3.265   3.297  14.355  0.1457 -0.1977  0.4428
  533TMC3    O1 7974   2.877   3.032  14.531  0.2775  0.3281  0.4278
  533TMC3    O2 7975   3.273   3.315  14.475 -0.2075 -0.5606 -0.1617
  534MPD2     C 7976   0.996   4.433   1.679 -0.0525  0.1865  0.4265
  534MPD2    C1 7977   1.018   4.469   1.549 -0.0229 -0.3091 -0.6858
  534MPD2    C2 7978   0.966   4.388   1.447  0.1503  0.9116 -0.1353
  534MPD2    C3 7979   0.899   4.274   1.477 -0.1274 -0.4595  0.0210
  534MPD2    C4 7980   0.880   4.233   1.606 -0.6783  0.0786  0.1861
  534MPD2    C5 7981   0.928   4.314   1.705  0.4952 -0.0876 -0.3728
  534MPD2     H 7982   0.989   4.423   1.347 -0.8214  0.7820 -0.4097
  534MPD2    H1 7983   0.819   4.148   1.637  0.4360 -0.2066  1.6367
  534MPD2    H2 7984   1.029   4.494   1.762 -2.1984  1.4218  0.3685
  534MPD2    H3 7985   0.899   4.294   1.808 -2.5710 -0.8523 -1.3984
  534MPD2     N 7986   0.854   4.181   1.377 -0.1149  0.6797 -0.2695
  534MPD2    H5 7987   0.795   4.107   1.413 -1.1739  0.3723 -2.6531
  534MPD2    N1 7988   1.082   4.595   1.519 -0.3453  0.0689 -0.2469
  534MPD2    H7 7989   1.071   4.629   1.424 -3.5677  1.7626  0.7399
  535TMC3    C1 7990   0.776   4.090   1.176  0.4921 -0.3016 -0.0325
  535TMC3    C2 7991   0.667   4.042   1.234  0.2904 -0.3475  0.6287
  535TMC3    C3 7992   0.598   3.935   1.178 -0.3238  0.6137 -0.6221
  535TMC3    C4 7993   0.804   4.049   1.049  0.1994  0.0847 -0.1967
  535TMC3    C5 7994   0.728   3.954   0.991  1.1610  0.3946  0.3597
  535TMC3    C6 7995   0.629   3.889   1.048 -0.2567  0.6122  0.2980
  535TMC3     C 7996   0.861   4.190   1.241  0.0703  0.3645 -0.6387
  535TMC3     O 7997   0.929   4.260   1.167 -0.6530 -0.4583  0.4267
  535TMC3     H 7998   0.641   4.092   1.326 -0.2743  0.4533  0.0444
  535TMC3    H1 7999   0.892   4.083   0.995  0.6255  0.6597  0.8753
  535TMC3    H2 8000   0.573   3.816   0.991  2.7832 -0.9259 -0.7092
  535TMC3    C7 8001   0.747   3.912   0.851 -0.0224 -0.3401  0.3331
  535TMC3    C8 8002   0.516   3.847   1.262  0.6794  0.6214 -0.1612
  535TMC3    O1 8003   0.690   3.812   0.814  0.5436 -0.7000  0.3365
  535TMC3    O2 8004   0.426   3.788   1.202 -0.2559  0.1729  0.3080
  536MPD2     C 8005   4.290   2.127  16.290 -0.3967 -0.0722  0.7614
  536MPD2    C1 8006   4.172   2.046  16.299  0.2355 -0.0065 -0.3451
  536MPD2    C2 8007   4.094   2.040  16.188 -0.5529  0.2623 -0.6476
  536MPD2    C3 8008   4.114   2.118  16.074  0.2244 -0.0247  0.0533
  536MPD2    C4 8009   4.230   2.194  16.068 -0.1473  0.5738 -0.1481
  536MPD2    C5 8010   4.315   2.200  16.177 -0.3658 -0.0234  0.1075
  536MPD2     H 8011   4.004   1.981  16.202  0.7914 -1.7106 -0.3167
  536MPD2    H1 8012   4.256   2.266  15.991  0.0468 -0.3457 -0.9418
  536MPD2    H2 8013   4.352   2.142  16.378 -2.4825 -0.1032  2.2194
  536MPD2    H3 8014   4.398   2.270  16.169  0.2882 -0.5338  2.3640
  536MPD2     N 8015   4.020   2.126  15.973 -0.2140  0.3645 -0.4021
  536MPD2    H5 8016   4.053   2.177  15.892  1.1114  0.4199  0.1757
  536MPD2    N1 8017   4.146   1.992  16.424 -0.1626 -0.5877 -0.0557
  536MPD2    H7 8018   4.221   1.996  16.492 -1.1972  0.8111  1.0100
  537TMC3    C1 8019   4.034   1.901  16.606  0.8982 -0.3135  0.1606
  537TMC3    C2 8020   4.087   1.998  16.682 -0.0533  0.6923  0.4839
  537TMC3    C3 8021   4.110   1.977  16.816  0.0058  0.2470 -0.1326
  537TMC3    C4 8022   4.000   1.781  16.667  0.5575 -0.7276  0.2169
  537TMC3    C5 8023   4.035   1.748  16.796 -0.2921  0.3490 -0.1653
  537TMC3    C6 8024   4.074   1.854  16.872  0.2719  0.0898 -0.4328
  537TMC3     C 8025   4.038   1.918  16.463  0.1245 -0.4790  0.5479
  537TMC3     O 8026   3.943   1.878  16.403  0.4916  0.2293 -0.8814
  537TMC3     H 8027   4.108   2.093  16.634 -1.5097  1.4346  1.3163
  537TMC3    H1 8028   3.981   1.701  16.595 -0.6831 -0.8845  0.7144
  537TMC3    H2 8029   4.091   1.826  16.975 -0.7687 -1.5336 -0.7188
  537TMC3    C7 8030   4.020   1.612  16.842  1.0141 -0.4028 -0.1182
  537TMC3    C8 8031   4.147   2.083  16.911  0.4624 -0.5920  0.6276
  537TMC3    O1 8032   3.959   1.534  16.770 -0.2638 -0.5613 -0.6988
  537TMC3    O2 8033   4.195   2.059  17.018 -0.3487  0.4664 -0.3606
  538TMC3    C1 8034   0.785   1.056  11.840  0.0763 -0.5669 -0.0477
  538TMC3    C2 8035   0.887   0.986  11.787  0.0455  0.2517  0.2249
  538TMC3    C3 8036   0.901   0.981  11.648  0.1968  0.2556 -0.0555
  538TMC3    C4 8037   0.702   1.128  11.762  0.2234  0.2713 -0.8763
  538TMC3    C5 8038   0.713   1.113  11.626 -0.5255 -0.5333  1.0744
  538TMC3    C6 8039   0.813   1.046  11.562  0.6099 -0.2540  0.2859
  538TMC3     C 8040   0.743   1.017  11.980  0.0474 -0.1529 -0.0580
  538TMC3     O 8041   0.828   0.970  12.051  0.3588 -0.2031 -0.3932
  538TMC3     H 8042   0.946   0.925  11.855  0.5183 -0.3231 -0.7124
  538TMC3    H1 8043   0.628   1.185  11.816  2.1027  2.8658 -1.0176
  538TMC3    H2 8044   0.825   1.039  11.455  2.4377  1.8537  0.3753
  538TMC3    C7 8045   0.625   1.205  11.548  0.3211 -0.8278  0.4587
  538TMC3    C8 8046   1.009   0.908  11.596  0.5244 -0.5022  0.2325
  538TMC3    O1 8047   0.527   1.247  11.608 -0.2424  0.2201  0.3229
  538TMC3    O2 8048   1.046   0.806  11.653  0.1312 -0.0529 -0.2256
  539MPD2     C 8049   0.934   0.411  11.874 -0.5034  0.3210  0.3696
  539MPD2    C1 8050   0.824   0.332  11.836 -0.0958 -0.8863 -0.2817
  539MPD2    C2 8051   0.704   0.393  11.825 -0.7258  0.0864  0.5666
  539MPD2    C3 8052   0.689   0.528  11.850  0.1006 -0.6225  0.2588
  539MPD2    C4 8053   0.796   0.596  11.907  0.1149  0.5087  0.5578
  539MPD2    C5 8054   0.922   0.534  11.922 -0.2289 -0.2230  0.2766
  539MPD2     H 8055   0.616   0.338  11.793 -1.3817  2.8938 -2.5621
  539MPD2    H1 8056   0.800   0.701  11.930 -0.1285  0.1146  2.3695
  539MPD2    H2 8057   1.033   0.368  11.881 -1.0976 -1.1762 -0.3411
  539MPD2    H3 8058   1.010   0.586  11.959  0.0248 -0.8019  0.4802
  539MPD2     N 8059   0.561   0.589  11.844  0.2816 -0.1027  0.0128
  539MPD2    H5 8060   0.489   0.528  11.808 -0.8408 -0.4361  2.8075
  539MPD2    N1 8061   0.832   0.194  11.801 -0.5130 -0.3663  0.7655
  539MPD2    H7 8062   0.749   0.153  11.759 -0.7121  1.1478 -0.3412
  540TMC3    C1 8063   0.408   0.779  11.840 -0.7705  0.5090  0.0703
  540TMC3    C2 8064   0.372   0.888  11.765  0.0459  0.0740 -0.3024
  540TMC3    C3 8065   0.246   0.949  11.785  0.1285  1.0881  0.0694
  540TMC3    C4 8066   0.318   0.723  11.924  1.0314  0.2286  0.4940
  540TMC3    C5 8067   0.198   0.795  11.947  0.3950  1.0923 -0.1441
  540TMC3    C6 8068   0.153   0.900  11.872 -0.4630  0.4637 -1.2828
  540TMC3     C 8069   0.544   0.726  11.834 -0.1301 -0.3982 -0.5389
  540TMC3     O 8070   0.630   0.801  11.792 -0.3847 -0.4243 -0.6449
  540TMC3     H 8071   0.451   0.927  11.702 -0.9687 -0.1863 -1.7387
  540TMC3    H1 8072   0.340   0.623  11.959 -1.6152 -0.8123 -0.7998
  540TMC3    H2 8073   0.070   0.963  11.903  2.2021  2.1770  2.3906
  540TMC3    C7 8074   0.097   0.731  12.037  0.0716  0.1248  0.0183
  540TMC3    C8 8075   0.194   1.024  11.668 -0.9023  0.3068  0.1889
  540TMC3    O1 8076   4.720   0.757  12.016  1.0303  0.2232  0.4531
  540TMC3    O2 8077   0.113   1.115  11.682  0.2496 -0.6378  0.1772
  541MPD2     C 8078   3.852   1.495  13.452  0.1381  0.0384 -0.1288
  541MPD2    C1 8079   3.733   1.557  13.465  0.7123  0.1794 -0.1206
  541MPD2    C2 8080   3.679   1.625  13.358 -0.2582 -0.2745 -0.2798
  541MPD2    C3 8081   3.751   1.637  13.241 -0.2888 -0.2106  0.0606
  541MPD2    C4 8082   3.867   1.566  13.227  0.5211  0.1216 -0.3256
  541MPD2    C5 8083   3.918   1.498  13.331  0.2147 -0.4454 -0.3380
  541MPD2     H 8084   3.581   1.669  13.367  0.2675  0.6752  0.8355
  541MPD2    H1 8085   3.929   1.579  13.139 -0.7432  0.4160 -1.1846
  541MPD2    H2 8086   3.892   1.437  13.534  4.4005  0.1082 -2.1707
  541MPD2    H3 8087   4.014   1.449  13.319  1.1942  1.8077 -1.6332
  541MPD2     N 8088   3.709   1.709  13.119  0.0485  0.2507 -0.3585
  541MPD2    H5 8089   3.762   1.708  13.033 -0.2046 -0.7698 -0.5098
  541MPD2    N1 8090   3.652   1.523  13.578  0.1980 -0.0267 -0.4696
  541MPD2    H7 8091   3.672   1.440  13.632 -2.0607  0.2940  0.8757
  542TMC3    C1 8092   3.594   1.866  12.988 -0.6572 -0.1973 -0.1305
  542TMC3    C2 8093   3.603   1.802  12.866 -0.1932  1.1156  0.7705
  542TMC3    C3 8094   3.552   1.859  12.750  0.4497 -0.1579  0.2115
  542TMC3    C4 8095   3.523   1.984  12.993  0.0412 -0.1865 -0.3392
  542TMC3    C5 8096   3.471   2.033  12.877 -0.5518  0.5517 -0.4390
  542TMC3    C6 8097   3.482   1.975  12.754  0.4508  0.1406  0.1196
  542TMC3     C 8098   3.597   1.790  13.110  0.2362  1.0211  0.1202
  542TMC3     O 8099   3.520   1.820  13.200  0.1787  0.1219  0.0613
  542TMC3     H 8100   3.655   1.707  12.868  0.3303  1.3967  0.6373
  542TMC3    H1 8101   3.496   2.038  13.083 -1.4762  0.1130 -0.9692
  542TMC3    H2 8102   3.449   2.022  12.663  1.6599 -1.0557 -0.9396
  542TMC3    C7 8103   3.409   2.163  12.885 -0.1794  0.5322 -0.6552
  542TMC3    C8 8104   3.587   1.807  12.624  0.0323 -0.6586  0.3319
  542TMC3    O1 8105   3.462   2.240  12.964 -0.2537 -0.1163  0.3426
  542TMC3    O2 8106   3.526   1.838  12.528 -0.1951  0.1439 -0.4963
  543TMC3    C1 8107   3.139   3.373  17.391  0.4958  0.5121  0.4904
  543TMC3    C2 8108   3.191   3.256  17.449  0.1900 -0.1019  0.0361
  543TMC3    C3 8109   3.161   3.229  17.581  0.3403 -0.8532  0.6576
  543TMC3    C4 8110   3.056   3.457  17.457 -0.0158 -0.2742 -0.6537
  543TMC3    C5 8111   3.045   3.435  17.593  0.5687  0.1377 -0.1097
  543TMC3    C6 8112   3.092   3.327  17.658  0.0707  0.0416 -0.1562
  543TMC3     C 8113   3.125   3.383  17.249 -0.0949 -0.1585  0.3908
  543TMC3     O 8114   3.103   3.495  17.204 -0.2309  0.5115  0.0909
  543TMC3     H 8115   3.247   3.183  17.392 -0.6924  2.6021 -4.2965
  543TMC3    H1 8116   3.006   3.536  17.401 -1.2977 -1.0823 -0.6393
  543TMC3    H2 8117   3.062   3.315  17.761  1.8046 -0.1088  0.3333
  543TMC3    C7 8118   2.999   3.546  17.674 -0.5273 -0.5625 -0.6578
  543TMC3    C8 8119   3.210   3.101  17.630 -0.8551  0.2813 -0.0125
  543TMC3    O1 8120   2.948   3.513   0.020 -0.1531  1.1478 -0.1771
  543TMC3    O2 8121   3.276   3.031  17.558  0.2208 -0.5966  0.0613
  544MPD2     C 8122   3.231   2.747   0.227 -0.1748  0.1808  0.1669
  544MPD2    C1 8123   3.245   2.736   0.090  0.6228 -0.4241 -0.3150
  544MPD2    C2 8124   3.212   2.848   0.009 -0.0137 -0.2045  0.7434
  544MPD2    C3 8125   3.191   2.969   0.069  0.2711 -0.4092  0.6998
  544MPD2    C4 8126   3.180   2.988   0.201  0.0730  0.1565 -0.5783
  544MPD2    C5 8127   3.201   2.877   0.280 -0.0935 -0.0694 -0.1301
  544MPD2     H 8128   3.211   2.831  17.665  1.3489 -2.7319  1.1083
  544MPD2    H1 8129   3.154   3.084   0.244 -0.2335 -0.3059  0.2637
  544MPD2    H2 8130   3.255   2.666   0.295  2.8993 -0.7387 -1.9785
  544MPD2    H3 8131   3.212   2.886   0.388  1.2534  1.4683 -0.3901
  544MPD2     N 8132   3.158   3.077  17.754 -0.8080 -0.0438 -0.2326
  544MPD2    H5 8133   3.112   3.153   0.040 -0.1315  0.0693  0.2332
  544MPD2    N1 8134   3.265   2.602   0.040 -0.6578 -0.2388  0.0230
  544MPD2    H7 8135   3.279   2.533   0.113 -2.0259  0.0123  0.5296
  545TMC3    C1 8136   3.303   2.423  17.656  0.6237  0.3358 -0.3235
  545TMC3    C2 8137   3.319   2.385  17.526  0.0939 -0.5119 -0.2115
  545TMC3    C3 8138   3.298   2.257  17.496  0.0835 -0.4383  0.1564
  545TMC3    C4 8139   3.273   2.327  17.754 -0.2846  0.0355  0.2282
  545TMC3    C5 8140   3.275   2.194  17.719  0.0444  0.1379 -0.5592
  545TMC3    C6 8141   3.281   2.160  17.590  0.5072 -0.2093  0.5168
  545TMC3     C 8142   3.272   2.558  17.677  1.0388  0.3561  0.0797
  545TMC3     O 8143   3.236   2.625  17.579 -0.0121  0.6292  0.1235
  545TMC3     H 8144   3.356   2.456  17.453 -0.7389 -0.2019 -0.3335
  545TMC3    H1 8145   3.240   2.363   0.087  1.6036  1.1337  0.4680
  545TMC3    H2 8146   3.270   2.058  17.556 -0.5190  0.3343 -0.8210
  545TMC3    C7 8147   3.297   2.096   0.056  0.8773 -0.0297  0.2583
  545TMC3    C8 8148   3.297   2.212  17.352  0.4275 -0.2926  0.0759
  545TMC3    O1 8149   3.275   1.982   0.022 -0.4175  0.0465 -0.6026
  545TMC3    O2 8150   3.305   2.088  17.334  0.3944 -0.1660  0.0473
  546MPD2     C 8151   4.528   2.481  17.680 -0.4127 -0.1375  0.2524
  546MPD2    C1 8152   4.473   2.534  17.569  0.1326  0.5342  0.7011
  546MPD2    C2 8153   4.515   2.655  17.513 -0.0648 -1.1173 -0.0533
  546MPD2    C3 8154   4.614   2.728  17.583  0.0578  0.2169 -0.2597
  546MPD2    C4 8155   4.661   2.672  17.701  0.4697  0.1546  0.0149
  546MPD2    C5 8156   4.631   2.549  17.743 -1.0715  0.0152  0.8079
  546MPD2     H 8157   4.482   2.686  17.415  0.3886  1.8122  0.7300
  546MPD2    H1 8158   4.725   2.731   0.003  0.9510  0.4714 -0.7471
  546MPD2    H2 8159   4.484   2.387  17.712 -1.6333  0.2591 -0.2378
  546MPD2    H3 8160   4.676   2.516   0.072  1.1044 -0.3981 -0.4030
  546MPD2     N 8161   4.657   2.858  17.546  0.1451  0.5517 -0.2459
  546MPD2    H5 8162   4.727   2.904  17.603  2.0859 -1.6975 -0.8254
  546MPD2    N1 8163   4.364   2.457  17.521  0.3104  0.1388 -0.2666
  546MPD2    H7 8164   4.340   2.369  17.565  2.0372 -0.3935 -0.3828
  547TMC3    C1 8165   4.183   2.379  17.395 -0.5695  0.6916  1.2000
  547TMC3    C2 8166   4.097   2.421  17.302  0.0742  0.2308 -0.2676
  547TMC3    C3 8167   3.992   2.338  17.278  0.7095 -0.2059  0.9553
  547TMC3    C4 8168   4.169   2.272  17.476  1.0732 -0.6312 -0.6914
  547TMC3    C5 8169   4.062   2.183  17.450  0.1588 -0.6508 -0.7580
  547TMC3    C6 8170   3.972   2.223  17.345  0.1663  0.2482  0.5113
  547TMC3     C 8171   4.283   2.488  17.416  0.1427  0.0253  0.2793
  547TMC3     O 8172   4.284   2.594  17.353  0.0831  0.4985  0.7523
  547TMC3     H 8173   4.115   2.518  17.258 -1.1434  1.3449  1.7207
  547TMC3    H1 8174   4.243   2.238  17.547  1.5887  0.3034 -0.7892
  547TMC3    H2 8175   3.878   2.170  17.330  0.8123 -1.1369  1.3791
  547TMC3    C7 8176   4.037   2.069  17.530  0.4126  0.0912 -0.5347
  547TMC3    C8 8177   3.894   2.377  17.177  0.4718  0.4794 -0.3068
  547TMC3    O1 8178   4.070   2.062  17.648 -0.2729 -0.7537 -0.4811
  547TMC3    O2 8179   3.857   2.492  17.161 -0.3156 -0.1533  0.0513
  548MPD2     C 8180   4.390   3.417  12.989 -0.4132 -0.2924  0.2951
  548MPD2    C1 8181   4.319   3.318  12.919 -0.5526 -0.1882 -0.6678
  548MPD2    C2 8182   4.391   3.231  12.849 -0.6501 -0.2414 -0.1110
  548MPD2    C3 8183   4.532   3.225  12.857 -0.2009 -0.4148  0.2180
  548MPD2    C4 8184   4.598   3.297  12.953 -0.2749 -0.1921 -0.1710
  548MPD2    C5 8185   4.527   3.405  13.014 -0.4368 -0.0929 -0.0972
  548MPD2     H 8186   4.346   3.158  12.781  0.1522 -0.7644 -0.0792
  548MPD2    H1 8187   4.706   3.306  12.951 -0.0881 -2.1473  3.4569
  548MPD2    H2 8188   4.331   3.488  13.045 -2.4724 -2.4368  0.8519
  548MPD2    H3 8189   4.582   3.472  13.079  0.7264  1.3461 -2.5690
  548MPD2     N 8190   4.598   3.152  12.755  0.0789 -0.0951  0.2988
  548MPD2    H5 8191   4.536   3.107  12.689  3.2116 -1.4375 -1.7287
  548MPD2    N1 8192   4.174   3.322  12.921 -0.2814 -0.4565  0.0031
  548MPD2    H7 8193   4.139   3.404  12.970 -1.2936  0.9831 -3.1451
  549TMC3    C1 8194   3.958   3.258  12.869 -0.9501 -0.4454 -0.2351
  549TMC3    C2 8195   3.917   3.387  12.876 -0.0212 -0.0625  0.0596
  549TMC3    C3 8196   3.784   3.411  12.875  0.6056 -0.4329 -0.2434
  549TMC3    C4 8197   3.871   3.152  12.882  0.5498  0.1039  0.0700
  549TMC3    C5 8198   3.738   3.182  12.883  0.0396  0.3782 -0.1061
  549TMC3    C6 8199   3.693   3.308  12.873 -0.1104  0.0882 -0.2727
  549TMC3     C 8200   4.099   3.231  12.863 -0.4823  0.9967 -0.3194
  549TMC3     O 8201   4.126   3.123  12.802  0.3417  0.2428 -0.2521
  549TMC3     H 8202   3.989   3.465  12.852 -3.0639  2.3575 -1.1360
  549TMC3    H1 8203   3.903   3.049  12.877  1.6033  0.4950 -1.1547
  549TMC3    H2 8204   3.588   3.333  12.881 -0.2462 -1.1814  1.7064
  549TMC3    C7 8205   3.652   3.090  12.965  0.6721 -0.6104  0.1675
  549TMC3    C8 8206   3.728   3.548  12.870  0.3612 -0.6170 -0.1094
  549TMC3    O1 8207   3.570   3.145  13.040 -0.7218  0.8466 -0.7548
  549TMC3    O2 8208   3.617   3.553  12.827  0.4495 -0.0330 -0.3972
  550TMC3    C1 8209   3.150   1.450  12.399  0.8747 -0.3702  0.1897
  550TMC3    C2 8210   3.049   1.519  12.462 -0.2041 -0.2391  0.2537
  550TMC3    C3 8211   3.061   1.650  12.482  0.4221 -0.4911  0.5723
  550TMC3    C4 8212   3.257   1.514  12.345  0.2331 -0.6112  0.0754
  550TMC3    C5 8213   3.250   1.647  12.349  0.7344  0.4062 -0.8481
  550TMC3    C6 8214   3.163   1.723  12.425 -0.9367  0.2860  0.0353
  550TMC3     C 8215   3.102   1.328  12.339 -0.3806  0.2322 -0.1406
  550TMC3     O 8216   3.040   1.241  12.403  0.2977  1.1486 -0.5525
  550TMC3     H 8217   2.965   1.455  12.487  1.3922 -1.2727  3.0695
  550TMC3    H1 8218   3.336   1.466  12.289 -0.9378 -1.5262 -0.7743
  550TMC3    H2 8219   3.162   1.831  12.429 -1.1413  0.2524  0.8369
  550TMC3    C7 8220   3.234   1.691  12.212  0.6656 -0.9486  0.5239
  550TMC3    C8 8221   2.946   1.725  12.550 -0.4612  0.4849  0.7973
  550TMC3    O1 8222   3.188   1.606  12.140 -0.1612 -0.3078 -0.2714
  550TMC3    O2 8223   2.962   1.848  12.542  0.7226  0.0084  0.5611
  551TMC3    C1 8224   0.722   4.039  13.485  0.0442  0.5192 -0.7179
  551TMC3    C2 8225   0.805   4.100  13.401 -0.1102  0.3946 -0.2086
  551TMC3    C3 8226   0.915   4.151  13.454  0.0329  0.1326 -0.0517
  551TMC3    C4 8227   0.745   4.035  13.621 -0.5284  0.5532  0.5558
  551TMC3    C5 8228   0.858   4.093  13.677 -0.0868 -0.0441 -0.1762
  551TMC3    C6 8229   0.949   4.152  13.589  0.1577 -0.2084 -0.0403
  551TMC3     C 8230   0.613   3.966  13.423  1.0853  0.4626 -0.3875
  551TMC3     O 8231   0.626   3.953  13.303 -0.3367  0.1785  0.0566
  551TMC3     H 8232   0.785   4.103  13.294  1.9978  3.9143 -0.4721
  551TMC3    H1 8233   0.680   3.983  13.690 -0.4827  0.2950  0.4029
  551TMC3    H2 8234   1.041   4.200  13.621 -1.5403  1.2401  2.6872
  551TMC3    C7 8235   0.879   4.114  13.822 -0.3834  0.0021  0.4189
  551TMC3    C8 8236   1.020   4.174  13.358 -0.2137  0.0934 -0.6266
  551TMC3    O1 8237   0.800   4.057  13.899  0.2309  0.3442 -0.4979
  551TMC3    O2 8238   1.136   4.155  13.396 -0.0784 -0.2997 -0.1531
  552MPD2     C 8239   2.267   1.441  14.149 -0.9081  0.7669  0.1125
  552MPD2    C1 8240   2.263   1.317  14.207 -0.0564 -0.3056  0.0125
  552MPD2    C2 8241   2.373   1.265  14.279  0.3974 -0.4467  0.2193
  552MPD2    C3 8242   2.488   1.342  14.298  0.7891  0.4252 -0.4748
  552MPD2    C4 8243   2.487   1.461  14.238  0.2759 -0.1564  0.4109
  552MPD2    C5 8244   2.384   1.511  14.165 -0.3216  0.2826 -0.2454
  552MPD2     H 8245   2.374   1.165  14.320  0.6775 -0.6456 -0.2720
  552MPD2    H1 8246   2.571   1.528  14.242 -1.1934  1.5091  3.6797
  552MPD2    H2 8247   2.190   1.480  14.083  0.3061  3.0001  0.0276
  552MPD2    H3 8248   2.396   1.611  14.125  1.9797  0.1296  0.0789
  552MPD2     N 8249   2.605   1.301  14.365  0.5740  0.2071 -0.2792
  552MPD2    H5 8250   2.676   1.373  14.375 -0.0119  0.8178 -0.5038
  552MPD2    N1 8251   2.148   1.234  14.203  0.1607  0.9430 -0.1089
  552MPD2    H7 8252   2.155   1.143  14.246 -0.1790 -0.0843 -2.2003
  553TMC3    C1 8253   1.930   1.163  14.118 -0.7582 -0.9393 -0.4021
  553TMC3    C2 8254   1.899   1.154  13.982  0.0870 -0.1572  0.2418
  553TMC3    C3 8255   1.890   1.027  13.911  0.3559 -0.3042 -0.1209
  553TMC3    C4 8256   1.957   1.038  14.184  0.5748 -0.3595 -0.1008
  553TMC3    C5 8257   1.937   0.921  14.113  0.0384  0.5209 -0.3620
  553TMC3    C6 8258   1.902   0.912  13.983  0.3166 -0.6694 -0.1222
  553TMC3     C 8259   2.022   1.273  14.153 -0.8365  0.5668 -0.4113
  553TMC3     O 8260   1.985   1.388  14.123 -0.3887 -0.4571 -0.2515
  553TMC3     H 8261   1.892   1.242  13.918  0.6435 -0.5834 -0.3999
  553TMC3    H1 8262   1.995   1.027  14.285  2.2834  3.0635 -0.3667
  553TMC3    H2 8263   1.897   0.815  13.934  3.9455 -1.0177  0.2235
  553TMC3    C7 8264   1.987   0.798  14.175  0.0984  0.5179 -0.1508
  553TMC3    C8 8265   1.944   1.018  13.786 -0.2519 -0.2194  0.2340
  553TMC3    O1 8266   1.906   0.735  14.237  0.6527  0.2227 -0.4467
  553TMC3    O2 8267   2.027   1.100  13.756 -0.3033 -0.4098 -0.8562
  554TMC3    C1 8268   4.333   0.272  11.629  0.4200  0.1731  0.4410
  554TMC3    C2 8269   4.329   0.273  11.495  0.3663  0.3793 -0.2464
  554TMC3    C3 8270   4.352   0.391  11.427 -0.0269 -0.2786 -0.1367
  554TMC3    C4 8271   4.366   0.381  11.698  0.1478  0.2694 -0.3025
  554TMC3    C5 8272   4.397   0.499  11.629 -0.6031  0.2159 -0.1948
  554TMC3    C6 8273   4.388   0.502  11.495 -0.1506  0.1783  0.2737
  554TMC3     C 8274   4.262   0.165  11.692  0.3283  0.2500 -0.3992
  554TMC3     O 8275   4.191   0.098  11.619  0.4611  0.6869  0.2817
  554TMC3     H 8276   4.289   0.189  11.439 -2.5000  0.6052  1.4588
  554TMC3    H1 8277   4.357   0.394  11.805 -0.1969 -0.2279 -0.2700
  554TMC3    H2 8278   4.402   0.604  11.459 -0.9629 -1.5251 -4.8647
  554TMC3    C7 8279   4.433   0.613  11.710  0.0714 -0.0459  0.1003
  554TMC3    C8 8280   4.347   0.404  11.285 -0.9137 -0.7174 -0.8368
  554TMC3    O1 8281   4.415   0.604  11.832  0.1050  0.0508 -0.3017
  554TMC3    O2 8282   4.416   0.498  11.239 -0.5843  0.5618 -0.4350
  555TMC3    C1 8283   2.934   4.228  14.764 -0.7705 -0.0100 -0.0069
  555TMC3    C2 8284   2.880   4.336  14.828  0.4148 -0.1372 -0.3964
  555TMC3    C3 8285   2.840   4.308  14.956 -0.5947 -0.1416  0.8546
  555TMC3    C4 8286   2.943   4.105  14.821  0.1243 -0.1861  0.1299
  555TMC3    C5 8287   2.888   4.086  14.948  0.4052 -0.1947  0.2635
  555TMC3    C6 8288   2.829   4.187  15.018 -0.1244 -0.3791  0.6543
  555TMC3     C 8289   2.979   4.238  14.626  0.4462 -0.1431  0.3030
  555TMC3     O 8290   3.058   4.154  14.587  0.1659  0.2435 -0.4261
  555TMC3     H 8291   2.888   4.439  14.797 -1.8542  0.2801  0.3542
  555TMC3    H1 8292   2.971   4.022  14.758  0.3236  0.0634 -0.1106
  555TMC3    H2 8293   2.779   4.168  15.112  1.0164 -3.2862  0.6966
  555TMC3    C7 8294   2.903   3.961  15.024 -0.0343 -0.0100 -0.1771
  555TMC3    C8 8295   2.860   4.415  15.051  0.2641 -0.1490 -0.0121
  555TMC3    O1 8296   2.831   3.947  15.122 -0.6017  0.2421  0.0343
  555TMC3    O2 8297   2.841   4.530  15.014  0.0031 -0.4894  0.0746
  556MPD2     C 8298   2.159   1.554  11.496  0.1547  0.3381 -0.9166
  556MPD2    C1 8299   2.026   1.544  11.544  0.4619 -0.1995  0.3336
  556MPD2    C2 8300   1.940   1.465  11.470 -0.2189  0.0153  0.2107
  556MPD2    C3 8301   1.979   1.396  11.358 -0.0230 -0.0145  0.0393
  556MPD2    C4 8302   2.114   1.394  11.330 -0.2581  0.0545  0.3993
  556MPD2    C5 8303   2.202   1.469  11.398 -0.6326 -0.6895  0.1741
  556MPD2     H 8304   1.838   1.472  11.507 -0.9779  2.7602 -2.4044
  556MPD2    H1 8305   2.152   1.337  11.246 -0.8183 -0.5991  0.5900
  556MPD2    H2 8306   2.236   1.618  11.538  1.5463 -1.5151 -0.6444
  556MPD2    H3 8307   2.307   1.467  11.370 -1.3877 -1.6180 -2.5383
  556MPD2     N 8308   1.878   1.342  11.275  0.2116  0.4484  0.6178
  556MPD2    H5 8309   1.785   1.347  11.316 -0.8252  0.7855 -1.8179
  556MPD2    N1 8310   1.977   1.619  11.653 -0.4640  0.2511 -0.0826
  556MPD2    H7 8311   1.882   1.599  11.682 -0.7041  0.7051 -0.5657
  557TMC3    C1 8312   1.784   1.281  11.070  0.5181 -0.6318  0.0278
  557TMC3    C2 8313   1.771   1.346  10.958 -0.4354  0.1767 -0.0320
  557TMC3    C3 8314   1.646   1.338  10.905 -0.4151 -0.2551 -0.4064
  557TMC3    C4 8315   1.688   1.209  11.136 -0.2304  0.9419  0.3033
  557TMC3    C5 8316   1.563   1.208  11.080  0.1196 -0.3499 -0.0313
  557TMC3    C6 8317   1.536   1.288  10.968  0.3741  0.5871 -0.0875
  557TMC3     C 8318   1.905   1.324  11.137  0.5449 -0.7772 -0.2876
  557TMC3     O 8319   2.007   1.324  11.065 -0.6828 -0.0745  0.1642
  557TMC3     H 8320   1.849   1.410  10.919  0.7735  0.4516  2.9035
  557TMC3    H1 8321   1.711   1.157  11.228 -1.7821  0.0166  0.1727
  557TMC3    H2 8322   1.435   1.290  10.928 -0.7151 -2.4871  2.5337
  557TMC3    C7 8323   1.446   1.166  11.158  0.2824  0.5497 -1.0654
  557TMC3    C8 8324   1.629   1.431  10.800  0.0476 -0.8285  0.3865
  557TMC3    O1 8325   1.348   1.236  11.156  0.5435  0.2896 -0.9626
  557TMC3    O2 8326   1.721   1.511  10.779 -0.5247 -0.6633 -0.4332
  558TMC3    C1 8327   4.281   4.164  10.453  0.2336 -0.4305 -0.0620
  558TMC3    C2 8328   4.163   4.213  10.498 -0.3889 -0.5465  0.6414
  558TMC3    C3 8329   4.063   4.199  10.403  0.7348  0.0883  1.1202
  558TMC3    C4 8330   4.305   4.102  10.328  0.1360  0.2291  0.1718
  558TMC3    C5 8331   4.201   4.091  10.241  0.7437 -0.5970  0.2848
  558TMC3    C6 8332   4.079   4.145  10.280  0.2062 -0.2864 -1.1667
  558TMC3     C 8333   4.387   4.150  10.551 -0.4829  0.7630  0.7955
  558TMC3     O 8334   4.498   4.117  10.509 -0.4968 -0.1505  0.5042
  558TMC3     H 8335   4.150   4.271  10.588  2.1449 -1.2450  1.4589
  558TMC3    H1 8336   4.396   4.050  10.299 -0.3052 -0.6308  0.3218
  558TMC3    H2 8337   3.996   4.160  10.213  0.2888 -0.9447 -1.4160
  558TMC3    C7 8338   4.215   4.020  10.118  0.0990 -0.0845 -0.2881
  558TMC3    C8 8339   3.949   4.270  10.425 -0.2771 -0.5184 -0.0504
  558TMC3    O1 8340   4.327   3.983  10.082  0.0056 -0.2618  0.0316
  558TMC3    O2 8341   3.888   4.327  10.333 -0.0186 -0.2234  0.4050
  559MPD2     C 8342   4.211   4.611  10.482  0.2385 -0.5611  0.1768
  559MPD2    C1 8343   4.186   4.702  10.578 -0.3684  1.1096 -0.1694
  559MPD2    C2 8344   4.282   4.704  10.675 -0.4475  0.4949 -0.5293
  559MPD2    C3 8345   4.398   4.627  10.681 -0.1843  0.2126 -0.6176
  559MPD2    C4 8346   4.429   4.544  10.576 -0.1283 -0.0296 -0.3484
  559MPD2    C5 8347   4.330   4.540  10.484  0.6111 -0.1198  0.4774
  559MPD2     H 8348   4.257   0.020  10.763 -0.3636  0.4875 -0.5008
  559MPD2    H1 8349   4.517   4.483  10.566  0.6541  1.1540 -0.6380
  559MPD2    H2 8350   4.149   4.592  10.394  2.3929  0.4031 -1.5447
  559MPD2    H3 8351   4.349   4.479  10.396 -0.4427  0.8678 -0.4371
  559MPD2     N 8352   4.476   4.634  10.797 -0.3549 -0.0897  0.5956
  559MPD2    H5 8353   4.461   4.712  10.860  1.7530  2.1637 -1.6929
  559MPD2    N1 8354   4.070   0.041  10.580 -0.1728 -0.1886  0.1385
  559MPD2    H7 8355   4.049   0.110  10.652 -0.9265 -1.4442  1.1169
  560TMC3    C1 8356   4.636   4.562  10.950 -0.2479  0.9879 -0.1374
  560TMC3    C2 8357   4.624   4.457  11.027  0.4841  0.1591  0.6448
  560TMC3    C3 8358   4.712   4.438  11.131  0.3206  0.0829  0.6181
  560TMC3    C4 8359   4.727   4.662  10.974  0.6649  0.0808 -0.6513
  560TMC3    C5 8360   0.069   4.634  11.083 -0.5166 -0.2282 -0.0004
  560TMC3    C6 8361   0.064   4.526  11.162 -0.2696  0.1177  0.3617
  560TMC3     C 8362   4.579   4.547  10.821 -0.8376 -0.0373 -0.0249
  560TMC3     O 8363   4.622   4.446  10.766 -0.1367 -0.2079  0.3548
  560TMC3     H 8364   4.559   4.376  10.994  0.1502  1.5007 -2.0210
  560TMC3    H1 8365   0.004   0.001  10.904  1.1332  0.1778 -0.4165
  560TMC3    H2 8366   0.125   4.522  11.252 -1.1904  3.0368  1.1011
  560TMC3    C7 8367   0.140   0.003  11.142  0.8429  0.0245 -0.6817
  560TMC3    C8 8368   4.679   4.347  11.237 -0.3013  0.2005  0.2415
  560TMC3    O1 8369   0.228   4.723  11.222 -0.8250  0.1924  0.5574
  560TMC3    O2 8370   0.025   4.321  11.315 -0.3351  0.6229  0.3421
  561TMC3    C1 8371   2.363   3.721  11.286 -0.2536 -0.4197  0.4773
  561TMC3    C2 8372   2.265   3.636  11.325  0.1977  0.6841 -0.6178
  561TMC3    C3 8373   2.164   3.690  11.398 -0.0427  0.0415 -0.0828
  561TMC3    C4 8374   2.370   3.852  11.319 -0.3489  0.6435 -0.2323
  561TMC3    C5 8375   2.269   3.899  11.394  0.1130  0.1961  0.4107
  561TMC3    C6 8376   2.172   3.820  11.446  0.9403 -0.4227  0.2917
  561TMC3     C 8377   2.454   3.670  11.175  0.0276 -0.3671  0.6018
  561TMC3     O 8378   2.459   3.550  11.162 -0.1751  0.2166 -0.1050
  561TMC3     H 8379   2.265   3.531  11.298 -2.8453  1.0216 -1.9070
  561TMC3    H1 8380   2.456   3.915  11.300  1.7499 -2.1998 -0.2090
  561TMC3    H2 8381   2.087   3.872  11.488  1.0081  0.4443 -0.6147
  561TMC3    C7 8382   2.263   4.036  11.444  0.5153  0.3709  0.2988
  561TMC3    C8 8383   2.076   3.591  11.465  0.4106  0.1768  0.6956
  561TMC3    O1 8384   2.207   4.060  11.552  0.3196 -0.5735 -0.5191
  561TMC3    O2 8385   2.097   3.479  11.431 -0.1966 -0.3119 -0.5045
  562TMC3    C1 8386   3.357   0.040  16.021  0.4937  0.3682  0.2497
  562TMC3    C2 8387   3.246   0.017  15.952 -0.1289  0.8487  0.0397
  562TMC3    C3 8388   3.147   4.685  16.021  0.2468 -0.3345 -0.2696
  562TMC3    C4 8389   3.391   4.720  16.134 -0.7810  0.3097  0.0337
  562TMC3    C5 8390   3.300   4.641  16.194  0.2630 -0.9333  0.6472
  562TMC3    C6 8391   3.177   4.619  16.135 -0.5339  0.0751  0.3439
  562TMC3     C 8392   3.459   0.114  15.950 -0.2745  0.4010  0.0626
  562TMC3     O 8393   3.444   0.125  15.828  0.2774  0.0947  0.2749
  562TMC3     H 8394   3.226   0.073  15.862  0.3582 -0.1585 -0.7008
  562TMC3    H1 8395   3.491   4.725  16.175 -2.2697  0.5302  3.6069
  562TMC3    H2 8396   3.098   4.568  16.189 -1.7467  1.1147 -0.4738
  562TMC3    C7 8397   3.320   4.577  16.316  0.0913 -0.4928  0.3787
  562TMC3    C8 8398   3.015   4.660  15.966 -0.0734 -0.5599 -0.5570
  562TMC3    O1 8399   3.223   4.531  16.370  0.1024  0.1355 -0.0550
  562TMC3    O2 8400   2.937   4.586  16.029 -0.4783  0.2846  0.3131
  563MPD2     C 8401   0.479   1.247  15.816  0.1703  0.2537  0.4441
  563MPD2    C1 8402   0.496   1.314  15.935  0.5539  0.0347 -0.4875
  563MPD2    C2 8403   0.597   1.291  16.022 -0.1318  0.0569 -0.4289
  563MPD2    C3 8404   0.696   1.200  15.987 -0.2339  0.3559 -0.4931
  563MPD2    C4 8405   0.682   1.131  15.868  0.8943  1.0737  0.0966
  563MPD2    C5 8406   0.574   1.153  15.786  0.1315  0.3777  0.5769
  563MPD2     H 8407   0.610   1.338  16.119 -2.3527  0.4341 -0.3212
  563MPD2    H1 8408   0.749   1.048  15.847  0.5378  0.5010  1.1886
  563MPD2    H2 8409   0.393   1.264  15.752 -2.4912 -1.0772  3.7002
  563MPD2    H3 8410   0.572   1.104  15.689  1.5088  1.2774  0.0859
  563MPD2     N 8411   0.806   1.186  16.070  0.0508  0.1298  0.0951
  563MPD2    H5 8412   0.802   1.231  16.161  3.0870  0.6607 -0.0139
  563MPD2    N1 8413   0.395   1.407  15.963 -0.1650  0.3946 -0.3440
  563MPD2    H7 8414   0.312   1.402  15.905  0.5086  1.2772 -1.3679
  564TMC3    C1 8415   0.305   1.442  16.170  0.2140  0.0546 -0.1153
  564TMC3    C2 8416   0.197   1.380  16.132  0.0220  0.3353  0.7256
  564TMC3    C3 8417   0.157   1.272  16.208 -0.0982 -0.1690 -0.0788
  564TMC3    C4 8418   0.359   1.425  16.296 -0.4698  0.3659  0.8831
  564TMC3    C5 8419   0.323   1.315  16.375  0.6581 -0.0616 -0.0740
  564TMC3    C6 8420   0.220   1.237  16.327 -0.2652  0.6936  0.6579
  564TMC3     C 8421   0.401   1.489  16.065  0.3469  0.2580 -0.1728
  564TMC3     O 8422   0.503   1.542  16.106 -0.4259  0.3599  0.4719
  564TMC3     H 8423   0.144   1.412  16.043 -0.6813  2.3443  1.8704
  564TMC3    H1 8424   0.454   1.466  16.325 -1.1324  3.2935 -1.1060
  564TMC3    H2 8425   0.207   1.144  16.379 -1.6194 -0.2789 -1.4207
  564TMC3    C7 8426   0.441   1.234  16.388  0.9734  0.0915 -0.0920
  564TMC3    C8 8427   0.102   1.163  16.144 -0.7027 -0.3491  0.4513
  564TMC3    O1 8428   0.536   1.281  16.444  0.1241 -0.3691  0.0601
  564TMC3    O2 8429   0.050   1.078  16.218 -0.1305 -0.0947 -0.2788
  565TMC3    C1 8430   0.864   3.032  10.401 -0.1148 -0.5178 -0.9137
  565TMC3    C2 8431   0.928   2.938  10.482 -0.2295 -0.4998  0.7501
  565TMC3    C3 8432   0.873   2.807  10.487  0.5365  0.4747  0.2233
  565TMC3    C4 8433   0.748   2.994  10.334 -0.0124 -0.0985 -0.9821
  565TMC3    C5 8434   0.696   2.872  10.357 -0.8187 -0.1450 -0.8589
  565TMC3    C6 8435   0.750   2.782  10.434  0.6259  0.0464 -0.1348
  565TMC3     C 8436   0.890   3.176  10.427 -0.6321 -0.2253  1.0340
  565TMC3     O 8437   0.998   3.207  10.474 -0.0603  0.1395  0.1236
  565TMC3     H 8438   1.006   2.969  10.551 -1.5523  2.4561  0.9127
  565TMC3    H1 8439   0.704   3.057  10.258  1.0149  1.3566 -0.3715
  565TMC3    H2 8440   0.713   2.680  10.430 -2.1720  1.0104  1.1649
  565TMC3    C7 8441   0.564   2.839  10.302 -0.1770 -0.4739  0.3369
  565TMC3    C8 8442   0.943   2.701  10.567 -0.1093 -0.4051  0.0020
  565TMC3    O1 8443   0.492   2.768  10.368  0.2335 -0.5248 -0.0599
  565TMC3    O2 8444   0.881   2.597  10.584 -0.4306 -0.2516  0.6473
  566MPD2     C 8445   2.209   4.105  14.149  0.2808 -0.1322  0.5453
  566MPD2    C1 8446   2.278   4.219  14.119 -0.2147 -0.0983  0.0783
  566MPD2    C2 8447   2.212   4.331  14.076 -0.4112  0.4238 -0.0910
  566MPD2    C3 8448   2.076   4.328  14.076  0.2587 -0.6576 -0.2378
  566MPD2    C4 8449   2.004   4.222  14.115 -0.5008 -0.1406  0.0656
  566MPD2    C5 8450   2.070   4.105  14.146  0.5139 -0.3239 -0.2628
  566MPD2     H 8451   2.252   4.430  14.059  0.3481 -0.1237 -1.5340
  566MPD2    H1 8452   1.896   4.222  14.118 -0.4565 -2.9222  1.4186
  566MPD2    H2 8453   2.260   4.013  14.177 -0.0129 -1.6637 -3.9484
  566MPD2    H3 8454   2.015   4.017  14.177  1.6193 -0.0895  2.3751
  566MPD2     N 8455   1.998   4.431  14.028 -0.0903  0.3427  0.8861
  566MPD2    H5 8456   1.900   4.432  14.054 -0.2292 -1.0007  0.3863
  566MPD2    N1 8457   2.418   4.221  14.139 -0.8182  0.2675 -0.6228
  566MPD2    H7 8458   2.458   4.128  14.145  0.4143  0.8408  0.0898
  567TMC3    C1 8459   2.645   4.281  14.139 -0.1244 -0.4854 -0.4154
  567TMC3    C2 8460   2.737   4.354  14.076  0.1837  0.0149 -0.3962
  567TMC3    C3 8461   2.865   4.317  14.089 -0.5671  0.2170  0.0315
  567TMC3    C4 8462   2.673   4.170  14.212  0.0158 -0.2574 -0.0901
  567TMC3    C5 8463   2.810   4.139  14.223  1.1157  1.0250 -0.5210
  567TMC3    C6 8464   2.906   4.208  14.157 -0.6264 -0.2315 -0.1758
  567TMC3     C 8465   2.509   4.328  14.125 -0.5625  0.0286  0.3903
  567TMC3     O 8466   2.495   4.440  14.081  0.0678  0.2127 -0.5571
  567TMC3     H 8467   2.707   4.440  14.016 -0.0080 -1.0625 -1.8377
  567TMC3    H1 8468   2.609   4.122  14.285 -1.6560  1.0576 -0.6746
  567TMC3    H2 8469   3.007   4.191  14.194 -1.2758  1.1295  2.2151
  567TMC3    C7 8470   2.855   4.041  14.310 -0.0049 -0.3432  0.3200
  567TMC3    C8 8471   2.957   4.413  14.030  0.0229 -1.4289 -1.0825
  567TMC3    O1 8472   2.956   3.977  14.280  0.1464 -0.6079 -0.2261
  567TMC3    O2 8473   2.905   4.513  13.993 -0.3531  0.4369 -0.2932
  568MPD2     C 8474   0.176   4.450  16.420  0.0874 -0.1410 -0.2315
  568MPD2    C1 8475   0.251   4.544  16.486 -0.4670  0.1218  0.2482
  568MPD2    C2 8476   0.256   4.672  16.429  0.6467  0.6964 -0.1795
  568MPD2    C3 8477   0.181   4.709  16.322 -0.0982  0.5445  0.2376
  568MPD2    C4 8478   0.102   4.614  16.266  0.6525  0.0066 -0.3056
  568MPD2    C5 8479   0.103   4.485  16.311 -0.3631 -0.4783  0.2619
  568MPD2     H 8480   0.327   0.002  16.470 -0.8208  2.2429 -0.3290
  568MPD2    H1 8481   0.040   4.642  16.182  1.6793 -0.1118 -1.1102
  568MPD2    H2 8482   0.170   4.344  16.444  1.6935 -0.2035 -0.1387
  568MPD2    H3 8483   0.045   4.407  16.263  0.6933 -0.2788 -1.3278
  568MPD2     N 8484   0.197   0.099  16.276 -0.0316 -0.6735 -0.2093
  568MPD2    H5 8485   0.251   0.155  16.341  0.2339 -0.4825 -0.5948
  568MPD2    N1 8486   0.333   4.501  16.591 -0.0999 -0.0826 -0.1396
  568MPD2    H7 8487   0.327   4.405  16.621 -0.5188 -0.1445 -0.4305
  569TMC3    C1 8488   0.186   0.309  16.157  0.5367 -0.8717 -0.0516
  569TMC3    C2 8489   0.195   0.375  16.278 -0.2404 -0.1018 -0.0699
  569TMC3    C3 8490   0.279   0.483  16.291  1.3340 -0.3864  0.1134
  569TMC3    C4 8491   0.242   0.345  16.044  0.1920 -0.2048 -0.0135
  569TMC3    C5 8492   0.313   0.459  16.051 -0.6926  0.0217 -0.2539
  569TMC3    C6 8493   0.334   0.527  16.170 -0.9568  0.1842  0.0203
  569TMC3     C 8494   0.147   0.169  16.162  0.2567  0.0675  0.0212
  569TMC3     O 8495   0.090   0.130  16.062  0.1947  0.5767 -0.5659
  569TMC3     H 8496   0.122   0.351  16.355  0.3571  0.4823  0.6669
  569TMC3    H1 8497   0.211   0.302  15.949  0.0608 -0.6332  0.2214
  569TMC3    H2 8498   0.406   0.608  16.177 -0.7205 -0.1574  1.5746
  569TMC3    C7 8499   0.259   0.546  15.949  0.0798 -0.3275  0.5405
  569TMC3    C8 8500   0.243   0.583  16.396  0.3716  0.0481  0.0563
  569TMC3    O1 8501   0.261   0.502  15.835  0.1907 -0.8264  0.5029
  569TMC3    O2 8502   0.125   0.577  16.430 -0.2984  0.2729 -0.5889
  570TMC3    C1 8503   4.260   3.306  16.301 -0.6287  0.6967  0.2388
  570TMC3    C2 8504   4.341   3.331  16.194 -0.8832 -0.1392  0.5507
  570TMC3    C3 8505   4.312   3.438  16.117  0.1156 -0.1198  0.4374
  570TMC3    C4 8506   4.156   3.383  16.335 -0.1580 -0.3169 -0.0999
  570TMC3    C5 8507   4.141   3.500  16.262  0.1196 -0.2230  0.0589
  570TMC3    C6 8508   4.224   3.532  16.160 -0.6896  0.0209  0.2458
  570TMC3     C 8509   4.307   3.197  16.382  0.2147 -0.0378 -0.4068
  570TMC3     O 8510   4.347   3.093  16.332  0.5124  0.1831 -0.1128
  570TMC3     H 8511   4.421   3.260  16.178  1.3166  2.1269  1.3601
  570TMC3    H1 8512   4.100   3.364  16.425 -1.0788  0.4181 -0.5089
  570TMC3    H2 8513   4.204   3.622  16.104  0.4185 -1.2667 -2.2038
  570TMC3    C7 8514   4.089   3.617  16.330 -0.2129  0.3213 -0.2937
  570TMC3    C8 8515   4.419   3.492  16.041  0.1712  0.2229  0.4059
  570TMC3    O1 8516   4.143   3.720  16.297  0.1659  0.2125  0.3969
  570TMC3    O2 8517   4.435   3.613  16.045  0.0864 -0.4442  0.3328
  571MPD2     C 8518   2.897   1.474  17.515  0.5917  0.5218  0.0487
  571MPD2    C1 8519   2.790   1.421  17.585  0.3113 -0.1163 -0.2890
  571MPD2    C2 8520   2.764   1.466  17.719  0.5920  0.0958  0.1219
  571MPD2    C3 8521   2.850   1.565   0.004 -0.2754 -0.6835  0.3524
  571MPD2    C4 8522   2.951   1.614  17.694 -0.2476  0.1373  0.0996
  571MPD2    C5 8523   2.970   1.575  17.568  0.6875  0.4899 -0.0840
  571MPD2     H 8524   2.687   1.423   0.018 -0.9320  1.0050 -1.1146
  571MPD2    H1 8525   3.023   1.683  17.736 -1.5220  1.2141  0.5022
  571MPD2    H2 8526   2.919   1.439  17.415 -0.4306  1.3948 -0.4754
  571MPD2    H3 8527   3.061   1.611  17.520  2.0067 -0.7773  1.4705
  571MPD2     N 8528   2.831   1.617   0.133  0.2651  0.3310 -0.2788
  571MPD2    H5 8529   2.884   1.703   0.147 -0.1820  0.5282  0.2064
  571MPD2    N1 8530   2.717   1.320  17.520 -0.3604  0.5871  0.7179
  571MPD2    H7 8531   2.759   1.285  17.434  1.0681  1.0951  1.2032
  572TMC3    C1 8532   2.720   1.659   0.334 -0.4012  0.0272  0.4287
  572TMC3    C2 8533   2.636   1.605   0.436  0.3248 -0.6359  0.4158
  572TMC3    C3 8534   2.579   1.696   0.518  0.3668 -0.6693  0.0026
  572TMC3    C4 8535   2.719   1.793   0.303  1.0545 -0.4997  0.5257
  572TMC3    C5 8536   2.653   1.871   0.383 -0.8631  0.5198  1.1671
  572TMC3    C6 8537   2.579   1.830   0.487 -0.4990  1.1131  0.3788
  572TMC3     C 8538   2.756   1.565   0.234 -0.1359 -0.2221  0.1840
  572TMC3     O 8539   2.690   1.460   0.223 -0.6475 -0.2244  0.0996
  572TMC3     H 8540   2.664   1.506   0.470  2.9603  0.2888  0.9343
  572TMC3    H1 8541   2.783   1.838   0.228  0.2446  0.4661  0.4186
  572TMC3    H2 8542   2.543   1.905   0.557  0.5934  0.5568  1.5381
  572TMC3    C7 8543   2.643   2.009   0.342 -0.1182 -0.6667  0.9213
  572TMC3    C8 8544   2.526   1.655   0.643  0.0637  0.4795  0.4851
  572TMC3    O1 8545   2.669   2.027   0.227 -0.2841  0.4343  0.0684
  572TMC3    O2 8546   2.565   1.556   0.700 -0.1338 -0.4283  0.4475
  573MPD2     C 8547   3.582   1.023   1.179 -0.1621 -0.1896 -0.2251
  573MPD2    C1 8548   3.510   1.140   1.172 -0.5479  0.4593  0.5231
  573MPD2    C2 8549   3.473   1.184   1.040  0.4376 -0.8956  0.2997
  573MPD2    C3 8550   3.514   1.114   0.928 -0.2355  0.3574 -0.1610
  573MPD2    C4 8551   3.589   1.000   0.938  0.2180 -0.1225 -0.4018
  573MPD2    C5 8552   3.622   0.961   1.064  0.0459 -0.1236  0.4022
  573MPD2     H 8553   3.428   1.280   1.019  2.3805  0.1793  1.0256
  573MPD2    H1 8554   3.622   0.945   0.850 -0.6080  0.0160 -0.7987
  573MPD2    H2 8555   3.617   0.985   1.274 -0.3721  1.8082  0.6493
  573MPD2    H3 8556   3.679   0.869   1.075 -0.8328 -0.5407  1.3975
  573MPD2     N 8557   3.485   1.162   0.801 -0.5587  0.4812  0.4016
  573MPD2    H5 8558   3.536   1.124   0.722 -0.9384  1.5571 -0.3605
  573MPD2    N1 8559   3.487   1.219   1.285 -0.2810  0.1379 -0.4944
  573MPD2    H7 8560   3.527   1.181   1.370 -1.5115  1.4945  0.6852
  574TMC3    C1 8561   3.421   1.319   0.648  0.7452 -0.4793  0.6144
  574TMC3    C2 8562   3.364   1.442   0.621 -0.3664  0.0523  0.2306
  574TMC3    C3 8563   3.367   1.506   0.506  0.0183  0.3822 -0.6771
  574TMC3    C4 8564   3.485   1.255   0.548 -0.5171 -0.5747  0.3562
  574TMC3    C5 8565   3.486   1.321   0.430 -0.4111  0.1949  0.2852
  574TMC3    C6 8566   3.441   1.448   0.407  0.4483  1.1413  0.3942
  574TMC3     C 8567   3.385   1.250   0.768 -0.3932 -0.3042  0.1478
  574TMC3     O 8568   3.299   1.300   0.832 -0.6018 -0.7001 -0.2931
  574TMC3     H 8569   3.305   1.491   0.698  0.4961  1.4564 -0.0149
  574TMC3    H1 8570   3.503   1.148   0.548  0.6905 -0.3682  0.3244
  574TMC3    H2 8571   3.459   1.496   0.312  0.7197 -2.6759 -1.4506
  574TMC3    C7 8572   3.530   1.253   0.315 -0.1059  0.2473  0.2578
  574TMC3    C8 8573   3.371   1.648   0.527 -0.0391 -0.8307 -0.2239
  574TMC3    O1 8574   3.494   1.289   0.205  0.4095  0.8068 -0.3322
  574TMC3    O2 8575   3.377   1.690   0.640  0.3815  0.2747  0.2415
  575TMC3    C1 8576   1.081   2.051  11.183  0.0046  0.6494  0.1710
  575TMC3    C2 8577   1.014   1.953  11.124  0.8453  0.0189 -0.5033
  575TMC3    C3 8578   0.959   1.977  11.000 -0.3227 -1.0687 -0.1569
  575TMC3    C4 8579   1.100   2.174  11.121 -0.2002 -0.5353 -0.6930
  575TMC3    C5 8580   1.043   2.193  10.997 -0.6071  0.0577  0.6426
  575TMC3    C6 8581   0.981   2.093  10.929 -0.1926 -0.5152 -0.6143
  575TMC3     C 8582   1.146   2.011  11.307  0.2969 -0.0962  0.0801
  575TMC3     O 8583   1.259   2.047  11.333  0.5907  0.2818  0.6680
  575TMC3     H 8584   1.008   1.862  11.182 -0.3261  1.5158  1.7252
  575TMC3    H1 8585   1.143   2.258  11.175 -1.8872  0.3949 -0.7951
  575TMC3    H2 8586   0.919   2.118  10.843 -1.1848 -1.4210 -0.1701
  575TMC3    C7 8587   1.042   2.320  10.925 -0.2583 -0.2900 -0.1004
  575TMC3    C8 8588   0.860   1.881  10.957 -0.3622  0.3140  0.6804
  575TMC3    O1 8589   0.956   2.339  10.843 -0.0075 -0.7815 -0.4626
  575TMC3    O2 8590   0.820   1.805  11.046 -0.3065 -0.4686 -0.0622
  576MPD2     C 8591   1.305   3.722  12.691  0.0356  0.8682  0.9465
  576MPD2    C1 8592   1.240   3.795  12.598  0.3676  0.3437 -0.1656
  576MPD2    C2 8593   1.119   3.860  12.632 -0.0713 -0.5720  0.2454
  576MPD2    C3 8594   1.073   3.861  12.762  0.3600  0.5193 -0.2784
  576MPD2    C4 8595   1.147   3.799  12.858 -0.1594  0.0756  0.0510
  576MPD2    C5 8596   1.261   3.733  12.819  0.3120  0.2734  0.9423
  576MPD2     H 8597   1.068   3.916  12.555 -0.9449 -1.3507  0.2633
  576MPD2    H1 8598   1.119   3.791  12.962 -0.7611  0.6910 -0.0603
  576MPD2    H2 8599   1.401   3.673  12.679 -0.1757  0.3334  1.4523
  576MPD2    H3 8600   1.314   3.691  12.904 -1.0401  1.1232  2.1989
  576MPD2     N 8601   0.956   3.941  12.792  0.5802 -0.9401 -0.2326
  576MPD2    H5 8602   0.923   3.994  12.712  0.2336  0.2186  0.6875
  576MPD2    N1 8603   1.271   3.792  12.462 -0.8436  0.0194  1.0468
  576MPD2    H7 8604   1.232   3.865  12.403  0.2235  1.1495  1.7277
  577TMC3    C1 8605   1.385   3.745  12.260 -0.4522  0.1461 -1.0314
  577TMC3    C2 8606   1.452   3.650  12.187 -0.2327 -0.0471  0.3367
  577TMC3    C3 8607   1.483   3.675  12.055 -0.7161  0.6860 -1.4244
  577TMC3    C4 8608   1.335   3.856  12.203  0.3891 -0.3952 -0.2601
  577TMC3    C5 8609   1.364   3.873  12.074 -1.2134  0.7958  0.0098
  577TMC3    C6 8610   1.431   3.784  11.997  0.5598 -0.0781  1.0259
  577TMC3     C 8611   1.365   3.715  12.403 -0.7004 -0.5660  0.2017
  577TMC3     O 8612   1.433   3.619  12.449 -0.2609  0.0317 -0.7002
  577TMC3     H 8613   1.469   3.554  12.236 -1.5638 -1.2248 -1.5232
  577TMC3    H1 8614   1.294   3.943  12.251  2.0788  2.3301 -3.7865
  577TMC3    H2 8615   1.449   3.805  11.892  1.4674 -1.0428  0.9886
  577TMC3    C7 8616   1.275   3.955  12.004 -0.1324  1.0412  0.2049
  577TMC3    C8 8617   1.547   3.580  11.967 -0.7441  0.4019  0.7786
  577TMC3    O1 8618   1.285   4.073  12.038 -0.1699  0.0774  0.1180
  577TMC3    O2 8619   1.538   3.461  12.000  0.1350  0.1756 -0.5303
  578MPD2     C 8620   3.904   3.693   1.663 -0.5088  0.1046 -0.3519
  578MPD2    C1 8621   3.941   3.618   1.558  0.3211  0.2838 -0.4351
  578MPD2    C2 8622   4.049   3.528   1.556 -0.2890  0.2720  0.0126
  578MPD2    C3 8623   4.126   3.515   1.667 -0.2658 -0.2759 -0.0055
  578MPD2    C4 8624   4.095   3.595   1.775  0.1640  0.4737 -1.0403
  578MPD2    C5 8625   3.986   3.679   1.770 -0.3814 -1.1190 -0.1774
  578MPD2     H 8626   4.080   3.487   1.460  0.1839 -0.3015  0.4200
  578MPD2    H1 8627   4.162   3.601   1.860 -0.4620  1.5471 -0.6118
  578MPD2    H2 8628   3.818   3.759   1.655 -2.5155 -2.5253 -0.8184
  578MPD2    H3 8629   3.974   3.739   1.860  0.3223 -4.0177  1.8579
  578MPD2     N 8630   4.258   3.463   1.650 -0.7193 -0.1784 -0.1419
  578MPD2    H5 8631   4.282   3.433   1.556 -1.7075  0.5326 -0.6240
  578MPD2    N1 8632   3.854   3.636   1.445  0.1244 -0.5627 -0.0066
  578MPD2    H7 8633   3.794   3.719   1.450  0.6061 -0.0359 -3.1243
  579TMC3    C1 8634   4.490   3.441   1.658  0.4168 -0.1397  0.5588
  579TMC3    C2 8635   4.608   3.484   1.714  0.1979 -0.3364  0.0764
  579TMC3    C3 8636   4.722   3.484   1.640  0.0048  0.5226 -1.0284
  579TMC3    C4 8637   4.486   3.389   1.525  0.3219 -0.2328  0.0773
  579TMC3    C5 8638   4.605   3.394   1.454 -0.6277 -0.3037  0.0455
  579TMC3    C6 8639   4.720   3.442   1.513  0.4265 -0.2664  0.0522
  579TMC3     C 8640   4.366   3.481   1.728  0.4447  0.2665 -0.0676
  579TMC3     O 8641   4.375   3.526   1.842  0.1772 -0.0799 -0.7102
  579TMC3     H 8642   4.603   3.519   1.816  1.8287 -2.1016  0.7477
  579TMC3    H1 8643   4.403   3.330   1.488 -0.2439  0.1425  0.7543
  579TMC3    H2 8644   0.071   3.430   1.458  1.9209  0.2266  2.4796
  579TMC3    C7 8645   4.623   3.315   1.331  0.3100 -0.5915  0.8161
  579TMC3    C8 8646   0.083   3.573   1.681  0.2101 -0.1604  0.8211
  579TMC3    O1 8647   4.741   3.283   1.302 -0.0615 -0.8029 -0.3510
  579TMC3    O2 8648   0.062   3.633   1.789 -0.2537 -0.1445 -0.2293
  580TMC3    C1 8649   3.476   3.323  12.414 -0.3860  0.6611 -0.2010
  580TMC3    C2 8650   3.593   3.390  12.448 -0.4678  0.1118  0.1584
  580TMC3    C3 8651   3.706   3.317  12.485  0.1592 -0.3840 -0.5366
  580TMC3    C4 8652   3.472   3.189  12.394  0.3558  0.1058 -0.1619
  580TMC3    C5 8653   3.588   3.120  12.425  0.1585 -0.4424  0.6968
  580TMC3    C6 8654   3.706   3.181  12.461  1.0502 -0.1557 -0.9828
  580TMC3     C 8655   3.401   3.403  12.314 -0.2191 -0.2399 -0.1743
  580TMC3     O 8656   3.390   3.364  12.197  0.5602 -0.1476 -0.4893
  580TMC3     H 8657   3.600   3.498  12.454 -0.5208  0.1876 -1.0810
  580TMC3    H1 8658   3.377   3.140  12.380 -0.7051  1.8266  1.1387
  580TMC3    H2 8659   3.794   3.125  12.491 -0.6319 -1.6551  1.2603
  580TMC3    C7 8660   3.577   2.971  12.449  0.1343 -0.9537 -0.4326
  580TMC3    C8 8661   3.834   3.387  12.491  0.0097 -0.1454  0.6096
  580TMC3    O1 8662   3.673   2.921  12.508 -0.6578  0.4264 -0.1306
  580TMC3    O2 8663   3.844   3.496  12.546 -0.4223  0.1297  0.5572
  581MPD2     C 8664   1.915   2.409  15.028 -0.5577 -0.6227 -0.3526
  581MPD2    C1 8665   1.784   2.373  15.065  1.4802 -0.0935 -0.1203
  581MPD2    C2 8666   1.678   2.412  14.976  0.6052  0.3258 -0.7499
  581MPD2    C3 8667   1.705   2.453  14.843  0.0407  0.8345 -0.0310
  581MPD2    C4 8668   1.832   2.486  14.812  0.2856  0.0945  0.1925
  581MPD2    C5 8669   1.935   2.470  14.909 -0.7369 -0.0616  0.7561
  581MPD2     H 8670   1.576   2.396  15.008  1.4243 -2.2970  0.5027
  581MPD2    H1 8671   1.855   2.533  14.717  3.1976 -2.9758 -0.6278
  581MPD2    H2 8672   2.000   2.388  15.091 -0.8739  0.6097  0.4626
  581MPD2    H3 8673   2.036   2.499  14.885 -1.5350  1.9625 -0.1548
  581MPD2     N 8674   1.589   2.485  14.763  0.5000  0.6601 -0.3508
  581MPD2    H5 8675   1.497   2.477  14.804  0.3465 -1.7928 -1.1329
  581MPD2    N1 8676   1.752   2.291  15.174 -0.9559  0.0992 -0.0902
  581MPD2    H7 8677   1.655   2.261  15.177 -1.2787  1.0268 -1.1304
  582TMC3    C1 8678   1.746   2.183  15.379  0.3408 -0.1567  1.1287
  582TMC3    C2 8679   1.797   2.177  15.502  0.3775 -0.1870 -0.6128
  582TMC3    C3 8680   1.716   2.111  15.587  0.0911  0.1309 -0.6286
  582TMC3    C4 8681   1.636   2.116  15.330 -0.0711 -0.6741 -0.0142
  582TMC3    C5 8682   1.560   2.050  15.422  0.1397 -0.5193  0.5872
  582TMC3    C6 8683   1.596   2.062  15.559  0.4250  0.1591  0.2625
  582TMC3     C 8684   1.819   2.276  15.290  0.2935 -0.5577  0.2197
  582TMC3     O 8685   1.927   2.320  15.328 -0.7775  0.1112 -0.0939
  582TMC3     H 8686   1.888   2.227  15.533 -0.3627 -0.3903  1.9099
  582TMC3    H1 8687   1.596   2.121  15.230 -1.5625 -3.1202  0.4489
  582TMC3    H2 8688   1.529   2.029  15.637 -2.1193  2.0062 -1.1488
  582TMC3    C7 8689   1.423   2.049  15.396 -0.2539 -0.8772 -0.3610
  582TMC3    C8 8690   1.730   2.151  15.726  0.6495 -0.0412  0.0167
  582TMC3    O1 8691   1.376   1.947  15.357 -0.0935  0.1503  0.6842
  582TMC3    O2 8692   1.623   2.158  15.792  0.0871 -0.2927 -0.0227
  583MPD2     C 8693   1.885   4.425  17.141 -0.5461  0.5529  0.2595
  583MPD2    C1 8694   1.834   4.519  17.049 -0.1886  0.7940  0.6647
  583MPD2    C2 8695   1.804   4.645  17.096 -0.0659  0.3750 -0.6123
  583MPD2    C3 8696   1.816   4.676  17.227  0.3195 -0.8334 -0.3352
  583MPD2    C4 8697   1.869   4.580  17.307  0.3278 -0.3335  0.3076
  583MPD2    C5 8698   1.913   4.465  17.265  0.5974  0.6580 -0.3333
  583MPD2     H 8699   1.755   4.718  17.033  2.4604  0.7706 -2.1492
  583MPD2    H1 8700   1.887   4.596  17.413  1.1314  0.2058  0.0943
  583MPD2    H2 8701   1.921   4.326  17.112 -1.3444  0.8710 -1.8191
  583MPD2    H3 8702   1.966   4.399  17.333 -0.7475 -0.3620 -0.2765
  583MPD2     N 8703   1.755   0.054  17.272 -0.3216 -0.5313 -0.3545
  583MPD2    H5 8704   1.723   0.121  17.202  1.7900 -1.8681 -2.6375
  583MPD2    N1 8705   1.820   4.490  16.913  0.0694  0.5075 -0.0903
  583MPD2    H7 8706   1.784   4.563  16.853  2.0815 -0.4210 -2.4211
  584TMC3    C1 8707   1.702   0.226  17.433  0.3110 -0.7479  0.1063
  584TMC3    C2 8708   1.702   0.325  17.331 -0.2275 -0.1369 -0.6007
  584TMC3    C3 8709   1.682   0.456  17.373 -0.0550  0.1155 -0.2726
  584TMC3    C4 8710   1.658   0.263  17.557 -0.9733 -0.1939  0.0318
  584TMC3    C5 8711   1.641   0.394  17.582  0.2575  0.8745  0.0807
  584TMC3    C6 8712   1.666   0.496  17.495 -0.5697 -0.3820 -0.2196
  584TMC3     C 8713   1.741   0.088  17.407 -0.3686 -0.4893 -0.0413
  584TMC3     O 8714   1.752   0.019  17.507 -0.3741 -0.1199 -0.2590
  584TMC3     H 8715   1.737   0.309  17.230 -1.4148  1.3622 -1.2525
  584TMC3    H1 8716   1.655   0.187  17.634 -1.6938 -0.2343 -0.0365
  584TMC3    H2 8717   1.646   0.599  17.523 -0.3881 -0.7036  1.1035
  584TMC3    C7 8718   1.548   0.417  17.687 -0.1438 -0.3302  0.7276
  584TMC3    C8 8719   1.701   0.557  17.271 -0.1115 -0.1733 -0.5541
  584TMC3    O1 8720   1.538   0.330   0.006 -0.8851 -0.4392  0.4434
  584TMC3    O2 8721   1.692   0.515  17.154 -0.0113 -0.1400  0.3107
  585MPD2     C 8722   0.777   3.180   0.555  0.2122  0.3441  0.4860
  585MPD2    C1 8723   0.894   3.173   0.482 -0.5435 -0.0116 -0.3789
  585MPD2    C2 8724   0.922   3.059   0.421 -0.1706 -0.0424 -0.5214
  585MPD2    C3 8725   0.835   2.958   0.412  0.6178  0.0637  0.0103
  585MPD2    C4 8726   0.715   2.965   0.485 -0.2620 -0.2483  0.6099
  585MPD2    C5 8727   0.696   3.074   0.561  0.2129 -0.0161 -0.1584
  585MPD2     H 8728   1.016   3.048   0.368 -0.8830  2.5977 -2.3335
  585MPD2    H1 8729   0.634   2.895   0.468 -1.0495  1.1709 -1.4320
  585MPD2    H2 8730   0.753   3.269   0.612 -0.8580 -1.0000  2.1421
  585MPD2    H3 8731   0.599   3.073   0.608  1.8786 -1.5749  3.2025
  585MPD2     N 8732   0.844   2.855   0.315 -0.2329  0.2957  0.4300
  585MPD2    H5 8733   0.777   2.780   0.313  0.2119 -0.1318  1.7612
  585MPD2    N1 8734   0.970   3.293   0.480  0.2304  0.2803  0.0737
  585MPD2    H7 8735   0.925   3.371   0.527  0.1032 -0.0777  0.5528
  586TMC3    C1 8736   0.914   2.756   0.119 -0.4359  0.5397 -0.2763
  586TMC3    C2 8737   1.025   2.728   0.046 -0.0944  0.1338  0.3666
  586TMC3    C3 8738   1.016   2.742  17.672 -0.0666 -0.1509 -0.1995
  586TMC3    C4 8739   0.790   2.788   0.056  0.0085  0.7909 -0.3084
  586TMC3    C5 8740   0.785   2.775  17.683  0.5989 -0.2121 -0.7642
  586TMC3    C6 8741   0.897   2.771  17.601  0.0395 -0.3868  0.3312
  586TMC3     C 8742   0.945   2.840   0.227 -0.2036  0.2662  0.0100
  586TMC3     O 8743   1.061   2.887   0.216 -0.0076  0.2903  0.2637
  586TMC3     H 8744   1.117   2.700   0.096 -0.2597 -2.3477 -0.6971
  586TMC3    H1 8745   0.708   2.826   0.115 -0.3873 -0.9366  0.2629
  586TMC3    H2 8746   0.891   2.770  17.493  0.3847  0.7719  0.3036
  586TMC3    C7 8747   0.653   2.787  17.624  0.1432 -0.1889 -0.5325
  586TMC3    C8 8748   1.132   2.713  17.596  0.9406  0.2217 -0.4676
  586TMC3    O1 8749   0.557   2.773  17.701  0.1518 -0.1258 -0.1389
  586TMC3    O2 8750   1.217   2.651  17.657  0.5223 -0.2917  0.1489
  587TMC3    C1 8751   2.921   2.116  16.533  0.2222 -0.1495 -0.0269
  587TMC3    C2 8752   2.936   2.237  16.468  0.6715  0.1188  0.1779
  587TMC3    C3 8753   3.015   2.239  16.357 -0.6152  0.3558  0.0979
  587TMC3    C4 8754   2.988   1.997  16.500 -0.3989  0.3307  0.4199
  587TMC3    C5 8755   3.059   2.007  16.381  0.0907  0.7619 -0.3732
  587TMC3    C6 8756   3.068   2.126  16.300  0.6485  0.6727  0.9608
  587TMC3     C 8757   2.822   2.119  16.642 -0.1293 -0.0733 -0.3396
  587TMC3     O 8758   2.786   2.228  16.680  0.1692  0.3830 -0.1260
  587TMC3     H 8759   2.886   2.324  16.508  1.4148  0.3420  0.6230
  587TMC3    H1 8760   2.970   1.902  16.550  0.9193 -0.7139 -1.0523
  587TMC3    H2 8761   3.120   2.122  16.205  1.0194  1.4649  1.1338
  587TMC3    C7 8762   3.128   1.889  16.331  0.1496 -0.0136  0.6124
  587TMC3    C8 8763   3.045   2.364  16.298 -0.6709  0.0514  0.2292
  587TMC3    O1 8764   3.097   1.781  16.384  0.2674 -0.1309  0.3756
  587TMC3    O2 8765   3.079   2.367  16.180  0.1918 -0.2660  0.0903
  588TMC3    C1 8766   0.613   0.711  10.275 -0.1032  0.2964  0.2312
  588TMC3    C2 8767   0.570   0.585  10.245  0.1001  0.3226 -0.6565
  588TMC3    C3 8768   0.654   0.481  10.257  0.4997 -0.2893  0.3108
  588TMC3    C4 8769   0.733   0.735  10.322 -0.3226  0.0542  0.4084
  588TMC3    C5 8770   0.820   0.628  10.342  0.3983 -0.3461  0.2477
  588TMC3    C6 8771   0.782   0.506  10.300  0.4918  0.1830 -0.9423
  588TMC3     C 8772   0.509   0.811  10.296 -0.3596  0.1337 -0.1302
  588TMC3     O 8773   0.421   0.826  10.216  0.1519  0.3790  0.4175
  588TMC3     H 8774   0.467   0.566  10.218 -0.5258  2.5576  0.1176
  588TMC3    H1 8775   0.768   0.838  10.316  0.4564 -0.2835 -0.7855
  588TMC3    H2 8776   0.855   0.428  10.316 -0.2788 -1.3244 -4.7061
  588TMC3    C7 8777   0.950   0.653  10.410  1.5502  0.0690  1.0407
  588TMC3    C8 8778   0.608   0.352  10.201 -0.0904 -0.0891  0.0814
  588TMC3    O1 8779   1.001   0.551  10.455 -0.1934 -0.0048 -0.0078
  588TMC3    O2 8780   0.509   0.359  10.130 -0.5293 -0.6791  0.1088
  589TMC3    C1 8781   0.149   2.175   1.318  0.7366 -0.9228 -0.4355
  589TMC3    C2 8782   0.274   2.147   1.369  0.5791 -0.7872 -0.6083
  589TMC3    C3 8783   0.346   2.042   1.321 -0.0088 -0.1345  0.0475
  589TMC3    C4 8784   0.092   2.080   1.238  1.0961 -0.0398  1.3730
  589TMC3    C5 8785   0.173   1.983   1.187  0.3137  0.2567 -0.0878
  589TMC3    C6 8786   0.300   1.965   1.226  0.0079 -0.1691 -0.0586
  589TMC3     C 8787   0.064   2.284   1.360  0.3938  0.8064  0.1561
  589TMC3     O 8788   4.684   2.263   1.362  0.5683  0.3892  0.1554
  589TMC3     H 8789   0.313   2.213   1.445 -0.4797 -0.5596 -0.2673
  589TMC3    H1 8790   4.736   2.094   1.194  0.6343 -1.8655  1.8380
  589TMC3    H2 8791   0.364   1.888   1.183 -1.3338 -0.9014 -0.7470
  589TMC3    C7 8792   0.103   1.873   1.129  0.2669 -0.7968  0.3556
  589TMC3    C8 8793   0.438   1.996   1.416  0.3175 -1.0808  0.3830
  589TMC3    O1 8794   4.729   1.853   1.166 -0.5876  0.0689  0.5416
  589TMC3    O2 8795   0.431   2.031   1.531  0.1967  0.4368  0.4679
  590MPD2     C 8796   4.137   0.114  16.829 -0.5580 -0.1756 -0.6280
  590MPD2    C1 8797   4.053   0.195  16.757  0.2609  0.7380  0.3658
  590MPD2    C2 8798   4.109   0.306  16.689  0.3960 -0.6656  0.5747
  590MPD2    C3 8799   4.249   0.329  16.693 -0.0259 -0.3039  0.8728
  590MPD2    C4 8800   4.323   0.237  16.765  0.2982 -0.4391 -0.2052
  590MPD2    C5 8801   4.269   0.141  16.838  0.2291  0.6895  0.5539
  590MPD2     H 8802   4.048   0.356  16.615 -1.6523 -2.0381  1.3464
  590MPD2    H1 8803   4.428   0.254  16.783  0.1873  0.9658 -0.8677
  590MPD2    H2 8804   4.100   0.031  16.889  2.6382 -0.1230  1.3639
  590MPD2    H3 8805   4.333   0.074  16.893 -1.1427 -0.0827  1.2071
  590MPD2     N 8806   4.301   0.437  16.616  0.0363  0.4670 -0.3437
  590MPD2    H5 8807   4.237   0.492  16.559 -0.9957 -0.2040  0.1551
  590MPD2    N1 8808   3.917   0.154  16.734  0.2682  0.1718 -0.2454
  590MPD2    H7 8809   3.882   0.078  16.791  0.2849 -1.3145 -2.2161
  591TMC3    C1 8810   4.450   0.544  16.478 -0.5333 -0.2781 -0.0111
  591TMC3    C2 8811   4.539   0.500  16.385 -0.5896 -0.0538 -0.4125
  591TMC3    C3 8812   4.538   0.575  16.276  0.1862  0.5593  0.0043
  591TMC3    C4 8813   4.366   0.650  16.469 -0.1577 -0.9886  0.0438
  591TMC3    C5 8814   4.376   0.719  16.352 -0.0592 -0.4844 -0.0239
  591TMC3    C6 8815   4.464   0.685  16.252 -0.5491 -0.1606  0.4767
  591TMC3     C 8816   4.433   0.460  16.595  0.0906  0.3301  0.0111
  591TMC3     O 8817   4.532   0.396  16.632 -0.4505 -0.0834  0.0305
  591TMC3     H 8818   4.607   0.417  16.402 -1.9283 -1.8777 -3.9852
  591TMC3    H1 8819   4.301   0.682  16.550 -0.6819  0.3759 -0.9281
  591TMC3    H2 8820   4.464   0.740  16.159  1.5944  1.3028  1.3248
  591TMC3    C7 8821   4.287   0.840  16.343  0.3947 -1.0150  0.3145
  591TMC3    C8 8822   4.596   0.507  16.158 -0.1282  0.0985  0.3411
  591TMC3    O1 8823   4.184   0.823  16.404 -0.5832 -0.2259 -0.5999
  591TMC3    O2 8824   4.609   0.390  16.174  0.0646 -0.4261 -0.0525
  592MPD2     C 8825   4.638   3.002  11.551 -0.3235 -0.3882  1.1046
  592MPD2    C1 8826   4.615   2.999  11.687 -0.5851  0.1540  0.8891
  592MPD2    C2 8827   4.506   2.933  11.740  0.0059  0.2045 -0.2477
  592MPD2    C3 8828   4.424   2.854  11.656  0.0786 -0.5912 -0.3819
  592MPD2    C4 8829   4.440   2.867  11.522 -0.0289 -1.0264 -0.0763
  592MPD2    C5 8830   4.546   2.936  11.471  0.2072  0.0012  0.2032
  592MPD2     H 8831   4.479   2.921  11.845 -0.0234 -1.2520 -0.4269
  592MPD2    H1 8832   4.368   2.830  11.450  0.3701 -0.8726 -0.5528
  592MPD2    H2 8833   4.726   3.052  11.512 -0.6233  0.1163  1.0813
  592MPD2    H3 8834   4.555   2.945  11.364  0.7678  3.8971  0.5776
  592MPD2     N 8835   4.320   2.781  11.714  0.1509 -0.0129 -0.3816
  592MPD2    H5 8836   4.299   2.804  11.811 -0.3572  0.2023 -0.5399
  592MPD2    N1 8837   4.700   3.064  11.779 -0.1234 -0.0051 -0.1863
  592MPD2    H7 8838   0.036   3.116  11.739 -1.1373  1.2907 -0.4460
  593TMC3    C1 8839   0.053   3.141  11.971 -0.0966  0.5496 -0.6804
  593TMC3    C2 8840   0.028   3.223  12.076 -0.5805  0.2383  0.2026
  593TMC3    C3 8841   0.127   3.314  12.112  0.3905  0.0283 -0.7481
  593TMC3    C4 8842   0.172   3.126  11.908  0.3414  0.2644 -0.6544
  593TMC3    C5 8843   0.260   3.218  11.949  0.1085  0.6315 -0.0847
  593TMC3    C6 8844   0.235   3.322  12.034  0.1221  0.4466 -1.1071
  593TMC3     C 8845   4.676   3.080  11.914  0.4060  0.4177  0.4894
  593TMC3     O 8846   4.573   3.076  11.985 -0.2247 -0.4810  0.5622
  593TMC3     H 8847   4.676   3.228  12.130 -0.4504  0.4849  0.4044
  593TMC3    H1 8848   0.194   3.062  11.823  0.0501 -2.0979  1.0654
  593TMC3    H2 8849   0.302   3.408  12.035  0.3011  0.2531  1.4595
  593TMC3    C7 8850   0.388   3.204  11.887  0.7776 -0.1175  0.4416
  593TMC3    C8 8851   0.112   3.401  12.225  0.0618 -0.0689 -0.4347
  593TMC3    O1 8852   0.443   3.309  11.866 -0.4554 -0.4892 -0.3119
  593TMC3    O2 8853   0.001   3.401  12.281  0.2609 -0.0181 -0.0777
  594MPD2     C 8854   3.128   1.322  13.980 -0.4021 -0.2027  0.2667
  594MPD2    C1 8855   3.151   1.345  14.113  0.3691  0.1664  0.0244
  594MPD2    C2 8856   3.245   1.439  14.158  0.2680  0.0611 -0.8161
  594MPD2    C3 8857   3.312   1.515  14.059 -0.1976  0.0256  0.4852
  594MPD2    C4 8858   3.287   1.492  13.926  0.1795  0.1852  0.6456
  594MPD2    C5 8859   3.189   1.401  13.887  0.9198  0.9557 -0.4694
  594MPD2     H 8860   3.246   1.470  14.262  2.3752  0.4055 -0.9518
  594MPD2    H1 8861   3.340   1.549  13.851  1.2050  1.0430  2.0453
  594MPD2    H2 8862   3.070   1.235  13.955 -1.1693  0.0935  1.0359
  594MPD2    H3 8863   3.173   1.374  13.783 -0.0775 -1.0782  0.2245
  594MPD2     N 8864   3.405   1.605  14.105  0.2820  0.5147 -0.5391
  594MPD2    H5 8865   3.402   1.643  14.199  2.0208  0.1115 -0.3237
  594MPD2    N1 8866   3.070   1.277  14.203  0.6279 -0.1800 -0.0712
  594MPD2    H7 8867   2.994   1.222  14.167 -0.0466 -1.3458  3.1567
  595TMC3    C1 8868   3.806   1.840  14.097 -0.5365 -0.0444 -0.6922
  595TMC3    C2 8869   3.733   1.734  14.058 -0.3578 -0.0103 -0.2611
  595TMC3    C3 8870   3.605   1.736  14.096  0.0719 -0.5983 -0.7747
  595TMC3    C4 8871   3.765   1.948  14.175 -0.2572  0.1051 -0.7331
  595TMC3    C5 8872   3.638   1.947  14.205 -0.1419 -0.1234  0.0187
  595TMC3    C6 8873   3.556   1.839  14.175 -0.6794  0.8008  0.3455
  595TMC3     C 8874   3.935   1.794  14.147 -0.4093  0.0609  0.2176
  595TMC3     O 8875   3.938   1.773  14.269  1.2008 -0.3099 -0.4116
  595TMC3     H 8876   3.785   1.652  14.010  0.1187 -0.4896  1.0844
  595TMC3    H1 8877   3.832   2.028  14.204 -0.7408 -0.1086  0.9318
  595TMC3    H2 8878   3.452   1.838  14.208 -0.8227 -0.6931 -0.1506
  595TMC3    C7 8879   3.585   2.036  14.306  0.1405 -0.9116  0.0781
  595TMC3    C8 8880   3.514   1.639  14.036  0.2814  0.3833 -0.2191
  595TMC3    O1 8881   3.461   2.059  14.315  0.3205 -0.1890  0.1627
  595TMC3    O2 8882   3.563   1.574  13.944  0.2298  0.2084 -0.3200
  596MPD2     C 8883   2.643   4.346  16.783  0.0721 -0.5584  0.4671
  596MPD2    C1 8884   2.571   4.434  16.702 -0.8197  0.2712  0.2504
  596MPD2    C2 8885   2.535   4.390  16.579  0.7415  0.2048 -0.6923
  596MPD2    C3 8886   2.556   4.259  16.530 -0.1522 -0.1256 -0.8261
  596MPD2    C4 8887   2.621   4.175  16.623  0.2295 -0.1205 -0.6738
  596MPD2    C5 8888   2.663   4.213  16.749 -0.1546 -0.6687  0.5137
  596MPD2     H 8889   2.490   4.469  16.520  0.8178 -0.7366 -2.0039
  596MPD2    H1 8890   2.641   4.071  16.597  1.4050  0.5995 -2.6766
  596MPD2    H2 8891   2.684   4.382  16.877  1.2918 -1.5257  0.3025
  596MPD2    H3 8892   2.699   4.141  16.822  0.7543 -0.2339  0.4838
  596MPD2     N 8893   2.495   4.197  16.416  0.0869 -0.2296  0.1697
  596MPD2    H5 8894   2.503   4.096  16.413 -0.5445 -0.2517 -0.8417
  596MPD2    N1 8895   2.563   4.572  16.721  0.1213 -0.0557 -0.8721
  596MPD2    H7 8896   2.522   4.628  16.647 -0.8112  2.4162  1.5141
  597TMC3    C1 8897   2.541   0.028  16.849  0.2382 -0.1279 -0.0638
  597TMC3    C2 8898   2.515   0.099  16.736  0.7535 -0.0043  0.6114
  597TMC3    C3 8899   2.433   0.212  16.750 -0.0382  0.0945  0.0603
  597TMC3    C4 8900   2.518   0.075  16.974  0.5411 -0.4902  0.3062
  597TMC3    C5 8901   2.444   0.189  16.981 -0.3705 -0.4001  0.1807
  597TMC3    C6 8902   2.398   0.264  16.873  0.4967  0.1823  0.4661
  597TMC3     C 8903   2.583   4.630  16.846 -0.1520 -0.2716  0.4581
  597TMC3     O 8904   2.630   4.584  16.948 -0.2811 -0.0671 -0.0170
  597TMC3     H 8905   2.561   0.056  16.648 -1.5371 -0.3429 -0.4066
  597TMC3    H1 8906   2.563   0.026  17.059  0.7682  0.8404  0.9474
  597TMC3    H2 8907   2.312   0.330  16.880 -1.5199 -2.2605 -1.7397
  597TMC3    C7 8908   2.392   0.218  17.109  0.5925  0.4723 -0.0763
  597TMC3    C8 8909   2.391   0.297  16.640 -0.5909 -0.0687 -1.3171
  597TMC3    O1 8910   2.380   0.125  17.190 -0.1323 -0.1841 -0.4842
  597TMC3    O2 8911   2.324   0.400  16.653 -0.0621 -0.5255  0.2733
  598TMC3    C1 8912   0.420   0.829  15.418 -0.5743 -0.6079 -0.1610
  598TMC3    C2 8913   0.310   0.747  15.422  0.0187 -0.3838 -0.0649
  598TMC3    C3 8914   0.219   0.749  15.320 -0.2579 -0.3238 -0.2616
  598TMC3    C4 8915   0.439   0.899  15.301  0.6030  0.9234  0.3744
  598TMC3    C5 8916   0.350   0.900  15.198 -0.6474  0.6385 -0.3429
  598TMC3    C6 8917   0.239   0.827  15.202 -0.6285  0.3510  0.0732
  598TMC3     C 8918   0.527   0.817  15.519  0.7274  0.4076  0.6515
  598TMC3     O 8919   0.614   0.901  15.510 -0.1948  0.2910  0.5344
  598TMC3     H 8920   0.289   0.695  15.515 -1.8573  2.7193  1.2393
  598TMC3    H1 8921   0.533   0.952  15.291 -0.3874  2.2811 -1.6882
  598TMC3    H2 8922   0.168   0.835  15.120 -1.7986  0.0465  1.0505
  598TMC3    C7 8923   0.374   0.985  15.083  0.4947 -0.0027  0.3509
  598TMC3    C8 8924   0.135   0.631  15.294  0.2585  0.0288  0.1781
  598TMC3    O1 8925   0.335   0.933  14.982  0.3828 -0.5206 -0.2985
  598TMC3    O2 8926   0.136   0.548  15.379  0.1932 -0.5451 -0.0784
  599MPD2     C 8927   0.544   3.287  16.055 -0.6167  0.5796 -0.3813
  599MPD2    C1 8928   0.517   3.147  16.070  0.4324 -0.3511  0.2099
  599MPD2    C2 8929   0.421   3.113  16.158  0.5058  0.0518  0.1222
  599MPD2    C3 8930   0.332   3.211  16.205  0.6033 -0.0272  0.0042
  599MPD2    C4 8931   0.340   3.344  16.167  0.0145 -0.4701  0.1778
  599MPD2    C5 8932   0.449   3.379  16.088  0.2342  0.5855 -0.0252
  599MPD2     H 8933   0.418   3.008  16.184 -1.1443 -0.1252 -0.8368
  599MPD2    H1 8934   0.273   3.422  16.202  2.0655  1.3535  0.0379
  599MPD2    H2 8935   0.624   3.309  15.986  1.1148  0.9364  1.7225
  599MPD2    H3 8936   0.477   3.475  16.046  0.6658  0.9440  1.0901
  599MPD2     N 8937   0.223   3.186  16.283 -0.2654  0.0595  0.4311
  599MPD2    H5 8938   0.150   3.257  16.282  0.5773  0.9072 -0.4819
  599MPD2    N1 8939   0.623   3.065  16.028 -0.0900  0.2041 -0.1810
  599MPD2    H7 8940   0.710   3.106  15.998  0.8973 -0.2698  2.0916
  600TMC3    C1 8941   0.068   3.064  16.421  0.1245 -0.3739 -0.0732
  600TMC3    C2 8942   0.017   2.941  16.458  0.5089  0.5269 -1.1230
  600TMC3    C3 8943   4.678   2.928  16.565  0.3498  0.3355 -0.0874
  600TMC3    C4 8944   0.027   3.172  16.495  0.0966 -0.3742  0.0207
  600TMC3    C5 8945   4.692   3.155  16.608 -0.0642  0.0098  0.4992
  600TMC3    C6 8946   4.642   3.032  16.645  0.4261  0.1521  0.4028
  600TMC3     C 8947   0.199   3.066  16.358 -0.1431  0.1438 -0.0814
  600TMC3     O 8948   0.275   2.974  16.386  0.2683 -0.0935 -0.0378
  600TMC3     H 8949   0.048   2.852  16.403 -0.9892  0.0345 -1.1635
  600TMC3    H1 8950   0.067   3.271  16.475  0.6878 -0.7914 -0.8675
  600TMC3    H2 8951   4.580   2.997  16.727  1.0092  0.0902  0.8146
  600TMC3    C7 8952   4.664   3.275  16.682 -0.1554 -0.0594 -0.0779
  600TMC3    C8 8953   4.668   2.797  16.625 -0.2806 -0.4338  0.0424
  600TMC3    O1 8954   4.680   3.379  16.624 -0.3261 -0.0951 -0.0640
  600TMC3    O2 8955   4.684   2.794  16.744 -0.4099 -0.4198  0.0600
  601MPD2     C 8956   2.559   2.521   0.382  0.7444  0.5165 -0.0626
  601MPD2    C1 8957   2.538   2.436   0.271  0.9078 -0.4231 -0.1161
  601MPD2    C2 8958   2.562   2.294   0.290 -0.6847 -0.1527  0.1910
  601MPD2    C3 8959   2.587   2.243   0.417 -0.2000 -0.9393  0.9394
  601MPD2    C4 8960   2.593   2.329   0.522 -0.6160 -0.5534 -0.2842
  601MPD2    C5 8961   2.576   2.465   0.511 -0.0129 -0.4808  0.0142
  601MPD2     H 8962   2.567   2.227   0.205 -1.3227 -0.5563  0.4698
  601MPD2    H1 8963   2.586   2.295   0.624  0.7853 -0.8883 -0.3058
  601MPD2    H2 8964   2.554   2.629   0.369 -3.8235  0.4183  0.9037
  601MPD2    H3 8965   2.559   2.533   0.594  1.4188 -1.4659  1.1141
  601MPD2     N 8966   2.607   2.105   0.442 -0.0957 -0.1000 -0.9172
  601MPD2    H5 8967   2.603   2.074   0.539 -0.6622  1.7029 -0.3638
  601MPD2    N1 8968   2.516   2.487   0.146 -0.3623  0.5254 -0.4044
  601MPD2    H7 8969   2.520   2.426   0.064  0.9956  1.1574 -0.8183
  602TMC3    C1 8970   2.433   2.626  17.746  0.5433 -0.5630 -0.0744
  602TMC3    C2 8971   2.306   2.666  17.707  0.2992  0.7179 -0.4043
  602TMC3    C3 8972   2.273   2.652  17.581 -0.1538  0.0965 -0.2685
  602TMC3    C4 8973   2.519   2.569  17.659 -0.1721  0.0131 -0.0481
  602TMC3    C5 8974   2.484   2.563  17.531 -0.2128 -0.8050  0.3020
  602TMC3    C6 8975   2.365   2.606  17.489  0.1883 -0.5943 -0.2519
  602TMC3     C 8976   2.456   2.609   0.128 -0.1076 -0.0607  0.3520
  602TMC3     O 8977   2.416   2.699   0.200 -0.3392  0.0132 -0.4409
  602TMC3     H 8978   2.239   2.717   0.012  0.8329  1.7549 -0.6474
  602TMC3    H1 8979   2.621   2.548  17.687  0.1623  0.7750 -0.7107
  602TMC3    H2 8980   2.346   2.639  17.387 -0.0846  1.6861  0.5295
  602TMC3    C7 8981   2.582   2.514  17.440 -0.0887  0.1607 -0.5915
  602TMC3    C8 8982   2.139   2.684  17.539  0.5523 -0.0658  0.2893
  602TMC3    O1 8983   2.702   2.521  17.463 -0.4800  0.2040  0.4355
  602TMC3    O2 8984   2.072   2.752  17.617 -0.5548  0.0943 -0.9913
  603TMC3    C1 8985   0.680   2.357  11.028 -0.3655  0.3640 -0.1639
  603TMC3    C2 8986   0.724   2.328  11.154 -0.2144  0.0710  0.5456
  603TMC3    C3 8987   0.806   2.414  11.219 -0.0177  0.0759  0.0530
  603TMC3    C4 8988   0.710   2.474  10.973  0.4694 -0.4530 -0.2004
  603TMC3    C5 8989   0.789   2.562  11.042  0.5691 -0.3409 -0.1297
  603TMC3    C6 8990   0.841   2.541  11.167 -0.3245  0.3205 -0.0422
  603TMC3     C 8991   0.605   2.256  10.952  0.1994  0.6563  0.3468
  603TMC3     O 8992   0.631   2.139  10.978  0.1700  0.0417  0.1501
  603TMC3     H 8993   0.709   2.225  11.185  1.0233  0.2887  1.8984
  603TMC3    H1 8994   0.693   2.479  10.866 -0.5474  1.8356  0.0784
  603TMC3    H2 8995   0.899   2.615  11.222 -0.7020 -0.7470  1.7798
  603TMC3    C7 8996   0.825   2.691  10.988 -0.3569  0.5475  0.0522
  603TMC3    C8 8997   0.838   2.363  11.354  0.6706  0.5015  0.3016
  603TMC3    O1 8998   0.897   2.762  11.056  0.5948  0.3151 -0.2662
  603TMC3    O2 8999   0.745   2.298  11.405  0.5463 -0.2698  0.1514
  604MPD2     C 9000   1.506   0.550  16.263 -1.1529  0.2076 -0.0543
  604MPD2    C1 9001   1.380   0.497  16.276  0.2755 -1.0965 -0.5916
  604MPD2    C2 9002   1.332   0.409  16.184 -0.4336  0.3792  0.6309
  604MPD2    C3 9003   1.405   0.395  16.066 -0.9259  0.3761  0.7058
  604MPD2    C4 9004   1.532   0.450  16.049 -0.6351 -0.5657  0.4638
  604MPD2    C5 9005   1.584   0.525  16.153  0.1463  0.7413  0.0645
  604MPD2     H 9006   1.231   0.371  16.195 -0.3871 -0.6153 -2.3043
  604MPD2    H1 9007   1.583   0.460  15.954 -0.7803  1.0442  0.5520
  604MPD2    H2 9008   1.548   0.612  16.342  0.6788 -0.8350 -0.2096
  604MPD2    H3 9009   1.682   0.570  16.149  0.9485 -1.0579 -0.1745
  604MPD2     N 9010   1.347   0.319  15.968 -0.4027 -0.4335 -0.0636
  604MPD2    H5 9011   1.257   0.278  15.993 -0.7923  0.4208 -0.0824
  604MPD2    N1 9012   1.306   0.547  16.387 -0.3791 -0.3415  0.0116
  604MPD2    H7 9013   1.362   0.606  16.448 -1.1552 -0.4753  0.8669
  605TMC3    C1 9014   1.122   0.621  16.512 -0.2289  0.0378  1.0603
  605TMC3    C2 9015   1.207   0.682  16.600 -0.9865 -0.1701  0.3008
  605TMC3    C3 9016   1.160   0.786  16.676 -0.4143  0.2323 -0.2239
  605TMC3    C4 9017   0.993   0.670  16.492 -0.2989 -0.3225  0.0937
  605TMC3    C5 9018   0.954   0.780  16.566  0.4579 -0.7449  0.1006
  605TMC3    C6 9019   1.032   0.834  16.655  0.6091  0.8152 -0.3293
  605TMC3     C 9020   1.168   0.528  16.409  0.4362  0.0027  0.0568
  605TMC3     O 9021   1.082   0.477  16.339  0.2889  0.2959  0.4953
  605TMC3     H 9022   1.300   0.632  16.625 -0.5688  0.0717 -0.7694
  605TMC3    H1 9023   0.927   0.616  16.424  2.0625 -1.6183 -1.1898
  605TMC3    H2 9024   1.004   0.930  16.695  0.4593  0.5626  0.1695
  605TMC3    C7 9025   0.848   0.865  16.510  0.4396 -0.2884 -0.1120
  605TMC3    C8 9026   1.273   0.871  16.721 -0.0711  0.1216 -0.7933
  605TMC3    O1 9027   0.783   0.934  16.585 -0.3651  0.2439  0.2213
  605TMC3    O2 9028   1.387   0.824  16.695 -0.1814  0.1860  0.3053
  606TMC3    C1 9029   2.522   4.430  17.709 -0.1863 -0.4323 -0.7772
  606TMC3    C2 9030   2.565   4.395   0.071  0.2719 -0.0379  0.2272
  606TMC3    C3 9031   2.582   4.262   0.098  0.3958 -0.6347 -0.4131
  606TMC3    C4 9032   2.490   4.341  17.611  0.1362 -0.8540 -0.1597
  606TMC3    C5 9033   2.512   4.208  17.645 -0.1383 -0.1260  0.2493
  606TMC3    C6 9034   2.561   4.169  17.763 -0.7197 -0.2429 -0.1263
  606TMC3     C 9035   2.478   4.571  17.688 -0.4129  0.5016 -0.0413
  606TMC3     O 9036   2.497   4.613  17.576  0.6190 -0.2330  0.1186
  606TMC3     H 9037   2.597   4.474   0.138  0.0957  0.2063  0.0264
  606TMC3    H1 9038   2.465   4.382  17.513 -1.7556  0.9326  1.0860
  606TMC3    H2 9039   2.612   4.074   0.008  1.2317  0.7150 -0.9694
  606TMC3    C7 9040   2.527   4.116  17.544  0.1481 -0.0874 -0.3099
  606TMC3    C8 9041   2.656   4.211   0.209  0.4299 -0.1482  0.4141
  606TMC3    O1 9042   2.566   4.165  17.439 -0.2702 -0.4472 -1.0691
  606TMC3    O2 9043   2.658   4.089   0.233 -0.1798  0.3190 -0.3868
  607MPD2     C 9044   4.406   2.406  11.655 -0.6753  0.5504  0.8822
  607MPD2    C1 9045   4.498   2.450  11.743 -0.2770  0.3470 -0.2659
  607MPD2    C2 9046   4.483   2.418  11.878 -0.4317 -0.8348 -0.0520
  607MPD2    C3 9047   4.386   2.326  11.922  0.1385  0.1418 -0.2822
  607MPD2    C4 9048   4.311   2.264  11.824 -0.2740 -0.3165 -0.2250
  607MPD2    C5 9049   4.322   2.308  11.694 -0.2337  0.8646  1.1201
  607MPD2     H 9050   4.554   2.453  11.951  1.4009 -0.7108 -1.9100
  607MPD2    H1 9051   4.239   2.190  11.856 -2.1634 -0.0211 -3.8304
  607MPD2    H2 9052   4.410   2.448  11.555  2.7650 -1.0949  0.3297
  607MPD2    H3 9053   4.254   2.276  11.617  1.3561  0.5849 -0.1663
  607MPD2     N 9054   4.381   2.292  12.060  0.3914  0.3844 -0.1806
  607MPD2    H5 9055   4.442   2.349  12.119  2.3892  1.3164 -3.1210
  607MPD2    N1 9056   4.610   2.535  11.714  0.1269  0.2100 -1.0971
  607MPD2    H7 9057   4.665   2.555  11.797 -2.7579  1.2841  0.5542
  608TMC3    C1 9058   0.017   2.687  11.630  0.2496 -0.2008 -0.5843
  608TMC3    C2 9059   0.035   2.729  11.758 -0.1856 -1.0180 -0.0960
  608TMC3    C3 9060   0.163   2.767  11.780  0.2303 -0.2621 -0.0994
  608TMC3    C4 9061   0.109   2.697  11.527 -0.2517 -0.1746 -0.1501
  608TMC3    C5 9062   0.225   2.754  11.558 -0.0413 -0.1823  0.4225
  608TMC3    C6 9063   0.265   2.781  11.685 -0.0676 -0.5688  0.0218
  608TMC3     C 9064   4.645   2.601  11.599  1.1062  0.3212 -0.2576
  608TMC3     O 9065   4.604   2.578  11.486  0.1971  0.1203  0.3503
  608TMC3     H 9066   4.697   2.733  11.832  2.0801  0.3950  2.2633
  608TMC3    H1 9067   0.077   2.663  11.429 -1.8141 -2.5447  1.1941
  608TMC3    H2 9068   0.359   2.827  11.710 -0.5197  0.3485  0.0224
  608TMC3    C7 9069   0.304   2.809  11.449 -0.0273 -0.2744 -0.7018
  608TMC3    C8 9070   0.211   2.777  11.923  0.0826 -0.0330  0.1638
  608TMC3    O1 9071   0.241   2.820  11.349 -0.1144  0.2165  0.2842
  608TMC3    O2 9072   0.323   2.821  11.945 -0.3691  0.4274  0.2476
  609TMC3    C1 9073   3.375   1.791   9.298  0.2768 -0.5183 -0.5309
  609TMC3    C2 9074   3.326   1.829   9.179 -0.3059 -0.5932 -0.0919
  609TMC3    C3 9075   3.416   1.847   9.076 -0.6104  0.0654  0.3372
  609TMC3    C4 9076   3.511   1.771   9.315  0.2108  0.1782 -0.5237
  609TMC3    C5 9077   3.599   1.784   9.212 -0.0757  0.6802 -0.1930
  609TMC3    C6 9078   3.550   1.832   9.096  0.5899  0.2118  0.6044
  609TMC3     C 9079   3.299   1.816   9.418  0.2779 -0.1437  0.2878
  609TMC3     O 9080   3.342   1.770   9.524  0.1690  0.1714 -0.2255
  609TMC3     H 9081   3.220   1.813   9.165 -0.3377 -0.8818  0.5041
  609TMC3    H1 9082   3.554   1.747   9.412  1.3818  3.2105 -0.3024
  609TMC3    H2 9083   3.608   1.822   9.005 -1.4934 -0.6034 -0.6414
  609TMC3    C7 9084   3.741   1.752   9.236  0.3577  0.1715  0.5199
  609TMC3    C8 9085   3.374   1.875   8.940  0.1914 -0.8516 -0.0707
  609TMC3    O1 9086   3.773   1.683   9.333  0.1419 -0.3247  0.0656
  609TMC3    O2 9087   3.458   1.854   8.854  0.4418  0.1244  0.2594
  610TMC3    C1 9088   0.697   2.512  13.264  0.5051 -0.0072  0.5010
  610TMC3    C2 9089   0.710   2.606  13.165 -0.1347 -0.7092 -0.1625
  610TMC3    C3 9090   0.789   2.577  13.058  0.0314  0.2811 -0.0900
  610TMC3    C4 9091   0.767   2.392  13.262  0.2333 -0.0676 -0.2085
  610TMC3    C5 9092   0.845   2.373  13.151  0.0822 -0.7435  0.9881
  610TMC3    C6 9093   0.864   2.463  13.047 -0.3271  0.7120  0.2715
  610TMC3     C 9094   0.600   2.540  13.362  0.0623 -0.3100  0.3678
  610TMC3     O 9095   0.556   2.653  13.382  0.2723  0.0995  0.2586
  610TMC3     H 9096   0.671   2.706  13.175 -0.7541 -1.0573  0.8508
  610TMC3    H1 9097   0.753   2.317  13.339  0.1554  2.1683  1.9558
  610TMC3    H2 9098   0.928   2.438  12.964  0.4491 -1.2887  1.4870
  610TMC3    C7 9099   0.917   2.250  13.142 -0.1819  0.1979 -0.4251
  610TMC3    C8 9100   0.779   2.651  12.935 -0.5398 -0.6281  0.0058
  610TMC3    O1 9101   0.964   2.197  13.243 -0.0275 -0.2037  0.3997
  610TMC3    O2 9102   0.866   2.640  12.848  0.1988  0.4047 -0.1557
  611MPD2     C 9103   4.419   2.915  10.866 -0.0254  0.6176  0.2460
  611MPD2    C1 9104   4.401   2.948  10.736  0.1821 -0.3809 -0.1198
  611MPD2    C2 9105   4.507   2.981  10.653  0.6873  0.1035 -0.8105
  611MPD2    C3 9106   4.638   2.968  10.700  0.2143  0.1100 -0.3545
  611MPD2    C4 9107   4.652   2.948  10.837  0.1666 -0.3845 -0.1778
  611MPD2    C5 9108   4.542   2.928  10.918 -0.6657 -0.3957 -0.4703
  611MPD2     H 9109   4.480   3.022  10.556 -0.7612  0.7599 -0.1135
  611MPD2    H1 9110   0.007   2.956  10.885  0.7271 -1.4545 -1.1292
  611MPD2    H2 9111   4.341   2.889  10.937 -1.4570 -0.3079 -1.6619
  611MPD2    H3 9112   4.552   2.901  11.022  3.0732  0.1208 -0.7117
  611MPD2     N 9113   0.010   2.994  10.617  1.3837  0.2224 -0.2173
  611MPD2    H5 9114   0.102   2.979  10.658  1.1941 -2.2423 -0.6714
  611MPD2    N1 9115   4.270   2.932  10.688  0.2217  0.0707  0.6954
  611MPD2    H7 9116   4.196   2.929  10.757 -0.1838 -1.6179  0.1898
  612TMC3    C1 9117   0.127   3.049  10.421  0.7282  0.4360  0.1184
  612TMC3    C2 9118   0.235   3.041  10.508 -0.3299 -0.0990 -0.3862
  612TMC3    C3 9119   0.336   3.121  10.466 -0.0219 -0.3587 -0.0300
  612TMC3    C4 9120   0.113   3.125  10.309  0.0091  0.3269 -0.3095
  612TMC3    C5 9121   0.212   3.214  10.281  0.5575  0.0725  0.5933
  612TMC3    C6 9122   0.324   3.214  10.360 -0.0594 -0.1350 -0.2154
  612TMC3     C 9123   4.737   3.021  10.481  0.0314 -0.4699 -0.2021
  612TMC3     O 9124   4.648   2.992  10.398 -0.1895  0.2115  0.0021
  612TMC3     H 9125   0.246   2.966  10.585  0.8434  1.2083  0.7241
  612TMC3    H1 9126   0.017   3.136  10.260  0.7138  2.2952 -1.2529
  612TMC3    H2 9127   0.405   3.283  10.338  1.3386 -0.8507  2.7892
  612TMC3    C7 9128   0.223   3.267  10.144 -0.1378 -0.3007 -0.1814
  612TMC3    C8 9129   0.463   3.124  10.530  0.0240 -0.5199  0.6244
  612TMC3    O1 9130   0.335   3.297  10.101  0.3473 -0.2741  0.6191
  612TMC3    O2 9131   0.547   3.198  10.479 -0.1379  0.6549 -0.0516
  613MPD2     C 9132   3.880   4.689  15.859 -0.0728 -0.0242 -0.0880
  613MPD2    C1 9133   3.811   4.599  15.938  0.8194 -0.6661  0.2957
  613MPD2    C2 9134   3.880   4.537  16.040 -0.9809  0.3449 -0.0324
  613MPD2    C3 9135   4.018   4.542  16.052  0.4018 -0.0712 -0.2179
  613MPD2    C4 9136   4.091   4.614  15.955  0.3110 -0.0602  0.3820
  613MPD2    C5 9137   4.021   4.697  15.870  0.0460  0.3523 -0.0505
  613MPD2     H 9138   3.829   4.466  16.104  3.4836 -0.3995  2.7362
  613MPD2    H1 9139   4.199   4.620  15.952  0.4543 -2.3292  0.2684
  613MPD2    H2 9140   3.825   0.011  15.790  0.4485  0.2126 -0.2854
  613MPD2    H3 9141   4.065   0.026  15.801 -0.2250 -1.1999 -1.7999
  613MPD2     N 9142   4.090   4.448  16.134  0.0319 -0.1275 -0.2803
  613MPD2    H5 9143   4.188   4.436  16.108 -0.1417  2.6113 -2.1540
  613MPD2    N1 9144   3.672   4.575  15.903  0.2752 -0.2088 -0.0646
  613MPD2    H7 9145   3.631   4.605  15.816 -2.6227 -2.1034  0.6703
  614TMC3    C1 9146   3.480   4.436  15.939 -0.0164 -0.1986  0.0232
  614TMC3    C2 9147   3.432   4.316  15.997  0.1060 -0.1551 -0.8941
  614TMC3    C3 9148   3.338   4.246  15.926  0.1053  0.5404  0.5431
  614TMC3    C4 9149   3.439   4.473  15.817  0.6383  0.0080 -0.1547
  614TMC3    C5 9150   3.339   4.406  15.756  0.2217 -0.4383  0.9300
  614TMC3    C6 9151   3.291   4.287  15.802  0.6121  0.1766  0.0112
  614TMC3     C 9152   3.596   4.499  15.993 -0.8070 -0.6742  0.9331
  614TMC3     O 9153   3.601   4.475  16.111 -0.1464 -0.2982  0.0360
  614TMC3     H 9154   3.461   4.296  16.099  0.2969 -1.2151 -1.1584
  614TMC3    H1 9155   3.465   4.558  15.754  1.7802  0.6561  1.2140
  614TMC3    H2 9156   3.212   4.235  15.749  1.2018 -0.8688  0.1569
  614TMC3    C7 9157   3.262   4.490  15.652 -0.0822  0.1568  0.0388
  614TMC3    C8 9158   3.355   4.102  15.945  0.7327  0.8522 -0.2427
  614TMC3    O1 9159   3.279   4.609  15.665  0.1684  0.6628 -0.1781
  614TMC3    O2 9160   3.265   4.017  15.925  0.2650  0.6330 -0.1030
  615MPD2     C 9161   2.916   0.499  16.319 -0.1101 -0.3921  0.2566
  615MPD2    C1 9162   2.994   0.604  16.299  0.5979 -0.5947 -0.1764
  615MPD2    C2 9163   2.975   0.693  16.191  0.3418 -0.1225 -1.0518
  615MPD2    C3 9164   2.866   0.681  16.107  0.8432  0.1517  0.7375
  615MPD2    C4 9165   2.785   0.573  16.134 -0.0457 -0.1377  0.8395
  615MPD2    C5 9166   2.812   0.477  16.230  0.2722 -0.5269  0.3354
  615MPD2     H 9167   3.037   0.782  16.184 -1.7929  1.1842 -3.1611
  615MPD2    H1 9168   2.699   0.557  16.071 -0.5133 -1.3926  1.7845
  615MPD2    H2 9169   2.928   0.422  16.394  0.7301 -0.1882  0.3364
  615MPD2    H3 9170   2.752   0.387  16.236 -1.4720  0.7564  1.8780
  615MPD2     N 9171   2.844   0.760  15.990  0.2812 -0.1777  0.3486
  615MPD2    H5 9172   2.750   0.744  15.955 -0.6479 -1.4029  3.3743
  615MPD2    N1 9173   3.098   0.639  16.389  0.9130 -0.1868  0.0923
  615MPD2    H7 9174   3.142   0.727  16.363  1.3949 -0.0201  1.4873
  616TMC3    C1 9175   3.236   0.628  16.577  0.5713 -0.3652  0.2648
  616TMC3    C2 9176   3.368   0.581  16.576  0.3121  0.3712  0.0063
  616TMC3    C3 9177   3.455   0.674  16.634  0.1440 -0.0567 -0.3122
  616TMC3    C4 9178   3.189   0.753  16.613  0.2164  0.2300 -0.0585
  616TMC3    C5 9179   3.283   0.835  16.673 -0.7039 -0.1289  0.5372
  616TMC3    C6 9180   3.413   0.795  16.694  0.0174 -0.5318  0.0335
  616TMC3     C 9181   3.146   0.556  16.487  0.0959  0.6251  1.1216
  616TMC3     O 9182   3.135   0.438  16.509 -0.1166 -0.1342 -0.1513
  616TMC3     H 9183   3.401   0.484  16.541 -1.3779 -0.2087  0.0062
  616TMC3    H1 9184   3.082   0.771  16.618 -0.2158 -2.0868 -0.8339
  616TMC3    H2 9185   3.470   0.842  16.773  1.2432  0.4977 -1.4794
  616TMC3    C7 9186   3.241   0.958  16.740  0.0252 -0.1799  0.2892
  616TMC3    C8 9187   3.604   0.643  16.644 -0.1564 -0.9967  0.2484
  616TMC3    O1 9188   3.319   1.003  16.824 -0.3870  0.3284 -0.2021
  616TMC3    O2 9189   3.644   0.533  16.612 -0.1016  0.0579  0.0010
  617MPD2     C 9190   1.114   3.809  13.861 -0.6750  0.4204  0.0085
  617MPD2    C1 9191   1.151   3.857  13.989  0.1745  0.1945  0.1333
  617MPD2    C2 9192   1.075   3.809  14.092  0.5041 -0.1874 -0.2547
  617MPD2    C3 9193   0.956   3.737  14.078  0.4136  0.3227 -0.4347
  617MPD2    C4 9194   0.915   3.711  13.954  0.2181  0.1461  0.0079
  617MPD2    C5 9195   0.990   3.741  13.847  0.4134  0.1553 -0.0887
  617MPD2     H 9196   1.097   3.829  14.196 -1.3856  0.2060  0.0640
  617MPD2    H1 9197   0.821   3.666  13.922  0.9889 -2.5960  1.5864
  617MPD2    H2 9198   1.164   3.826  13.767  0.5368 -0.8117  0.4281
  617MPD2    H3 9199   0.956   3.722  13.746  2.8088 -0.4179 -0.8035
  617MPD2     N 9200   0.884   3.694  14.192 -0.1847 -0.3027 -0.2957
  617MPD2    H5 9201   0.792   3.656  14.172 -0.5677  0.1206  0.6871
  617MPD2    N1 9202   1.253   3.954  14.001 -0.2640  0.3690 -0.2421
  617MPD2    H7 9203   1.293   3.994  13.916  0.4916  2.1567  0.9492
  618TMC3    C1 9204   1.389   4.126  14.100 -0.2725  0.0920 -0.0118
  618TMC3    C2 9205   1.512   4.097  14.148 -0.1266  0.2052 -0.5004
  618TMC3    C3 9206   1.619   4.130  14.081 -0.2512  0.3665  0.6184
  618TMC3    C4 9207   1.373   4.193  13.988  0.5401  0.0359 -0.1809
  618TMC3    C5 9208   1.484   4.233  13.918  0.4462 -0.3789 -0.0187
  618TMC3    C6 9209   1.607   4.206  13.969 -0.1722 -0.1036 -0.2686
  618TMC3     C 9210   1.302   4.014  14.119 -0.2365  0.0093 -0.3777
  618TMC3     O 9211   1.279   3.980  14.234 -0.0309 -0.2096  0.1111
  618TMC3     H 9212   1.521   4.027  14.231 -0.3109  1.7099  0.8009
  618TMC3    H1 9213   1.273   4.211  13.949  0.9199 -0.0709 -1.2004
  618TMC3    H2 9214   1.698   4.237  13.920  0.3606 -1.2105  0.0041
  618TMC3    C7 9215   1.468   4.209  13.776 -0.1082 -0.3460 -0.1099
  618TMC3    C8 9216   1.713   4.023  14.066 -0.1515 -0.3497 -0.6309
  618TMC3    O1 9217   1.372   4.138  13.753  0.1515 -0.4068 -0.3540
  618TMC3    O2 9218   1.742   3.963  14.171 -0.5575 -0.6451 -0.5078
  619MPD2     C 9219   2.547   0.457  13.936  0.0587 -0.0806 -0.0513
  619MPD2    C1 9220   2.459   0.558  13.896  0.1433 -0.6183  0.0554
  619MPD2    C2 9221   2.322   0.543  13.897  0.3490 -0.1722  0.0398
  619MPD2    C3 9222   2.270   0.414  13.935 -0.1875  0.9100  0.3357
  619MPD2    C4 9223   2.355   0.314  13.975 -0.6826  0.5224  0.5381
  619MPD2    C5 9224   2.491   0.340  13.976  0.4263  0.7171  0.3171
  619MPD2     H 9225   2.258   0.627  13.876  0.3177 -0.0323  0.7019
  619MPD2    H1 9226   2.328   0.209  13.982 -1.6482  0.7152 -0.3531
  619MPD2    H2 9227   2.654   0.471  13.921 -0.1803  0.8845 -0.8662
  619MPD2    H3 9228   2.557   0.257  13.995  0.3113  0.0423 -2.2427
  619MPD2     N 9229   2.134   0.379  13.945  0.1146  0.0573 -0.1565
  619MPD2    H5 9230   2.113   0.286  13.979 -0.3332  0.6283  1.1387
  619MPD2    N1 9231   2.510   0.677  13.845  0.3831 -1.0566  0.1204
  619MPD2    H7 9232   2.448   0.738  13.793  1.7870  0.8602  0.6716
  620TMC3    C1 9233   2.640   0.824  13.752  0.9075  0.1220  0.1791
  620TMC3    C2 9234   2.578   0.802  13.634  0.3428  0.8712 -0.0022
  620TMC3    C3 9235   2.537   0.907  13.551 -0.2213 -0.1185  0.3577
  620TMC3    C4 9236   2.660   0.943  13.808 -0.1194 -0.5028  0.5983
  620TMC3    C5 9237   2.624   1.047  13.722 -0.5522 -0.2230  0.4178
  620TMC3    C6 9238   2.579   1.030  13.591 -0.0997 -0.3459 -0.3008
  620TMC3     C 9239   2.640   0.718  13.844 -0.5869 -0.1277  0.1195
  620TMC3     O 9240   2.725   0.716  13.930  0.0475 -0.3614 -0.3919
  620TMC3     H 9241   2.542   0.704  13.604  0.2945  0.9614 -0.2412
  620TMC3    H1 9242   2.704   0.954  13.907 -0.3846  1.3912  0.5116
  620TMC3    H2 9243   2.563   1.110  13.520  0.9382 -0.0962 -0.2395
  620TMC3    C7 9244   2.574   1.170  13.787  0.0584  0.0053 -0.3110
  620TMC3    C8 9245   2.401   0.914  13.520  0.3070 -0.4337 -0.0243
  620TMC3    O1 9246   2.625   1.212  13.885 -0.5297  0.1417  0.0733
  620TMC3    O2 9247   2.354   1.027  13.542  0.0571 -0.4068  0.3810
  621MPD2     C 9248   3.083   0.747  10.522  0.0903 -0.1989 -0.0570
  621MPD2    C1 9249   3.041   0.746  10.391 -0.0001 -0.9308 -0.5292
  621MPD2    C2 9250   3.061   0.856  10.313 -0.0927 -0.2228  0.6719
  621MPD2    C3 9251   3.108   0.973  10.371  0.4585 -0.7757 -0.1671
  621MPD2    C4 9252   3.136   0.977  10.505  0.3986  0.0767 -0.1437
  621MPD2    C5 9253   3.140   0.861  10.569 -0.9796  0.7026  0.7229
  621MPD2     H 9254   3.043   0.860  10.206  0.1063  0.6743  0.6690
  621MPD2    H1 9255   3.175   1.064  10.556 -0.5029 -0.3393  1.2557
  621MPD2    H2 9256   3.080   0.673  10.601  0.2649 -0.0527  0.0882
  621MPD2    H3 9257   3.178   0.864  10.670  1.9617  0.5179 -0.3840
  621MPD2     N 9258   3.134   1.076  10.280 -0.2697 -0.1378  0.1642
  621MPD2    H5 9259   3.130   1.059  10.180 -0.8525 -0.9616  0.3273
  621MPD2    N1 9260   2.978   0.635  10.330  0.4894  0.3249 -0.1654
  621MPD2    H7 9261   2.937   0.658  10.240 -1.0287  0.3416  0.5368
  622TMC3    C1 9262   2.863   0.422  10.322  0.0532  0.2600 -0.1307
  622TMC3    C2 9263   2.858   0.297  10.371 -0.6105 -0.0130  0.2969
  622TMC3    C3 9264   2.760   0.211  10.338 -0.8365  0.1133  0.2044
  622TMC3    C4 9265   2.777   0.470  10.240  0.1164  0.2233 -0.0853
  622TMC3    C5 9266   2.680   0.379  10.197  0.5036 -0.4668  0.1161
  622TMC3    C6 9267   2.673   0.254  10.246 -0.1958  0.3633 -0.6716
  622TMC3     C 9268   2.954   0.512  10.396 -0.1162 -0.1245  0.4578
  622TMC3     O 9269   3.000   0.471  10.502  0.6692  0.1076  0.5511
  622TMC3     H 9270   2.916   0.265  10.456  1.6892 -2.3656 -2.1829
  622TMC3    H1 9271   2.772   0.577  10.220 -0.1695 -0.0717 -1.5134
  622TMC3    H2 9272   2.605   0.181  10.206 -1.1960 -0.0375  1.7510
  622TMC3    C7 9273   2.560   0.439  10.140 -0.1259 -0.6191 -0.2021
  622TMC3    C8 9274   2.686   0.141  10.441 -0.5117 -0.4562 -0.3081
  622TMC3    O1 9275   2.466   0.365  10.133 -0.5741 -0.1908  0.2336
  622TMC3    O2 9276   2.619   0.043  10.420 -0.0311  0.2915 -0.1930
  623MPD2     C 9277   1.517   0.809  16.020  0.6811 -0.1388  0.0685
  623MPD2    C1 9278   1.471   0.873  16.131  0.1725 -0.4210 -0.0825
  623MPD2    C2 9279   1.562   0.932  16.215 -1.0211  0.3280 -0.3911
  623MPD2    C3 9280   1.692   0.917  16.191  0.3301  0.0718 -0.9947
  623MPD2    C4 9281   1.739   0.868  16.071  0.0070 -0.4249 -0.1558
  623MPD2    C5 9282   1.650   0.817  15.982 -0.5971 -0.1927  0.2443
  623MPD2     H 9283   1.531   0.982  16.306 -1.1673 -0.6217  0.0869
  623MPD2    H1 9284   1.843   0.878  16.043  0.2420 -1.2702  0.3984
  623MPD2    H2 9285   1.454   0.742  15.962  2.2753 -0.7307 -0.9934
  623MPD2    H3 9286   1.681   0.789  15.882 -0.3358 -0.5718  0.4314
  623MPD2     N 9287   1.775   0.978  16.287  0.1243  0.6104  0.4645
  623MPD2    H5 9288   1.728   1.020  16.366  0.6023  0.1814  0.9723
  623MPD2    N1 9289   1.330   0.858  16.153  0.4151  0.5904  0.2907
  623MPD2    H7 9290   1.269   0.830  16.077  0.6406  1.0946 -0.0710
  624TMC3    C1 9291   2.103   0.965  16.609  0.0099  0.4272  0.5372
  624TMC3    C2 9292   2.014   1.019  16.692  0.4487 -1.0553  0.7342
  624TMC3    C3 9293   1.910   1.088  16.634 -0.5884 -0.1237 -0.2330
  624TMC3    C4 9294   2.081   0.945  16.470 -0.3237 -0.1558 -0.5331
  624TMC3    C5 9295   1.967   1.006  16.423 -0.5604 -0.1041 -0.3454
  624TMC3    C6 9296   1.891   1.083  16.500  0.5103  0.3484 -0.5259
  624TMC3     C 9297   2.237   0.948  16.660 -0.6848 -0.0642 -0.5246
  624TMC3     O 9298   2.279   1.025  16.744 -0.3415 -0.2039 -0.3779
  624TMC3     H 9299   2.024   1.026  16.800 -1.0273  1.1890  0.7426
  624TMC3    H1 9300   2.149   0.881  16.416  0.0754  0.8447 -1.2128
  624TMC3    H2 9301   1.812   1.149  16.465 -0.4583 -0.0615  0.8810
  624TMC3    C7 9302   1.907   0.944  16.302 -0.1986  0.3478 -0.0066
  624TMC3    C8 9303   1.788   1.065  16.707 -1.3010 -0.7474 -0.7320
  624TMC3    O1 9304   1.985   0.871  16.241  0.2897  0.1454  0.0778
  624TMC3    O2 9305   1.747   0.945  16.711  0.0020 -0.2960  0.4874
  625MPD2     C 9306   2.353   2.178   1.007 -0.0717  0.0865  0.4831
  625MPD2    C1 9307   2.345   2.302   0.944  0.2252  0.2984 -0.0628
  625MPD2    C2 9308   2.467   2.362   0.909  0.5519 -0.4363  0.0728
  625MPD2    C3 9309   2.592   2.322   0.953 -0.7876  0.9411  0.4344
  625MPD2    C4 9310   2.595   2.200   1.016  0.2409 -0.2718  0.4540
  625MPD2    C5 9311   2.478   2.130   1.042 -0.5094  0.0698  0.2300
  625MPD2     H 9312   2.462   2.457   0.857  2.7301 -0.1037  0.4961
  625MPD2    H1 9313   2.684   2.164   1.066  2.2225  2.0200 -1.4006
  625MPD2    H2 9314   2.265   2.117   1.024  0.6558 -0.7687  1.1448
  625MPD2    H3 9315   2.495   2.041   1.102 -2.2704  0.2686  1.0312
  625MPD2     N 9316   2.716   2.387   0.927 -0.2194  0.0932  0.4643
  625MPD2    H5 9317   2.709   2.475   0.877 -0.9703  0.7431  1.7078
  625MPD2    N1 9318   2.225   2.368   0.910  0.2016 -0.2168 -0.2381
  625MPD2    H7 9319   2.220   2.455   0.857 -0.3250 -0.6570 -0.9150
  626TMC3    C1 9320   2.021   2.451   0.945  0.3054  0.7873 -0.3547
  626TMC3    C2 9321   2.014   2.509   0.821  0.4159 -0.1718  0.2637
  626TMC3    C3 9322   1.953   2.631   0.808  1.0676  1.0950 -1.0050
  626TMC3    C4 9323   1.976   2.521   1.056 -0.2684 -0.1673  0.4327
  626TMC3    C5 9324   1.933   2.650   1.041 -0.5660 -0.3434  0.0114
  626TMC3    C6 9325   1.924   2.703   0.920 -0.6594 -0.3255 -0.2072
  626TMC3     C 9326   2.108   2.345   0.972  0.2181  0.3032  0.3619
  626TMC3     O 9327   2.081   2.267   1.061 -0.0585 -0.0985  0.1552
  626TMC3     H 9328   2.046   2.468   0.726  0.4513  0.8978 -0.1819
  626TMC3    H1 9329   1.986   2.478   1.155  1.3218 -0.2641  0.2365
  626TMC3    H2 9330   1.881   2.800   0.900 -1.6837 -0.8576 -0.6276
  626TMC3    C7 9331   1.949   2.734   1.155 -0.2233  0.3385 -0.1441
  626TMC3    C8 9332   1.923   2.701   0.683 -1.2304  0.3734 -0.6901
  626TMC3    O1 9333   2.001   2.685   1.259 -0.0292 -0.1058 -0.2858
  626TMC3    O2 9334   1.946   2.818   0.673 -0.5992  0.0109 -0.6203
  627MPD2     C 9335   1.124   2.326  14.083  0.4350 -0.7678  0.1925
  627MPD2    C1 9336   1.067   2.390  14.192 -0.2479 -0.3505  0.0410
  627MPD2    C2 9337   0.930   2.365  14.217  0.2494  0.7822 -0.4127
  627MPD2    C3 9338   0.856   2.283  14.128 -0.9447 -0.0341  0.3037
  627MPD2    C4 9339   0.910   2.233  14.018 -0.2813  0.0005 -0.2356
  627MPD2    C5 9340   1.049   2.253  13.992  0.4122 -0.2300 -0.8032
  627MPD2     H 9341   0.876   2.406  14.301 -1.4677 -1.1077 -0.5970
  627MPD2    H1 9342   0.849   2.176  13.948  1.8061 -1.0782 -1.2039
  627MPD2    H2 9343   1.229   2.343  14.060 -0.3741 -0.5712 -3.2859
  627MPD2    H3 9344   1.088   2.217  13.897 -0.5447 -1.0282 -0.8944
  627MPD2     N 9345   0.727   2.250  14.175 -0.1910 -0.1780 -0.2799
  627MPD2    H5 9346   0.691   2.295  14.259 -0.3071 -2.2238  0.7605
  627MPD2    N1 9347   1.133   2.474  14.290 -0.0608  0.3953 -0.0459
  627MPD2    H7 9348   1.076   2.503  14.369 -3.1146  0.0523 -2.1298
  628TMC3    C1 9349   1.306   2.561  14.418  0.3112 -0.3954 -0.1974
  628TMC3    C2 9350   1.424   2.512  14.457 -0.2527  0.4474 -0.3136
  628TMC3    C3 9351   1.460   2.551  14.585 -0.3950 -0.4258  0.3186
  628TMC3    C4 9352   1.220   2.634  14.492 -0.1539 -0.3612  0.2703
  628TMC3    C5 9353   1.267   2.676  14.609 -0.8320 -0.0737  0.9523
  628TMC3    C6 9354   1.377   2.625  14.669 -0.0181  0.2345 -0.1711
  628TMC3     C 9355   1.268   2.513  14.289 -1.1261 -0.2250  0.3729
  628TMC3     O 9356   1.351   2.481  14.204 -0.1299  0.3038 -0.6335
  628TMC3     H 9357   1.496   2.462  14.394 -0.0638 -0.0523  0.2988
  628TMC3    H1 9358   1.125   2.670  14.454 -0.8287 -0.2559  2.0519
  628TMC3    H2 9359   1.418   2.690  14.746 -1.1494  1.3327 -0.4928
  628TMC3    C7 9360   1.175   2.736  14.704 -0.1945 -0.5105  0.3430
  628TMC3    C8 9361   1.593   2.519  14.631 -0.5665  0.0230 -0.2969
  628TMC3    O1 9362   1.188   2.716  14.828  0.1835 -0.5523  0.4682
  628TMC3    O2 9363   1.664   2.477  14.544 -0.7021  0.4348 -0.4981
  629MPD2     C 9364   4.081   0.768  16.740  0.1485  0.3854  0.1925
  629MPD2    C1 9365   4.024   0.887  16.692  0.7284  0.2217 -0.1675
  629MPD2    C2 9366   3.888   0.878  16.673 -0.2635  0.1251 -0.5481
  629MPD2    C3 9367   3.817   0.761  16.693 -0.3106  0.3186 -0.2330
  629MPD2    C4 9368   3.881   0.642  16.727  0.3004  0.1976  0.6413
  629MPD2    C5 9369   4.018   0.651  16.752 -0.3194 -0.4289 -0.6423
  629MPD2     H 9370   3.822   0.962  16.655  1.4190  1.1543 -1.9291
  629MPD2    H1 9371   3.830   0.546  16.732 -2.8190  1.7339 -1.3841
  629MPD2    H2 9372   4.186   0.752  16.765 -0.0400 -2.3502 -0.8033
  629MPD2    H3 9373   4.078   0.568  16.786 -2.5763 -1.8730 -0.1945
  629MPD2     N 9374   3.677   0.759  16.666  0.3009  0.1785  0.2854
  629MPD2    H5 9375   3.639   0.852  16.654  1.8364  0.4828 -2.1871
  629MPD2    N1 9376   4.097   1.007  16.682 -0.3001 -0.4392 -0.2959
  629MPD2    H7 9377   4.195   1.010  16.706  0.3648  1.0798 -3.1940
  630TMC3    C1 9378   4.128   1.231  16.672 -0.3498 -0.3105 -0.4785
  630TMC3    C2 9379   4.128   1.338  16.578  0.1645  0.0064 -0.4169
  630TMC3    C3 9380   4.223   1.434  16.592 -1.3543 -0.4988  0.2973
  630TMC3    C4 9381   4.228   1.214  16.772 -0.2899  0.3631 -0.0580
  630TMC3    C5 9382   4.312   1.319  16.781 -0.0813  0.4141 -0.8952
  630TMC3    C6 9383   4.319   1.424  16.695  0.4260  0.5212 -0.1161
  630TMC3     C 9384   4.041   1.125  16.646 -0.4308  0.3733 -0.2492
  630TMC3     O 9385   3.930   1.156  16.603  0.3530  0.6146 -0.2664
  630TMC3     H 9386   4.068   1.329  16.488 -0.2633  1.0633 -0.2452
  630TMC3    H1 9387   4.228   1.148  16.858  0.9538 -0.0426 -0.3697
  630TMC3    H2 9388   4.400   1.496  16.695  0.4864  0.4500  0.6530
  630TMC3    C7 9389   4.408   1.310  16.891  0.6892 -0.3142 -0.9098
  630TMC3    C8 9390   4.242   1.549  16.502  0.7596  0.4770 -0.0962
  630TMC3    O1 9391   4.428   1.205  16.946 -0.2437 -0.4645  0.5726
  630TMC3    O2 9392   4.336   1.618  16.533 -0.2407 -0.1661  0.2649
  631MPD2     C 9393   2.037   1.053  15.666  0.0883  0.1701 -0.3679
  631MPD2    C1 9394   2.109   1.167  15.666  0.3935  0.0783 -0.2472
  631MPD2    C2 9395   2.240   1.164  15.665  0.0786 -0.3073 -0.4807
  631MPD2    C3 9396   2.310   1.042  15.648 -0.2452 -0.1238 -0.1391
  631MPD2    C4 9397   2.236   0.932  15.628  0.3332 -0.1247 -0.1594
  631MPD2    C5 9398   2.102   0.935  15.637 -0.2541 -0.2760 -0.2599
  631MPD2     H 9399   2.297   1.256  15.677  0.0242 -0.2294 -0.8208
  631MPD2    H1 9400   2.282   0.835  15.618 -0.6409 -0.8535  2.3259
  631MPD2    H2 9401   1.929   1.056  15.675  0.3783 -1.2436  3.5164
  631MPD2    H3 9402   2.043   0.846  15.625  1.3779 -1.4424  0.4272
  631MPD2     N 9403   2.452   1.047  15.649  0.7791 -0.0492  0.1337
  631MPD2    H5 9404   2.499   1.133  15.676 -0.4767  0.9840 -0.9860
  631MPD2    N1 9405   2.052   1.295  15.682  0.7487 -0.8708 -0.0654
  631MPD2    H7 9406   2.109   1.379  15.680  1.1383 -1.1488 -0.5602
  632TMC3    C1 9407   1.882   1.459  15.643 -0.2176 -0.3564  0.1274
  632TMC3    C2 9408   1.751   1.498  15.665  0.6707 -0.4010 -0.0519
  632TMC3    C3 9409   1.711   1.615  15.604  0.7072  0.3224 -0.3233
  632TMC3    C4 9410   1.971   1.537  15.578 -0.2831 -0.7726  0.6283
  632TMC3    C5 9411   1.917   1.656  15.527  0.0634  0.0840  0.3192
  632TMC3    C6 9412   1.796   1.702  15.545 -0.2586 -0.6294  0.1851
  632TMC3     C 9413   1.917   1.318  15.675 -0.2557  0.0133 -0.4422
  632TMC3     O 9414   1.821   1.243  15.686  0.2423  0.1202 -0.3836
  632TMC3     H 9415   1.698   1.428  15.728  0.2157  2.2861  2.5752
  632TMC3    H1 9416   2.067   1.504  15.539 -0.8866  0.7195 -2.1784
  632TMC3    H2 9417   1.766   1.800  15.509 -1.1439 -0.4746  1.3223
  632TMC3    C7 9418   1.993   1.718  15.418  0.6746 -0.8383 -0.8825
  632TMC3    C8 9419   1.572   1.663  15.621  0.6384 -0.8261  0.1600
  632TMC3    O1 9420   1.931   1.761  15.322  0.3275  0.3247 -0.5498
  632TMC3    O2 9421   1.552   1.782  15.614  0.1191 -0.2681  0.0185
  633MPD2     C 9422   2.154   4.208  17.540  0.3829  0.6459 -0.8677
  633MPD2    C1 9423   2.136   4.148  17.414  0.2848  0.4011  0.3563
  633MPD2    C2 9424   2.069   4.027  17.416 -0.7163 -0.1092 -0.0169
  633MPD2    C3 9425   2.010   3.964  17.523 -0.3365  0.6709  0.0522
  633MPD2    C4 9426   2.023   4.031  17.641  0.3339 -0.0494  0.5003
  633MPD2    C5 9427   2.090   4.151  17.651  0.3803  0.2042  0.1729
  633MPD2     H 9428   2.048   3.986  17.318  1.5035  1.7578 -1.2655
  633MPD2    H1 9429   1.985   3.986  17.732 -0.3430 -0.8655 -0.1833
  633MPD2    H2 9430   2.215   4.297  17.551 -0.4631  0.9865  1.0149
  633MPD2    H3 9431   2.105   4.183  17.753 -0.6346  0.1896  0.3218
  633MPD2     N 9432   1.934   3.844  17.509 -0.6463 -0.2250 -0.3943
  633MPD2    H5 9433   1.900   3.806  17.596 -0.0343  0.0979 -0.0086
  633MPD2    N1 9434   2.178   4.203  17.293  0.1272  0.0261 -0.1071
  633MPD2    H7 9435   2.153   4.155  17.207  0.5627 -1.0219  0.3485
  634TMC3    C1 9436   2.255   4.370  17.142 -0.7093  0.8737 -0.7063
  634TMC3    C2 9437   2.297   4.276  17.055 -0.1361  0.0206 -0.5179
  634TMC3    C3 9438   2.316   4.305  16.928 -0.0470 -0.7211  0.3869
  634TMC3    C4 9439   2.226   4.498  17.101  0.1744  0.1265  0.0747
  634TMC3    C5 9440   2.252   4.529  16.969  0.1201  0.4602 -0.1312
  634TMC3    C6 9441   2.299   4.433  16.886 -0.6785  0.1442 -0.2044
  634TMC3     C 9442   2.218   4.334  17.278  0.2171 -0.0405  0.8532
  634TMC3     O 9443   2.210   4.428  17.358 -0.0302 -0.1886 -0.1593
  634TMC3     H 9444   2.317   4.174  17.088 -3.1027  0.5929  2.9583
  634TMC3    H1 9445   2.181   4.560  17.178  0.5699  0.5646 -0.0443
  634TMC3    H2 9446   2.330   4.466  16.787  0.2048 -0.5828 -0.1738
  634TMC3    C7 9447   2.159   4.615  16.907 -0.1715 -0.3006  0.5877
  634TMC3    C8 9448   2.325   4.192  16.836 -0.7189  0.3097  0.4922
  634TMC3    O1 9449   2.119   4.581  16.795 -0.0638 -0.0146  0.4545
  634TMC3    O2 9450   2.382   4.090  16.879 -0.2185 -0.4906  0.5602
  635TMC3    C1 9451   2.524   1.190  17.490  1.1131  0.9013 -0.4666
  635TMC3    C2 9452   2.380   1.194  17.495 -0.0098 -0.3207  0.0053
  635TMC3    C3 9453   2.309   1.102  17.434  0.0051  0.6462 -0.0341
  635TMC3    C4 9454   2.585   1.094  17.422 -0.6480 -0.2511 -0.4492
  635TMC3    C5 9455   2.509   1.003  17.359 -0.3630 -0.0577  0.6805
  635TMC3    C6 9456   2.365   1.002  17.361 -0.3825  0.1005  0.4257
  635TMC3     C 9457   2.590   1.298  17.558 -0.2285  0.1827  0.1801
  635TMC3     O 9458   2.523   1.361  17.643  0.1703 -0.2731  0.3706
  635TMC3     H 9459   2.332   1.275  17.550  0.9190 -1.7155  2.8765
  635TMC3    H1 9460   2.692   1.085  17.407 -0.4920  0.0177  0.4937
  635TMC3    H2 9461   2.305   0.928  17.308 -0.4051 -0.0622  0.6796
  635TMC3    C7 9462   2.567   0.880  17.310  0.1477 -0.6403 -0.0918
  635TMC3    C8 9463   2.160   1.109  17.453  0.4148 -0.6075 -0.3012
  635TMC3    O1 9464   2.662   0.847  17.378  0.6081 -0.0513 -0.0427
  635TMC3    O2 9465   2.092   1.084  17.354  0.0429  0.2219  0.2764
  636MPD2     C 9466   3.427   4.456  16.560  0.0490  0.0590  0.3186
  636MPD2    C1 9467   3.498   4.480  16.445  0.1556 -0.1385 -0.5875
  636MPD2    C2 9468   3.628   4.434  16.430 -0.9323  0.4154  0.1258
  636MPD2    C3 9469   3.676   4.351  16.528  0.0644 -0.0768  0.1482
  636MPD2    C4 9470   3.608   4.322  16.642 -0.0313  0.4484 -0.6541
  636MPD2    C5 9471   3.483   4.374  16.656  0.7781  0.8513 -0.0447
  636MPD2     H 9472   3.682   4.464  16.341 -1.2821  2.2277  0.5234
  636MPD2    H1 9473   3.646   4.239  16.700  0.5840  1.1852  0.0139
  636MPD2    H2 9474   3.326   4.495  16.574  0.0337  0.3211 -0.5402
  636MPD2    H3 9475   3.419   4.333  16.733  2.5894  0.7380  1.3982
  636MPD2     N 9476   3.806   4.305  16.492 -0.0980 -0.1848  0.6412
  636MPD2    H5 9477   3.836   4.320  16.396 -2.1620 -2.2904 -0.3252
  636MPD2    N1 9478   3.450   4.557  16.343  0.4960 -0.2492 -0.0160
  636MPD2    H7 9479   3.515   4.589  16.273  0.8869 -3.4847 -1.1447
  637TMC3    C1 9480   4.004   4.204  16.506  0.1671 -0.7138  0.5865
  637TMC3    C2 9481   4.073   4.307  16.457 -0.3273 -0.4917 -0.2225
  637TMC3    C3 9482   4.114   4.305  16.331  0.1798 -0.7252  0.3310
  637TMC3    C4 9483   3.971   4.094  16.431  0.6269 -0.3200  0.2971
  637TMC3    C5 9484   4.028   4.080  16.311  0.1393  0.0657  0.2758
  637TMC3    C6 9485   4.103   4.184  16.257  0.5988  0.0428 -0.2277
  637TMC3     C 9486   3.887   4.238  16.577 -0.5329 -0.0679 -0.1762
  637TMC3     O 9487   3.870   4.202  16.693 -0.1967  0.1116 -0.4197
  637TMC3     H 9488   4.062   4.405  16.503  0.3689 -0.1897 -0.6945
  637TMC3    H1 9489   3.904   4.022  16.477  2.0774 -2.8847 -1.5491
  637TMC3    H2 9490   4.150   4.172  16.161  2.4226  0.8861  0.5631
  637TMC3    C7 9491   3.941   4.016  16.205  0.2837  0.5025 -0.7195
  637TMC3    C8 9492   4.046   4.409  16.255 -0.0492 -0.5884 -0.0580
  637TMC3    O1 9493   3.929   4.082  16.101 -0.1914 -0.5133  0.3343
  637TMC3    O2 9494   3.942   4.449  16.309 -0.6027 -0.1069 -0.3725
  638MPD2     C 9495   2.902   3.382  14.787  0.0182  0.0358 -0.2575
  638MPD2    C1 9496   2.897   3.260  14.727  0.2291  0.0973 -0.1831
  638MPD2    C2 9497   2.907   3.145  14.799  0.6041 -0.8271  0.3891
  638MPD2    C3 9498   2.918   3.135  14.935 -0.5313 -0.2569 -0.0489
  638MPD2    C4 9499   2.928   3.255  15.000 -0.3156 -0.6262 -0.6208
  638MPD2    C5 9500   2.914   3.375  14.928 -0.3224  0.0633  0.2917
  638MPD2     H 9501   2.892   3.045  14.760  0.8524 -0.7075 -0.0134
  638MPD2    H1 9502   2.922   3.258  15.108  1.3646  0.2455 -0.5511
  638MPD2    H2 9503   2.886   3.476  14.735 -0.5473 -0.9702 -1.9418
  638MPD2    H3 9504   2.927   3.471  14.977  3.5493 -0.8007  0.9451
  638MPD2     N 9505   2.918   3.006  15.003  0.0134  0.3900  0.8397
  638MPD2    H5 9506   2.882   2.929  14.948  0.3974  1.8142 -1.4079
  638MPD2    N1 9507   2.885   3.257  14.588  0.0028 -0.5578  0.6839
  638MPD2    H7 9508   2.888   3.345  14.537  0.3921 -0.9579  0.0049
  639TMC3    C1 9509   2.906   2.847  15.170 -0.0351  0.1844 -0.2152
  639TMC3    C2 9510   2.818   2.776  15.084 -0.1165  0.1622 -0.0763
  639TMC3    C3 9511   2.789   2.654  15.124  0.2318 -0.3017  0.9211
  639TMC3    C4 9512   2.953   2.792  15.286  0.0557 -0.5770  0.4587
  639TMC3    C5 9513   2.915   2.660  15.315  0.1997 -0.4095 -0.1092
  639TMC3    C6 9514   2.832   2.589  15.237 -0.4566  0.0929  0.4400
  639TMC3     C 9515   2.941   2.987  15.137 -0.4308  0.5192  0.3003
  639TMC3     O 9516   2.998   3.066  15.213  0.4130 -0.2297  0.1930
  639TMC3     H 9517   2.770   2.813  14.995 -1.6009 -0.5463  0.4274
  639TMC3    H1 9518   3.013   2.856  15.349  0.4134 -0.2641 -0.1980
  639TMC3    H2 9519   2.800   2.486  15.250  0.3241 -0.5608 -2.7481
  639TMC3    C7 9520   3.023   2.579  15.353 -0.2108  1.0460  0.2575
  639TMC3    C8 9521   2.733   2.571  15.015 -0.1616  0.0066  0.2125
  639TMC3    O1 9522   3.002   2.478  15.414  0.0103 -0.3706  0.0808
  639TMC3    O2 9523   2.784   2.587  14.907  0.2219 -0.6919 -0.0032
  640MPD2     C 9524   3.393   2.489  10.320 -0.2535 -0.2557  0.3320
  640MPD2    C1 9525   3.323   2.512  10.206  0.2225  0.2281 -0.0200
  640MPD2    C2 9526   3.209   2.589  10.206  0.1144  0.5728 -0.7519
  640MPD2    C3 9527   3.150   2.637  10.317  0.3358  0.7528  0.0639
  640MPD2    C4 9528   3.221   2.617  10.433  0.4860  0.5931 -0.2445
  640MPD2    C5 9529   3.342   2.545  10.435 -0.2098  0.0196  0.4616
  640MPD2     H 9530   3.151   2.586  10.114 -0.9480  0.4638 -0.0814
  640MPD2    H1 9531   3.175   2.660  10.521  0.1722 -1.4600  0.5994
  640MPD2    H2 9532   3.480   2.424  10.324  0.1756  0.3176  0.3619
  640MPD2    H3 9533   3.398   2.535  10.527 -2.1430 -0.4687  1.5916
  640MPD2     N 9534   3.024   2.711  10.320  0.4720  0.2808  0.0999
  640MPD2    H5 9535   2.997   2.754  10.408  1.5574 -0.2075  0.6752
  640MPD2    N1 9536   3.393   2.456  10.089 -0.8966  0.2193  0.1509
  640MPD2    H7 9537   3.470   2.398  10.119 -0.2263  0.8257 -0.3914
  641TMC3    C1 9538   3.457   2.434   9.868 -0.6109  0.2238 -0.0138
  641TMC3    C2 9539   3.520   2.312   9.884 -0.4834  0.7248  0.3543
  641TMC3    C3 9540   3.625   2.287   9.801 -0.0544 -0.6522  0.9952
  641TMC3    C4 9541   3.500   2.527   9.784 -0.2581 -0.5064 -0.0583
  641TMC3    C5 9542   3.605   2.498   9.700 -0.2029 -0.6741  0.3240
  641TMC3    C6 9543   3.675   2.381   9.716 -0.1215  0.0825 -0.0047
  641TMC3     C 9544   3.361   2.481   9.960  0.2138 -0.1592  0.2722
  641TMC3     O 9545   3.299   2.575   9.915 -0.8138  0.1201  0.2713
  641TMC3     H 9546   3.464   2.235   9.936  1.2272 -0.3841  0.5136
  641TMC3    H1 9547   3.468   2.630   9.791  3.1147  0.4072  1.6082
  641TMC3    H2 9548   3.759   2.358   9.651 -1.1212 -3.5852 -0.0162
  641TMC3    C7 9549   3.692   2.606   9.663  0.1414  0.5321 -0.1634
  641TMC3    C8 9550   3.694   2.158   9.812  0.4812  0.2629 -0.0329
  641TMC3    O1 9551   3.810   2.586   9.689 -0.3534  0.9131 -0.3619
  641TMC3    O2 9552   3.777   2.137   9.723  0.3432  0.2273 -0.5812
  642TMC3    C1 9553   0.018   3.082  12.600  0.3178 -0.3339  0.2395
  642TMC3    C2 9554   0.142   3.107  12.544 -0.0357  0.1429  0.5628
  642TMC3    C3 9555   0.161   3.075  12.417 -0.4136 -0.1665  0.0519
  642TMC3    C4 9556   4.658   3.027  12.528 -0.1320 -0.1443 -0.2633
  642TMC3    C5 9557   4.685   2.990  12.400 -0.0626 -0.5046 -0.0955
  642TMC3    C6 9558   0.063   3.016  12.338 -0.1176  0.0435  0.1013
  642TMC3     C 9559   4.733   3.151  12.724 -0.3634 -0.0809 -0.8569
  642TMC3     O 9560   0.078   3.228  12.758  0.5300 -0.6950  0.1960
  642TMC3     H 9561   0.224   3.118  12.614 -0.3937  0.8776  0.8769
  642TMC3    H1 9562   4.558   3.010  12.565 -0.1276  1.9474  0.7337
  642TMC3    H2 9563   0.075   2.995  12.232  2.6907  0.5789  0.3047
  642TMC3    C7 9564   4.611   2.881  12.344  0.1467  0.0046 -0.0022
  642TMC3    C8 9565   0.294   3.092  12.353 -0.0934  0.0000  0.4543
  642TMC3    O1 9566   4.611   2.867  12.222 -0.2212 -0.4726  0.1895
  642TMC3    O2 9567   0.307   3.028  12.245 -0.4375 -0.3830  0.0786
  643TMC3    C1 9568   3.809   1.852   0.425 -0.2189  0.2467 -0.2722
  643TMC3    C2 9569   3.702   1.875   0.351 -0.1970  0.2190  0.0395
  643TMC3    C3 9570   3.657   1.787   0.251 -0.1771  0.2652  0.4952
  643TMC3    C4 9571   3.895   1.751   0.378  0.1474  0.7001 -0.2904
  643TMC3    C5 9572   3.855   1.669   0.275  0.2236  0.3982  0.5563
  643TMC3    C6 9573   3.724   1.670   0.228  0.3512 -0.5300  0.7068
  643TMC3     C 9574   3.872   1.975   0.457  0.3891  0.0519  0.5661
  643TMC3     O 9575   3.829   2.083   0.412  0.2234 -0.3647  0.0549
  643TMC3     H 9576   3.641   1.963   0.371 -1.5089 -0.9178  1.0361
  643TMC3    H1 9577   4.000   1.743   0.406 -0.1470 -2.1948  0.0124
  643TMC3    H2 9578   3.692   1.602   0.150 -0.8498 -0.6938  1.3430
  643TMC3    C7 9579   3.938   1.707   0.163  0.0572  0.3733 -0.2114
  643TMC3    C8 9580   3.607   1.857   0.131  0.2402  0.1469  0.2583
  643TMC3    O1 9581   3.994   1.814   0.168  0.0324  0.2035  0.3407
  643TMC3    O2 9582   3.546   1.787   0.049  0.0472 -0.1059 -0.5508
  644MPD2     C 9583   3.650   3.268   9.968  0.2581  0.4276 -0.3931
  644MPD2    C1 9584   3.593   3.143   9.969 -0.2074 -0.5528  1.0275
  644MPD2    C2 9585   3.463   3.127   9.923  0.1717 -0.1953  0.6065
  644MPD2    C3 9586   3.391   3.231   9.873  0.4743  0.0262  0.3232
  644MPD2    C4 9587   3.443   3.355   9.894  0.3541 -0.1297 -0.1510
  644MPD2    C5 9588   3.570   3.378   9.940  0.1638  0.1291  0.3049
  644MPD2     H 9589   3.423   3.029   9.902 -1.5826  0.4158  1.1330
  644MPD2    H1 9590   3.395   3.442   9.852  0.2604  0.0169  0.2720
  644MPD2    H2 9591   3.758   3.278   9.979  0.5070 -1.3403 -1.1929
  644MPD2    H3 9592   3.609   3.478   9.924  0.2756  0.2941  1.6029
  644MPD2     N 9593   3.257   3.211   9.823 -0.7332 -0.2566 -0.2509
  644MPD2    H5 9594   3.231   3.118   9.791 -0.8728  0.1174 -1.2220
  644MPD2    N1 9595   3.686   3.038   9.983  0.0778  0.1002 -0.7365
  644MPD2    H7 9596   3.778   3.069  10.013  0.4354 -2.3690  0.7291
  645TMC3    C1 9597   3.057   3.268   9.695 -0.2913  0.1445  0.3300
  645TMC3    C2 9598   2.960   3.360   9.698 -0.4643 -0.2041 -0.0651
  645TMC3    C3 9599   2.836   3.329   9.645 -0.4115  0.1593 -0.4379
  645TMC3    C4 9600   3.045   3.144   9.644 -0.3751 -0.5053 -0.0286
  645TMC3    C5 9601   2.913   3.113   9.599 -0.2748  0.0599  0.2866
  645TMC3    C6 9602   2.813   3.206   9.594  0.6401  0.6082 -1.0249
  645TMC3     C 9603   3.181   3.313   9.769  0.0886 -0.2974 -0.5638
  645TMC3     O 9604   3.191   3.431   9.799  0.3593  0.0682 -0.2565
  645TMC3     H 9605   2.976   3.448   9.758 -1.1359 -0.2092  0.1219
  645TMC3    H1 9606   3.129   3.076   9.648 -1.3510 -1.7780 -1.1039
  645TMC3    H2 9607   2.719   3.159   9.565  0.0494  0.1321  1.6112
  645TMC3    C7 9608   2.882   2.983   9.556  0.7141 -0.5601  0.0523
  645TMC3    C8 9609   2.730   3.413   9.673 -0.9320  0.8103  0.2890
  645TMC3    O1 9610   2.792   2.972   9.473 -0.1694  0.5075  0.4443
  645TMC3    O2 9611   2.616   3.372   9.678 -0.6851 -0.6312 -0.0341
  646MPD2     C 9612   3.325   1.847  14.690  0.2914  0.8798 -0.3248
  646MPD2    C1 9613   3.206   1.814  14.748 -0.4268  0.3907 -0.1916
  646MPD2    C2 9614   3.086   1.859  14.702 -0.2350 -0.4710 -0.3773
  646MPD2    C3 9615   3.076   1.943  14.589 -0.8706  0.0514  0.3276
  646MPD2    C4 9616   3.199   1.982  14.529 -0.9796 -0.6966  0.1323
  646MPD2    C5 9617   3.321   1.937  14.584 -0.6479  0.5516  0.3124
  646MPD2     H 9618   2.987   1.827  14.734 -0.5256 -0.0641 -0.8629
  646MPD2    H1 9619   3.198   2.033  14.433 -1.5131  1.2042  1.1590
  646MPD2    H2 9620   3.421   1.803  14.714  0.7512  2.5471  0.8598
  646MPD2    H3 9621   3.415   1.958  14.534 -0.8046  0.8516  0.1442
  646MPD2     N 9622   2.947   1.974  14.534 -0.1145  0.0502 -0.1700
  646MPD2    H5 9623   2.867   1.931  14.579  0.6896  0.4974  1.6831
  646MPD2    N1 9624   3.217   1.703  14.839  0.2367  0.2966  0.0205
  646MPD2    H7 9625   3.308   1.671  14.869 -0.6102 -0.9206  1.3149
  647TMC3    C1 9626   3.160   1.555  15.005  0.9170  0.3173  0.2479
  647TMC3    C2 9627   3.060   1.489  15.076  0.7240  0.3693  0.1948
  647TMC3    C3 9628   3.089   1.373  15.143 -0.4841 -0.4858 -0.4681
  647TMC3    C4 9629   3.291   1.512  15.017 -0.2296  0.5064 -0.2746
  647TMC3    C5 9630   3.316   1.405  15.095  0.0110 -0.0532 -0.1996
  647TMC3    C6 9631   3.215   1.330  15.163  0.2042 -0.1589  0.3498
  647TMC3     C 9632   3.113   1.650  14.909  0.2880 -0.1711 -0.1495
  647TMC3     O 9633   2.994   1.682  14.910 -0.9877  0.5148  0.2535
  647TMC3     H 9634   2.957   1.520  15.072  0.1015 -1.4773  1.7568
  647TMC3    H1 9635   3.378   1.569  14.986 -1.0156 -0.1069 -3.6214
  647TMC3    H2 9636   3.244   1.237  15.210 -0.4384 -0.1685  0.7257
  647TMC3    C7 9637   3.440   1.338  15.082 -0.3059 -0.1196  0.9003
  647TMC3    C8 9638   2.977   1.280  15.162  0.0124  0.7976  0.3979
  647TMC3    O1 9639   3.475   1.274  15.180  0.0531  0.2447  0.2923
  647TMC3    O2 9640   2.865   1.302  15.115  0.1488 -0.0447 -0.6818
  648TMC3    C1 9641   2.359   4.188  16.220  0.8491 -1.0726 -0.0391
  648TMC3    C2 9642   2.434   4.085  16.179  0.0716  0.9557  0.5379
  648TMC3    C3 9643   2.376   4.020  16.072  0.3623  0.6402  0.1511
  648TMC3    C4 9644   2.236   4.227  16.171 -0.6300  0.1955 -0.0591
  648TMC3    C5 9645   2.191   4.158  16.066  0.4747 -0.4177 -0.6534
  648TMC3    C6 9646   2.257   4.057  16.006 -0.0216 -0.5497 -0.0408
  648TMC3     C 9647   2.415   4.266  16.331 -0.0838 -0.4785  0.4978
  648TMC3     O 9648   2.383   4.382  16.321 -0.3147 -0.7952  0.3047
  648TMC3     H 9649   2.531   4.057  16.220 -0.7620  0.8054  2.3970
  648TMC3    H1 9650   2.196   4.316  16.218 -1.1468 -1.4418  2.6110
  648TMC3    H2 9651   2.207   3.996  15.931 -1.0411 -0.3983  0.5115
  648TMC3    C7 9652   2.094   4.216  15.972 -0.4938 -0.0059 -0.3106
  648TMC3    C8 9653   2.423   3.885  16.060  0.0470  0.2331  0.7480
  648TMC3    O1 9654   2.093   4.176  15.853 -0.6648 -0.2375 -0.3547
  648TMC3    O2 9655   2.544   3.875  16.060  0.1926 -0.2844  0.8850
  649TMC3    C1 9656   1.337   0.785  13.003 -1.0589 -0.3986  0.0049
  649TMC3    C2 9657   1.479   0.791  13.009 -0.2954 -0.3873  0.0915
  649TMC3    C3 9658   1.542   0.711  13.101 -0.0527 -0.1789 -0.6005
  649TMC3    C4 9659   1.270   0.713  13.097 -0.5216 -0.3554 -0.1100
  649TMC3    C5 9660   1.335   0.633  13.182  0.2846  0.3162  0.1459
  649TMC3    C6 9661   1.471   0.628  13.185  0.0382 -0.2077  0.0014
  649TMC3     C 9662   1.281   0.899  12.934  0.3812 -0.1978 -0.0748
  649TMC3     O 9663   1.181   0.954  12.981  0.1397  1.1338  0.0903
  649TMC3     H 9664   1.532   0.853  12.938 -0.5108 -2.1088 -1.5911
  649TMC3    H1 9665   1.162   0.722  13.089 -0.1731  0.8939 -3.3499
  649TMC3    H2 9666   1.519   0.584  13.271  0.7860 -1.4927 -1.0791
  649TMC3    C7 9667   1.253   0.545  13.263  0.2999  0.7123  0.2096
  649TMC3    C8 9668   1.681   0.723  13.134  0.0940 -0.7143  1.2908
  649TMC3    O1 9669   1.138   0.573  13.247  0.5607  0.2014  0.1998
  649TMC3    O2 9670   1.723   0.700  13.244  0.9272 -0.2331  0.1279
  650TMC3    C1 9671   3.843   2.187  12.723 -0.1678 -0.5338  0.1740
  650TMC3    C2 9672   3.834   2.258  12.838 -0.6888  0.0681  0.0544
  650TMC3    C3 9673   3.737   2.344  12.849  0.0504 -0.2944 -0.3702
  650TMC3    C4 9674   3.746   2.189  12.623  0.5011 -0.5984 -0.4028
  650TMC3    C5 9675   3.645   2.273  12.644 -0.2561 -0.1353 -0.4045
  650TMC3    C6 9676   3.634   2.350  12.754 -0.3044  0.0651 -0.1064
  650TMC3     C 9677   3.920   2.065  12.729  0.3132 -0.2842  0.4983
  650TMC3     O 9678   3.891   1.973  12.648  0.0405  0.1595  0.1489
  650TMC3     H 9679   3.910   2.249  12.914 -1.9746  0.4522  1.3951
  650TMC3    H1 9680   3.751   2.133  12.531 -2.5623 -1.7229  0.1244
  650TMC3    H2 9681   3.560   2.429  12.761  1.2328  1.5619 -0.8478
  650TMC3    C7 9682   3.568   2.315  12.530 -0.3626 -0.0555  0.0850
  650TMC3    C8 9683   3.741   2.448  12.948 -0.3511  0.0838 -0.1339
  650TMC3    O1 9684   3.499   2.228  12.477 -0.3446  0.1514 -0.4620
  650TMC3    O2 9685   3.850   2.498  12.973  0.6833  0.7999  0.0244
  651MPD2     C 9686   2.983   4.721  10.489 -0.1233 -0.5816  0.5186
  651MPD2    C1 9687   3.017   0.025  10.613 -0.3031 -0.1641 -0.4693
  651MPD2    C2 9688   3.147   0.063  10.641 -0.1660 -0.7457  0.2215
  651MPD2    C3 9689   3.243   0.056  10.540 -0.0092  0.3465  0.6978
  651MPD2    C4 9690   3.205   0.004  10.415  0.1127 -0.7380  0.3274
  651MPD2    C5 9691   3.072   4.716  10.391 -0.5998  0.2721  0.2195
  651MPD2     H 9692   3.169   0.110  10.737  0.3191  0.8846 -0.7017
  651MPD2    H1 9693   3.267   4.732  10.327 -1.3407 -1.8938 -0.5314
  651MPD2    H2 9694   2.884   4.681  10.468 -0.5163 -0.1131  1.4987
  651MPD2    H3 9695   3.050   4.679  10.292  0.4653  2.0371 -0.6736
  651MPD2     N 9696   3.373   0.101  10.580 -0.0673 -0.0459 -0.4265
  651MPD2    H5 9697   3.379   0.133  10.677  0.8146 -0.7333 -0.2627
  651MPD2    N1 9698   2.925   0.024  10.719  0.0808 -0.1432 -0.4779
  651MPD2    H7 9699   2.951   0.056  10.811 -0.1364 -0.5152 -0.2889
  652TMC3    C1 9700   3.848   0.119  10.516 -0.7023 -0.1832 -0.0653
  652TMC3    C2 9701   3.721   0.081  10.482 -0.3013  0.0276  0.2206
  652TMC3    C3 9702   3.611   0.141  10.545 -0.4115  0.5595  0.3656
  652TMC3    C4 9703   3.874   0.225  10.604 -0.1237  0.0042 -0.6762
  652TMC3    C5 9704   3.760   0.286  10.654  0.2944 -0.1480 -0.1002
  652TMC3    C6 9705   3.632   0.247  10.628 -0.6363 -0.3058 -0.3292
  652TMC3     C 9706   3.965   0.036  10.487  0.5123  0.1213  0.6946
  652TMC3     O 9707   3.953   4.700  10.393 -0.5938  0.4382  0.3237
  652TMC3     H 9708   3.694   0.004  10.411 -1.1280  0.6588 -0.1503
  652TMC3    H1 9709   3.975   0.259  10.626  0.2127 -1.1901 -0.3962
  652TMC3    H2 9710   3.550   0.300  10.676  1.2905  2.6068 -0.2227
  652TMC3    C7 9711   3.792   0.411  10.722  0.1354  0.6891  0.3593
  652TMC3    C8 9712   3.478   0.110  10.489 -0.3400  0.0505 -1.0978
  652TMC3    O1 9713   3.810   0.399  10.842 -0.5888 -0.2415 -0.2862
  652TMC3    O2 9714   3.481   0.086  10.371  0.0408  0.1068 -0.1444
  653MPD2     C 9715   1.866   4.391   0.110  0.2208  0.1436  0.4634
  653MPD2    C1 9716   1.851   4.471  17.759  0.1378 -0.1596 -0.0313
  653MPD2    C2 9717   1.786   4.409  17.649  0.0456  0.2166  1.0445
  653MPD2    C3 9718   1.720   4.287  17.668  0.2160  0.3925  0.4988
  653MPD2    C4 9719   1.721   4.222   0.023  0.5971 -0.1710  0.4779
  653MPD2    C5 9720   1.805   4.270   0.120  0.4360  0.1425 -0.1528
  653MPD2     H 9721   1.775   4.451  17.550  1.0231  0.8516  1.2067
  653MPD2    H1 9722   1.659   4.142   0.060  1.2319 -0.3916  1.0545
  653MPD2    H2 9723   1.919   4.425   0.199 -1.5368 -0.1925  1.6441
  653MPD2    H3 9724   1.796   4.222   0.216 -1.7377  0.7930 -0.0266
  653MPD2     N 9725   1.645   4.232  17.561  0.1674 -0.1626  0.2745
  653MPD2    H5 9726   1.641   4.285  17.474  1.5818 -0.3277  0.1020
  653MPD2    N1 9727   1.916   4.594  17.737  0.0829  0.1518  0.0813
  653MPD2    H7 9728   1.889   4.645  17.653 -1.6073  2.1452  1.8079
  654TMC3    C1 9729   1.506   4.063  17.458 -0.6519 -0.9054  0.7402
  654TMC3    C2 9730   1.433   4.166  17.393 -0.3097  0.2498  0.0063
  654TMC3    C3 9731   1.364   4.125  17.279  0.0641  0.3676 -0.3739
  654TMC3    C4 9732   1.503   3.932  17.421 -0.1139  0.0718  0.4535
  654TMC3    C5 9733   1.427   3.903  17.309 -0.0694 -0.4445 -0.4540
  654TMC3    C6 9734   1.351   3.995  17.246 -0.3576 -0.1415 -0.2401
  654TMC3     C 9735   1.596   4.098  17.568 -0.0759  0.0063  0.1889
  654TMC3     O 9736   1.642   4.001  17.627  0.3230 -0.5798 -0.0546
  654TMC3     H 9737   1.424   4.266  17.434 -1.6732 -1.0171  2.7816
  654TMC3    H1 9738   1.565   3.854  17.465  1.4955  2.3603  2.1954
  654TMC3    H2 9739   1.284   3.957  17.170  1.5761  0.8349 -2.4138
  654TMC3    C7 9740   1.422   3.768  17.257 -0.1878  0.7548  0.4159
  654TMC3    C8 9741   1.245   4.197  17.233  0.0750  0.2277  0.9558
  654TMC3    O1 9742   1.364   3.750  17.148 -0.5890 -0.0351 -0.2958
  654TMC3    O2 9743   1.155   4.126  17.184 -0.2015 -0.7661 -0.3476
  655MPD2     C 9744   2.524   4.066  15.693 -0.2488  0.0699  0.6369
  655MPD2    C1 9745   2.439   4.116  15.598  0.0362 -0.1004 -0.6267
  655MPD2    C2 9746   2.436   4.063  15.473 -0.7585 -0.7397  0.1941
  655MPD2    C3 9747   2.512   3.955  15.437 -0.1600  0.9135  0.0939
  655MPD2    C4 9748   2.603   3.911  15.526  0.0628  0.8496  0.1793
  655MPD2    C5 9749   2.611   3.963  15.655 -0.6996 -0.1688  0.1816
  655MPD2     H 9750   2.379   4.113  15.395  1.7674 -1.8230 -2.3805
  655MPD2    H1 9751   2.668   3.829  15.498 -0.0736  1.0061 -0.6018
  655MPD2    H2 9752   2.545   4.113  15.789 -0.2405  1.5438 -0.0913
  655MPD2    H3 9753   2.675   3.912  15.726 -0.1340 -0.4267 -0.5010
  655MPD2     N 9754   2.488   3.879  15.316  0.5599 -0.2220 -0.6072
  655MPD2    H5 9755   2.535   3.791  15.301 -0.0353 -0.3114 -1.9525
  655MPD2    N1 9756   2.363   4.232  15.615  0.1266 -0.1986 -0.1781
  655MPD2    H7 9757   2.305   4.263  15.538 -2.7163 -0.8326  1.6729
  656TMC3    C1 9758   2.290   4.432  15.713  0.3688 -0.4410 -0.5173
  656TMC3    C2 9759   2.271   4.519  15.824  0.1212 -0.4416  0.4234
  656TMC3    C3 9760   2.212   4.642  15.801 -0.6995  0.1588 -0.5119
  656TMC3    C4 9761   2.246   4.469  15.593 -0.7648 -0.2985 -0.0913
  656TMC3    C5 9762   2.184   4.586  15.572 -0.0183 -0.0469 -0.5140
  656TMC3    C6 9763   2.161   4.677  15.677  0.1813 -0.2528 -0.1321
  656TMC3     C 9764   2.362   4.310  15.730  0.4841 -0.7590  0.4464
  656TMC3     O 9765   2.424   4.306  15.838  0.0868 -0.6417  0.2405
  656TMC3     H 9766   2.295   4.484  15.923 -0.1200 -1.3305  0.1708
  656TMC3    H1 9767   2.257   4.403  15.508  0.7116  1.8306 -1.5751
  656TMC3    H2 9768   2.124   0.036  15.660 -0.4356 -0.5935 -0.7911
  656TMC3    C7 9769   2.099   4.592  15.452 -0.6024  0.2159 -1.3109
  656TMC3    C8 9770   2.215   0.000  15.902 -0.3176 -0.1971  0.0449
  656TMC3    O1 9771   2.119   4.514  15.360  0.6627  0.0771 -0.2328
  656TMC3    O2 9772   2.188   0.114  15.870 -0.1568  0.0260  0.0178
  657TMC3    C1 9773   1.389   3.548  15.257 -0.2678  0.3854  0.4244
  657TMC3    C2 9774   1.459   3.618  15.353  0.1841 -0.0889  0.0905
  657TMC3    C3 9775   1.437   3.756  15.369  0.2890 -0.1480 -0.3537
  657TMC3    C4 9776   1.317   3.611  15.165 -0.1913 -0.2064 -0.2696
  657TMC3    C5 9777   1.300   3.750  15.174 -0.7654 -0.1974 -0.3731
  657TMC3    C6 9778   1.369   3.823  15.270  0.2249  0.5927  0.3577
  657TMC3     C 9779   1.400   3.400  15.265  0.4450  0.2209  0.9342
  657TMC3     O 9780   1.314   3.333  15.204 -0.2727  0.4834  0.0232
  657TMC3     H 9781   1.520   3.565  15.425 -0.1182  1.8644  1.7520
  657TMC3    H1 9782   1.268   3.555  15.086  1.2621 -0.4413 -1.0089
  657TMC3    H2 9783   1.364   3.931  15.275 -1.2456  0.4803  1.2044
  657TMC3    C7 9784   1.259   3.819  15.064  0.5748  0.7083  0.2912
  657TMC3    C8 9785   1.499   3.834  15.468 -0.4088 -0.0849 -0.1974
  657TMC3    O1 9786   1.265   3.761  14.959 -0.6196  0.3333  0.2095
  657TMC3    O2 9787   1.434   3.938  15.493 -0.4314 -0.2927  0.5350
  658MPD2     C 9788   2.840   3.738  14.738 -0.3559  0.3374 -0.9744
  658MPD2    C1 9789   2.725   3.813  14.725 -0.2838 -0.2286  0.6956
  658MPD2    C2 9790   2.716   3.906  14.624 -0.9489 -0.4515 -0.6331
  658MPD2    C3 9791   2.815   3.929  14.529 -0.6312  0.3112 -0.4123
  658MPD2    C4 9792   2.928   3.853  14.542 -0.2438  0.0298 -0.4963
  658MPD2    C5 9793   2.937   3.754  14.643 -0.4121 -0.8305 -0.2277
  658MPD2     H 9794   2.617   3.952  14.618 -1.2314 -0.7681  1.3777
  658MPD2    H1 9795   3.016   3.862  14.479 -1.2484 -0.9854 -2.0679
  658MPD2    H2 9796   2.864   3.675  14.823  2.1761  0.2905 -1.7506
  658MPD2    H3 9797   3.025   3.691  14.652  0.7594  0.8416  0.0465
  658MPD2     N 9798   2.785   4.020  14.426 -0.2107 -0.7139 -0.3798
  658MPD2    H5 9799   2.699   4.071  14.447 -0.9817 -1.4254 -1.8096
  658MPD2    N1 9800   2.620   3.785  14.814  0.2423  0.1124 -0.1386
  658MPD2    H7 9801   2.632   3.726  14.896 -0.7662 -0.7502 -0.6198
  659TMC3    C1 9802   2.411   3.782  14.916 -0.4294 -0.1955  0.4410
  659TMC3    C2 9803   2.460   3.791  15.039  0.0113 -0.0183 -0.6249
  659TMC3    C3 9804   2.373   3.791  15.138  0.0803 -0.3519 -0.8888
  659TMC3    C4 9805   2.277   3.766  14.886  0.1605  0.4842 -0.1684
  659TMC3    C5 9806   2.194   3.764  14.992 -0.4724  0.0377  0.0201
  659TMC3    C6 9807   2.238   3.779  15.120 -0.4285  0.5466 -0.0467
  659TMC3     C 9808   2.489   3.823  14.798 -0.5338 -0.0876 -0.4761
  659TMC3     O 9809   2.431   3.895  14.719 -0.2135 -0.0607 -0.1371
  659TMC3     H 9810   2.559   3.834  15.042 -0.6109  1.4007 -0.4259
  659TMC3    H1 9811   2.242   3.767  14.784  0.5698  1.1135 -0.3014
  659TMC3    H2 9812   2.173   3.822  15.195 -1.4776 -0.1752 -0.5361
  659TMC3    C7 9813   2.073   3.845  14.972 -0.1933 -0.3041  0.4862
  659TMC3    C8 9814   2.392   3.907  15.223 -0.0526 -0.2570  0.3537
  659TMC3    O1 9815   2.044   3.952  15.033 -0.0398 -0.3543 -0.5204
  659TMC3    O2 9816   2.308   3.996  15.208 -0.3059  0.1870  0.3068
  660MPD2     C 9817   1.230   3.386  12.875 -0.0525 -0.9765  0.5280
  660MPD2    C1 9818   1.101   3.416  12.865 -1.0693 -0.4208  0.1324
  660MPD2    C2 9819   1.014   3.387  12.966 -0.7777  0.1021  0.6423
  660MPD2    C3 9820   1.059   3.317  13.078  0.0812  0.3258  1.0025
  660MPD2    C4 9821   1.194   3.278  13.081 -0.6216  0.0592 -0.1073
  660MPD2    C5 9822   1.276   3.324  12.984  0.5036 -1.1187  0.1078
  660MPD2     H 9823   0.908   3.408  12.965 -0.8925 -0.5498 -1.0647
  660MPD2    H1 9824   1.223   3.240  13.178  1.6374  1.8983 -0.0532
  660MPD2    H2 9825   1.302   3.418  12.800 -0.0197 -1.8652  0.1788
  660MPD2    H3 9826   1.382   3.307  12.992  0.7141  0.7706  1.3487
  660MPD2     N 9827   0.976   3.277  13.179 -0.1949 -0.4892 -0.0604
  660MPD2    H5 9828   1.000   3.203  13.243  1.5548  0.3580  0.2474
  660MPD2    N1 9829   1.054   3.489  12.751  0.2705  0.4160  0.5821
  660MPD2    H7 9830   1.131   3.511  12.689  0.1568 -0.6938  0.0570
  661TMC3    C1 9831   0.904   3.596  12.604 -0.3517 -0.2201 -0.3384
  661TMC3    C2 9832   0.987   3.575  12.494 -0.2600 -0.2748  0.2001
  661TMC3    C3 9833   0.961   3.644  12.383 -0.9926  0.3811 -1.0474
  661TMC3    C4 9834   0.788   3.675  12.593 -0.1139  0.1204  0.9244
  661TMC3    C5 9835   0.772   3.735  12.470 -0.5000 -0.0327 -0.4122
  661TMC3    C6 9836   0.865   3.727  12.366 -0.0445 -0.0886 -0.3882
  661TMC3     C 9837   0.923   3.539  12.730  0.0611  0.2375 -0.2372
  661TMC3     O 9838   0.825   3.538  12.804  0.2230  0.3141  0.6497
  661TMC3     H 9839   1.069   3.504  12.494 -1.0806 -1.2232 -1.3481
  661TMC3    H1 9840   0.718   3.696  12.673 -0.5231  0.2511  0.5330
  661TMC3    H2 9841   0.846   3.777  12.272  0.8410  1.2981  0.1644
  661TMC3    C7 9842   0.648   3.698  12.416 -0.5142  0.2878  0.5493
  661TMC3    C8 9843   0.996   3.577  12.257 -0.1600  0.3121  0.1177
  661TMC3    O1 9844   0.646   3.649  12.303  0.8934 -0.3069  0.4825
  661TMC3    O2 9845   1.109   3.535  12.247 -0.2716 -0.0953  0.7761
  662MPD2     C 9846   1.423   2.763  17.192  0.0910 -0.1873 -0.8242
  662MPD2    C1 9847   1.420   2.660  17.283  0.4530  0.3704 -0.0689
  662MPD2    C2 9848   1.336   2.681  17.391  0.3197 -0.4638  0.1874
  662MPD2    C3 9849   1.255   2.794  17.399 -0.2303  0.4082 -0.3614
  662MPD2    C4 9850   1.262   2.890  17.310 -0.0469  0.2064  0.3284
  662MPD2    C5 9851   1.355   2.876  17.212  0.9036  0.0048  0.0630
  662MPD2     H 9852   1.326   2.594  17.454 -1.5191 -0.1893  0.2707
  662MPD2    H1 9853   1.201   2.979  17.313 -0.3224  0.0688 -1.5636
  662MPD2    H2 9854   1.499   2.760  17.114 -0.4622  2.2922 -1.4790
  662MPD2    H3 9855   1.369   2.948  17.132 -1.2031 -0.2761 -0.5807
  662MPD2     N 9856   1.144   2.799  17.492  0.2475  0.5536 -0.1310
  662MPD2    H5 9857   1.081   2.878  17.477 -0.7767  0.0302  1.4742
  662MPD2    N1 9858   1.490   2.536  17.270 -0.1089  0.4031  0.0285
  662MPD2    H7 9859   1.475   2.468  17.344 -1.7389  1.9057  1.0830
  663TMC3    C1 9860   1.606   2.351  17.168 -0.8047 -0.5281 -0.2467
  663TMC3    C2 9861   1.695   2.323  17.274 -0.1987  0.7492  0.1038
  663TMC3    C3 9862   1.790   2.227  17.246 -0.6681  0.6018  0.0768
  663TMC3    C4 9863   1.591   2.276  17.058 -0.0078 -0.5062 -0.7920
  663TMC3    C5 9864   1.678   2.168  17.043  0.8591 -0.3516 -0.3290
  663TMC3    C6 9865   1.771   2.135  17.142 -0.3111  0.5549 -0.3975
  663TMC3     C 9866   1.564   2.488  17.162 -0.3865  0.2873  0.1629
  663TMC3     O 9867   1.580   2.534  17.047 -0.9543 -0.1425 -0.1085
  663TMC3     H 9868   1.721   2.409  17.336 -0.3302  1.3037 -0.6042
  663TMC3    H1 9869   1.509   2.299  16.991  0.0238 -2.6270 -1.5457
  663TMC3    H2 9870   1.835   2.049  17.132  0.1174  0.7920  0.2530
  663TMC3    C7 9871   1.619   2.048  16.985  0.3659  0.5778 -0.3310
  663TMC3    C8 9872   1.826   2.159  17.374  0.2649  0.2214  0.4080
  663TMC3    O1 9873   1.660   2.014  16.874  0.1829 -0.4658 -0.0170
  663TMC3    O2 9874   1.897   2.058  17.362 -0.1036  0.2099  0.0007
  664MPD2     C 9875   4.445   0.694  17.724  0.2298  0.2996  0.3310
  664MPD2    C1 9876   4.445   0.817   0.015  0.0145  0.5634  0.2663
  664MPD2    C2 9877   4.402   0.842   0.144 -0.1105  0.6250  0.3173
  664MPD2    C3 9878   4.354   0.736   0.220 -0.1750  0.3497  0.4484
  664MPD2    C4 9879   4.367   0.610   0.172  0.1180 -0.3490 -0.1058
  664MPD2    C5 9880   4.407   0.594   0.046  0.7715 -0.0988  0.0766
  664MPD2     H 9881   4.399   0.942   0.187 -0.0088  1.3296 -1.3249
  664MPD2    H1 9882   4.323   0.529   0.229  1.8594 -0.1937  1.4504
  664MPD2    H2 9883   4.471   0.681  17.620 -1.9644 -0.9718 -0.0656
  664MPD2    H3 9884   4.394   0.493   0.009  0.2127 -0.5201  1.4205
  664MPD2     N 9885   4.300   0.764   0.348  0.1436  0.1995  0.0298
  664MPD2    H5 9886   4.290   0.865   0.352  1.0002  0.1970  2.5720
  664MPD2    N1 9887   4.474   0.933  17.702  0.0470 -0.0849 -0.4705
  664MPD2    H7 9888   4.458   1.020  17.751  2.7246 -0.5209  1.1578
  665TMC3    C1 9889   4.220   0.744   0.558 -1.1243  0.4078  0.2442
  665TMC3    C2 9890   4.102   0.709   0.623 -0.5198  0.0575  0.2871
  665TMC3    C3 9891   4.041   0.805   0.702  0.2735  0.3526 -0.1387
  665TMC3    C4 9892   4.293   0.851   0.605  0.2125  0.5011 -0.1280
  665TMC3    C5 9893   4.240   0.931   0.706  0.0821  0.2786 -0.3001
  665TMC3    C6 9894   4.110   0.909   0.754  0.2676  0.3961  0.7751
  665TMC3     C 9895   4.263   0.670   0.439 -1.0306 -0.1616  0.1250
  665TMC3     O 9896   4.256   0.550   0.440 -0.2840 -0.5312 -0.4142
  665TMC3     H 9897   4.047   0.627   0.578 -1.7492 -0.1250  2.1234
  665TMC3    H1 9898   4.395   0.872   0.573  0.1244  2.1218  0.6650
  665TMC3    H2 9899   4.056   0.995   0.793  1.1030  1.1575  0.2635
  665TMC3    C7 9900   4.315   1.057   0.740  0.3433  0.7745 -0.4027
  665TMC3    C8 9901   3.904   0.790   0.726  0.0493 -0.5534 -0.9825
  665TMC3    O1 9902   4.414   1.074   0.677  0.4391  0.4739 -0.9049
  665TMC3    O2 9903   3.841   0.892   0.749  0.9699 -0.2266  0.4686
  666TMC3    C1 9904   3.203   1.291  10.203 -0.0854 -0.6207 -0.7316
  666TMC3    C2 9905   3.268   1.239  10.098  0.1899 -0.0053  0.2912
  666TMC3    C3 9906   3.337   1.330  10.018 -0.1602 -0.8300 -0.3134
  666TMC3    C4 9907   3.208   1.424  10.227 -0.3878 -1.0149 -0.3809
  666TMC3    C5 9908   3.279   1.509  10.142  0.2613 -0.8393  0.1592
  666TMC3    C6 9909   3.350   1.459  10.035  0.2805  0.2631  0.0902
  666TMC3     C 9910   3.159   1.208  10.312 -0.2723 -0.2024  0.3429
  666TMC3     O 9911   3.150   1.266  10.421  0.2341  0.3528  0.0099
  666TMC3     H 9912   3.286   1.133  10.084  0.4002 -0.3432  3.0563
  666TMC3    H1 9913   3.148   1.466  10.308  1.4969  0.1111  0.4370
  666TMC3    H2 9914   3.414   1.522   9.974  1.6158  1.1490  2.3752
  666TMC3    C7 9915   3.255   1.651  10.149 -0.1232  0.2739 -0.2398
  666TMC3    C8 9916   3.450   1.273   9.940 -0.4708  0.1026 -0.5704
  666TMC3    O1 9917   3.205   1.685  10.256  0.2097  0.0945 -0.6811
  666TMC3    O2 9918   3.493   1.162   9.966 -0.8329  0.4063  0.5949
  667MPD2     C 9919   4.671   0.675  14.530  0.1667 -0.2355 -0.1753
  667MPD2    C1 9920   4.636   0.706  14.655  0.1046 -0.2535  0.5839
  667MPD2    C2 9921   4.538   0.640  14.719 -0.4027 -0.7708  0.5664
  667MPD2    C3 9922   4.469   0.537  14.664 -0.6560 -0.0156  0.6361
  667MPD2    C4 9923   4.506   0.502  14.537  0.0115  0.5001  0.0122
  667MPD2    C5 9924   4.606   0.569  14.473 -0.1299  0.7525 -0.0452
  667MPD2     H 9925   4.502   0.681  14.813  1.0237 -0.7269  1.1025
  667MPD2    H1 9926   4.450   0.434  14.474  2.5243 -1.4797 -0.0557
  667MPD2    H2 9927   0.010   0.720  14.473 -1.4471  1.4567 -1.1662
  667MPD2    H3 9928   4.625   0.544  14.369  0.0566 -0.4325  0.2822
  667MPD2     N 9929   4.351   0.497  14.723  0.6424  0.2407 -0.0732
  667MPD2    H5 9930   4.304   0.426  14.667 -0.2225  1.4379 -0.8539
  667MPD2    N1 9931   4.684   0.823  14.715  0.0482  0.0432  0.2329
  667MPD2    H7 9932   4.631   0.851  14.796 -0.7486 -1.9133  0.3923
  668TMC3    C1 9933   0.073   1.009  14.780  0.1375 -0.1257 -0.7932
  668TMC3    C2 9934   0.134   1.126  14.736 -0.6453  0.1843  0.8015
  668TMC3    C3 9935   0.135   1.227  14.827 -0.3221  0.8826 -0.0932
  668TMC3    C4 9936   0.033   0.999  14.910  0.4958  0.3054  0.1771
  668TMC3    C5 9937   0.056   1.101  15.000  0.2226 -0.9295  0.4741
  668TMC3    C6 9938   0.114   1.213  14.961 -0.1801 -1.0260 -0.0108
  668TMC3     C 9939   0.050   0.901  14.679 -0.5305 -0.9191 -0.1276
  668TMC3     O 9940   0.127   0.893  14.581  0.0698  0.3849 -0.1276
  668TMC3     H 9941   0.180   1.135  14.638  2.7570 -0.0930  2.3627
  668TMC3    H1 9942   0.010   0.898  14.945  0.7327  0.5717  1.0862
  668TMC3    H2 9943   0.132   1.293  15.031 -1.8585 -1.5951  1.0781
  668TMC3    C7 9944   4.731   1.094  15.128 -0.5415  0.0427 -0.0796
  668TMC3    C8 9945   0.159   1.367  14.774  0.1341 -1.2235 -0.9442
  668TMC3    O1 9946   0.029   1.177  15.209  0.0312 -0.4637 -0.1757
  668TMC3    O2 9947   0.108   1.461  14.835 -0.0722  0.3758 -0.5152
  669TMC3    C1 9948   2.924   1.081  14.609 -0.2483  0.4273 -0.3015
  669TMC3    C2 9949   2.791   1.087  14.571  0.2426 -0.3911  0.2733
  669TMC3    C3 9950   2.766   1.157  14.458 -0.4280 -0.8794 -0.1279
  669TMC3    C4 9951   3.022   1.136  14.529 -0.2199  0.4997  0.5507
  669TMC3    C5 9952   2.991   1.208  14.418 -0.2389  0.1447 -0.0446
  669TMC3    C6 9953   2.858   1.213  14.375 -0.7027 -0.2719  0.2234
  669TMC3     C 9954   2.964   0.986  14.709  0.6694  0.5471  0.3804
  669TMC3     O 9955   2.886   0.897  14.722 -0.6144  0.6407 -0.0056
  669TMC3     H 9956   2.711   1.032  14.619 -0.3967  0.1523 -0.1610
  669TMC3    H1 9957   3.127   1.125  14.554  0.3076 -0.1136 -1.9081
  669TMC3    H2 9958   2.833   1.256  14.278 -0.5205  1.8115  1.0912
  669TMC3    C7 9959   3.101   1.271  14.337 -0.0955  0.3127  0.7504
  669TMC3    C8 9960   2.626   1.181  14.423  0.3044  0.0021 -0.0753
  669TMC3    O1 9961   3.199   1.302  14.403 -1.3426 -0.1862  0.2724
  669TMC3    O2 9962   2.547   1.092  14.460 -0.2437  0.0951 -0.7046
  670MPD2     C 9963   1.191   3.442  13.901  0.2220  0.3693  0.0818
  670MPD2    C1 9964   1.331   3.453  13.886 -0.1134  0.7493  0.2529
  670MPD2    C2 9965   1.408   3.456  14.004  0.0395 -0.3724  0.4169
  670MPD2    C3 9966   1.347   3.451  14.131 -0.7013 -0.1461 -0.2840
  670MPD2    C4 9967   1.213   3.457  14.142 -0.0548  0.1354 -0.1987
  670MPD2    C5 9968   1.135   3.443  14.027 -0.4483  0.4267  0.1575
  670MPD2     H 9969   1.515   3.470  14.007  0.1167 -1.3478  1.7914
  670MPD2    H1 9970   1.165   3.482  14.235 -0.0665 -2.6970  0.5682
  670MPD2    H2 9971   1.125   3.448  13.815 -0.1098 -1.4464  0.2207
  670MPD2    H3 9972   1.028   3.443  14.043 -0.7177 -0.9923 -1.5794
  670MPD2     N 9973   1.431   3.457  14.240  0.4246  0.6461 -0.9126
  670MPD2    H5 9974   1.531   3.469  14.225  0.5824 -0.6593 -0.9259
  670MPD2    N1 9975   1.404   3.455  13.768  0.5759 -0.6700  0.1156
  670MPD2    H7 9976   1.504   3.476  13.769  0.6299 -0.9151 -0.3156
  671TMC3    C1 9977   1.508   3.433  14.463  0.0296  0.5215  0.2422
  671TMC3    C2 9978   1.629   3.485  14.423 -0.4641  0.2790 -0.0559
  671TMC3    C3 9979   1.742   3.446  14.490  0.1013  1.9487 -0.2960
  671TMC3    C4 9980   1.504   3.343  14.565  0.7685 -0.0183  0.4505
  671TMC3    C5 9981   1.615   3.300  14.624 -0.7105  0.4473  0.2377
  671TMC3    C6 9982   1.733   3.347  14.586  0.2595 -0.2582 -0.8696
  671TMC3     C 9983   1.396   3.434  14.372 -0.6197  0.0900  0.1173
  671TMC3     O 9984   1.289   3.397  14.422  0.2162 -0.2391  0.3892
  671TMC3     H 9985   1.640   3.546  14.334  2.9068  0.9551  0.8120
  671TMC3    H1 9986   1.417   3.303  14.616  1.3998 -1.2894  0.5229
  671TMC3    H2 9987   1.827   3.309  14.626 -0.5817 -0.4104  0.9669
  671TMC3    C7 9988   1.623   3.157  14.626  0.7926  0.3365 -0.1490
  671TMC3    C8 9989   1.876   3.451  14.422 -0.1965 -0.1138 -0.5096
  671TMC3    O1 9990   1.733   3.111  14.654  0.3376 -0.4983  0.6565
  671TMC3    O2 9991   1.961   3.370  14.460  0.3492  0.6868  0.6298
  672MPD2     C 9992   1.135   3.759   0.800  0.2902  1.0030 -0.5308
  672MPD2    C1 9993   1.181   3.880   0.749 -0.0966  0.2578  0.7044
  672MPD2    C2 9994   1.188   3.996   0.823  0.2337  0.0991 -0.3779
  672MPD2    C3 9995   1.155   3.986   0.956  0.2576  0.8918  0.4010
  672MPD2    C4 9996   1.116   3.861   1.005  0.3210 -0.0009 -0.1092
  672MPD2    C5 9997   1.097   3.748   0.927 -0.2811  0.0857  0.3722
  672MPD2     H 9998   1.232   4.077   0.767  0.6365  0.4465  0.4335
  672MPD2    H1 9999   1.093   3.865   1.111 -0.9785 -0.4122 -0.3747
  672MPD2    H210000   1.119   3.672   0.738 -0.9853 -0.0900  1.3038
  672MPD2    H310001   1.069   3.656   0.977  1.7529 -0.0179  1.3317
  672MPD2     N10002   1.165   4.089   1.054 -0.0178 -0.4681 -0.0242
  672MPD2    H510003   1.133   4.060   1.146  0.3535  1.5211  0.7322
  672MPD2    N110004   1.240   3.886   0.622  0.4978  0.1160  0.0369
  672MPD2    H710005   1.251   3.977   0.578 -0.5990  0.7161  1.0062
  673TMC3    C110006   1.369   3.819   0.442 -0.6424 -0.3029  0.2890
  673TMC3    C210007   1.494   3.762   0.418  0.4394 -0.5941  0.5283
  673TMC3    C310008   1.576   3.820   0.327 -0.7314 -0.0232  0.2438
  673TMC3    C410009   1.323   3.920   0.366 -0.2447  0.1397  0.9591
  673TMC3    C510010   1.404   3.958   0.262 -0.3673 -0.0893  0.6462
  673TMC3    C610011   1.523   3.907   0.237  0.0474  0.0987 -0.4407
  673TMC3     C10012   1.295   3.782   0.557  0.2685  0.3432  0.0533
  673TMC3     O10013   1.328   3.671   0.606  0.4638  0.1338  0.2320
  673TMC3     H10014   1.525   3.686   0.488  0.9158 -1.0816 -0.2118
  673TMC3    H110015   1.222   3.962   0.362 -0.5829 -0.6490  1.3206
  673TMC3    H210016   1.584   3.957   0.162  2.6769 -1.0655  0.9239
  673TMC3    C710017   1.334   3.998   0.141  0.2503 -0.4216  1.0501
  673TMC3    C810018   1.720   3.821   0.335  0.4812 -0.4694 -0.6365
  673TMC3    O110019   1.354   3.933   0.037  0.0979  0.0321  0.1130
  673TMC3    O210020   1.789   3.853   0.240  0.0419  0.2196 -0.2159
  674MPD2     C10021   1.407   3.011  17.650  0.0641 -0.8567 -0.0890
  674MPD2    C110022   1.368   2.988   0.017  0.6450 -0.4316 -0.0104
  674MPD2    C210023   1.311   3.092   0.097  0.7101  0.1534 -0.3578
  674MPD2    C310024   1.323   3.219   0.050 -0.7025 -0.5513 -0.0303
  674MPD2    C410025   1.357   3.246  17.681 -0.1533 -0.5941 -0.0308
  674MPD2    C510026   1.395   3.139  17.603 -1.0665 -0.3587 -0.0152
  674MPD2     H10027   1.278   3.075   0.199  0.0261  1.6323 -0.3370
  674MPD2    H110028   1.357   3.344  17.636 -0.0083 -0.1852  0.8626
  674MPD2    H210029   1.428   2.924  17.590  0.7474 -0.5490 -0.2886
  674MPD2    H310030   1.392   3.161  17.497  2.7055 -2.5003 -0.5410
  674MPD2     N10031   1.302   3.324   0.141 -0.5481  0.1920  0.1725
  674MPD2    H510032   1.257   3.309   0.230 -0.2887 -1.3626  0.0452
  674MPD2    N110033   1.387   2.854   0.057  0.2598  0.0938  0.4265
  674MPD2    H710034   1.394   2.789  17.743  2.5489  1.0328 -0.1551
  675TMC3    C110035   1.393   2.869   0.291 -0.0741 -0.7956  0.3119
  675TMC3    C210036   1.302   2.852   0.395 -0.0255  0.3216 -0.1637
  675TMC3    C310037   1.329   2.915   0.518 -1.2777  0.4363  0.6124
  675TMC3    C410038   1.508   2.943   0.303  0.0896  0.3142  0.2546
  675TMC3    C510039   1.537   2.991   0.430 -0.5065 -0.2557  0.2046
  675TMC3    C610040   1.449   2.979   0.540 -0.5332 -0.7953  0.9838
  675TMC3     C10041   1.374   2.788   0.174  0.2708  0.3301 -0.3622
  675TMC3     O10042   1.360   2.669   0.178  0.5778 -0.1522  0.0773
  675TMC3     H10043   1.208   2.799   0.382  0.6463 -0.5117 -1.7030
  675TMC3    H110044   1.583   2.935   0.226  0.2951 -0.7353  0.5736
  675TMC3    H210045   1.490   3.023   0.630 -0.7975  3.1112 -0.7722
  675TMC3    C710046   1.620   3.112   0.428  0.3027  0.3641 -0.3477
  675TMC3    C810047   1.216   2.949   0.609  1.1687  0.2537  0.9697
  675TMC3    O110048   1.663   3.156   0.531  0.1317 -0.0577 -0.2424
  675TMC3    O210049   1.116   2.878   0.606  0.0978 -0.3323  0.0740
  676MPD2     C10050   4.165   2.447  11.274  0.2503  1.4032 -0.8249
  676MPD2    C110051   4.049   2.401  11.211 -0.5765  0.3084  0.0124
  676MPD2    C210052   4.067   2.298  11.120  0.1460  0.7759  0.4262
  676MPD2    C310053   4.189   2.250  11.088  0.4631 -0.5187  0.1627
  676MPD2    C410054   4.303   2.312  11.133 -0.4706 -0.0605  0.0149
  676MPD2    C510055   4.293   2.406  11.232 -0.3666  0.0382 -0.4451
  676MPD2     H10056   3.977   2.248  11.086 -0.3083  1.1367  1.1020
  676MPD2    H110057   4.404   2.282  11.104 -0.6838 -0.1760 -0.6017
  676MPD2    H210058   4.160   2.517  11.357 -0.4082  1.2154 -0.7085
  676MPD2    H310059   4.375   2.464  11.272  0.8122 -1.6206 -0.4554
  676MPD2     N10060   4.210   2.146  11.000  0.4460  0.5090  0.0629
  676MPD2    H510061   4.305   2.134  10.965  1.3613  0.7141  2.4833
  676MPD2    N110062   3.924   2.456  11.255 -0.7127 -0.4231  0.1817
  676MPD2    H710063   3.920   2.536  11.318 -3.1249 -0.5532  0.2297
  677TMC3    C110064   3.691   2.481  11.281 -0.0496 -0.5601  0.2320
  677TMC3    C210065   3.588   2.405  11.320 -0.3443  0.2467  0.3079
  677TMC3    C310066   3.494   2.463  11.406  0.0180  0.7452  1.2349
  677TMC3    C410067   3.712   2.614  11.306  0.0074  0.0326 -0.3112
  677TMC3    C510068   3.612   2.672  11.384 -0.0757  0.2625  0.1841
  677TMC3    C610069   3.506   2.595  11.435  0.1872  0.7085 -0.3925
  677TMC3     C10070   3.802   2.411  11.212  0.3865 -0.8033  0.1154
  677TMC3     O10071   3.771   2.331  11.122  0.1386  0.1109  0.3904
  677TMC3     H10072   3.591   2.303  11.283 -0.4626  0.6122 -0.7151
  677TMC3    H110073   3.793   2.678  11.272 -0.5526  0.1570 -1.3959
  677TMC3    H210074   3.427   2.643  11.491 -1.1484 -0.1767 -1.5118
  677TMC3    C710075   3.618   2.807  11.427  0.2842  0.3081 -0.3513
  677TMC3    C810076   3.367   2.393  11.433  0.3417 -0.8208 -0.8704
  677TMC3    O110077   3.511   2.863  11.430 -0.1166  0.0949  0.1485
  677TMC3    O210078   3.323   2.353  11.328 -0.3537 -0.9804 -0.7547
  678MPD2     C10079   0.852   1.753   1.543  0.4991 -0.1161 -0.1353
  678MPD2    C110080   0.867   1.788   1.412 -0.0664 -0.0096  0.3168
  678MPD2    C210081   0.758   1.846   1.349 -0.3418 -0.6312 -0.0422
  678MPD2    C310082   0.649   1.876   1.418 -0.0321 -0.7013 -0.1876
  678MPD2    C410083   0.636   1.840   1.555 -0.4106 -0.3889  0.7863
  678MPD2    C510084   0.741   1.778   1.616  0.2110  0.0557  0.1871
  678MPD2     H10085   0.756   1.867   1.243 -2.9983  0.0784  0.1340
  678MPD2    H110086   0.550   1.857   1.619 -0.8651  2.2546 -0.5310
  678MPD2    H210087   0.932   1.706   1.598  1.0540  1.2690  0.2556
  678MPD2    H310088   0.727   1.769   1.723  0.1367  1.1409  0.2651
  678MPD2     N10089   0.540   1.933   1.350  0.0850 -0.7153 -0.3066
  678MPD2    H510090   0.542   1.941   1.249 -0.2736 -0.7651 -0.3179
  678MPD2    N110091   0.979   1.772   1.330  0.7909 -0.9060 -0.1672
  678MPD2    H710092   0.992   1.830   1.248 -0.1649 -2.5871 -1.5379
  679TMC3    C110093   1.354   1.565   1.140  0.9500  0.2301  0.1887
  679TMC3    C210094   1.245   1.564   1.228  0.0317 -0.2224  0.3017
  679TMC3    C310095   1.178   1.685   1.249 -0.5527  1.1522 -0.2720
  679TMC3    C410096   1.392   1.681   1.072 -0.1669  0.1678  0.0603
  679TMC3    C510097   1.326   1.794   1.102  0.2751  0.2778 -0.4266
  679TMC3    C610098   1.216   1.801   1.185 -0.1466  0.3032  0.6380
  679TMC3     C10099   1.406   1.444   1.087  0.0022 -0.1154 -0.7953
  679TMC3     O10100   1.477   1.453   0.983 -0.2871 -0.0119 -0.2891
  679TMC3     H10101   1.218   1.471   1.276  1.0530 -0.2332  0.8451
  679TMC3    H110102   1.480   1.683   1.009  0.8363 -1.8458  1.3834
  679TMC3    H210103   1.152   1.886   1.204  0.4062  1.1501 -1.3198
  679TMC3    C710104   1.350   1.908   1.015  0.1225 -0.6745  0.6867
  679TMC3    C810105   1.082   1.682   1.355 -0.0823  0.4377  0.0191
  679TMC3    O110106   1.404   1.894   0.902 -0.0976 -0.5861  0.2448
  679TMC3    O210107   1.088   1.582   1.429 -0.5710  0.3310 -0.0163
  680MPD2     C10108   0.315   0.638  13.554  0.5515 -0.4462 -0.3499
  680MPD2    C110109   0.425   0.588  13.625  0.3177  0.0568  0.4190
  680MPD2    C210110   0.466   0.654  13.736  0.3860 -0.3183 -0.3922
  680MPD2    C310111   0.394   0.754  13.795  0.2718 -0.1222  0.2030
  680MPD2    C410112   0.287   0.802  13.732 -0.1820 -0.3933 -0.2300
  680MPD2    C510113   0.249   0.749  13.606 -0.2095 -0.3363 -0.3504
  680MPD2     H10114   0.559   0.624  13.783  0.0306 -1.8337 -0.6612
  680MPD2    H110115   0.227   0.881  13.773  2.2583  1.2277  0.2203
  680MPD2    H210116   0.292   0.613  13.451 -1.3412 -1.4583  0.3115
  680MPD2    H310117   0.165   0.779  13.546 -0.8973 -2.0233 -0.2490
  680MPD2     N10118   0.440   0.831  13.899 -0.9913 -0.1117 -0.6032
  680MPD2    H510119   0.382   0.913  13.912 -0.2597  0.2136  0.6540
  680MPD2    N110120   0.496   0.477  13.580  0.4650  0.9091  0.4668
  680MPD2    H710121   0.584   0.458  13.626  1.2889  3.2081 -0.1459
  681TMC3    C110122   0.511   0.270  13.490  0.0080  0.5536  0.7181
  681TMC3    C210123   0.438   0.151  13.509  0.1366 -0.2253  0.4789
  681TMC3    C310124   0.500   0.052  13.571  0.3336 -0.5459 -0.1159
  681TMC3    C410125   0.641   0.284  13.520  0.3463  1.0861 -0.1757
  681TMC3    C510126   0.701   0.176  13.575  0.4431 -0.0444 -0.0914
  681TMC3    C610127   0.634   0.059  13.594 -0.1572 -0.4658  0.6358
  681TMC3     C10128   0.433   0.383  13.503 -0.0825 -0.0467 -0.1179
  681TMC3     O10129   0.321   0.378  13.453 -0.3271  0.2506 -0.4877
  681TMC3     H10130   0.331   0.161  13.493  0.2706  0.6346  0.0549
  681TMC3    H110131   0.694   0.375  13.494  2.1716  0.1582  0.2411
  681TMC3    H210132   0.681   4.711  13.633 -1.9217 -1.4666  0.4960
  681TMC3    C710133   0.844   0.174  13.617  0.0784  0.2454  0.0651
  681TMC3    C810134   0.424   0.048  13.687  0.0289  0.3367  0.4856
  681TMC3    O110135   0.871   0.124  13.726  0.6701  0.0216  0.8676
  681TMC3    O210136   0.305   0.043  13.680  0.6340 -0.6816  0.4278
  682MPD2     C10137   2.735   2.653  10.847 -1.3526 -0.3604 -0.0659
  682MPD2    C110138   2.734   2.514  10.856 -0.2067 -0.0734 -0.7221
  682MPD2    C210139   2.686   2.458  10.973 -0.4370 -0.0134 -0.4127
  682MPD2    C310140   2.645   2.536  11.078  0.3891  0.2183  0.0498
  682MPD2    C410141   2.646   2.668  11.066 -0.6482 -0.1890 -0.2583
  682MPD2    C510142   2.685   2.725  10.948  0.6650 -0.3183 -0.4051
  682MPD2     H10143   2.687   2.350  10.983 -4.1918 -0.1106 -0.9257
  682MPD2    H110144   2.606   2.731  11.144 -1.8510 -2.1691  0.7094
  682MPD2    H210145   2.771   2.702  10.757 -0.5795 -2.4378 -0.8986
  682MPD2    H310146   2.675   2.833  10.938  0.9329 -0.0846  1.8903
  682MPD2     N10147   2.612   2.485  11.203  0.0196 -0.0218 -0.4078
  682MPD2    H510148   2.595   2.559  11.271  1.1537 -1.4624  1.4292
  682MPD2    N110149   2.808   2.428  10.769 -0.5453 -0.3402  0.2568
  682MPD2    H710150   2.805   2.329  10.792 -0.1672 -0.2480  0.7005
  683TMC3    C110151   2.623   2.366  11.609 -0.6118  0.3307  0.3625
  683TMC3    C210152   2.587   2.237  11.639  0.1975 -0.7688  0.4712
  683TMC3    C310153   2.585   2.144  11.537 -0.5448 -0.3834  0.4635
  683TMC3    C410154   2.619   2.412  11.475 -0.1161  0.3664 -0.5195
  683TMC3    C510155   2.597   2.318  11.379 -0.4217 -0.0842 -0.5266
  683TMC3    C610156   2.577   2.187  11.403 -0.4194  0.5120  0.3873
  683TMC3     C10157   2.653   2.448  11.723  0.6257  0.0997  0.3944
  683TMC3     O10158   2.605   2.561  11.720 -0.4497  0.3352 -0.3792
  683TMC3     H10159   2.592   2.193  11.738  0.2680  0.2032  0.8994
  683TMC3    H110160   2.647   2.513  11.450  1.1111  0.2972  0.6113
  683TMC3    H210161   2.571   2.110  11.327  0.3352  0.1839  0.6662
  683TMC3    C710162   2.614   2.352  11.239 -0.4379  0.9730 -0.0509
  683TMC3    C810163   2.542   2.012  11.570 -0.2412 -0.4836 -0.0434
  683TMC3    O110164   2.648   2.257  11.167  0.1013 -0.0214 -0.1368
  683TMC3    O210165   2.465   1.999  11.663 -0.0219  0.1118  0.3356
  684MPD2     C10166   1.052   1.480  16.653  0.1812  0.0651  0.0757
  684MPD2    C110167   1.080   1.471  16.516  0.7383 -0.6947  0.6178
  684MPD2    C210168   1.129   1.581  16.449  0.3901 -0.4941  0.0459
  684MPD2    C310169   1.158   1.695  16.516  0.3813  0.1767  0.1265
  684MPD2    C410170   1.124   1.703  16.648 -0.1148 -0.7334  0.5788
  684MPD2    C510171   1.073   1.599  16.715  0.0679 -0.4595  0.1675
  684MPD2     H10172   1.165   1.574  16.347 -0.3108  2.8129 -0.4295
  684MPD2    H110173   1.125   1.798  16.699 -0.5259 -0.7600  0.6345
  684MPD2    H210174   1.008   1.392  16.699  2.1767 -0.8237  0.2768
  684MPD2    H310175   1.056   1.614  16.821  0.4740  1.4560 -0.0339
  684MPD2     N10176   1.228   1.802  16.454 -0.5205 -0.1708 -0.0973
  684MPD2    H510177   1.267   1.877  16.509  0.5244 -0.4471 -0.4677
  684MPD2    N110178   1.051   1.358  16.442  0.4318  0.3842  0.6776
  684MPD2    H710179   1.081   1.367  16.345 -1.2651 -1.0431  0.0256
  685TMC3    C110180   1.051   1.137  16.383  0.7056  0.4806  0.4148
  685TMC3    C210181   0.971   1.163  16.278  0.3856  1.0628 -0.1457
  685TMC3    C310182   0.990   1.075  16.167 -0.7013 -0.0596  0.2147
  685TMC3    C410183   1.131   1.030  16.389  0.6666  0.2497  0.8741
  685TMC3    C510184   1.151   0.947  16.283 -0.5038  0.2241 -0.4369
  685TMC3    C610185   1.079   0.967  16.172 -1.1475  0.7527 -0.1378
  685TMC3     C10186   1.039   1.230  16.490 -0.2062  0.5768  0.3552
  685TMC3     O10187   1.061   1.191  16.604 -0.3829  0.9167  0.0482
  685TMC3     H10188   0.909   1.253  16.275  1.2205  1.6311 -0.3327
  685TMC3    H110189   1.185   1.020  16.483  1.7556  1.8364  0.4117
  685TMC3    H210190   1.092   0.905  16.085  3.3969  1.3990  0.0781
  685TMC3    C710191   1.282   0.881  16.279  0.3297 -0.5023 -0.2444
  685TMC3    C810192   0.906   1.089  16.052  0.5833 -0.4719  0.2114
  685TMC3    O110193   1.333   0.886  16.390 -0.5236 -0.4302  0.4272
  685TMC3    O210194   0.924   1.011  15.961 -0.6019 -0.6252  0.2777
  686MPD2     C10195   2.499   1.509  15.684 -0.5278  0.4553 -0.1757
  686MPD2    C110196   2.550   1.417  15.767 -0.7465 -0.6692 -0.4769
  686MPD2    C210197   2.679   1.371  15.745 -0.9040  0.1458  0.2718
  686MPD2    C310198   2.748   1.409  15.630  0.6421 -0.0406 -0.7207
  686MPD2    C410199   2.692   1.500  15.546 -0.3904 -0.4948  0.0901
  686MPD2    C510200   2.576   1.562  15.580  0.2144  0.5763 -0.4195
  686MPD2     H10201   2.726   1.309  15.821  0.1104  2.0040  1.1496
  686MPD2    H110202   2.743   1.531  15.455 -1.0072  0.1493 -0.0373
  686MPD2    H210203   2.399   1.550  15.693 -1.2787 -1.2028 -0.8329
  686MPD2    H310204   2.529   1.629  15.509  0.3573  1.3693  0.2297
  686MPD2     N10205   2.868   1.347  15.592  0.0620  0.5401 -0.5335
  686MPD2    H510206   2.921   1.394  15.519  0.8575  1.1412  0.4293
  686MPD2    N110207   2.460   1.364  15.864  0.1713 -0.0112  0.1813
  686MPD2    H710208   2.373   1.412  15.885  1.4737  2.4638 -0.0853
  687TMC3    C110209   2.845   1.137  15.706 -0.2634  0.4380  0.3572
  687TMC3    C210210   2.742   1.095  15.628 -0.0304  0.3278  1.1696
  687TMC3    C310211   2.691   0.971  15.658  0.0314 -0.3949  0.3357
  687TMC3    C410212   2.902   1.062  15.805  0.5051 -0.0187 -0.4751
  687TMC3    C510213   2.847   0.944  15.829 -0.0727 -0.9823 -0.2896
  687TMC3    C610214   2.734   0.896  15.761 -0.2215  0.1914 -0.1086
  687TMC3     C10215   2.933   1.237  15.642 -0.2585 -0.7880 -0.5066
  687TMC3     O10216   3.035   1.188  15.601 -0.3956  0.0902 -0.4075
  687TMC3     H10217   2.689   1.152  15.553 -3.5976 -1.1472  2.5601
  687TMC3    H110218   2.992   1.095  15.855 -1.0109  0.7064  1.7960
  687TMC3    H210219   2.694   0.796  15.764 -0.8361  0.3873 -1.5422
  687TMC3    C710220   2.913   0.866  15.935  0.5474 -0.0490  0.2401
  687TMC3    C810221   2.541   0.946  15.627 -0.5096 -0.5233 -0.5665
  687TMC3    O110222   3.025   0.898  15.964  0.0629 -0.2115  0.1860
  687TMC3    O210223   2.515   0.831  15.587  0.0444  0.9255  0.1738
  688MPD2     C10224   2.063   0.520  17.365  0.6759 -0.3500 -0.8775
  688MPD2    C110225   2.106   0.391  17.398 -0.2370  0.2952 -0.8284
  688MPD2    C210226   2.192   0.329  17.313 -0.3902  0.2183 -0.1957
  688MPD2    C310227   2.247   0.397  17.203  0.3363 -0.7043  0.6657
  688MPD2    C410228   2.197   0.522  17.183  0.4066  0.4067 -0.5101
  688MPD2    C510229   2.115   0.587  17.264  0.1332 -0.1092  0.1794
  688MPD2     H10230   2.222   0.228  17.338 -1.3111 -0.1582 -0.6025
  688MPD2    H110231   2.235   0.578  17.098  1.7590  1.5754  0.8756
  688MPD2    H210232   1.996   0.573  17.432  1.2784 -1.4544  0.5945
  688MPD2    H310233   2.087   0.690  17.242  1.9686 -0.5528 -4.1245
  688MPD2     N10234   2.343   0.349  17.113 -0.3491  0.1242  0.1786
  688MPD2    H510235   2.372   0.406  17.034  1.3969  0.5686  1.1530
  688MPD2    N110236   2.061   0.317  17.513 -0.4742  0.3002  0.0072
  688MPD2    H710237   2.095   0.221  17.517 -2.4815 -0.4211 -0.1362
  689TMC3    C110238   1.951   0.274  17.713 -0.6860 -0.1851  0.3375
  689TMC3    C210239   1.917   0.334   0.077 -0.0640  1.1129  0.7616
  689TMC3    C310240   1.901   0.257   0.188  0.0008  0.1822 -0.7301
  689TMC3    C410241   1.983   0.137  17.708 -0.3436 -0.5799  0.5341
  689TMC3    C510242   1.960   0.066   0.061  1.0161 -0.0364 -0.0914
  689TMC3    C610243   1.913   0.118   0.176 -0.0725  0.0107 -0.3771
  689TMC3     C10244   1.982   0.373  17.611  0.7318 -0.4330  0.5493
  689TMC3     O10245   1.945   0.484  17.635 -0.0894 -0.0938  0.7360
  689TMC3     H10246   1.907   0.441   0.089 -2.2683  1.1552 -1.3683
  689TMC3    H110247   2.015   0.085  17.618  0.6645  2.0844 -0.6560
  689TMC3    H210248   1.885   0.049   0.255  2.0615 -1.0220 -0.5333
  689TMC3    C710249   1.976   4.662   0.076 -0.1015 -0.4458  0.2454
  689TMC3    C810250   1.829   0.310   0.305 -0.8746 -0.3315  0.1857
  689TMC3    O110251   2.020   4.616   0.184  0.2513 -0.0096  0.0004
  689TMC3    O210252   1.851   0.256   0.411  0.3313 -0.1402  0.1176
  690MPD2     C10253   3.987   1.852  15.729 -0.8841 -0.3247  0.5540
  690MPD2    C110254   3.913   1.825  15.617  0.2284 -0.0946 -0.7950
  690MPD2    C210255   3.967   1.853  15.493 -0.4683  0.1287 -0.1917
  690MPD2    C310256   4.098   1.899  15.485 -0.1880 -0.5061  0.4055
  690MPD2    C410257   4.168   1.928  15.598 -0.5310 -0.6015 -0.3981
  690MPD2    C510258   4.112   1.911  15.718  0.3897 -0.0700 -0.2775
  690MPD2     H10259   3.898   1.840  15.410 -1.0639  1.4774  0.1046
  690MPD2    H110260   4.263   1.977  15.586 -2.1084  2.0542 -1.9861
  690MPD2    H210261   3.943   1.831  15.825 -0.6376 -0.5047  0.6291
  690MPD2    H310262   4.171   1.936  15.805 -1.8854 -0.7779  1.4621
  690MPD2     N10263   4.160   1.908  15.355 -0.7301 -0.0257 -0.3678
  690MPD2    H510264   4.099   1.894  15.275 -0.8120  4.1168 -1.0288
  690MPD2    N110265   3.785   1.770  15.621 -0.0399  0.3203 -0.4347
  690MPD2    H710266   3.748   1.726  15.538  1.7895 -0.9476 -0.5721
  691TMC3    C110267   3.617   1.636  15.720  0.8765 -0.1280 -0.1446
  691TMC3    C210268   3.510   1.635  15.811 -0.0535  0.1522  0.3214
  691TMC3    C310269   3.429   1.523  15.803  0.6821 -0.2289  0.0320
  691TMC3    C410270   3.651   1.530  15.638  0.1885 -0.2082 -0.6799
  691TMC3    C510271   3.567   1.418  15.648  0.2728 -0.2926 -0.2730
  691TMC3    C610272   3.458   1.417  15.724  0.6095 -0.1649 -0.8031
  691TMC3     C10273   3.712   1.746  15.733  0.0275 -0.6755 -0.3114
  691TMC3     O10274   3.714   1.801  15.843  0.1289  0.3361 -0.1181
  691TMC3     H10275   3.489   1.714  15.881 -2.2984  1.8623 -2.2828
  691TMC3    H110276   3.747   1.526  15.588  0.2105 -1.6066 -0.5325
  691TMC3    H210277   3.385   1.338  15.725 -0.0492  0.4366 -1.5514
  691TMC3    C710278   3.631   1.292  15.610 -0.1260 -0.7571 -0.2468
  691TMC3    C810279   3.294   1.528  15.865 -0.2927  0.2617  0.6265
  691TMC3    O110280   3.751   1.297  15.577  0.7663  0.2038  0.0596
  691TMC3    O210281   3.243   1.418  15.881 -0.0138 -0.0353  0.0631
  692TMC3    C110282   0.722   2.857  15.989 -0.1040 -0.0319 -0.5700
  692TMC3    C210283   0.831   2.891  16.069  0.0829 -0.2603  0.4116
  692TMC3    C310284   0.951   2.825  16.053  0.3918 -0.1843  0.6755
  692TMC3    C410285   0.735   2.759  15.896 -0.4748 -0.0606  0.6753
  692TMC3    C510286   0.863   2.716  15.862 -0.1643 -0.8511  0.1487
  692TMC3    C610287   0.970   2.764  15.933 -0.0978  0.6985 -0.3841
  692TMC3     C10288   0.598   2.927  16.003  0.4604 -0.2487  0.3944
  692TMC3     O10289   0.497   2.864  16.016  0.0762  0.5286  0.0561
  692TMC3     H10290   0.821   2.966  16.146 -0.3183 -0.3823  0.4814
  692TMC3    H110291   0.654   2.729  15.831  1.4642 -2.2082 -0.7639
  692TMC3    H210292   1.066   2.715  15.919 -0.1824 -0.3457  2.6190
  692TMC3    C710293   0.868   2.580  15.811 -0.4558  0.1228  0.1956
  692TMC3    C810294   1.055   2.915  16.105  0.4430  0.2566  0.2132
  692TMC3    O110295   0.792   2.549  15.720 -0.4795 -0.1340  0.4277
  692TMC3    O210296   1.102   3.003  16.035  0.4442 -0.1954 -0.1135
  693MPD2     C10297   0.502   1.470  11.117 -0.1667 -0.8049 -0.2789
  693MPD2    C110298   0.436   1.448  11.232  1.4419  0.7101 -0.2597
  693MPD2    C210299   0.493   1.374  11.328  0.4630  0.3945 -0.1624
  693MPD2    C310300   0.620   1.323  11.323 -0.4498  0.5209 -0.3950
  693MPD2    C410301   0.689   1.348  11.201  0.4453  0.1799  0.3800
  693MPD2    C510302   0.636   1.440  11.111  0.3907 -0.3995 -0.3099
  693MPD2     H10303   0.433   1.338  11.411 -0.6156  0.9696 -0.6929
  693MPD2    H110304   0.795   1.329  11.206  0.4566  0.2970  0.5989
  693MPD2    H210305   0.462   1.535  11.040 -0.2214 -0.3105  0.1742
  693MPD2    H310306   0.688   1.463  11.019  0.9739 -0.4954 -0.0106
  693MPD2     N10307   0.681   1.240  11.424 -0.3186  0.6347  0.1279
  693MPD2    H510308   0.780   1.219  11.420 -0.7119 -1.0131 -0.8251
  693MPD2    N110309   0.299   1.477  11.237  0.3110  0.4275  0.1179
  693MPD2    H710310   0.255   1.500  11.148 -2.2280 -1.9987  0.7737
  694TMC3    C110311   0.088   1.461  11.346 -0.0497 -0.4324  0.6207
  694TMC3    C210312   0.032   1.440  11.221  0.3913 -0.1864 -0.4279
  694TMC3    C310313   4.650   1.378  11.216  0.1763  0.5045  0.6942
  694TMC3    C410314   0.021   1.440  11.458 -0.2696 -0.6685 -0.1893
  694TMC3    C510315   4.646   1.372  11.450  0.1367  0.4315 -0.1079
  694TMC3    C610316   4.589   1.335  11.331 -0.3137 -0.0442 -0.1013
  694TMC3     C10317   0.233   1.488  11.357  0.2195  0.1078  0.0008
  694TMC3     O10318   0.277   1.508  11.467 -0.6512 -0.6675 -0.0410
  694TMC3     H10319   0.092   1.455  11.133  2.0733 -0.5056  0.6704
  694TMC3    H110320   0.064   1.442  11.557  0.3976  1.0685 -0.5168
  694TMC3    H210321   4.491   1.289  11.340 -1.2516  1.3593 -3.1185
  694TMC3    C710322   4.591   1.314  11.571 -0.4825  0.1542 -0.6003
  694TMC3    C810323   4.618   1.306  11.090  0.0236  0.5944 -0.0047
  694TMC3    O110324   4.608   1.365  11.680  0.2251 -0.4096  0.2900
  694TMC3    O210325   4.571   1.195  11.100 -0.2070 -0.0635 -0.2744
  695MPD2     C10326   1.909   3.089  13.542 -0.3176 -0.4492  0.0183
  695MPD2    C110327   1.903   3.039  13.669  0.1803 -0.4841 -0.4105
  695MPD2    C210328   1.781   3.003  13.718  0.3103  0.2307 -0.0362
  695MPD2    C310329   1.662   3.042  13.659 -0.6046 -0.3887  0.2148
  695MPD2    C410330   1.668   3.091  13.533  0.0766 -0.0281 -0.6342
  695MPD2    C510331   1.793   3.103  13.474  0.1903  0.0602 -0.1429
  695MPD2     H10332   1.772   2.970  13.821 -0.1210 -1.2138 -0.5328
  695MPD2    H110333   1.580   3.107  13.472  0.1747  0.6485 -0.5972
  695MPD2    H210334   2.001   3.107  13.488 -0.5981 -0.7916 -0.5776
  695MPD2    H310335   1.810   3.128  13.370 -1.1488 -0.2088 -0.4221
  695MPD2     N10336   1.538   3.020  13.720 -0.1846  0.1495 -1.1755
  695MPD2    H510337   1.535   2.980  13.813  0.6203  0.7167 -0.8969
  695MPD2    N110338   2.022   3.022  13.739  0.6641  0.1699  0.0109
  695MPD2    H710339   2.023   2.970  13.827  0.0814 -0.4074 -0.3252
  696TMC3    C110340   1.308   3.025  13.769 -0.2220 -0.1730 -0.1797
  696TMC3    C210341   1.329   2.972  13.894 -0.4215 -0.2089 -0.1947
  696TMC3    C310342   1.223   2.985  13.986 -0.6585 -0.0433  0.3170
  696TMC3    C410343   1.186   3.078  13.736  0.7362 -0.7715  0.4472
  696TMC3    C510344   1.101   3.100  13.838 -0.1540  0.1501  0.1400
  696TMC3    C610345   1.111   3.052  13.963  0.1520  0.2226 -0.4275
  696TMC3     C10346   1.411   3.041  13.669  0.6281 -0.4247 -0.9553
  696TMC3     O10347   1.369   3.082  13.556 -0.2071 -0.4339 -0.1252
  696TMC3     H10348   1.419   2.925  13.930 -2.7881 -3.4352  1.5044
  696TMC3    H110349   1.165   3.117  13.637 -0.6977 -0.1646  0.9905
  696TMC3    H210350   1.020   3.030  14.018  1.3302 -1.4375  0.8566
  696TMC3    C710351   0.985   3.181  13.799 -0.3782 -0.0644 -0.2198
  696TMC3    C810352   1.271   2.989  14.121 -0.1937  0.4254 -0.2312
  696TMC3    O110353   0.958   3.198  13.682  0.3231 -0.0416 -0.0207
  696TMC3    O210354   1.217   3.083  14.184  0.2981 -0.1664 -0.3951
  697MPD2     C10355   0.358   4.485  15.982  0.2143 -0.6898 -0.4793
  697MPD2    C110356   0.399   4.441  15.862 -0.4640 -0.4349 -0.0528
  697MPD2    C210357   0.449   4.531  15.771  0.4992  0.5204  0.3432
  697MPD2    C310358   0.449   4.666  15.793  0.9887  0.8015 -0.1468
  697MPD2    C410359   0.393   4.714  15.908 -0.1385 -0.9209 -0.1901
  697MPD2    C510360   0.353   4.622  15.998  0.0256 -0.8340 -0.3736
  697MPD2     H10361   0.496   4.498  15.679 -0.6702  0.1746 -0.1200
  697MPD2    H110362   0.366   0.074  15.934  3.2327 -0.2502  0.6809
  697MPD2    H210363   0.313   4.427  16.062  2.1014 -1.2844  0.1449
  697MPD2    H310364   0.311   4.665  16.088 -0.4149 -1.0021 -0.4993
  697MPD2     N10365   0.500   0.010  15.688  0.1124 -0.0749  0.5082
  697MPD2    H510366   0.531   4.711  15.600  1.3219 -0.5045  1.1333
  697MPD2    N110367   0.386   4.305  15.819  0.2128  0.2137  0.1780
  697MPD2    H710368   0.419   4.281  15.726 -0.2756 -0.1096  0.0880
  698TMC3    C110369   0.594   0.206  15.596 -0.3966 -0.2021 -0.2078
  698TMC3    C210370   0.706   0.277  15.629  0.1227 -0.1955 -0.4599
  698TMC3    C310371   0.790   0.322  15.528 -0.3451 -0.1125  0.1005
  698TMC3    C410372   0.568   0.177  15.465 -0.1680  0.2929 -0.1049
  698TMC3    C510373   0.649   0.234  15.364 -0.2310  0.0094  0.2245
  698TMC3    C610374   0.761   0.301  15.395  0.3137  0.2128 -0.2613
  698TMC3     C10375   0.522   0.140  15.706  0.4913  0.3793  0.4294
  698TMC3     O10376   0.507   0.208  15.805  0.0104 -0.1052  0.8200
  698TMC3     H10377   0.728   0.279  15.735  2.7614  0.6461 -1.0368
  698TMC3    H110378   0.504   0.096  15.433 -1.4173 -0.5905  4.5400
  698TMC3    H210379   0.822   0.346  15.317  1.9018 -1.0936  0.2260
  698TMC3    C710380   0.638   0.190  15.224  0.5916  0.3753 -0.3277
  698TMC3    C810381   0.920   0.374  15.567  0.6125  0.0379  0.0340
  698TMC3    O110382   0.528   0.149  15.187  0.6110  0.0874  0.6278
  698TMC3    O210383   0.965   0.345  15.677  0.1220  0.1243 -0.0611
  699TMC3    C110384   0.760   3.269  13.296 -0.1979  0.3946  0.3353
  699TMC3    C210385   0.798   3.148  13.357 -0.5632 -0.6606  0.1314
  699TMC3    C310386   0.741   3.107  13.478 -0.0541  0.4284 -0.2031
  699TMC3    C410387   0.650   3.331  13.340 -0.2961 -0.1034  0.5875
  699TMC3    C510388   0.593   3.286  13.455  0.2453 -0.9618 -0.0420
  699TMC3    C610389   0.640   3.184  13.534  0.7249 -0.1649 -0.7200
  699TMC3     C10390   0.850   3.337  13.202  0.0757  0.4942  0.1882
  699TMC3     O10391   0.817   3.444  13.160  0.4163 -0.9145  0.1222
  699TMC3     H10392   0.863   3.083  13.300 -0.4307 -0.0613 -0.4090
  699TMC3    H110393   0.612   3.413  13.280  0.9065 -0.2177 -0.3203
  699TMC3    H210394   0.583   3.148  13.618  1.3548  0.2340 -0.1272
  699TMC3    C710395   0.455   3.313  13.487  0.3394 -0.2203 -0.0619
  699TMC3    C810396   0.770   2.985  13.539 -0.4612  0.1318  0.3944
  699TMC3    O110397   0.409   3.291  13.598  0.3458 -0.3197  0.2270
  699TMC3    O210398   0.690   2.953  13.622  0.3336 -0.0884  0.0867
  700TMC3    C110399   4.603   0.148  17.391  1.0016 -0.2147 -0.4042
  700TMC3    C210400   4.655   0.024  17.367  0.0977 -0.6415  0.6834
  700TMC3    C310401   0.018   4.728  17.443  0.0059  0.0126  0.3480
  700TMC3    C410402   4.654   0.224  17.492  1.1659  0.2263  0.2933
  700TMC3    C510403   0.014   0.172  17.567 -0.9104 -0.1766 -1.1875
  700TMC3    C610404   0.070   0.055  17.544 -0.2868 -0.4152  0.3029
  700TMC3     C10405   4.563   0.221  17.269  0.3117  0.4014 -0.2383
  700TMC3     O10406   4.528   0.153  17.173 -0.5936 -0.9943 -0.5275
  700TMC3     H10407   4.625   4.709  17.280  1.4240  1.7499 -1.3283
  700TMC3    H110408   4.610   0.319  17.520 -0.0948 -0.0831 -0.6162
  700TMC3    H210409   0.160   0.024  17.596 -0.4288 -1.2776  0.0333
  700TMC3    C710410   0.048   0.253  17.684  1.0600 -0.0319 -0.8236
  700TMC3    C810411   0.104   4.639  17.377 -1.1659 -0.3815 -0.1803
  700TMC3    O110412   4.726   0.359  17.698 -0.4437  0.2211  0.0579
  700TMC3    O210413   0.224   4.660  17.370 -0.0752 -0.1779 -0.0621
  701TMC3    C110414   4.370   3.616  15.658  0.1293  0.0161  0.5891
  701TMC3    C210415   4.416   3.565  15.538  0.3791  0.3644  0.3171
  701TMC3    C310416   4.522   3.630  15.479  0.3136  0.1053  0.6325
  701TMC3    C410417   4.435   3.709  15.727 -0.2856 -0.1651 -0.1836
  701TMC3    C510418   4.545   3.764  15.665  0.3891 -1.1260  0.5540
  701TMC3    C610419   4.594   3.722  15.541  0.7868  0.5395 -0.5331
  701TMC3     C10420   4.243   3.556  15.701  0.1559 -0.1981 -0.1792
  701TMC3     O10421   4.225   3.437  15.675 -0.2854 -0.3900 -0.3020
  701TMC3     H10422   4.361   3.499  15.471  1.0748  0.3676 -0.2567
  701TMC3    H110423   4.403   3.739  15.826  0.7236  0.2270  0.0243
  701TMC3    H210424   4.675   3.773  15.490  0.4149  0.0785 -1.5626
  701TMC3    C710425   4.595   3.896  15.705  0.2374  0.5257 -0.3560
  701TMC3    C810426   4.518   3.644  15.338 -0.2342 -0.5967 -0.0472
  701TMC3    O110427   4.661   3.960  15.622  0.1318 -0.0543 -0.2811
  701TMC3    O210428   4.624   3.649  15.274 -0.4929 -0.3464  0.0659
  702MPD2     C10429   4.381   2.256  10.342  0.3216 -0.2318 -0.3152
  702MPD2    C110430   4.273   2.244  10.429  0.0785  0.0044  0.7651
  702MPD2    C210431   4.178   2.347  10.436  0.2082 -0.2708  0.9119
  702MPD2    C310432   4.192   2.467  10.360 -0.0201  0.0193 -0.9299
  702MPD2    C410433   4.302   2.470  10.273  0.3732  0.6023  0.4297
  702MPD2    C510434   4.398   2.370  10.268 -0.1277 -0.4308  0.5245
  702MPD2     H10435   4.112   2.335  10.522  0.1017 -4.7995  0.1824
  702MPD2    H110436   4.319   2.546  10.197 -0.4257  2.0234  1.6629
  702MPD2    H210437   4.461   2.183  10.336  0.1065 -0.5013  0.1488
  702MPD2    H310438   4.476   2.374  10.194 -0.3195  0.5145  0.3717
  702MPD2     N10439   4.106   2.573  10.363  0.2220 -0.2144 -0.2140
  702MPD2    H510440   4.120   2.656  10.306  2.7883 -0.3391  0.2643
  702MPD2    N110441   4.255   2.136  10.520 -0.2789  0.0339 -0.3239
  702MPD2    H710442   4.171   2.144  10.576 -0.2009  2.9766 -0.6359
  703TMC3    C110443   3.940   2.711  10.462  0.2361 -0.4385  1.0449
  703TMC3    C210444   3.861   2.710  10.577  0.2937  0.4285 -1.0096
  703TMC3    C310445   3.904   2.784  10.685  0.1996  0.3013 -0.6754
  703TMC3    C410446   4.045   2.796  10.457 -0.2722  0.3631 -0.4167
  703TMC3    C510447   4.087   2.864  10.569  0.3876 -0.1025 -0.0933
  703TMC3    C610448   4.016   2.862  10.687 -0.6984  0.2938 -0.8673
  703TMC3     C10449   3.992   2.575  10.441 -0.2379  0.0123 -0.4223
  703TMC3     O10450   3.922   2.491  10.496 -0.4468 -0.2285 -0.4871
  703TMC3     H10451   3.767   2.656  10.579  0.3014  0.4539 -0.0545
  703TMC3    H110452   4.104   2.815  10.369  2.0398  0.1384  1.0689
  703TMC3    H210453   4.040   2.928  10.770 -2.8443  0.2940 -0.2591
  703TMC3    C710454   4.227   2.907  10.561 -0.3511 -1.0127  0.9616
  703TMC3    C810455   3.811   2.805  10.795  0.5328 -0.1643 -0.1830
  703TMC3    O110456   4.288   2.895  10.457  0.1107  0.3456  0.1019
  703TMC3    O210457   3.858   2.888  10.875  0.3914 -0.4404 -0.0259
  704TMC3    C110458   2.001   0.214  12.762  0.4246 -0.3971  0.2668
  704TMC3    C210459   1.982   0.247  12.634  0.9110 -0.2357  0.5682
  704TMC3    C310460   2.093   0.249  12.554 -0.2432  0.3287 -0.2600
  704TMC3    C410461   2.123   0.203  12.819 -0.1901 -0.3207  0.1455
  704TMC3    C510462   2.235   0.208  12.738 -0.0524  0.3622  0.2219
  704TMC3    C610463   2.219   0.246  12.606 -0.0615  0.0367  0.1807
  704TMC3     C10464   1.894   0.138  12.827  0.3774  0.4572 -0.0100
  704TMC3     O10465   1.909   0.102  12.942  0.4128 -0.7885  0.4461
  704TMC3     H10466   1.881   0.270  12.601  1.1513  0.8431  0.5780
  704TMC3    H110467   2.138   0.167  12.920  0.2821 -2.5544 -0.7072
  704TMC3    H210468   2.300   0.225  12.537  0.1978 -1.0419  0.8141
  704TMC3    C710469   2.301   0.082  12.757  0.2095  0.3921  0.3336
  704TMC3    C810470   2.058   0.166  12.447 -0.4644 -0.1164 -0.8131
  704TMC3    O110471   2.243   4.729  12.702  0.8584 -0.4538 -0.3647
  704TMC3    O210472   1.968   0.090  12.473  0.4636 -0.6259 -0.1506
  705MPD2     C10473   1.049   2.171  16.349 -0.8741 -0.0501 -0.0578
  705MPD2    C110474   1.055   2.292  16.422 -0.0314  0.3152 -0.6766
  705MPD2    C210475   0.938   2.336  16.485  0.7340  0.3084 -0.8460
  705MPD2    C310476   0.812   2.273  16.451  1.0248  0.2909 -0.2122
  705MPD2    C410477   0.819   2.157  16.381  0.6280  0.6221  1.1386
  705MPD2    C510478   0.933   2.101  16.335 -0.5580 -0.1505  0.0273
  705MPD2     H10479   0.936   2.423  16.550  0.0599 -1.3381  1.3006
  705MPD2    H110480   0.730   2.098  16.364  0.8402  0.4583  0.5891
  705MPD2    H210481   1.134   2.143  16.287  0.3968  1.7412  0.8638
  705MPD2    H310482   0.936   2.013  16.272 -2.9699 -0.1266 -0.0879
  705MPD2     N10483   0.686   2.329  16.486 -0.7907  0.1095  0.5243
  705MPD2    H510484   0.603   2.291  16.441  0.2316 -0.0588 -1.1979
  705MPD2    N110485   1.173   2.366  16.443 -0.6398 -0.3009  0.4945
  705MPD2    H710486   1.167   2.455  16.491  2.7791  0.6774 -0.8681
  706TMC3    C110487   1.615   2.515  16.345  0.0243 -0.0077  0.0968
  706TMC3    C210488   1.577   2.642  16.375 -0.1211  0.5729 -0.5854
  706TMC3    C310489   1.446   2.668  16.387 -0.3214 -0.3359 -0.0395
  706TMC3    C410490   1.524   2.414  16.352  0.0340 -0.0200 -0.0161
  706TMC3    C510491   1.396   2.443  16.382 -0.5660  0.4530 -0.3741
  706TMC3    C610492   1.348   2.574  16.386  0.3570 -0.0530 -0.6347
  706TMC3     C10493   1.746   2.487  16.290  0.6604  0.8156  0.4798
  706TMC3     O10494   1.840   2.544  16.335 -0.9438  0.2779 -0.0835
  706TMC3     H10495   1.647   2.724  16.371  1.6274 -0.6014  5.0824
  706TMC3    H110496   1.559   2.312  16.346  1.7511  0.5395  0.6898
  706TMC3    H210497   1.246   2.610  16.395 -0.0567 -1.2653 -0.4985
  706TMC3    C710498   1.300   2.339  16.380  0.1490  0.0668  0.5787
  706TMC3    C810499   1.411   2.786  16.310 -1.1684  0.7995  0.5243
  706TMC3    O110500   1.336   2.240  16.316 -0.5073  0.4296  0.2878
  706TMC3    O210501   1.326   2.772  16.221 -0.1380  0.2467 -0.1922
  707TMC3    C110502   3.069   1.984   0.733  0.2246  0.0147  1.0473
  707TMC3    C210503   3.063   1.863   0.666  0.2722 -0.0319 -0.3065
  707TMC3    C310504   3.007   1.868   0.540 -0.7404 -0.4556  0.3408
  707TMC3    C410505   3.031   2.104   0.671  0.0625  0.3858 -0.3384
  707TMC3    C510506   2.985   2.099   0.544 -1.1114  0.1806 -0.3909
  707TMC3    C610507   2.974   1.985   0.473  0.4089 -0.1058  0.0067
  707TMC3     C10508   3.141   1.980   0.858 -0.4365 -1.0252  0.6607
  707TMC3     O10509   3.237   1.900   0.863 -0.2814  0.2370 -0.2124
  707TMC3     H10510   3.100   1.773   0.713  3.2987  1.7196  0.6341
  707TMC3    H110511   3.049   2.199   0.720 -3.2022  0.1066  1.4278
  707TMC3    H210512   2.931   1.979   0.374 -1.1985 -1.3208  0.7818
  707TMC3    C710513   2.947   2.230   0.484 -0.1671 -0.4353 -0.1835
  707TMC3    C810514   3.019   1.750   0.458 -0.0639 -0.6934  0.3358
  707TMC3    O110515   2.959   2.331   0.548 -0.0857  0.2758 -0.5902
  707TMC3    O210516   3.026   1.767   0.339 -0.0062 -0.8100  0.0525
  708MPD2     C10517   4.390   0.826  13.976 -0.1047  0.2076 -0.0347
  708MPD2    C110518   4.291   0.914  14.028 -0.1507 -0.6051  0.0463
  708MPD2    C210519   4.216   0.871  14.134  0.0055  0.7269 -0.4055
  708MPD2    C310520   4.233   0.740  14.189 -0.2046  0.3041  0.6483
  708MPD2    C410521   4.332   0.659  14.138 -0.1830  0.2829  0.1102
  708MPD2    C510522   4.408   0.700  14.029 -0.1838  0.2097  0.1971
  708MPD2     H10523   4.133   0.930  14.170  0.2681  1.4267 -0.9438
  708MPD2    H110524   4.339   0.559  14.180 -0.4464 -0.1196 -0.8209
  708MPD2    H210525   4.469   0.866  13.913  0.2616  0.7441  0.7696
  708MPD2    H310526   4.491   0.635  14.004  0.1376  0.9162 -0.5483
  708MPD2     N10527   4.155   0.697  14.304  0.3945  0.1528 -0.3556
  708MPD2    H510528   4.182   0.609  14.347 -0.1879 -0.1665 -0.6434
  708MPD2    N110529   4.271   1.037  13.961 -0.1081  0.3289  0.0599
  708MPD2    H710530   4.315   1.068  13.874 -0.3676 -0.9432 -0.5142
  709TMC3    C110531   4.179   1.269  13.947  0.4416  0.0895  0.1788
  709TMC3    C210532   4.095   1.236  13.846  0.4083 -0.0992  0.0637
  709TMC3    C310533   3.973   1.302  13.832 -0.5243 -1.1697  0.1266
  709TMC3    C410534   4.142   1.368  14.037 -0.7198 -0.4935  0.1971
  709TMC3    C510535   4.020   1.426  14.027  0.6302 -0.3684 -0.5872
  709TMC3    C610536   3.942   1.398  13.919  0.1176 -0.2390  0.1096
  709TMC3     C10537   4.224   1.152  14.029  0.2722 -0.2666 -0.1280
  709TMC3     O10538   4.223   1.163  14.149  0.0923 -0.1761  0.1220
  709TMC3     H10539   4.126   1.150  13.786 -0.5967 -1.2230  1.1487
  709TMC3    H110540   4.199   1.384  14.128 -0.0986  1.8563 -0.6043
  709TMC3    H210541   3.856   1.462  13.907  0.9403  0.8089 -0.1171
  709TMC3    C710542   3.949   1.414  14.155  0.2411  0.2075 -0.4213
  709TMC3    C810543   3.867   1.230  13.760 -0.3032  0.5005  0.8072
  709TMC3    O110544   4.021   1.430  14.252 -0.6564 -0.4964  0.2303
  709TMC3    O210545   3.753   1.256  13.793 -0.2520 -0.6542 -0.1487
  710TMC3    C110546   1.172   2.424   0.317 -0.2178 -0.1619 -0.1188
  710TMC3    C210547   1.258   2.394   0.216 -0.3680 -1.5256 -0.2900
  710TMC3    C310548   1.370   2.320   0.236  0.2830  0.0281  0.6809
  710TMC3    C410549   1.190   2.369   0.440 -0.1804  0.2074 -0.6206
  710TMC3    C510550   1.294   2.280   0.449  1.0601 -0.3030  0.9238
  710TMC3    C610551   1.382   2.253   0.356  0.6631  0.8563  1.0009
  710TMC3     C10552   1.033   2.440   0.273 -0.3753  0.1916 -0.1864
  710TMC3     O10553   1.010   2.398   0.159 -0.0880 -0.0259  0.3939
  710TMC3     H10554   1.255   2.445   0.120 -0.9652 -2.8262 -0.9603
  710TMC3    H110555   1.114   2.379   0.517  1.0487 -2.9914  0.9952
  710TMC3    H210556   1.468   2.197   0.392  0.3804 -0.8751 -1.0308
  710TMC3    C710557   1.311   2.217   0.577 -0.2743  0.1910 -0.5017
  710TMC3    C810558   1.465   2.300   0.128  0.0573 -0.1161  0.3557
  710TMC3    O110559   1.362   2.106   0.584 -0.2142 -0.4946  0.1449
  710TMC3    O210560   1.458   2.371   0.025  0.2787 -0.4764 -0.1118
  711TMC3    C110561   0.099   3.432  15.247 -0.0460  0.5328  0.2788
  711TMC3    C210562   0.098   3.424  15.388 -0.1833  0.2609 -0.0550
  711TMC3    C310563   0.207   3.485  15.446  0.5379  0.4334 -0.1549
  711TMC3    C410564   0.195   3.501  15.178  0.3200 -0.0135  0.6331
  711TMC3    C510565   0.302   3.547  15.244  0.4650  0.1602  0.4211
  711TMC3    C610566   0.301   3.562  15.385  0.3792  0.0077 -0.0993
  711TMC3     C10567   0.003   3.362  15.168 -0.7680  0.5689 -0.4927
  711TMC3     O10568   0.016   3.365  15.046  0.1037 -0.5395  0.8363
  711TMC3     H10569   0.033   3.377  15.461  1.4373 -0.1051  1.1641
  711TMC3    H110570   0.188   3.508  15.071 -1.7184  0.7018  0.8180
  711TMC3    H210571   0.395   3.592  15.432  0.8091 -0.9698 -0.3324
  711TMC3    C710572   0.418   3.463  15.213 -0.7683  0.4280 -0.8497
  711TMC3    C810573   0.274   3.437  15.559 -0.2933  0.3638 -0.1052
  711TMC3    O110574   0.521   3.475  15.276 -0.1908 -0.0244  0.0956
  711TMC3    O210575   0.332   3.509  15.638 -0.7595  0.5392  0.3379
  712MPD2     C10576   1.808   4.541  13.400  0.0617 -0.1567 -0.3524
  712MPD2    C110577   1.689   4.589  13.453  0.3037  0.1023  0.6190
  712MPD2    C210578   1.695   4.687  13.547  0.1300 -0.6079 -0.1130
  712MPD2    C310579   1.816   4.730  13.600 -0.2134 -0.6652 -0.3551
  712MPD2    C410580   1.934   4.672  13.555  0.3406 -0.4564 -0.8044
  712MPD2    C510581   1.926   4.582  13.454 -0.1446  0.5091  1.1391
  712MPD2     H10582   1.600   4.716  13.589 -0.3764 -0.4062 -1.3836
  712MPD2    H110583   2.028   4.689  13.606 -0.6163  0.7714  0.5622
  712MPD2    H210584   1.807   4.469  13.319  2.4722 -1.8610  1.1450
  712MPD2    H310585   2.005   4.515  13.424 -0.7044  0.6152 -0.6001
  712MPD2     N10586   1.824   0.090  13.701 -0.0097  0.2678  0.8299
  712MPD2    H510587   1.921   0.121  13.711 -1.2007  3.8148  1.3878
  712MPD2    N110588   1.559   4.550  13.414  0.6421 -0.0662  0.3192
  712MPD2    H710589   1.481   4.599  13.456  2.0609 -0.4811  3.3789
  713TMC3    C110590   1.752   0.281  13.824  0.7414 -0.4334  0.5010
  713TMC3    C210591   1.882   0.296  13.874  0.3617  0.1999 -0.3624
  713TMC3    C310592   1.904   0.408  13.944  0.8028  0.9128  0.3675
  713TMC3    C410593   1.656   0.377  13.841  0.1637  0.4787 -0.1452
  713TMC3    C510594   1.685   0.491  13.912  0.2813  0.0443  0.5179
  713TMC3    C610595   1.806   0.498  13.977  0.8632 -0.4305  0.2161
  713TMC3     C10596   1.716   0.158  13.747  0.1660  0.1575 -0.1444
  713TMC3     O10597   1.597   0.144  13.736  0.1374  0.3611 -0.4396
  713TMC3     H10598   1.959   0.223  13.854  0.0275  0.1001 -1.2819
  713TMC3    H110599   1.562   0.362  13.790 -1.4830 -1.3807  3.4203
  713TMC3    H210600   1.836   0.582  14.039  1.5509  0.1122 -0.8540
  713TMC3    C710601   1.567   0.536  13.988  0.1217 -0.4006 -0.5166
  713TMC3    C810602   2.029   0.467  13.937  0.6979 -0.3596  0.3820
  713TMC3    O110603   1.593   0.566  14.100  0.7295 -0.4969 -0.6566
  713TMC3    O210604   2.033   0.591  13.942  1.0021 -0.2927 -0.5378
  714MPD2     C10605   4.244   3.141   1.729  0.3145  0.1959  0.2141
  714MPD2    C110606   4.255   3.116   1.596 -0.0291  0.2251  0.2253
  714MPD2    C210607   4.139   3.138   1.519  0.1168  0.5750  0.2551
  714MPD2    C310608   4.021   3.168   1.578 -0.0009  0.3171  0.1162
  714MPD2    C410609   4.009   3.165   1.714  0.4151  0.4888  0.9003
  714MPD2    C510610   4.125   3.162   1.795 -0.0135 -0.3920 -0.7339
  714MPD2     H10611   4.149   3.134   1.411  2.0689 -1.8486  0.5428
  714MPD2    H110612   3.920   3.182   1.775 -0.5543  1.4185 -0.7848
  714MPD2    H210613   4.332   3.136   1.792 -0.1648 -0.0335  0.8618
  714MPD2    H310614   4.119   3.178   1.902 -1.8842 -0.4153 -0.8380
  714MPD2     N10615   3.906   3.182   1.500  0.2838 -0.3219 -0.0027
  714MPD2    H510616   3.913   3.172   1.399 -3.9352 -1.8059 -0.1482
  714MPD2    N110617   4.382   3.069   1.535  0.1716 -0.1903 -0.1782
  714MPD2    H710618   4.461   3.058   1.598 -0.3663  1.6770  0.8370
  715TMC3    C110619   4.525   2.939   1.401 -0.0453  0.0700 -0.1618
  715TMC3    C210620   4.543   2.842   1.305  0.0984 -0.1164  0.1214
  715TMC3    C310621   4.670   2.811   1.267  0.7312  0.0771  0.0424
  715TMC3    C410622   4.637   3.007   1.449  0.2562 -0.2623  0.3679
  715TMC3    C510623   0.017   2.961   1.428  0.1178  0.7509 -0.2497
  715TMC3    C610624   0.039   2.872   1.326 -0.3884  0.6803  0.5289
  715TMC3     C10625   4.390   2.993   1.420  0.0179  0.1587  0.2888
  715TMC3     O10626   4.307   2.952   1.340  0.0993 -0.1631  0.3389
  715TMC3     H10627   4.463   2.777   1.271 -0.2335  0.6307 -0.5333
  715TMC3    H110628   4.620   3.100   1.503  0.4427 -0.5087  0.8563
  715TMC3    H210629   0.139   2.836   1.306 -1.3551 -1.4704 -0.3817
  715TMC3    C710630   0.132   3.046   1.463 -0.0283  0.0938 -0.0043
  715TMC3    C810631   4.695   2.683   1.209 -0.2816  0.2742 -0.1925
  715TMC3    O110632   0.211   3.047   1.371 -0.4474 -0.0302 -0.4205
  715TMC3    O210633   4.606   2.601   1.208 -0.1517 -0.5174  0.5316
  716MPD2     C10634   3.702   1.902  10.079 -0.1009  0.2779 -0.2315
  716MPD2    C110635   3.752   1.972   9.974 -0.9830  0.6656  0.1062
  716MPD2    C210636   3.859   1.925   9.902 -0.7823  0.0234 -0.0683
  716MPD2    C310637   3.932   1.818   9.946 -0.2431 -0.1585  0.0264
  716MPD2    C410638   3.887   1.746  10.055 -0.0999 -0.9135 -0.0817
  716MPD2    C510639   3.778   1.796  10.127 -0.2869 -0.4001 -0.1061
  716MPD2     H10640   3.883   1.979   9.811 -1.5529  0.8922  0.2391
  716MPD2    H110641   3.943   1.661  10.093  0.3816 -0.6274 -0.1473
  716MPD2    H210642   3.618   1.927  10.142  0.6197  2.7696 -0.2824
  716MPD2    H310643   3.742   1.735  10.210  0.0165 -0.3959  0.0296
  716MPD2     N10644   4.046   1.772   9.877  0.4814  0.7322  0.9983
  716MPD2    H510645   4.063   1.837   9.801 -1.5907  0.7154  0.5139
  716MPD2    N110646   3.678   2.088   9.930 -0.5431  0.3155 -0.4317
  716MPD2    H710647   3.612   2.130   9.995  0.8148  2.4615 -0.4248
  717TMC3    C110648   4.199   1.623   9.780 -0.5639 -0.0858  0.0059
  717TMC3    C210649   4.177   1.661   9.649 -0.0145  0.3279  0.9857
  717TMC3    C310650   4.268   1.622   9.554  0.4329 -0.4437  0.5304
  717TMC3    C410651   4.308   1.555   9.816  0.7139 -0.2979  0.6699
  717TMC3    C510652   4.401   1.517   9.722 -0.0574 -0.0247  0.4371
  717TMC3    C610653   4.382   1.548   9.590 -0.2166 -0.3829  0.5460
  717TMC3     C10654   4.105   1.652   9.886  0.1149 -0.5366 -0.2698
  717TMC3     O10655   4.092   1.558   9.966  0.3362  0.8030 -0.4513
  717TMC3     H10656   4.080   1.706   9.629  0.6758  1.5072  0.2909
  717TMC3    H110657   4.315   1.523   9.920  0.8329 -0.8089  0.5040
  717TMC3    H210658   4.453   1.518   9.514 -1.3871 -2.1085  0.1308
  717TMC3    C710659   4.527   1.456   9.762  0.0065 -0.1104 -0.1971
  717TMC3    C810660   4.208   1.586   9.431  0.1161  0.0167  0.2489
  717TMC3    O110661   4.598   1.408   9.672 -0.7813  0.1444 -0.1563
  717TMC3    O210662   4.108   1.512   9.436 -0.8367  0.0760  0.0233
  718MPD2     C10663   3.001   0.758  12.712  0.1022 -0.1794  0.2225
  718MPD2    C110664   2.990   0.624  12.696  0.2400 -0.0067  0.4567
  718MPD2    C210665   2.988   0.539  12.802  0.0632 -0.4643 -0.2127
  718MPD2    C310666   2.983   0.593  12.930  0.2312 -1.1089 -0.3138
  718MPD2    C410667   2.989   0.730  12.948 -0.7983  0.9034 -0.0229
  718MPD2    C510668   2.991   0.812  12.839  0.1815  0.3132 -0.5945
  718MPD2     H10669   2.996   0.432  12.786  0.9368 -0.5898  1.0436
  718MPD2    H110670   2.986   0.776  13.046 -0.3505  1.5220 -0.3015
  718MPD2    H210671   3.001   0.828  12.630  1.4463  1.1343  1.3334
  718MPD2    H310672   2.982   0.918  12.859  0.8495  0.4558 -1.0230
  718MPD2     N10673   2.975   0.500  13.039  0.5269 -0.0454  0.5800
  718MPD2    H510674   2.976   0.404  13.006  2.5059 -0.1600  0.9555
  718MPD2    N110675   2.982   0.578  12.563  0.0405  0.1438 -0.1666
  718MPD2    H710676   2.992   0.640  12.483 -0.5645 -0.1798 -0.4915
  719TMC3    C110677   2.983   0.388  12.412  0.8851 -0.2505  0.4347
  719TMC3    C210678   2.901   0.289  12.388 -0.1045  0.1153 -0.5918
  719TMC3    C310679   2.956   0.170  12.347 -0.2285  0.3705  0.2535
  719TMC3    C410680   3.113   0.382  12.394  0.6745  0.3937 -0.3532
  719TMC3    C510681   3.165   0.269  12.345  0.1506  0.3899  0.3669
  719TMC3    C610682   3.090   0.158  12.321  0.9556  0.3729  0.2877
  719TMC3     C10683   2.947   0.444  12.542 -0.3976 -0.1754 -0.8605
  719TMC3     O10684   2.886   0.363  12.612  0.3389 -0.2102  0.9427
  719TMC3     H10685   2.794   0.299  12.400 -0.1094  0.7039 -1.1606
  719TMC3    H110686   3.177   0.464  12.426 -0.0513  0.2793  1.4318
  719TMC3    H210687   3.123   0.059  12.291  1.3172  1.1979 -2.0510
  719TMC3    C710688   3.312   0.261  12.334 -0.4861 -0.2913 -0.6824
  719TMC3    C810689   2.903   0.049  12.412  0.0885  0.9513  0.3017
  719TMC3    O110690   3.381   0.358  12.309  0.2679 -0.6087  0.6927
  719TMC3    O210691   2.945   4.679  12.386  0.4463 -0.1128 -0.7064
  720MPD2     C10692   1.621   1.756  14.206  0.4259 -0.0063 -0.7489
  720MPD2    C110693   1.731   1.795  14.135 -0.3783  0.1208 -0.2653
  720MPD2    C210694   1.848   1.811  14.204 -0.0376 -0.0831  0.5901
  720MPD2    C310695   1.860   1.795  14.343  0.5340  0.5249  0.5394
  720MPD2    C410696   1.744   1.760  14.415  0.1490  0.1893 -0.4278
  720MPD2    C510697   1.629   1.742  14.341 -0.0501 -0.3316 -0.8460
  720MPD2     H10698   1.933   1.852  14.150  1.3174 -0.4652  2.4623
  720MPD2    H110699   1.748   1.729  14.519  2.5371 -0.7987 -0.8016
  720MPD2    H210700   1.522   1.759  14.161 -0.6538 -1.5680  1.5377
  720MPD2    H310701   1.541   1.716  14.399  0.3014  3.4015  1.3595
  720MPD2     N10702   1.989   1.811  14.399  0.4175 -0.6716  0.1589
  720MPD2    H510703   2.056   1.851  14.334  0.5180 -0.6345  0.2852
  720MPD2    N110704   1.734   1.821  13.993  0.4086 -0.6211 -0.3397
  720MPD2    H710705   1.825   1.832  13.949  0.6537  0.6885  0.5240
  721TMC3    C110706   2.158   1.826  14.562 -0.8437  0.4465  0.2772
  721TMC3    C210707   2.192   1.806  14.695  0.2981 -0.2253 -0.5289
  721TMC3    C310708   2.320   1.827  14.736  0.5543 -0.6037  0.2783
  721TMC3    C410709   2.251   1.849  14.461 -0.1520 -0.5715 -0.2382
  721TMC3    C510710   2.380   1.842  14.511 -0.4327  0.3052  0.1995
  721TMC3    C610711   2.421   1.827  14.642 -0.2495 -0.1120 -0.4273
  721TMC3     C10712   2.018   1.798  14.534 -0.2126 -0.1262 -0.4748
  721TMC3     O10713   1.946   1.761  14.625  0.4058  0.0280  0.2300
  721TMC3     H10714   2.117   1.803  14.773  1.2105 -1.0314  0.3222
  721TMC3    H110715   2.236   1.837  14.355 -1.0180  0.2888 -0.2051
  721TMC3    H210716   2.525   1.848  14.666 -0.8045  2.6067 -0.4318
  721TMC3    C710717   2.485   1.804  14.419 -0.1080  0.2223  0.0735
  721TMC3    C810718   2.360   1.860  14.868  0.0526  0.2414  0.0591
  721TMC3    O110719   2.478   1.848  14.306  0.0276 -0.0909 -0.1196
  721TMC3    O210720   2.467   1.918  14.869 -0.1985 -0.0537  0.1124
  722MPD2     C10721   0.737   0.466  13.154 -0.3900  0.0242 -0.7360
  722MPD2    C110722   0.636   0.555  13.192  0.5152  0.9689 -0.0467
  722MPD2    C210723   0.518   0.575  13.118 -0.2978 -1.0748 -1.0435
  722MPD2    C310724   0.516   0.530  12.991  0.2098  0.1651 -0.3033
  722MPD2    C410725   0.615   0.443  12.947 -0.7609 -1.0176  0.0146
  722MPD2    C510726   0.715   0.411  13.027  0.4967  0.8964  0.0039
  722MPD2     H10727   0.444   0.645  13.154 -0.9125 -2.4436  0.3510
  722MPD2    H110728   0.606   0.403  12.847 -1.2116 -0.0822 -0.3191
  722MPD2    H210729   0.831   0.457  13.208 -0.6684 -0.5761 -0.3471
  722MPD2    H310730   0.797   0.345  13.000  1.7862  2.2692  0.5644
  722MPD2     N10731   0.408   0.565  12.915 -0.1468  0.1157 -0.0151
  722MPD2    H510732   0.326   0.615  12.950 -0.1242  0.3424 -0.2842
  722MPD2    N110733   0.642   0.632  13.309 -1.1186  0.1467 -0.3896
  722MPD2    H710734   0.558   0.684  13.335 -0.7970  0.9123 -0.9108
  723TMC3    C110735   0.281   0.584  12.722 -0.3390  0.3273 -0.5953
  723TMC3    C210736   0.181   0.505  12.763 -0.2852 -0.2660 -0.2616
  723TMC3    C310737   0.061   0.518  12.699 -0.1968  0.4298 -0.0173
  723TMC3    C410738   0.260   0.684  12.634 -0.3868  0.5267  0.0349
  723TMC3    C510739   0.136   0.697  12.569 -0.5267 -0.4434 -0.1099
  723TMC3    C610740   0.039   0.608  12.599  0.5226 -0.2218  0.7737
  723TMC3     C10741   0.409   0.567  12.774 -0.2319  0.4099 -0.0694
  723TMC3     O10742   0.511   0.574  12.703 -0.1163 -0.3052  0.3851
  723TMC3     H10743   0.206   0.425  12.831  0.6932  2.3885  2.4583
  723TMC3    H110744   0.343   0.753  12.621  0.9286 -0.6704  2.0166
  723TMC3    H210745   4.695   0.600  12.533  0.5302 -2.2665  1.0130
  723TMC3    C710746   0.082   0.816  12.516  0.4953  0.2619 -0.5464
  723TMC3    C810747   4.699   0.420  12.699 -0.5894 -0.0118  0.1979
  723TMC3    O110748   0.016   0.804  12.414 -0.4618 -0.7948  1.0013
  723TMC3    O210749   4.582   0.461  12.694 -0.6570 -0.1479 -0.6873
  724TMC3    C110750   4.605   0.227   9.302 -0.4053  0.4045 -0.4804
  724TMC3    C210751   4.648   0.318   9.213 -0.5899 -0.8124 -0.0365
  724TMC3    C310752   0.030   0.363   9.235 -0.1962  0.6383  0.1688
  724TMC3    C410753   4.686   0.166   9.393 -0.5822  0.4530  0.1320
  724TMC3    C510754   0.072   0.216   9.404 -0.0256 -0.4831  0.3531
  724TMC3    C610755   0.121   0.309   9.322 -0.6895 -0.4407  0.3311
  724TMC3     C10756   4.470   0.181   9.293 -0.0125 -0.6921 -0.2476
  724TMC3     O10757   4.417   0.206   9.186 -0.1739 -0.1805 -0.4844
  724TMC3     H10758   4.576   0.382   9.163 -1.5879 -0.5931  1.6885
  724TMC3    H110759   4.655   0.076   9.446 -0.6822  0.9964  0.9890
  724TMC3    H210760   0.223   0.346   9.321 -0.8139 -0.0669  2.3267
  724TMC3    C710761   0.168   0.148   9.493  0.5372  0.0701  0.0186
  724TMC3    C810762   0.075   0.490   9.172 -0.3027 -0.0924 -0.1874
  724TMC3    O110763   0.281   0.173   9.475  0.3426  0.2338 -0.4732
  724TMC3    O210764   0.023   0.528   9.069 -0.6078  0.1509  0.7335
  725TMC3    C110765   2.575   2.414  12.663  0.3032  0.3131  0.1914
  725TMC3    C210766   2.464   2.477  12.615 -0.0022  0.5388 -0.4106
  725TMC3    C310767   2.342   2.420  12.643  0.3070 -0.0074 -0.4808
  725TMC3    C410768   2.574   2.283  12.699  0.1801  0.1289 -0.3430
  725TMC3    C510769   2.448   2.229  12.705 -0.1862  0.1030 -0.2840
  725TMC3    C610770   2.333   2.294  12.687 -0.0869 -0.2309 -0.1472
  725TMC3     C10771   2.683   2.506  12.702 -0.2560 -0.2012  0.4642
  725TMC3     O10772   2.684   2.618  12.650 -0.5343  0.4934  0.1768
  725TMC3     H10773   2.478   2.580  12.584  1.3777  0.4651 -0.0478
  725TMC3    H110774   2.657   2.236  12.750 -0.6936 -0.6344  0.3721
  725TMC3    H210775   2.237   2.245  12.697  1.7153 -3.3501  1.8223
  725TMC3    C710776   2.440   2.091  12.741  0.4496  0.6399  0.2493
  725TMC3    C810777   2.219   2.492  12.630 -0.2300 -0.6280 -0.6249
  725TMC3    O110778   2.332   2.049  12.777 -0.4035  0.0581 -0.4363
  725TMC3    O210779   2.127   2.462  12.700  0.3107 -0.0884 -0.0218
  726MPD2     C10780   0.528   4.074  10.714  0.3814 -0.5975 -0.1306
  726MPD2    C110781   0.414   4.107  10.651 -0.0029  0.0575 -0.4369
  726MPD2    C210782   0.298   4.032  10.670  0.2620  0.0801 -0.1491
  726MPD2    C310783   0.292   3.929  10.760  0.0401 -0.8429  0.3893
  726MPD2    C410784   0.406   3.899  10.829 -0.3984 -1.0009 -0.4138
  726MPD2    C510785   0.525   3.966  10.801 -0.9016  0.3103  0.1172
  726MPD2     H10786   0.211   4.067  10.615  0.9534 -0.8818 -1.8135
  726MPD2    H110787   0.406   3.822  10.906 -2.0337  0.5404  1.1250
  726MPD2    H210788   0.620   4.130  10.703 -0.3450  0.8168  1.0478
  726MPD2    H310789   0.619   3.942  10.849 -1.8024 -2.4347  0.5143
  726MPD2     N10790   0.170   3.850  10.774  0.4656 -0.2425  0.5390
  726MPD2    H510791   0.176   3.781  10.848  0.4811 -2.0251 -1.1153
  726MPD2    N110792   0.397   4.230  10.572 -0.7957  0.1339 -0.0064
  726MPD2    H710793   0.324   4.229  10.502 -2.5096 -0.3950  1.7673
  727TMC3    C110794   0.434   4.454  10.492 -1.0452 -0.1570  0.1153
  727TMC3    C210795   0.492   4.579  10.516  0.1996 -0.0057 -0.0236
  727TMC3    C310796   0.429   4.692  10.469  0.4541  0.1956  0.2128
  727TMC3    C410797   0.314   4.455  10.423  0.1572  0.4137 -0.0763
  727TMC3    C510798   0.264   4.571  10.373  0.1817 -0.3709 -0.4260
  727TMC3    C610799   0.314   4.695  10.400  0.2845  0.1575 -0.6954
  727TMC3     C10800   0.475   4.346  10.580  0.0798  0.1817 -0.6570
  727TMC3     O10801   0.566   4.375  10.658  0.0873  0.6887 -0.3487
  727TMC3     H10802   0.592   4.591  10.559  0.8343 -0.8156 -1.2798
  727TMC3    H110803   0.260   4.363  10.407  1.4230 -0.7457  2.4330
  727TMC3    H210804   0.271   0.043  10.358  1.4839 -0.3056 -2.9158
  727TMC3    C710805   0.130   4.566  10.301  0.2676 -0.2820  0.2163
  727TMC3    C810806   0.503   0.075  10.496 -0.0223 -0.1094 -0.1302
  727TMC3    O110807   0.074   4.673  10.286 -0.1863  0.2408 -0.1590
  727TMC3    O210808   0.609   0.065  10.564  0.2005 -0.0245 -0.3964
  728TMC3    C110809   4.323   1.950  15.194 -0.0489 -0.6540  0.0491
  728TMC3    C210810   4.448   1.928  15.150 -0.1594 -0.4292  0.0742
  728TMC3    C310811   4.486   1.982  15.035  0.4531 -0.9109  0.0186
  728TMC3    C410812   4.237   2.040  15.129  0.3108  0.3090  0.3064
  728TMC3    C510813   4.279   2.086  15.010 -0.3800  0.4732 -0.3164
  728TMC3    C610814   4.397   2.048  14.955 -0.6551  0.3750  0.1779
  728TMC3     C10815   4.293   1.926  15.330 -0.4456  0.3941  0.2203
  728TMC3     O10816   4.387   1.906  15.398 -0.4413  0.4713 -0.0532
  728TMC3     H10817   4.521   1.877  15.212 -0.3289 -0.2985  0.3820
  728TMC3    H110818   4.148   2.081  15.175  1.0995  1.4843  0.7572
  728TMC3    H210819   4.435   2.085  14.860  0.2155 -3.0151 -0.7986
  728TMC3    C710820   4.184   2.162  14.934  1.1009 -0.4661 -0.0360
  728TMC3    C810821   4.588   1.902  14.968 -0.2456 -0.0514  0.3023
  728TMC3    O110822   4.065   2.151  14.962 -0.1562  0.1105 -0.3482
  728TMC3    O210823   4.580   1.780  14.981 -0.6992 -0.2812  0.0043
  729MPD2     C10824   1.662   3.510  16.628 -0.6101 -0.3433 -0.4249
  729MPD2    C110825   1.779   3.452  16.669  0.5283  0.8859 -0.3133
  729MPD2    C210826   1.796   3.449  16.807 -0.1120  0.1864 -0.1791
  729MPD2    C310827   1.712   3.502  16.901 -0.3847 -0.1310 -0.5527
  729MPD2    C410828   1.592   3.559  16.857 -0.4918  0.1022 -0.4075
  729MPD2    C510829   1.572   3.556  16.722 -0.6174 -0.0173  0.2498
  729MPD2     H10830   1.892   3.410  16.840  0.1341 -0.3197 -1.4796
  729MPD2    H110831   1.515   3.595  16.924 -0.8207  0.9053 -1.2205
  729MPD2    H210832   1.640   3.522  16.522  2.1168 -2.1037 -1.2131
  729MPD2    H310833   1.477   3.595  16.687 -0.7677 -0.7867 -0.1845
  729MPD2     N10834   1.725   3.483  17.041 -0.2111 -0.4587  0.5524
  729MPD2    H510835   1.662   3.530  17.106 -0.0554 -0.6943  0.8735
  729MPD2    N110836   1.866   3.389  16.571  0.4906 -0.0507 -0.0854
  729MPD2    H710837   1.860   3.426  16.477 -1.2181 -0.5487 -0.1720
  730TMC3    C110838   1.872   3.486  17.228  0.6560  0.4243  1.3919
  730TMC3    C210839   1.973   3.424  17.294 -0.3754  0.7586  0.3788
  730TMC3    C310840   2.024   3.489  17.404 -0.4176  0.5676  0.1293
  730TMC3    C410841   1.826   3.613  17.268  0.0694 -0.0645 -0.3032
  730TMC3    C510842   1.861   3.658  17.392  0.2937  0.2944 -0.5558
  730TMC3    C610843   1.958   3.594  17.464  0.0958  0.1185 -0.0109
  730TMC3     C10844   1.838   3.429  17.098 -0.7002 -0.2992 -0.5442
  730TMC3     O10845   1.922   3.358  17.047 -0.0033 -0.4485 -0.5731
  730TMC3     H10846   2.029   3.339  17.258  2.4876  1.9529  1.9539
  730TMC3    H110847   1.748   3.665  17.214 -0.2098  0.6019  0.7587
  730TMC3    H210848   1.999   3.639  17.554 -0.2768  0.6544 -0.1115
  730TMC3    C710849   1.867   3.802  17.393  0.2727  0.0530  0.2572
  730TMC3    C810850   2.161   3.522  17.368  0.1544 -0.2876  0.4819
  730TMC3    O110851   1.859   3.855  17.282 -0.6438 -0.0827  0.4625
  730TMC3    O210852   2.210   3.469  17.272  0.1760  0.1258 -0.1053
  731MPD2     C10853   2.184   2.281  12.251 -0.5720  0.2786 -0.6287
  731MPD2    C110854   2.245   2.166  12.303 -0.3382 -0.5761  0.3928
  731MPD2    C210855   2.189   2.101  12.413  0.0412 -0.0392 -0.3007
  731MPD2    C310856   2.073   2.139  12.469  0.4070 -0.1252 -0.2875
  731MPD2    C410857   2.010   2.250  12.415  0.2681 -0.4108  0.3683
  731MPD2    C510858   2.068   2.318  12.310 -0.1208 -0.2199  0.4302
  731MPD2     H10859   2.242   2.023  12.466  0.3247 -0.4226 -1.1482
  731MPD2    H110860   1.921   2.298  12.455 -0.1911 -0.4441 -0.6201
  731MPD2    H210861   2.222   2.342  12.170 -1.5989  1.3368 -0.3266
  731MPD2    H310862   2.029   2.414  12.280 -0.2418 -0.2739  0.4129
  731MPD2     N10863   2.021   2.069  12.577 -0.2329 -0.2460 -0.2838
  731MPD2    H510864   2.071   1.981  12.585  0.1232 -0.0777 -0.6571
  731MPD2    N110865   2.358   2.109  12.241 -0.4162  0.0577  0.4261
  731MPD2    H710866   2.390   2.016  12.264 -1.1361  0.5831  3.6973
  732TMC3    C110867   2.487   2.061  12.053  0.7707 -0.0591  0.2861
  732TMC3    C210868   2.435   1.936  12.040  0.2246  0.5153  0.4282
  732TMC3    C310869   2.508   1.840  11.978 -0.0687 -0.5352 -0.1947
  732TMC3    C410870   2.594   2.100  11.976  0.0494 -0.4148 -0.0085
  732TMC3    C510871   2.662   2.000  11.910  0.0283 -0.0659  0.8574
  732TMC3    C610872   2.630   1.870  11.915  0.1695  0.4999 -0.1568
  732TMC3     C10873   2.417   2.161  12.127 -0.4160 -0.1500 -0.5123
  732TMC3     O10874   2.444   2.280  12.099 -0.1799 -0.1433  0.5013
  732TMC3     H10875   2.344   1.908  12.091  0.2603 -0.0169  0.2030
  732TMC3    H110876   2.632   2.201  11.981 -2.0668  0.3880 -0.0607
  732TMC3    H210877   2.687   1.797  11.860 -1.2428 -0.2134 -0.6561
  732TMC3    C710878   2.797   2.032  11.870  0.0369 -0.4974  0.0135
  732TMC3    C810879   2.480   1.699  11.987 -0.0887 -0.3331  0.1445
  732TMC3    O110880   2.821   2.140  11.817  0.2806  0.0842 -0.1376
  732TMC3    O210881   2.534   1.627  11.904  0.4322  0.4697  0.4731
  733TMC3    C110882   2.776   0.277  13.309 -0.5040 -0.4416  0.8775
  733TMC3    C210883   2.825   0.403  13.304 -0.0993  0.6481 -0.6305
  733TMC3    C310884   2.955   0.419  13.251  0.6071  0.2221 -0.6029
  733TMC3    C410885   2.821   0.176  13.233  0.5274 -0.2545 -0.0400
  733TMC3    C510886   2.941   0.194  13.172  0.1114 -0.4364  0.2054
  733TMC3    C610887   3.009   0.311  13.186  0.2941 -0.2060 -0.4520
  733TMC3     C10888   2.630   0.279  13.299 -0.5310 -0.1313 -0.3571
  733TMC3     O10889   2.572   0.380  13.256  0.1440 -0.4105 -0.2945
  733TMC3     H10890   2.769   0.483  13.350  0.0196 -0.2742  1.0946
  733TMC3    H110891   2.767   0.082  13.234  2.6704 -1.5226 -1.8249
  733TMC3    H210892   3.108   0.314  13.141 -0.0984 -2.9783 -1.5054
  733TMC3    C710893   2.940   0.149  13.040  0.8582  0.4936 -0.2228
  733TMC3    C810894   2.966   0.530  13.172 -0.4320  0.9537 -0.1910
  733TMC3    O110895   3.001   0.222  12.962 -0.2160  0.0417  0.2497
  733TMC3    O210896   2.958   0.632  13.231 -0.1911  0.5668  0.0163
  734MPD2     C10897   0.173   2.608  12.411  0.4752 -0.1052 -0.4209
  734MPD2    C110898   0.083   2.548  12.332 -0.1548  0.0649  0.2421
  734MPD2    C210899   0.080   2.586  12.204 -0.4006 -0.2561  0.1084
  734MPD2    C310900   0.163   2.670  12.141  0.1781 -0.5598 -0.2303
  734MPD2    C410901   0.259   2.724  12.221  0.1760 -0.7543  0.2919
  734MPD2    C510902   0.260   2.691  12.356 -0.4328 -0.3169 -0.1298
  734MPD2     H10903   0.011   2.529  12.143  0.1790 -2.3844  1.4604
  734MPD2    H110904   0.326   2.802  12.186 -0.1846 -1.2468 -1.5065
  734MPD2    H210905   0.185   2.602  12.519 -1.3459  0.8764 -0.1696
  734MPD2    H310906   0.322   2.746  12.426 -0.3507 -1.1707  0.4731
  734MPD2     N10907   0.140   2.693  12.004 -0.2206  0.6597 -0.1269
  734MPD2    H510908   0.075   2.629  11.960  0.3901  0.9508 -1.4473
  734MPD2    N110909   4.723   2.460  12.391  0.0940 -0.3392  1.0054
  734MPD2    H710910   4.726   2.438  12.490 -0.2081  0.5186  1.2059
  735TMC3    C110911   4.533   2.311  12.372  0.1544  0.0842 -0.0042
  735TMC3    C210912   4.415   2.292  12.303 -0.0585 -0.6126 -0.3775
  735TMC3    C310913   4.381   2.171  12.253 -0.1670 -0.1515  0.5694
  735TMC3    C410914   4.613   2.195  12.388 -0.2903  0.1952 -0.1335
  735TMC3    C510915   4.565   2.069  12.355  0.1734  0.0896  0.0017
  735TMC3    C610916   4.449   2.053  12.283 -0.3534  0.4338  0.4064
  735TMC3     C10917   4.609   2.418  12.318 -0.2844  0.2654 -1.0318
  735TMC3     O10918   4.575   2.434  12.202  1.0326  0.0717 -0.3378
  735TMC3     H10919   4.364   2.385  12.281 -0.0510 -0.3306  0.7816
  735TMC3    H110920   4.717   2.206  12.417 -0.8623 -0.6337  2.1844
  735TMC3    H210921   4.420   1.957  12.244 -1.2066  0.7661  0.2203
  735TMC3    C710922   4.636   1.948  12.378  0.5256 -0.3467 -0.8907
  735TMC3    C810923   4.335   2.178  12.117  0.1549 -0.5960  0.2300
  735TMC3    O110924   4.579   1.838  12.364 -1.1687  0.1817 -0.0874
  735TMC3    O210925   4.295   2.077  12.068  0.1702 -0.3206 -0.1971
  736MPD2     C10926   0.111   1.741  12.366 -0.4805  0.0434 -0.0987
  736MPD2    C110927   0.138   1.877  12.366  0.1845  0.1994  0.4658
  736MPD2    C210928   0.261   1.926  12.339  0.2920  0.6925  0.2198
  736MPD2    C310929   0.369   1.846  12.322 -0.0284 -0.4040 -0.2593
  736MPD2    C410930   0.347   1.711  12.338  0.3969 -0.4124  0.0068
  736MPD2    C510931   0.221   1.656  12.360 -0.3796  0.1437 -0.2523
  736MPD2     H10932   0.289   2.030  12.340 -1.6912  1.2267  0.2835
  736MPD2    H110933   0.423   1.641  12.304 -0.6654 -1.4998 -0.1040
  736MPD2    H210934   0.020   1.689  12.390  0.0011 -1.5036 -1.5794
  736MPD2    H310935   0.204   1.550  12.349  0.7843  0.3494 -4.2029
  736MPD2     N10936   0.494   1.889  12.282  0.4329  0.0874  0.2371
  736MPD2    H510937   0.565   1.817  12.280  0.7087  0.3653  0.0811
  736MPD2    N110938   0.031   1.976  12.375 -0.3806  0.4428 -0.3009
  736MPD2    H710939   0.054   2.069  12.342  1.3557  0.3073  0.5426
  737TMC3    C110940   0.651   1.998  12.154 -0.2664  0.0602  0.3212
  737TMC3    C210941   0.684   2.092  12.058  0.1742 -0.7458 -0.2134
  737TMC3    C310942   0.785   2.060  11.980 -0.5969  0.0110  0.6999
  737TMC3    C410943   0.735   1.896  12.195 -0.5295 -0.2882 -0.2027
  737TMC3    C510944   0.849   1.888  12.119 -0.1379  0.6884 -1.1586
  737TMC3    C610945   0.873   1.959  12.010 -0.0427 -1.0252 -0.3272
  737TMC3     C10946   0.518   2.002  12.213  0.1451 -0.7269  0.3201
  737TMC3     O10947   0.441   2.087  12.164 -0.0813  0.2033  0.1555
  737TMC3     H10948   0.631   2.183  12.029  0.4656 -0.0610  1.4038
  737TMC3    H110949   0.738   1.839  12.287 -1.6782 -2.3546 -1.4359
  737TMC3    H210950   0.957   1.937  11.946  1.0812 -0.3695  0.9329
  737TMC3    C710951   0.949   1.784  12.161  0.8485  0.5077 -0.0099
  737TMC3    C810952   0.805   2.133  11.860 -0.4076 -0.3230  0.3621
  737TMC3    O110953   0.908   1.688  12.223 -0.4585  0.1882 -0.1266
  737TMC3    O210954   0.709   2.192  11.812 -0.3571  0.3962  0.1637
  738MPD2     C10955   1.196   0.481  15.554  0.0670 -0.3699  0.2838
  738MPD2    C110956   1.107   0.480  15.447  0.4574 -0.0365  0.2333
  738MPD2    C210957   1.143   0.525  15.322  0.6086 -0.0658 -0.1002
  738MPD2    C310958   1.264   0.581  15.304  0.3444  0.3549  0.0594
  738MPD2    C410959   1.346   0.597  15.415  0.4633  0.1086 -0.3343
  738MPD2    C510960   1.318   0.542  15.539 -0.1203  0.3143  0.0302
  738MPD2     H10961   1.073   0.517  15.240  0.0595 -1.7122  0.5381
  738MPD2    H110962   1.432   0.662  15.401 -1.2726  2.6886  1.0376
  738MPD2    H210963   1.166   0.439  15.649 -1.3965  1.0834  0.4536
  738MPD2    H310964   1.391   0.560  15.616 -1.1937 -0.4861  1.2247
  738MPD2     N10965   1.307   0.647  15.188 -0.8936 -0.5113 -0.6314
  738MPD2    H510966   1.403   0.679  15.197 -1.4598  0.0855  3.3158
  738MPD2    N110967   0.978   0.435  15.462  0.1996 -0.0407 -0.3176
  738MPD2    H710968   0.914   0.436  15.383 -0.4987  0.6231  0.2546
  739TMC3    C110969   1.319   0.754  14.980  0.2543 -0.0678 -0.4252
  739TMC3    C210970   1.269   0.767  14.852 -0.1545 -0.1095  0.3688
  739TMC3    C310971   1.335   0.838  14.752 -0.3150  0.9332 -0.0413
  739TMC3    C410972   1.442   0.801  15.008  1.4280  1.1048  0.3347
  739TMC3    C510973   1.508   0.876  14.914  0.0720  0.0435  0.6307
  739TMC3    C610974   1.463   0.888  14.778  0.3520 -0.5958 -0.3244
  739TMC3     C10975   1.236   0.677  15.077  0.6127 -0.4433  0.4641
  739TMC3     O10976   1.121   0.646  15.048  0.2130  0.2669  0.4489
  739TMC3     H10977   1.171   0.728  14.826 -1.2872  2.6613  0.5528
  739TMC3    H110978   1.479   0.787  15.108  3.0592  2.3086 -0.1048
  739TMC3    H210979   1.515   0.943  14.701  1.9642  0.5630  1.5840
  739TMC3    C710980   1.637   0.931  14.954 -0.0779 -0.1106 -0.6622
  739TMC3    C810981   1.247   0.911  14.656 -0.4050  0.4949 -0.2727
  739TMC3    O110982   1.671   0.916  15.071 -0.5457 -0.0383 -0.5039
  739TMC3    O210983   1.126   0.890  14.668  0.2315 -0.2866  0.3710
  740TMC3    C110984   1.509   2.184  14.368 -0.7016  0.1164 -0.4833
  740TMC3    C210985   1.543   2.175  14.506 -0.3979 -0.3230  0.7140
  740TMC3    C310986   1.680   2.173  14.536 -0.4753 -0.2128  0.1528
  740TMC3    C410987   1.597   2.187  14.268  0.5285 -0.5829  0.1354
  740TMC3    C510988   1.734   2.175  14.307  0.2891 -0.6986 -0.9300
  740TMC3    C610989   1.766   2.167  14.438  0.1911  0.6590 -0.7010
  740TMC3     C10990   1.377   2.141  14.333 -0.5170 -0.4931  0.0451
  740TMC3     O10991   1.355   2.111  14.216 -0.6773 -0.3601 -0.1049
  740TMC3     H10992   1.480   2.166  14.593  1.0788 -0.9501  1.7138
  740TMC3    H110993   1.559   2.182  14.167  1.8872 -1.3481 -0.3311
  740TMC3    H210994   1.871   2.163  14.466  0.1145  2.0979 -0.2573
  740TMC3    C710995   1.834   2.153  14.210  0.3752  0.0263 -0.0101
  740TMC3    C810996   1.711   2.108  14.663  0.8073 -0.1156 -0.6934
  740TMC3    O110997   1.933   2.092  14.241 -0.1958  0.3118 -0.0244
  740TMC3    O210998   1.620   2.082  14.740 -0.0788 -0.4037 -0.0142
  741TMC3    C110999   1.200   1.323  14.573 -0.2925  0.1628 -0.2913
  741TMC3    C211000   1.073   1.299  14.530 -0.2724 -0.0011  0.0527
  741TMC3    C311001   0.995   1.222  14.617  0.0696 -0.9420 -0.3510
  741TMC3    C411002   1.235   1.294  14.704 -0.0325  0.6419  0.0318
  741TMC3    C511003   1.151   1.215  14.785  0.0971  0.2863  0.1300
  741TMC3    C611004   1.029   1.181  14.739 -0.5494  0.4626 -0.2107
  741TMC3     C11005   1.312   1.352  14.485 -0.6347  0.3532 -0.4523
  741TMC3     O11006   1.427   1.354  14.533  0.0279  0.3543 -0.8378
  741TMC3     H11007   1.036   1.327  14.431  1.5318  0.6184 -0.4419
  741TMC3    H111008   1.335   1.319  14.737  0.9930 -2.2683 -0.8338
  741TMC3    H211009   0.963   1.123  14.803 -1.1443  0.3057 -0.9769
  741TMC3    C711010   1.215   1.159  14.903  0.6117  0.1027  0.0284
  741TMC3    C811011   0.873   1.164  14.566  0.2718  0.2928  0.1232
  741TMC3    O111012   1.332   1.178  14.919  0.4197  0.2530 -0.1030
  741TMC3    O211013   0.808   1.232  14.483  0.0017 -0.2968  0.2235
  742TMC3    C111014   0.841   4.176  15.754 -0.2459  0.2764 -0.1497
  742TMC3    C211015   0.738   4.225  15.670 -0.1383 -0.1041  0.4556
  742TMC3    C311016   0.769   4.322  15.582 -0.3971  0.3285 -0.4034
  742TMC3    C411017   0.954   4.251  15.777 -0.5568 -0.5644  0.0837
  742TMC3    C511018   0.982   4.348  15.685  0.0841  1.1190 -0.0408
  742TMC3    C611019   0.895   4.372  15.585 -0.4327 -0.1594 -0.5790
  742TMC3     C11020   0.822   4.039  15.805  0.5185 -0.4293 -0.4851
  742TMC3     O11021   0.706   3.994  15.806 -0.1023  0.9127 -0.2152
  742TMC3     H11022   0.661   4.152  15.646 -0.5773  0.6862 -0.5107
  742TMC3    H111023   1.032   4.223  15.848 -0.2226  3.5014  1.3665
  742TMC3    H211024   0.922   4.448  15.513 -1.4676  1.4462  0.7157
  742TMC3    C711025   1.120   4.356  15.640  0.1820  0.0479 -0.5137
  742TMC3    C811026   0.694   4.313  15.456  0.3534  0.6801 -0.1937
  742TMC3    O111027   1.139   4.330  15.524  0.4168  0.2374 -0.7298
  742TMC3    O211028   0.663   4.201  15.419  0.4226 -0.0565  0.1740
  743MPD2     C11029   2.961   1.283   1.354 -0.1404 -0.3661  0.5902
  743MPD2    C111030   3.050   1.177   1.335 -0.3442  0.6266 -0.6477
  743MPD2    C211031   3.135   1.154   1.438 -0.1391 -0.0665  0.5047
  743MPD2    C311032   3.130   1.231   1.553 -0.3078  0.1694 -0.2619
  743MPD2    C411033   3.030   1.328   1.569 -0.0001 -0.3033 -0.4821
  743MPD2    C511034   2.957   1.359   1.464 -0.9109 -0.3054  0.0336
  743MPD2     H11035   3.208   1.074   1.433 -0.5937 -0.3430 -1.6370
  743MPD2    H111036   3.021   1.386   1.660 -0.8917  1.1637 -1.5228
  743MPD2    H211037   2.896   1.320   1.275  0.6889 -0.5586 -0.1792
  743MPD2    H311038   2.888   1.442   1.467  1.0620  1.3192 -0.0413
  743MPD2     N11039   3.245   1.216   1.641 -0.3783  0.1208  0.0488
  743MPD2    H511040   3.309   1.139   1.626  1.8754  1.6386  1.8896
  743MPD2    N111041   3.053   1.111   1.212  0.6457 -0.0016 -0.1268
  743MPD2    H711042   2.992   1.153   1.143  1.9776 -0.2162 -1.4487
  744TMC3    C111043   3.115   0.964   1.036 -0.6680 -0.1585 -0.1997
  744TMC3    C211044   3.046   1.048   0.955  1.2432  0.1777  0.4278
  744TMC3    C311045   3.073   1.043   0.821  0.0215 -0.4585  0.4440
  744TMC3    C411046   3.215   0.884   0.992  0.1700  0.1223  0.0994
  744TMC3    C511047   3.241   0.887   0.854  0.4797 -0.0804  0.3450
  744TMC3    C611048   3.178   0.977   0.765  0.3092 -0.2064 -0.1066
  744TMC3     C11049   3.122   1.001   1.180 -0.7888 -0.2177 -0.7104
  744TMC3     O11050   3.173   0.911   1.252  0.2206 -0.0412  0.2715
  744TMC3     H11051   2.954   1.098   0.983  1.1770  1.3820 -1.9065
  744TMC3    H111052   3.278   0.827   1.059  1.5850  0.9614 -0.5212
  744TMC3    H211053   3.190   0.966   0.658 -0.6692 -3.9737  0.1526
  744TMC3    C711054   3.363   0.817   0.804 -0.3112  0.2661  0.2542
  744TMC3    C811055   3.025   1.158   0.748 -0.9084 -0.0529  0.3125
  744TMC3    O111056   3.402   0.839   0.693 -0.6008  0.3724  0.1421
  744TMC3    O211057   2.948   1.228   0.808  0.4763  0.0462 -0.1578
  745TMC3    C111058   1.379   4.455  13.298  0.3486  0.6599 -0.5355
  745TMC3    C211059   1.325   4.439  13.424 -0.0134  0.0776  0.1473
  745TMC3    C311060   1.197   4.485  13.450  0.4081 -0.2275 -0.3793
  745TMC3    C411061   1.304   4.526  13.204  0.2861  0.6344 -0.7010
  745TMC3    C511062   1.181   4.587  13.247 -0.2497 -0.0973 -0.0316
  745TMC3    C611063   1.115   4.555  13.369  0.2340  0.6573 -0.7531
  745TMC3     C11064   1.524   4.476  13.307  0.2376 -0.2494  0.4466
  745TMC3     O11065   1.593   4.427  13.225  0.0916 -0.1530 -0.4394
  745TMC3     H11066   1.378   4.391  13.506  2.3501 -0.2775 -1.6221
  745TMC3    H111067   1.352   4.543  13.108 -0.7671  0.6268 -1.2311
  745TMC3    H211068   1.044   4.625  13.411  1.4760  1.9939 -0.8662
  745TMC3    C711069   1.158   4.722  13.196 -0.5536 -0.4953 -0.1756
  745TMC3    C811070   1.161   4.504  13.593 -0.1408  0.3438  0.5204
  745TMC3    O111071   1.046   0.029  13.222 -0.1562 -0.1897  0.7780
  745TMC3    O211072   1.044   4.473  13.625  0.0999 -0.3150 -0.3312
  746TMC3    C111073   4.171   1.968  10.850  0.0037 -0.7636 -0.4238
  746TMC3    C211074   4.260   2.021  10.759 -0.3520  0.3122 -0.7684
  746TMC3    C311075   4.293   1.945  10.648  0.6273  0.0717  0.2775
  746TMC3    C411076   4.106   1.847  10.828 -0.7038 -0.9328 -0.3298
  746TMC3    C511077   4.142   1.779  10.714  0.6582  1.0081 -0.2482
  746TMC3    C611078   4.238   1.822  10.631  0.5547 -0.8101  0.1522
  746TMC3     C11079   4.119   2.059  10.955 -0.1784 -0.4181 -0.4058
  746TMC3     O11080   4.016   2.024  11.014 -0.4540  0.1774  0.4901
  746TMC3     H11081   4.311   2.117  10.766 -0.6260  0.4140 -0.1914
  746TMC3    H111082   4.043   1.812  10.909 -0.0129 -0.8111  0.2579
  746TMC3    H211083   4.259   1.764  10.542 -0.7533 -1.0804  0.0196
  746TMC3    C711084   4.026   1.709  10.661 -0.0936 -0.7798  0.6594
  746TMC3    C811085   4.328   2.019  10.526  0.4404  0.1173 -0.2329
  746TMC3    O111086   3.929   1.708  10.733  0.6616  0.7061 -0.1943
  746TMC3    O211087   4.425   1.986  10.461  0.0392 -0.6615  0.1547
  747TMC3    C111088   1.962   1.770  11.833  0.0506 -0.1150  0.2205
  747TMC3    C211089   1.837   1.728  11.865  0.5787 -0.3153 -0.1804
  747TMC3    C311090   1.754   1.808  11.940  0.0863  0.1461  0.3379
  747TMC3    C411091   2.001   1.891  11.870 -0.4482  0.1027 -0.1749
  747TMC3    C511092   1.919   1.973  11.950 -0.6749 -0.1452  0.1572
  747TMC3    C611093   1.791   1.932  11.988  0.7845 -0.2336 -0.3628
  747TMC3     C11094   2.043   1.710  11.720  0.2998  0.1830 -0.2068
  747TMC3     O11095   2.153   1.760  11.705 -0.4025  0.2217 -0.6603
  747TMC3     H11096   1.800   1.628  11.847 -0.4908  0.5206 -2.5461
  747TMC3    H111097   2.093   1.936  11.832  0.5251 -0.8104  1.1024
  747TMC3    H211098   1.719   1.997  12.036  0.0695  0.9020 -2.9585
  747TMC3    C711099   1.957   2.113  11.971  0.6501  0.1068 -0.1558
  747TMC3    C811100   1.657   1.732  12.016  0.3577 -0.3799  0.3598
  747TMC3    O111101   1.861   2.185  12.012 -0.0076 -0.0823 -0.1308
  747TMC3    O211102   1.689   1.620  12.046 -0.1526 -0.1771  0.4695
  748MPD2     C11103   2.563   2.480   1.454  0.2443  0.5150 -0.5613
  748MPD2    C111104   2.641   2.519   1.562  0.2562  0.0261  0.6412
  748MPD2    C211105   2.777   2.491   1.565  0.2289 -0.2499  0.3441
  748MPD2    C311106   2.834   2.446   1.453 -0.2415  0.0771  0.0161
  748MPD2    C411107   2.757   2.423   1.339 -0.6215  0.2964 -0.3698
  748MPD2    C511108   2.623   2.439   1.339  0.1755 -0.8821  0.3179
  748MPD2     H11109   2.834   2.500   1.657 -2.4991  0.7022  1.9523
  748MPD2    H111110   2.790   2.378   1.245  0.2988 -0.8211  0.4934
  748MPD2    H211111   2.455   2.485   1.455  0.2299  0.4812 -1.4518
  748MPD2    H311112   2.565   2.418   1.249  1.1396 -0.0123 -0.5123
  748MPD2     N11113   2.975   2.430   1.454 -0.0638 -0.2373  0.2030
  748MPD2    H511114   3.032   2.435   1.538 -0.8247  2.9798  0.5246
  748MPD2    N111115   2.566   2.547   1.682  0.2991  0.0863  0.2193
  748MPD2    H711116   2.467   2.558   1.666  0.0914 -2.2962 -0.1008
  749TMC3    C111117   3.177   2.372   1.352  0.0268 -0.1633 -0.3376
  749TMC3    C211118   3.215   2.288   1.457 -0.0983 -0.8956 -0.5533
  749TMC3    C311119   3.349   2.250   1.451  1.0565 -0.0022 -0.1468
  749TMC3    C411120   3.254   2.387   1.237 -0.0214  0.2963 -0.3318
  749TMC3    C511121   3.378   2.341   1.236  0.7605 -0.6690  0.4813
  749TMC3    C611122   3.433   2.277   1.347  0.1218 -0.3259  0.2487
  749TMC3     C11123   3.041   2.416   1.340 -0.7780  0.8669  0.5725
  749TMC3     O11124   3.004   2.437   1.228  0.2256  0.3270 -1.2486
  749TMC3     H11125   3.149   2.277   1.542 -0.0646  0.0407 -0.4031
  749TMC3    H111126   3.226   2.451   1.153 -0.2020  0.1813 -0.3597
  749TMC3    H211127   3.540   2.263   1.352  0.0874 -0.0020  1.7830
  749TMC3    C711128   3.473   2.406   1.149  0.4635  0.0236 -0.0969
  749TMC3    C811129   3.388   2.150   1.554 -0.3052 -0.3711 -0.3316
  749TMC3    O111130   3.443   2.519   1.114 -0.6214 -0.2059  0.1763
  749TMC3    O211131   3.315   2.135   1.654  0.0629  0.0999 -0.4066
  750MPD2     C11132   4.036   3.540  11.491 -0.3882  0.4133 -0.2531
  750MPD2    C111133   3.903   3.544  11.489  0.3655 -0.0409 -0.3694
  750MPD2    C211134   3.829   3.452  11.420  0.7870 -0.6755  1.0782
  750MPD2    C311135   3.890   3.360  11.338 -0.4673  0.4194 -0.1280
  750MPD2    C411136   4.025   3.347  11.339  0.2624  0.0768  0.0954
  750MPD2    C511137   4.098   3.442  11.417 -0.7117  0.0537 -0.5410
  750MPD2     H11138   3.721   3.452  11.429  0.6637 -0.3760 -0.4626
  750MPD2    H111139   4.085   3.277  11.282  1.0941  0.0660  0.9738
  750MPD2    H211140   4.092   3.614  11.547 -0.2445  0.3295 -0.2870
  750MPD2    H311141   4.205   3.431  11.428 -0.8591  0.9964  1.7702
  750MPD2     N11142   3.819   3.273  11.253  0.5977 -0.0496  0.5678
  750MPD2    H511143   3.877   3.219  11.189 -0.1050  1.0005 -0.9453
  750MPD2    N111144   3.844   3.648  11.563  0.0774  0.8944  0.2423
  750MPD2    H711145   3.907   3.712  11.610  1.9109 -0.6345 -0.0948
  751TMC3    C111146   3.625   3.192  11.134  0.2663  0.8832  0.2462
  751TMC3    C211147   3.490   3.168  11.144  0.8713  0.8019  0.0531
  751TMC3    C311148   3.429   3.140  11.027  0.0405  0.5662  0.6349
  751TMC3    C411149   3.700   3.215  11.021  0.4765 -0.0438  0.6515
  751TMC3    C511150   3.623   3.190  10.900  0.0239 -0.1959 -0.2849
  751TMC3    C611151   3.494   3.143  10.906 -0.0626  0.3708 -0.3925
  751TMC3     C11152   3.677   3.267  11.248  0.4547  0.2459  0.1157
  751TMC3     O11153   3.594   3.297  11.334  0.1833 -0.4744 -0.1346
  751TMC3     H11154   3.448   3.167  11.244 -1.1907 -1.8468 -0.8388
  751TMC3    H111155   3.799   3.260  11.016  1.6286 -2.7623 -1.1200
  751TMC3    H211156   3.440   3.127  10.813  0.1614 -0.9026 -0.2959
  751TMC3    C711157   3.696   3.180  10.776  0.5877 -0.7879  0.5005
  751TMC3    C811158   3.289   3.089  11.031 -0.0030  0.1432  0.5455
  751TMC3    O111159   3.792   3.250  10.769 -0.6362  0.2839  0.2409
  751TMC3    O211160   3.251   3.029  10.930  0.8607 -0.5222 -0.2213
  752TMC3    C111161   2.579   3.246  17.547 -0.5570 -0.0153  0.3146
  752TMC3    C211162   2.661   3.193  17.650  1.1406  0.3395 -0.1016
  752TMC3    C311163   2.611   3.197   0.020 -0.3514  0.4420 -0.0437
  752TMC3    C411164   2.453   3.299  17.572 -0.0609 -0.3742 -0.6839
  752TMC3    C511165   2.417   3.313  17.705 -0.0981 -0.0753  0.2561
  752TMC3    C611166   2.493   3.263   0.046 -0.0930 -0.5198 -0.0614
  752TMC3     C11167   2.642   3.259  17.415  0.0355  0.2482 -0.4182
  752TMC3     O11168   2.760   3.230  17.402 -0.3075 -0.2006 -0.1485
  752TMC3     H11169   2.758   3.149  17.631  0.4758 -0.5076 -1.5898
  752TMC3    H111170   2.411   3.364  17.496 -1.2705 -0.2739  0.0821
  752TMC3    H211171   2.460   3.286   0.147 -1.3614  1.4194 -0.9228
  752TMC3    C711172   2.318   3.416  17.725  0.0484  0.2589  0.4028
  752TMC3    C811173   2.708   3.192   0.122 -0.4554  0.4696  0.0411
  752TMC3    O111174   2.213   3.401  17.666  0.2315  0.1037 -0.1276
  752TMC3    O211175   2.830   3.204   0.102 -0.1507  0.2115  0.1434
  753TMC3    C111176   0.237   4.411  13.316  0.3600  0.0837  1.1093
  753TMC3    C211177   0.347   4.443  13.385  0.1118  0.2158  0.0951
  753TMC3    C311178   0.365   4.375  13.502  0.5133  0.4341 -0.2403
  753TMC3    C411179   0.145   4.319  13.366  0.2388 -0.4534  0.2235
  753TMC3    C511180   0.169   4.249  13.478  0.2254  0.1149  0.2341
  753TMC3    C611181   0.283   4.281  13.549 -0.4865 -0.2335 -0.0905
  753TMC3     C11182   0.177   4.510  13.232 -0.2647 -0.3037 -0.1350
  753TMC3     O11183   0.053   4.515  13.231  0.0055  0.3539 -0.0510
  753TMC3     H11184   0.423   4.516  13.358  1.0157 -1.3503 -1.5447
  753TMC3    H111185   0.056   4.297  13.308  0.9197 -0.8163 -0.6948
  753TMC3    H211186   0.315   4.215  13.628 -0.2315 -1.7217 -1.4424
  753TMC3    C711187   0.064   4.171  13.541 -0.2018  0.6264 -0.7162
  753TMC3    C811188   0.482   4.409  13.576 -0.3783 -0.1854 -0.7041
  753TMC3    O111189   0.072   4.147  13.661  0.1785 -0.1281 -1.0500
  753TMC3    O211190   0.585   4.435  13.520  0.0245  0.1769  0.2428
  754MPD2     C11191   3.344   3.035  13.690 -0.0745 -0.0771 -0.2657
  754MPD2    C111192   3.312   2.931  13.597 -0.6006 -0.5269 -0.4705
  754MPD2    C211193   3.287   2.962  13.461  0.0045  0.0217 -0.1561
  754MPD2    C311194   3.269   3.097  13.433  0.9240  0.8437 -0.0554
  754MPD2    C411195   3.313   3.191  13.526 -0.5331 -0.9142 -0.2970
  754MPD2    C511196   3.348   3.166  13.652 -0.0113 -0.2649  0.6505
  754MPD2     H11197   3.271   2.885  13.386  1.8524  1.1517 -1.7203
  754MPD2    H111198   3.306   3.297  13.505 -2.1931 -0.9610  0.0323
  754MPD2    H211199   3.352   3.015  13.796 -0.6053  0.1256 -0.1867
  754MPD2    H311200   3.363   3.251  13.718  0.2336 -1.6910  2.4233
  754MPD2     N11201   3.222   3.147  13.306  0.3725  0.1727 -0.1786
  754MPD2    H511202   3.225   3.248  13.294  3.9716  0.0801 -0.1464
  754MPD2    N111203   3.325   2.798  13.658 -1.0197 -0.0425 -0.0283
  754MPD2    H711204   3.381   2.802  13.743 -0.3428 -1.4650 -0.4162
  755MPD2     C11205   2.726   3.834  13.144 -1.0989 -0.0681 -0.0376
  755MPD2    C111206   2.650   3.716  13.135  0.1647  0.3499  0.1910
  755MPD2    C211207   2.718   3.599  13.106 -0.5066 -0.2246 -0.6408
  755MPD2    C311208   2.858   3.598  13.091  0.1909 -0.2483 -0.3180
  755MPD2    C411209   2.931   3.715  13.126 -0.1760  0.3388 -0.0884
  755MPD2    C511210   2.861   3.830  13.148  0.0650 -0.8552  0.3968
  755MPD2     H11211   2.666   3.504  13.111  0.5524 -0.8696 -1.9721
  755MPD2    H111212   3.039   3.721  13.124 -0.2832  2.6030  0.8858
  755MPD2    H211213   2.691   3.932  13.177  2.1729  0.9239  0.4803
  755MPD2    H311214   2.911   3.921  13.180  1.5011 -2.0581  1.5745
  755MPD2     N11215   2.942   3.483  13.067  0.2024 -0.1609  0.0823
  755MPD2    H511216   3.042   3.487  13.082  0.0046 -0.0917  1.3794
  755MPD2    N111217   2.511   3.700  13.173  0.7051 -0.4586  0.7317
  755MPD2    H711218   2.461   3.612  13.163 -1.0396  0.7309 -1.1778
  756MPD2     C11219   4.181   3.868   9.859  0.1076  0.0173  0.2586
  756MPD2    C111220   4.081   3.905   9.943 -0.1341  0.5469  0.1177
  756MPD2    C211221   3.952   3.859   9.910  0.1105 -0.5772  0.5080
  756MPD2    C311222   3.940   3.773   9.801 -0.4619  0.2728  0.4821
  756MPD2    C411223   4.047   3.744   9.723 -0.0684  0.0480 -0.6978
  756MPD2    C511224   4.171   3.783   9.752 -0.2717 -0.2722  0.2218
  756MPD2     H11225   3.867   3.880   9.974 -0.0798 -2.2096  0.8090
  756MPD2    H111226   4.041   3.697   9.626 -0.2576 -0.3510 -0.4969
  756MPD2    H211227   4.282   3.903   9.876  0.6943 -0.7284 -1.7421
  756MPD2    H311228   4.257   3.763   9.689 -1.3968 -0.8397 -1.1380
  756MPD2     N11229   3.807   3.719   9.775  0.1046  0.4276  0.1196
  756MPD2    H511230   3.736   3.754   9.839 -1.0560  1.4573 -1.7325
  756MPD2    N111231   4.097   3.988  10.059  0.2867  0.4568  0.3704
  756MPD2    H711232   4.014   4.010  10.113  0.8079  2.0579  0.5143
  757MPD2     C11233   2.966   3.889  10.079 -0.6822  0.3810  0.1755
  757MPD2    C111234   2.959   3.761  10.043  0.5855 -0.0459  0.6414
  757MPD2    C211235   3.041   3.717   9.943 -0.6289  0.4530  0.7963
  757MPD2    C311236   3.143   3.795   9.892 -0.9044  0.3870  0.2651
  757MPD2    C411237   3.152   3.925   9.934  0.5668  0.4992  0.5773
  757MPD2    C511238   3.067   3.968  10.033  0.6989  0.3646 -0.2103
  757MPD2     H11239   3.036   3.613   9.914 -0.3696  1.1811 -1.8003
  757MPD2    H111240   3.221   3.996   9.891 -0.5037  2.4251  2.0362
  757MPD2    H211241   2.902   3.931  10.156 -0.4000  0.2986  0.4540
  757MPD2    H311242   3.060   4.074  10.051  2.1714  0.3137  0.6647
  757MPD2     N11243   3.232   3.730   9.799 -0.1113 -0.3491  0.7668
  757MPD2    H511244   3.222   3.632   9.777 -1.2603  0.3140 -1.7114
  757MPD2    N111245   2.854   3.689  10.102  0.2424 -0.3527 -0.4353
  757MPD2    H711246   2.775   3.745  10.131  0.0489 -1.1959  0.6638
  758MPD2     C11247   3.443   2.692  15.903 -0.2624  0.0755  0.0541
  758MPD2    C111248   3.465   2.572  15.967  0.1425 -0.7181 -0.5044
  758MPD2    C211249   3.452   2.561  16.107  0.7225  0.4414  0.0834
  758MPD2    C311250   3.394   2.674  16.170 -0.2708  0.1444  0.3035
  758MPD2    C411251   3.366   2.792  16.108 -0.2317 -0.1192 -0.2411
  758MPD2    C511252   3.398   2.800  15.974 -0.3659  0.1564 -0.0286
  758MPD2     H11253   3.475   2.472  16.166 -2.0812 -0.8175 -0.7614
  758MPD2    H111254   3.323   2.876  16.160 -0.6671  0.2939 -1.2751
  758MPD2    H211255   3.437   2.698  15.795 -0.0866  2.7967  0.1933
  758MPD2    H311256   3.384   2.896  15.926  0.4234  0.6155  0.6432
  758MPD2     N11257   3.354   2.678  16.301  0.4261  0.1688 -0.5941
  758MPD2    H511258   3.338   2.774  16.332 -2.9393 -0.0560 -1.5345
  758MPD2    N111259   3.524   2.476  15.886  0.0116 -0.3044  0.6469
  758MPD2    H711260   3.568   2.508  15.801 -1.0022  1.5741  0.8361
  759MPD2     C11261   2.720   0.999  10.311  0.0033  0.8176 -0.1939
  759MPD2    C111262   2.697   1.096  10.403  0.1725 -0.0025  0.1117
  759MPD2    C211263   2.721   1.228  10.370  0.4595  0.6554 -0.3708
  759MPD2    C311264   2.784   1.259  10.251 -0.9499  0.1716  0.4126
  759MPD2    C411265   2.802   1.160  10.155  0.6391  0.2185  0.2750
  759MPD2    C511266   2.782   1.029  10.188 -0.2727  0.1422  0.3620
  759MPD2     H11267   2.709   1.305  10.445  1.1067  2.5785 -2.2352
  759MPD2    H111268   2.852   1.175  10.060 -1.9319 -0.6526 -1.1948
  759MPD2    H211269   2.699   0.894  10.326  1.6957  0.4293 -0.5218
  759MPD2    H311270   2.807   0.945  10.124  2.3153 -0.0935  1.6681
  759MPD2     N11271   2.827   1.394  10.232 -0.3029 -0.0893  0.2680
  759MPD2    H511272   2.808   1.453  10.312 -0.6001 -1.3641  1.1398
  759MPD2    N111273   2.635   1.066  10.523  0.7634 -0.1032  0.4639
  759MPD2    H711274   2.608   1.147  10.579  0.2555 -0.2326  0.4100
  760MPD2     C11275   1.898   3.863  12.262 -0.5880 -0.7543  0.6532
  760MPD2    C111276   2.013   3.858  12.187  0.3686  0.0965 -0.0915
  760MPD2    C211277   2.052   3.746  12.119 -0.5328 -0.1687 -0.1408
  760MPD2    C311278   1.966   3.639  12.119 -0.0342 -0.1718 -0.5459
  760MPD2    C411279   1.847   3.645  12.190  0.0811 -0.1014 -0.3829
  760MPD2    C511280   1.817   3.758  12.256  0.4989  0.1238 -0.3322
  760MPD2     H11281   2.145   3.737  12.065 -0.0386  3.3694  0.1225
  760MPD2    H111282   1.770   3.570  12.179 -1.6455  1.8014 -1.1902
  760MPD2    H211283   1.867   3.949  12.320 -1.1162 -1.1629  0.9776
  760MPD2    H311284   1.723   3.769  12.309  0.0619 -1.8035 -0.7074
  760MPD2     N11285   1.997   3.512  12.062  0.0057 -0.3538 -0.5177
  760MPD2    H511286   1.937   3.432  12.077  1.2360 -1.2555 -0.4803
  760MPD2    N111287   2.109   3.966  12.190  0.3424  0.4434 -0.5805
  760MPD2    H711288   2.191   3.962  12.131 -0.8922 -1.0402 -2.1713
  761MPD2     C11289   2.964   2.858  11.346  0.4637 -0.4259 -0.2297
  761MPD2    C111290   3.020   2.816  11.226  0.9551  0.0765  0.4570
  761MPD2    C211291   3.101   2.904  11.155 -0.1440 -0.1566  0.5418
  761MPD2    C311292   3.126   3.030  11.203  0.0196  0.0597  0.6788
  761MPD2    C411293   3.077   3.065  11.326  0.7313  0.3996 -0.2655
  761MPD2    C511294   3.005   2.978  11.400  0.3370 -0.3204 -0.2407
  761MPD2     H11295   3.155   2.865  11.069  0.2749  2.9867 -0.6203
  761MPD2    H111296   3.111   3.159  11.369 -3.0845  1.2499  0.8671
  761MPD2    H211297   2.903   2.787  11.400  0.4646 -0.1400  0.1449
  761MPD2    H311298   2.968   3.006  11.498  1.1380 -0.4281  0.0928
  761MPD2     N11299   3.226   3.115  11.148 -0.0320  0.2112  0.6539
  761MPD2    H511300   3.257   3.200  11.194 -0.6100 -0.1692  1.7383
  761MPD2    N111301   3.002   2.693  11.175  0.3750 -0.4006 -0.5656
  761MPD2    H711302   2.979   2.620  11.243 -1.3283  2.1616  1.6001
  762MPD2     C11303   3.430   2.697  11.118 -0.1078  0.7632  0.1244
  762MPD2    C111304   3.447   2.592  11.030 -0.3891 -0.8388 -0.2131
  762MPD2    C211305   3.548   2.591  10.938 -0.1436 -0.5596  0.4101
  762MPD2    C311306   3.618   2.710  10.913  0.0080  0.1359 -0.3609
  762MPD2    C411307   3.599   2.817  11.000  0.5402  0.3510 -0.5323
  762MPD2    C511308   3.507   2.808  11.103 -0.2870 -0.4429  0.7591
  762MPD2     H11309   3.563   2.503  10.877  1.6147 -0.3898  0.5906
  762MPD2    H111310   3.670   2.899  11.005  0.2506  0.6601 -1.6018
  762MPD2    H211311   3.364   2.690  11.203  2.6562  2.8075  2.4476
  762MPD2    H311312   3.497   2.884  11.179 -0.2027 -0.0051  0.3284
  762MPD2     N11313   3.716   2.708  10.810 -0.5508 -0.3355  0.0745
  762MPD2    H511314   3.701   2.636  10.740  0.7616 -1.5213  1.0172
  762MPD2    N111315   3.341   2.495  11.041  0.3050  1.4181 -0.2190
  762MPD2    H711316   3.266   2.510  11.108  1.5563 -0.4452  1.5987
  763MPD2     C11317   0.790   2.725  16.380 -0.2501  0.6102 -0.1626
  763MPD2    C111318   0.666   2.748  16.324 -0.3474 -0.6563 -0.7268
  763MPD2    C211319   0.594   2.859  16.363 -0.4546  0.0071 -0.1530
  763MPD2    C311320   0.656   2.952  16.447  0.4096  0.2677 -0.2164
  763MPD2    C411321   0.772   2.921  16.521 -0.0723  0.1635 -0.3008
  763MPD2    C511322   0.835   2.801  16.490  0.0358  0.5547  0.0649
  763MPD2     H11323   0.500   2.881  16.314 -0.0464 -0.9244 -1.3533
  763MPD2    H111324   0.833   2.990  16.578  1.2549  0.0897 -1.6236
  763MPD2    H211325   0.857   2.640  16.369 -2.0440 -1.1213  2.4985
  763MPD2    H311326   0.925   2.774  16.543 -0.2643 -1.3145 -0.3671
  763MPD2     N11327   0.594   3.079  16.460  0.1415  0.1240 -0.0172
  763MPD2    H511328   0.528   3.104  16.387 -0.5015  2.0803  1.2287
  763MPD2    N111329   0.613   2.663  16.224  0.4475  0.3809 -0.1442
  763MPD2    H711330   0.528   2.695  16.179  0.2372  1.3239  0.9353
  764MPD2     C11331   3.825   4.063   0.146  0.0240 -0.1357  0.1969
  764MPD2    C111332   3.713   4.056   0.067  0.1216  0.0657  0.1980
  764MPD2    C211333   3.598   3.985   0.112 -0.1570 -0.5827  0.1498
  764MPD2    C311334   3.603   3.910   0.229 -0.2958  0.7320 -0.0762
  764MPD2    C411335   3.719   3.911   0.304 -0.4606  1.2114  0.0890
  764MPD2    C511336   3.822   3.992   0.266  0.5038  0.4434  0.5715
  764MPD2     H11337   3.506   3.989   0.055  0.8893 -0.3188 -1.5214
  764MPD2    H111338   3.735   3.858   0.397 -0.6758 -1.0406 -1.1773
  764MPD2    H211339   3.908   4.129   0.126 -1.3996  1.0878 -1.6629
  764MPD2    H311340   3.909   3.995   0.331 -0.0659 -3.1322  1.5131
  764MPD2     N11341   3.484   3.850   0.273 -0.5658  0.1918 -0.1248
  764MPD2    H511342   3.400   3.895   0.237 -0.7414 -0.6964 -0.7990
  764MPD2    N111343   3.713   4.119  17.696 -0.0335  0.1774  0.2508
  764MPD2    H711344   3.633   4.101  17.636  0.2140 -0.8089  0.2286
  765MPD2     C11345   2.865   1.742  16.016 -0.3851 -0.5168  0.5516
  765MPD2    C111346   2.934   1.843  15.958 -0.6721 -0.8085  0.2830
  765MPD2    C211347   3.068   1.817  15.922 -0.5156 -0.1465 -0.4155
  765MPD2    C311348   3.121   1.692  15.939 -0.5668  0.9945 -0.4070
  765MPD2    C411349   3.047   1.591  16.003 -0.1963 -0.4441  0.4537
  765MPD2    C511350   2.920   1.623  16.040 -0.4867 -0.6515 -0.3566
  765MPD2     H11351   3.117   1.897  15.867 -0.2658  0.0783  0.1314
  765MPD2    H111352   3.083   1.493  16.031 -2.5317 -1.4371 -0.0585
  765MPD2    H211353   2.758   1.751  16.031 -0.1993 -0.4718  1.8480
  765MPD2    H311354   2.862   1.554  16.100 -0.1294  0.6288  1.4741
  765MPD2     N11355   3.241   1.661  15.882 -0.1304  0.1534  0.4088
  765MPD2    H511356   3.308   1.733  15.854  0.7539 -0.6138  0.5739
  765MPD2    N111357   2.869   1.966  15.954  0.3337  0.4741  0.5516
  765MPD2    H711358   2.770   1.966  15.974  0.4255  0.3348  1.0064
  766MPD2     C11359   2.502   2.231  15.362  0.1958 -0.5377  0.3677
  766MPD2    C111360   2.634   2.225  15.404 -0.2627  0.4598  0.2669
  766MPD2    C211361   2.739   2.204  15.311 -0.8495  0.0999 -0.5558
  766MPD2    C311362   2.704   2.189  15.179 -0.6377  0.2699  0.2439
  766MPD2    C411363   2.568   2.183  15.145 -0.1627 -0.9904 -0.6808
  766MPD2    C511364   2.467   2.212  15.231  0.2487 -0.4886 -0.3853
  766MPD2     H11365   2.841   2.212  15.347 -0.9124 -1.3098 -0.0874
  766MPD2    H111366   2.538   2.166  15.042  0.2088 -2.9104 -0.4646
  766MPD2    H211367   2.424   2.258  15.433 -0.2426  0.4396 -0.4885
  766MPD2    H311368   2.365   2.225  15.198 -0.5667 -0.5807  2.1132
  766MPD2     N11369   2.793   2.182  15.070  0.0241  0.3756 -0.0730
  766MPD2    H511370   2.748   2.156  14.982 -0.0565  0.8260 -0.1649
  766MPD2    N111371   2.679   2.241  15.537 -0.5192 -0.3565 -0.1574
  766MPD2    H711372   2.778   2.239  15.558 -0.1245  0.3062 -1.9888
  767MPD2     C11373   2.385   2.451  14.988  0.9897  0.0911  0.4565
  767MPD2    C111374   2.515   2.458  14.964  0.4112 -0.0446 -0.3850
  767MPD2    C211375   2.572   2.388  14.858  0.0422  0.1873 -0.5415
  767MPD2    C311376   2.493   2.313  14.774  0.5217 -0.2147  0.1521
  767MPD2    C411377   2.357   2.300  14.801 -0.6154  0.1139 -0.3019
  767MPD2    C511378   2.311   2.369  14.910  0.2199 -0.0242  0.3251
  767MPD2     H11379   2.678   2.401  14.841  0.5698 -1.5867  1.4693
  767MPD2    H111380   2.294   2.229  14.747 -1.3088  1.2947 -1.0437
  767MPD2    H211381   2.342   2.489  15.080  0.9638 -0.2897  0.5985
  767MPD2    H311382   2.206   2.363  14.938  0.3190  1.2196  0.9457
  767MPD2     N11383   2.559   2.252  14.659 -0.6835  0.0245  0.1809
  767MPD2    H511384   2.658   2.268  14.643 -1.0442  1.4220 -0.6334
  767MPD2    N111385   2.602   2.538  15.044 -0.6838 -0.0888 -0.3725
  767MPD2    H711386   2.562   2.573  15.131  0.5292  5.2579 -1.9349
  768MPD2     C11387   3.434   0.726  10.782 -0.4156  0.0463 -0.3533
  768MPD2    C111388   3.452   0.846  10.849 -0.0341 -0.2380  0.4085
  768MPD2    C211389   3.524   0.859  10.965 -0.3514 -0.0596  0.4586
  768MPD2    C311390   3.598   0.747  11.007  0.3268  0.0277 -0.2318
  768MPD2    C411391   3.581   0.630  10.939 -0.2274 -0.7313  0.2131
  768MPD2    C511392   3.502   0.615  10.829  0.5061  0.1039  0.5310
  768MPD2     H11393   3.536   0.955  11.013  2.7340 -0.8526  1.2635
  768MPD2    H111394   3.634   0.543  10.975  0.8802  0.4901  1.5460
  768MPD2    H211395   3.375   0.718  10.691 -0.9370 -1.0484  0.0802
  768MPD2    H311396   3.494   0.518  10.781  0.7309 -0.7502  2.1994
  768MPD2     N11397   3.688   0.757  11.120  0.4365 -0.1814 -0.6095
  768MPD2    H511398   3.742   0.674  11.144  1.6930  0.5198 -0.9738
  768MPD2    N111399   3.385   0.957  10.790 -0.3599 -0.2507 -0.6040
  768MPD2    H711400   3.344   0.946  10.698 -0.8653 -0.8381 -0.3116
  769MPD2     C11401   4.294   3.687  14.879 -0.2211 -0.4348 -0.0255
  769MPD2    C111402   4.204   3.720  14.978  0.4924 -0.1091  0.7297
  769MPD2    C211403   4.230   3.711  15.113  0.5029 -0.1395  1.0637
  769MPD2    C311404   4.355   3.669  15.152 -0.5834 -0.3506  0.7827
  769MPD2    C411405   4.444   3.635  15.048 -0.4495 -0.6842 -0.9854
  769MPD2    C511406   4.421   3.654  14.915  0.0238  0.1237 -0.0534
  769MPD2     H11407   4.164   3.744  15.193 -2.9950  0.3571 -2.0185
  769MPD2    H111408   4.536   3.589  15.081  0.2393  0.1904 -1.6859
  769MPD2    H211409   4.273   3.705  14.775 -1.5701 -3.3681 -0.2698
  769MPD2    H311410   4.490   3.619  14.838 -0.6166  0.1942 -0.6533
  769MPD2     N11411   4.394   3.653  15.289  0.3068  0.3970 -0.3201
  769MPD2    H511412   4.329   3.662  15.366  1.4148  1.9603  0.4175
  769MPD2    N111413   4.078   3.760  14.929  0.1584  0.2101  0.3725
  769MPD2    H711414   4.080   3.757  14.828 -2.7628 -0.0735  0.3114
  770MPD2     C11415   3.600   3.101  15.263  0.3473  1.0848 -0.5014
  770MPD2    C111416   3.691   3.093  15.153  0.6556  0.0696  0.6946
  770MPD2    C211417   3.717   3.209  15.087  0.9560  0.6034 -0.1446
  770MPD2    C311418   3.658   3.331  15.125  0.5087  0.0628  0.5272
  770MPD2    C411419   3.565   3.333  15.225  0.1009 -0.4439  0.2585
  770MPD2    C511420   3.542   3.221  15.299  0.0757  0.6992 -0.7333
  770MPD2     H11421   3.788   3.218  15.006  1.3345 -1.3358 -0.0381
  770MPD2    H111422   3.512   3.424  15.250  1.0828  0.8648 -2.4745
  770MPD2    H211423   3.570   3.018  15.325 -1.6215  2.3039  0.1626
  770MPD2    H311424   3.476   3.214  15.386  2.3726 -1.4619  0.8427
  770MPD2     N11425   3.682   3.445  15.042  0.1792  0.1462 -0.2301
  770MPD2    H511426   3.759   3.433  14.977 -0.3629 -1.7753 -0.5288
  770MPD2    N111427   3.750   2.967  15.120  0.0727  0.4577  0.4475
  770MPD2    H711428   3.739   2.882  15.174 -0.6125  0.0582 -0.3353
  771MPD2     C11429   0.380   1.738  13.619 -0.7775  0.3107  0.7332
  771MPD2    C111430   0.417   1.845  13.542 -1.2330  0.7805  0.2485
  771MPD2    C211431   0.417   1.831  13.404  0.4525  0.2076  0.1992
  771MPD2    C311432   0.386   1.714  13.340  0.2039  0.1630 -0.2053
  771MPD2    C411433   0.343   1.614  13.420  0.0370 -0.3601  0.0371
  771MPD2    C511434   0.336   1.626  13.555 -0.2528 -0.4962 -0.1765
  771MPD2     H11435   0.449   1.916  13.344  1.3251 -0.4080 -0.2007
  771MPD2    H111436   0.320   1.517  13.377 -1.1078 -0.8295  1.7246
  771MPD2    H211437   0.376   1.756  13.726 -3.9038 -0.7122  0.8027
  771MPD2    H311438   0.300   1.536  13.604  1.9539 -0.5822  1.3055
  771MPD2     N11439   0.397   1.709  13.201 -0.1211  0.0803 -0.1851
  771MPD2    H511440   0.429   1.792  13.153  2.5908  0.2955  2.0328
  771MPD2    N111441   0.466   1.968  13.588  0.5372  0.0735  0.1642
  771MPD2    H711442   0.509   2.034  13.524  1.6412 -1.1007 -0.2905
  772MPD2     C11443   0.191   2.511  14.187  0.0715  0.6009 -0.1655
  772MPD2    C111444   0.152   2.428  14.082  0.0868  0.3406  0.3105
  772MPD2    C211445   0.027   2.371  14.082 -0.2114 -0.2343 -0.1464
  772MPD2    C311446   4.676   2.405  14.181  0.2197 -0.1410 -0.4205
  772MPD2    C411447   4.714   2.488  14.290 -0.5975  0.2015  0.1653
  772MPD2    C511448   0.103   2.536  14.288  0.2971  0.5205  0.4904
  772MPD2     H11449   0.005   2.299  14.004  3.5829 -1.5631  0.0028
  772MPD2    H111450   4.645   2.500  14.372 -0.5334  2.4455 -0.1219
  772MPD2    H211451   0.293   2.545  14.199  0.2910 -0.4152  0.8091
  772MPD2    H311452   0.139   2.593  14.373 -0.7356  0.9754  0.6170
  772MPD2     N11453   4.542   2.358  14.172 -0.1028 -0.2672  0.0007
  772MPD2    H511454   4.475   2.367  14.248 -0.0120 -1.8264  0.2697
  772MPD2    N111455   0.245   2.392  13.980 -0.1157  0.2406  0.7082
  772MPD2    H711456   0.197   2.343  13.905  2.7337 -0.6012 -0.5520
  773MPD2     C11457   4.419   2.551   0.361  0.3740  0.4046  0.4060
  773MPD2    C111458   4.342   2.469   0.292  0.6083  0.2451 -0.3222
  773MPD2    C211459   4.357   2.332   0.298  0.1633 -0.4795  0.1298
  773MPD2    C311460   4.442   2.279   0.397  0.4020  0.3660 -0.3619
  773MPD2    C411461   4.515   2.371   0.472  0.1808 -0.0321 -0.5818
  773MPD2    C511462   4.505   2.504   0.449  0.1876 -0.3967  0.0872
  773MPD2     H11463   4.289   2.271   0.240  2.6400 -2.0516 -1.0876
  773MPD2    H111464   4.592   2.335   0.540 -3.2187 -0.9515  2.7724
  773MPD2    H211465   4.420   2.658   0.341 -1.1093  0.4260  0.4475
  773MPD2    H311466   4.566   2.570   0.510  0.4462 -0.5032 -0.0566
  773MPD2     N11467   4.449   2.133   0.400 -0.0191 -0.1244  0.0293
  773MPD2    H511468   4.379   2.085   0.344 -0.3731  0.0517  0.3153
  773MPD2    N111469   4.242   2.512   0.203 -0.0916 -0.0199  0.1977
  773MPD2    H711470   4.210   2.445   0.134  1.4412  1.0838 -1.5486
  774MPD2     C11471   3.111   1.875  13.330  0.7595 -0.1853 -0.4840
  774MPD2    C111472   3.050   1.934  13.435  0.4079 -0.6713  0.4551
  774MPD2    C211473   3.032   2.074  13.436 -0.6185 -0.0168 -0.4699
  774MPD2    C311474   3.101   2.145  13.340 -0.3548  0.3351  0.9102
  774MPD2    C411475   3.174   2.079  13.246  0.0958  0.6807  0.6913
  774MPD2    C511476   3.177   1.946  13.236 -0.2651  0.0827 -0.0692
  774MPD2     H11477   2.977   2.121  13.517  1.9765 -0.2334  1.4183
  774MPD2    H111478   3.240   2.132  13.179 -0.6781  0.3848 -0.3063
  774MPD2    H211479   3.119   1.766  13.329 -3.3240 -0.4795  1.6442
  774MPD2    H311480   3.232   1.897  13.157 -0.4173 -1.2082  0.6327
  774MPD2     N11481   3.109   2.285  13.343 -0.3173 -0.0156  0.3018
  774MPD2    H511482   3.196   2.330  13.315  0.6564 -2.5438 -0.8015
  774MPD2    N111483   3.042   1.877  13.566  0.5313  0.0075  0.2098
  774MPD2    H711484   3.018   1.934  13.646 -0.8909  0.5696 -0.6207
  775MPD2     C11485   4.697   3.279  15.922 -0.3140 -1.0124  0.7606
  775MPD2    C111486   4.633   3.398  15.949 -0.0866  1.1149  0.5155
  775MPD2    C211487   4.703   3.516  15.947 -0.0012 -0.4395  0.0639
  775MPD2    C311488   0.091   3.513  15.906  0.4960  0.0928  0.1659
  775MPD2    C411489   0.147   3.398  15.871  0.6678  0.5706  0.1383
  775MPD2    C511490   0.090   3.279  15.888  0.1633 -0.0002  0.5206
  775MPD2     H11491   4.649   3.605  15.977  0.8710  0.5406 -1.2521
  775MPD2    H111492   0.249   3.395  15.834  0.7215  1.2786  0.2315
  775MPD2    H211493   4.653   3.190  15.965 -0.6030 -1.5716 -0.7228
  775MPD2    H311494   0.137   3.185  15.863 -2.2167 -0.5166 -1.9397
  775MPD2     N11495   0.166   3.628  15.873  0.6105 -0.1095 -0.0977
  775MPD2    H511496   0.244   3.600  15.815  1.1571 -2.3080  1.7112
  775MPD2    N111497   4.501   3.386  15.998 -0.0551  0.2567 -0.6148
  775MPD2    H711498   4.463   3.292  15.998  1.5387 -0.3827 -0.1002
  776MPD2     C11499   3.715   4.446  11.615 -0.6880 -0.6069 -0.9686
  776MPD2    C111500   3.807   4.352  11.650  0.6561 -0.6661  0.0397
  776MPD2    C211501   3.942   4.387  11.659 -0.0230 -0.8886 -0.0022
  776MPD2    C311502   3.983   4.514  11.620 -0.1311 -0.1065 -0.8168
  776MPD2    C411503   3.888   4.606  11.591  0.4197 -0.5915  0.7793
  776MPD2    C511504   3.754   4.575  11.590  0.5462 -0.1610  0.1162
  776MPD2     H11505   4.020   4.318  11.688  0.7909 -0.1963 -0.5133
  776MPD2    H111506   3.913   4.708  11.564  1.5126 -0.3116  2.8948
  776MPD2    H211507   3.610   4.419  11.616 -0.1010 -2.8539 -1.5923
  776MPD2    H311508   3.675   4.645  11.563  1.2492  0.3760 -0.5574
  776MPD2     N11509   4.114   4.554  11.608 -0.0191 -0.4198 -0.5743
  776MPD2    H511510   4.138   4.649  11.579  0.8291  0.1360  1.9607
  776MPD2    N111511   3.757   4.230  11.701  0.0699  0.1698 -0.8921
  776MPD2    H711512   3.656   4.226  11.710  0.2758 -3.0584 -0.1824
  777MPD2     C11513   4.468   1.505   0.950  0.5902 -0.0091  0.0501
  777MPD2    C111514   4.339   1.468   1.001 -0.1136  0.0450 -0.4174
  777MPD2    C211515   4.281   1.342   0.969 -0.6545  0.4770 -0.6676
  777MPD2    C311516   4.345   1.263   0.879 -0.1290 -0.0397  0.3541
  777MPD2    C411517   4.460   1.312   0.822 -0.5567  0.1166 -0.0552
  777MPD2    C511518   4.522   1.428   0.860  0.0719 -0.1654  0.2624
  777MPD2     H11519   4.187   1.312   1.012 -0.1912  1.3574  0.9314
  777MPD2    H111520   4.511   1.254   0.746  2.8559  1.2600  1.3547
  777MPD2    H211521   4.530   1.590   0.974 -0.7735  1.2772 -1.0394
  777MPD2    H311522   4.614   1.464   0.816  0.7486 -1.1055  0.9132
  777MPD2     N11523   4.269   1.148   0.832  0.4510 -0.0654 -0.0776
  777MPD2    H511524   4.183   1.125   0.881 -0.4000  0.4822 -1.3001
  777MPD2    N111525   4.298   1.546   1.114 -0.0068  0.5145  0.3879
  777MPD2    H711526   4.368   1.613   1.143 -0.5351  1.2080  0.0575
  778MPD2     C11527   0.181   1.608  14.597 -0.8836  0.6068  0.0542
  778MPD2    C111528   0.262   1.496  14.584  0.4455 -0.3416  0.0911
  778MPD2    C211529   0.372   1.504  14.499 -0.2266 -0.0944 -0.5048
  778MPD2    C311530   0.388   1.624  14.430 -0.1349  0.3350 -0.1385
  778MPD2    C411531   0.299   1.732  14.431 -0.3415  0.1502 -0.1269
  778MPD2    C511532   0.193   1.714  14.514 -0.2044 -0.5820  0.4022
  778MPD2     H11533   0.439   1.420  14.489  2.0237  1.2809  2.9664
  778MPD2    H111534   0.313   1.826  14.380 -2.5730  0.0355 -0.9575
  778MPD2    H211535   0.103   1.607  14.673 -2.0374  1.0120 -1.1273
  778MPD2    H311536   0.120   1.794  14.512  0.9509  0.4688  0.2919
  778MPD2     N11537   0.516   1.631  14.365 -0.5667 -0.8434  0.7517
  778MPD2    H511538   0.572   1.547  14.354  1.7205  0.8317 -0.3799
  778MPD2    N111539   0.237   1.377  14.661 -0.8694  0.1426 -0.1778
  778MPD2    H711540   0.297   1.298  14.642  0.1000  1.0206 -0.7468
  779MPD2     C11541   0.013   0.330  14.092 -0.1947 -0.1256  0.5237
  779MPD2    C111542   0.080   0.371  14.204 -0.6918 -0.2719  0.4853
  779MPD2    C211543   0.110   0.501  14.229 -1.0311  0.4465 -0.5697
  779MPD2    C311544   0.070   0.598  14.144 -0.3220 -0.2777 -0.2237
  779MPD2    C411545   0.019   0.554  14.022 -0.4811  0.0009  0.1785
  779MPD2    C511546   4.718   0.431  14.000 -0.0813  0.2903  0.4256
  779MPD2     H11547   0.167   0.523  14.318  0.5871 -2.7549 -0.8244
  779MPD2    H111548   4.738   0.626  13.944 -2.4305  0.8063  1.4928
  779MPD2    H211549   4.720   0.229  14.074  0.2589  0.1297 -1.8202
  779MPD2    H311550   4.648   0.414  13.920 -1.9383 -0.2776  2.1687
  779MPD2     N11551   0.097   0.733  14.178  0.2077  0.1093 -0.5306
  779MPD2    H511552   0.151   0.745  14.263 -2.2598  0.0927  1.0505
  779MPD2    N111553   0.108   0.260  14.287  0.3361  0.2490  0.8193
  779MPD2    H711554   0.081   0.175  14.239 -0.6011  1.8566 -1.4839
  780MPD2     C11555   4.134   0.094   1.121 -0.3544  0.4345 -0.7348
  780MPD2    C111556   4.120   0.072   0.983  0.0297  0.2297  0.1845
  780MPD2    C211557   4.231   0.099   0.903  1.0444  0.0532 -0.2612
  780MPD2    C311558   4.352   0.146   0.953 -0.3514  0.9184 -0.9209
  780MPD2    C411559   4.359   0.172   1.090 -0.4231  0.1856 -0.1837
  780MPD2    C511560   4.250   0.149   1.171 -0.0930 -0.4774  0.3377
  780MPD2     H11561   4.218   0.091   0.796  0.9356  0.1019 -0.2514
  780MPD2    H111562   4.446   0.225   1.126 -1.9458  2.4887  0.0944
  780MPD2    H211563   4.055   0.058   1.185 -1.0881  0.3256 -1.7096
  780MPD2    H311564   4.277   0.151   1.276 -0.1960 -1.6319  0.3853
  780MPD2     N11565   4.460   0.166   0.858  0.1902  0.3351  0.5084
  780MPD2    H511566   4.439   0.141   0.762  2.4183  1.0416 -0.1556
  780MPD2    N111567   4.007   4.741   0.932 -0.1025  0.1871  0.1942
  780MPD2    H711568   3.934   4.728   1.001 -2.1348  0.8274 -1.8152
  781MPD2     C11569   1.103   2.674  12.421 -0.3305 -0.3842 -1.1445
  781MPD2    C111570   1.220   2.599  12.434  0.2272  0.1511 -0.3678
  781MPD2    C211571   1.342   2.639  12.379  0.3458 -1.0179 -0.3818
  781MPD2    C311572   1.338   2.750  12.296 -0.4219  0.0738 -0.5855
  781MPD2    C411573   1.223   2.819  12.278  0.0208  0.2355  0.4211
  781MPD2    C511574   1.104   2.783  12.346  0.3312  0.0448  0.1498
  781MPD2     H11575   1.431   2.578  12.385  0.5748 -0.4727  1.6315
  781MPD2    H111576   1.212   2.900  12.207  1.0928  0.3052  0.3373
  781MPD2    H211577   1.011   2.639  12.466  0.4179  2.4846  2.6239
  781MPD2    H311578   1.010   2.829  12.317 -1.8180 -2.5936  3.0055
  781MPD2     N11579   1.453   2.801  12.219 -0.2228 -0.1391  0.0615
  781MPD2    H511580   1.431   2.882  12.162 -1.7686 -0.6125 -0.0184
  781MPD2    N111581   1.225   2.481  12.514 -0.2945  0.2529  0.0561
  781MPD2    H711582   1.312   2.429  12.508 -1.3304 -1.4845  0.1983
  782MPD2     C11583   4.023   3.638  10.308 -0.1183  0.3475 -0.8188
  782MPD2    C111584   4.148   3.639  10.251  0.3593  0.4770 -0.2285
  782MPD2    C211585   4.263   3.681  10.319 -0.3169 -0.4210 -0.2599
  782MPD2    C311586   4.238   3.717  10.450  0.4865  1.0313 -0.0557
  782MPD2    C411587   4.111   3.742  10.491  0.0002 -0.3531 -0.0651
  782MPD2    C511588   4.001   3.716  10.414 -0.3872  0.8322  0.4719
  782MPD2     H11589   4.357   3.664  10.268  0.1367  1.3956 -0.0223
  782MPD2    H111590   4.082   3.771  10.591  0.8617 -1.2314  0.4397
  782MPD2    H211591   3.940   3.598  10.251 -0.5127 -0.1496  0.0920
  782MPD2    H311592   3.899   3.737  10.445 -0.3217  0.4924  0.9276
  782MPD2     N11593   4.351   3.723  10.529 -0.7701 -0.2516  0.0517
  782MPD2    H511594   4.439   3.700  10.484  0.0726  1.7374  0.6664
  782MPD2    N111595   4.153   3.578  10.124  0.0107 -0.3404 -0.2130
  782MPD2    H711596   4.069   3.523  10.111  1.2254 -1.6660 -2.4207
  783MPD2     C11597   3.657   2.957  10.478 -0.2671  1.7411  0.1356
  783MPD2    C111598   3.718   3.048  10.568  0.0672 -0.2870 -0.0084
  783MPD2    C211599   3.829   3.117  10.518 -1.0620  0.2679  0.5780
  783MPD2    C311600   3.883   3.090  10.391 -0.5348  0.4227  0.3057
  783MPD2    C411601   3.819   2.999  10.309 -0.3482  0.1971 -0.1387
  783MPD2    C511602   3.704   2.941  10.351  0.5206 -0.4139  0.1907
  783MPD2     H11603   3.884   3.190  10.577 -1.0285 -0.1957  1.1159
  783MPD2    H111604   3.848   2.977  10.207  0.3159 -0.9790  0.2971
  783MPD2    H211605   3.573   2.894  10.505  1.4380 -0.6822 -0.1934
  783MPD2    H311606   3.659   2.869  10.283  1.4439 -1.0230  0.2268
  783MPD2     N11607   3.998   3.155  10.344 -0.1335 -0.5226 -0.0242
  783MPD2    H511608   4.046   3.219  10.407  2.1724 -1.0128 -1.2766
  783MPD2    N111609   3.652   3.085  10.687  0.4844  0.2181 -0.8546
  783MPD2    H711610   3.567   3.032  10.702  0.0442  0.8927 -0.9323
  784MPD2     C11611   2.147   3.757   0.624  0.3990 -0.2840 -0.2995
  784MPD2    C111612   2.037   3.767   0.704  0.5137 -0.4780  0.3230
  784MPD2    C211613   1.913   3.781   0.647  0.3614  0.3205 -0.3057
  784MPD2    C311614   1.897   3.787   0.509 -0.5397 -0.0613 -0.2144
  784MPD2    C411615   2.010   3.783   0.431  0.0117 -0.1932 -0.1425
  784MPD2    C511616   2.131   3.775   0.489 -0.5093  0.2572 -0.3410
  784MPD2     H11617   1.823   3.778   0.707  1.5249 -1.6807  1.3571
  784MPD2    H111618   2.001   3.792   0.323  0.9835 -0.8209 -0.2716
  784MPD2    H211619   2.242   3.733   0.670  0.3313 -0.3430 -0.1905
  784MPD2    H311620   2.219   3.771   0.426  0.5551 -0.6986  1.2282
  784MPD2     N11621   1.765   3.793   0.462  0.4458 -0.0668  0.1745
  784MPD2    H511622   1.689   3.784   0.529  0.0699 -3.0153 -0.6487
  784MPD2    N111623   2.034   3.753   0.843 -0.0659 -0.3658 -0.3557
  784MPD2    H711624   1.947   3.768   0.894  0.0025 -1.8415  0.1977
  785MPD2     C11625   2.649   1.675  10.934  0.1487 -0.2749  0.1489
  785MPD2    C111626   2.511   1.669  10.914  0.0905  0.5811  0.2267
  785MPD2    C211627   2.462   1.636  10.785 -0.1090 -0.0185 -0.0912
  785MPD2    C311628   2.548   1.616  10.675  0.1092  0.1753  0.0891
  785MPD2    C411629   2.681   1.641  10.692  0.2805 -0.0624 -0.4489
  785MPD2    C511630   2.736   1.658  10.824  0.4442  0.2152  0.5274
  785MPD2     H11631   2.354   1.639  10.772 -0.2710 -0.8926  1.1083
  785MPD2    H111632   2.744   1.643  10.603  1.0005  0.8672  0.0813
  785MPD2    H211633   2.698   1.693  11.029  1.1883 -0.7532 -0.3069
  785MPD2    H311634   2.844   1.663  10.834  0.3830 -1.0657  2.0535
  785MPD2     N11635   2.470   1.609  10.554 -0.3445 -0.2165  0.1504
  785MPD2    H511636   2.371   1.626  10.566 -1.0400 -3.5643 -0.8267
  785MPD2    N111637   2.412   1.677  11.019 -1.2091 -0.1194 -0.0168
  785MPD2    H711638   2.319   1.658  10.983 -0.0669 -1.0176 -2.4994
  786MPD2     C11639   0.656   4.507  14.977  0.3588 -0.2330  0.2826
  786MPD2    C111640   0.701   4.381  15.017  1.2077 -0.0303 -1.0885
  786MPD2    C211641   0.713   4.357  15.153  0.0770  0.4010  0.6444
  786MPD2    C311642   0.661   4.452  15.250  0.4799 -0.1477 -0.0894
  786MPD2    C411643   0.614   4.573  15.209 -0.3581  0.0474 -1.0319
  786MPD2    C511644   0.610   4.596  15.071 -0.2547  0.1573 -0.2980
  786MPD2     H11645   0.744   4.261  15.193  1.7245  0.2149 -1.1076
  786MPD2    H111646   0.565   4.641  15.278  1.5563  0.6218 -0.2265
  786MPD2    H211647   0.656   4.534  14.872 -1.0040  0.4546  0.4609
  786MPD2    H311648   0.570   4.691  15.038  2.0949  0.6672 -1.6589
  786MPD2     N11649   0.672   4.429  15.392 -0.0654  0.4113 -0.1740
  786MPD2    H511650   0.689   4.504  15.458  0.9428  1.2645 -1.3861
  786MPD2    N111651   0.733   4.277  14.923 -0.3271  0.5636 -0.7368
  786MPD2    H711652   0.768   4.188  14.959  2.2145  1.2927 -1.3992
  787MPD2     C11653   0.929   3.715  15.138 -0.2308 -0.2636 -0.1355
  787MPD2    C111654   0.941   3.699  14.998 -0.0911 -0.5190 -0.1507
  787MPD2    C211655   0.974   3.582  14.941  0.2191  0.1637 -0.2929
  787MPD2    C311656   0.992   3.474  15.028  0.7284 -0.2314 -0.3415
  787MPD2    C411657   0.981   3.491  15.166  0.1302  0.0229  0.3592
  787MPD2    C511658   0.958   3.615  15.223  0.2709  0.2144  0.0521
  787MPD2     H11659   0.986   3.569  14.834 -0.9263 -0.6954 -0.3133
  787MPD2    H111660   0.996   3.412  15.239 -0.8955 -0.2001  0.3345
  787MPD2    H211661   0.909   3.815  15.174 -1.1329 -0.2936 -0.5524
  787MPD2    H311662   0.970   3.627  15.330  0.9568 -4.2887  0.4933
  787MPD2     N11663   1.028   3.351  14.975 -0.0768 -0.2468 -0.5809
  787MPD2    H511664   1.060   3.350  14.879  0.4695  1.3185 -0.4156
  787MPD2    N111665   0.909   3.813  14.918 -0.8913  0.1574  0.2829
  787MPD2    H711666   0.879   3.892  14.973  0.1710 -0.3524  1.5803
  788MPD2     C11667   2.736   3.021   1.031  0.1123  0.3991  0.6185
  788MPD2    C111668   2.845   2.987   0.951  0.0790 -0.1505 -0.4732
  788MPD2    C211669   2.892   3.082   0.869  0.1528 -0.5008  0.8191
  788MPD2    C311670   2.846   3.214   0.872  0.9633  0.0912  0.3435
  788MPD2    C411671   2.760   3.249   0.970  0.0349 -0.1649 -0.2221
  788MPD2    C511672   2.707   3.155   1.052 -0.8524 -0.0650  0.5263
  788MPD2     H11673   2.965   3.044   0.799  0.1119  0.6417  0.1645
  788MPD2    H111674   2.705   3.342   0.979  0.9916  0.4632 -0.9255
  788MPD2    H211675   2.694   2.945   1.096 -2.0006  0.3672 -0.7965
  788MPD2    H311676   2.635   3.187   1.127 -0.7096 -0.2862  0.7604
  788MPD2     N11677   2.866   3.309   0.772 -0.1182 -0.8141 -0.2206
  788MPD2    H511678   2.813   3.394   0.781  0.8001 -0.2775  0.1823
  788MPD2    N111679   2.873   2.848   0.954 -0.1836  0.1786 -0.6432
  788MPD2    H711680   2.818   2.792   1.018 -1.1291 -0.5607 -2.1005
  789MPD2     C11681   3.035   2.652  16.233 -0.0246 -0.5828  0.2506
  789MPD2    C111682   2.997   2.606  16.359  0.0370 -0.6520 -0.1727
  789MPD2    C211683   2.946   2.699  16.446 -0.3462 -0.0117  0.4257
  789MPD2    C311684   2.933   2.836  16.409 -0.1482  0.8065 -0.5354
  789MPD2    C411685   2.968   2.876  16.281  0.0676  0.9696 -0.1874
  789MPD2    C511686   3.024   2.787  16.196 -1.0514 -0.2961 -0.1941
  789MPD2     H11687   2.913   2.661  16.541 -0.1470  1.2602  1.0089
  789MPD2    H111688   2.970   2.983  16.259 -3.1240  0.4900 -2.8698
  789MPD2    H211689   3.065   2.588  16.150  2.1831 -1.3107  1.6362
  789MPD2    H311690   3.047   2.823  16.097 -1.2595  2.2029  0.6844
  789MPD2     N11691   2.874   2.930  16.504 -0.0749  0.4952  0.2459
  789MPD2    H511692   2.831   3.012  16.462 -0.6318 -0.9547 -1.9981
  789MPD2    N111693   2.997   2.467  16.383 -0.2447 -0.3610  0.0834
  789MPD2    H711694   2.982   2.434  16.478  2.2690  0.0412  0.6248
  790MPD2     C11695   3.835   4.434  13.823  0.0645  0.3597  0.2368
  790MPD2    C111696   3.967   4.465  13.778 -0.1761  0.6717 -0.2225
  790MPD2    C211697   3.983   4.507  13.647 -0.1194  0.6547 -0.3719
  790MPD2    C311698   3.875   4.502  13.559  0.3772 -0.3526 -0.1361
  790MPD2    C411699   3.749   4.467  13.605  0.2865  0.1328 -0.0508
  790MPD2    C511700   3.728   4.431  13.740  0.2004  0.0447 -0.2481
  790MPD2     H11701   4.077   4.545  13.609  0.3747 -0.7934 -0.5674
  790MPD2    H111702   3.666   4.469  13.535  0.2771  0.4835 -0.0328
  790MPD2    H211703   3.826   4.404  13.926  0.1704 -2.1759 -0.5036
  790MPD2    H311704   3.626   4.405  13.766  0.1684  0.3162 -0.1047
  790MPD2     N11705   3.906   4.522  13.421 -0.4651 -0.3468 -0.5682
  790MPD2    H511706   4.006   4.530  13.408 -0.4608  3.3254  1.7772
  790MPD2    N111707   4.059   4.484  13.883  0.0142 -0.0574  0.4374
  790MPD2    H711708   4.037   4.459  13.979  0.0625  0.9571  0.7124
  791MPD2     C11709   3.366   4.531  12.875  0.5645  0.1261  0.4121
  791MPD2    C111710   3.420   4.408  12.895  0.0257 -0.0873 -0.1977
  791MPD2    C211711   3.341   4.300  12.889 -0.7026  0.0015  0.0033
  791MPD2    C311712   3.204   4.317  12.864  0.1644 -0.0561  0.3267
  791MPD2    C411713   3.150   4.438  12.846  0.3001 -0.0988  0.0328
  791MPD2    C511714   3.231   4.550  12.852 -0.0983 -0.0424 -0.3620
  791MPD2     H11715   3.369   4.196  12.900  0.5338  0.3958  0.5835
  791MPD2    H111716   3.045   4.460  12.833 -0.0427 -0.2164  2.6078
  791MPD2    H211717   3.432   4.615  12.895  0.0870  0.2933  1.3142
  791MPD2    H311718   3.196   4.653  12.851  1.4509  0.4927  0.5258
  791MPD2     N11719   3.126   4.203  12.866  0.0989 -0.1155  0.7232
  791MPD2    H511720   3.168   4.115  12.897  1.2314  0.2661  0.2805
  791MPD2    N111721   3.561   4.406  12.917  0.5033 -0.2300  0.5130
  791MPD2    H711722   3.608   4.496  12.918 -1.2889  0.7241 -0.1562
  792MPD2     C11723   4.532   4.186  11.444 -0.1421  0.2520 -0.5619
  792MPD2    C111724   4.472   4.264  11.343  0.0056 -0.0508  0.0318
  792MPD2    C211725   4.337   4.287  11.337 -1.0923 -0.4460  0.0841
  792MPD2    C311726   4.257   4.221  11.435 -0.0907 -0.2931 -0.1347
  792MPD2    C411727   4.314   4.148  11.539  0.0454 -0.2188 -0.2683
  792MPD2    C511728   4.449   4.127  11.536  0.2168  0.6707  0.5512
  792MPD2     H11729   4.300   4.348  11.256 -1.2357 -1.3028 -0.4965
  792MPD2    H111730   4.268   4.105  11.628  0.5412  0.9947  0.5809
  792MPD2    H211731   4.637   4.164  11.455 -0.3397 -0.9277 -1.0145
  792MPD2    H311732   4.490   4.070  11.618  0.2477  0.6589  0.5275
  792MPD2     N11733   4.108   4.222  11.424 -0.4758 -0.2361  0.2261
  792MPD2    H511734   4.062   4.173  11.500 -2.2970 -1.5273 -1.6991
  792MPD2    N111735   4.543   4.321  11.233  0.5694  0.2525 -0.4760
  792MPD2    H711736   4.486   4.373  11.168 -0.3419 -0.9046 -0.5974
  793MPD2     C11737   3.752   4.464  10.582 -0.1783 -0.1098  0.1297
  793MPD2    C111738   3.818   4.352  10.632 -1.0023 -0.2077  1.1303
  793MPD2    C211739   3.802   4.324  10.768 -0.2355 -0.2244  0.4817
  793MPD2    C311740   3.738   4.407  10.854 -0.3503  0.5720  0.3083
  793MPD2    C411741   3.674   4.515  10.805  0.1571 -0.5940  0.4471
  793MPD2    C511742   3.668   4.535  10.667  0.1786  0.2716  0.9727
  793MPD2     H11743   3.849   4.237  10.813 -0.3602 -0.2790  0.5066
  793MPD2    H111744   3.611   4.574  10.871 -0.1276 -0.5498  0.1373
  793MPD2    H211745   3.764   4.488  10.477 -1.1188  2.0028  0.5133
  793MPD2    H311746   3.602   4.613  10.630  0.8812 -0.3542 -1.6284
  793MPD2     N11747   3.726   4.365  10.989  0.0901  0.1119 -0.0444
  793MPD2    H511748   3.752   4.268  11.002 -0.4977  0.1055  1.0659
  793MPD2    N111749   3.915   4.274  10.561  0.2555 -0.6839 -0.8286
  793MPD2    H711750   3.953   4.200  10.619  0.4630  0.4082  0.4511
  794MPD2     C11751   3.832   3.199  17.601  0.2721  0.5760  0.4609
  794MPD2    C111752   3.810   3.086  17.529  0.2093  0.4117  0.0903
  794MPD2    C211753   3.742   3.100  17.411 -0.7794 -0.6355  0.0037
  794MPD2    C311754   3.695   3.223  17.373 -0.1772 -0.7316  0.4515
  794MPD2    C411755   3.722   3.335  17.452  0.7175  0.5356 -0.3785
  794MPD2    C511756   3.786   3.320  17.566  0.1981 -0.5462  0.1438
  794MPD2     H11757   3.721   3.012  17.352  0.5168 -0.4131 -0.7918
  794MPD2    H111758   3.689   3.429  17.410 -0.1498  1.5446  2.5203
  794MPD2    H211759   3.903   3.194  17.683  1.1895 -2.1732 -0.4782
  794MPD2    H311760   3.815   3.402  17.630  1.9987 -0.6178 -0.5707
  794MPD2     N11761   3.621   3.246  17.257  0.4017 -0.4725  0.2092
  794MPD2    H511762   3.586   3.339  17.242  0.2164 -0.8416 -1.6873
  794MPD2    N111763   3.879   2.964  17.553  0.2512 -0.1038  0.3144
  794MPD2    H711764   3.897   2.902  17.474 -1.8219  0.0306 -0.2667
  795MPD2     C11765   1.103   0.752  14.039  0.2723  0.3149  0.2950
  795MPD2    C111766   1.116   0.708  13.911  0.1413  0.4656  0.1299
  795MPD2    C211767   1.229   0.643  13.868  0.2511 -0.7197  0.0241
  795MPD2    C311768   1.332   0.624  13.957  0.0801 -0.3205 -0.0909
  795MPD2    C411769   1.325   0.669  14.086  0.3586 -0.6655 -0.2661
  795MPD2    C511770   1.203   0.727  14.130  0.5425 -0.6935  0.1223
  795MPD2     H11771   1.241   0.612  13.765  1.9709 -1.6212  0.4948
  795MPD2    H111772   1.409   0.653  14.153 -0.4583  1.3072  1.2187
  795MPD2    H211773   1.015   0.799  14.081  0.9850  3.1781 -1.4071
  795MPD2    H311774   1.184   0.756  14.232  1.4742  0.3666 -0.0058
  795MPD2     N11775   1.454   0.562  13.914  0.1836  0.4388 -0.4155
  795MPD2    H511776   1.466   0.547  13.814  1.0736  0.1715 -0.2714
  795MPD2    N111777   1.017   0.726  13.813 -0.2281  0.0704  0.2172
  795MPD2    H711778   1.047   0.687  13.724  1.1547 -0.9271  1.1313
  796MPD2     C11779   1.154   2.150  15.764  0.3663 -0.5342  0.3271
  796MPD2    C111780   1.194   2.220  15.877 -0.4095  0.3674  0.8319
  796MPD2    C211781   1.130   2.343  15.905 -0.2663  0.2146  0.8080
  796MPD2    C311782   1.025   2.384  15.829  0.1139 -0.3941  0.6048
  796MPD2    C411783   0.988   2.313  15.718  0.5907  0.1575 -0.2076
  796MPD2    C511784   1.048   2.192  15.692 -0.4793  0.2509 -0.8521
  796MPD2     H11785   1.155   2.405  15.991 -1.5511  0.8952  0.6924
  796MPD2    H111786   0.896   2.346  15.670 -1.0479 -1.0328  2.1253
  796MPD2    H211787   1.204   2.059  15.733  2.3054  0.6824 -0.1037
  796MPD2    H311788   1.009   2.129  15.613  0.5784 -3.4913  1.6588
  796MPD2     N11789   0.972   2.510  15.862 -0.4594  0.4933  0.4038
  796MPD2    H511790   1.019   2.557  15.938 -1.2074  1.8425  0.0192
  796MPD2    N111791   1.302   2.178  15.958 -1.2825  0.2301  0.3251
  796MPD2    H711792   1.312   2.234  16.042 -0.2057  1.4417 -0.6098
  797MPD2     C11793   2.707   2.462  17.176 -0.5601 -1.0351 -0.1726
  797MPD2    C111794   2.581   2.503  17.193 -0.3600 -0.0359  0.7703
  797MPD2    C211795   2.498   2.535  17.092 -0.4574 -0.1075 -0.1617
  797MPD2    C311796   2.548   2.538  16.961  0.0697  1.2092  0.4034
  797MPD2    C411797   2.680   2.500  16.941  0.2386 -0.4637  0.1938
  797MPD2    C511798   2.755   2.460  17.046  0.5343  0.1945 -0.3858
  797MPD2     H11799   2.393   2.558  17.104 -0.4919 -0.3037 -0.0868
  797MPD2    H111800   2.724   2.492  16.843  3.1441  1.0400  1.3776
  797MPD2    H211801   2.771   2.424  17.254 -0.3732  0.4690  0.3954
  797MPD2    H311802   2.847   2.406  17.027  0.4989  0.7991 -2.2973
  797MPD2     N11803   2.461   2.571  16.853  0.4966  0.9145 -0.6798
  797MPD2    H511804   2.496   2.543  16.761  0.9389  0.5704 -0.4080
  797MPD2    N111805   2.519   2.500  17.322  0.0076 -0.3441  0.1517
  797MPD2    H711806   2.418   2.511  17.320  0.1965  1.3289 -0.1345
  798MPD2     C11807   1.808   2.724  17.150  0.0204 -0.1928 -0.5887
  798MPD2    C111808   1.887   2.616  17.133  0.0193 -0.0404 -0.3722
  798MPD2    C211809   1.981   2.583  17.226 -0.1753 -0.5930  0.3621
  798MPD2    C311810   2.003   2.658  17.336 -0.0663  0.3416 -0.3273
  798MPD2    C411811   1.914   2.764  17.354  0.0660  0.5911 -0.0519
  798MPD2    C511812   1.818   2.798  17.265 -0.3760  0.1144 -0.2028
  798MPD2     H11813   2.049   2.500  17.210 -1.2655 -1.1378 -1.5247
  798MPD2    H111814   1.913   2.822  17.446 -1.5135  0.0439  0.2828
  798MPD2    H211815   1.745   2.759  17.068  2.8573 -0.4587 -2.9032
  798MPD2    H311816   1.765   2.891  17.277 -0.1100  0.0259  1.6368
  798MPD2     N11817   2.109   2.620  17.422  0.5030 -0.3210 -0.0047
  798MPD2    H511818   2.169   2.544  17.394 -0.6123 -0.6521 -1.4664
  798MPD2    N111819   1.888   2.554  17.004 -0.4497 -0.0354  0.6783
  798MPD2    H711820   1.841   2.609  16.932  0.1904  0.0746  0.3391
  799MPD2     C11821   0.948   2.879  14.828 -0.3848  0.1278  0.5552
  799MPD2    C111822   1.002   2.911  14.708 -0.9986 -1.0209  0.2010
  799MPD2    C211823   0.944   3.017  14.642  0.1434 -0.0769  0.9339
  799MPD2    C311824   0.855   3.104  14.705  0.1866 -0.2968  0.3048
  799MPD2    C411825   0.806   3.071  14.826 -0.4787  0.5806 -0.0150
  799MPD2    C511826   0.852   2.958  14.889 -0.3928 -1.1487 -0.1705
  799MPD2     H11827   0.967   3.045  14.540  0.0171  0.8760  1.1666
  799MPD2    H111828   0.736   3.137  14.876 -1.3640  1.4181 -2.3586
  799MPD2    H211829   0.974   2.791  14.886 -0.7599 -0.4861 -0.2130
  799MPD2    H311830   0.810   2.940  14.987 -1.1590 -1.5362 -0.5708
  799MPD2     N11831   0.798   3.218  14.656 -0.0059  0.7314  0.2314
  799MPD2    H511832   0.716   3.255  14.703  0.2257  1.2047  0.2653
  799MPD2    N111833   1.097   2.830  14.644 -0.0318 -0.3854  0.2660
  799MPD2    H711834   1.112   2.849  14.546  0.3210 -2.3184 -0.0590
  800MPD2     C11835   1.213   0.026  14.031  0.2668 -0.3850  1.1787
  800MPD2    C111836   1.338   4.731  13.990 -0.0692 -1.4168 -0.2442
  800MPD2    C211837   1.354   4.671  13.865 -0.9836  0.0419 -0.3524
  800MPD2    C311838   1.242   4.633  13.786  0.3722  0.4788  0.2261
  800MPD2    C411839   1.117   4.667  13.837 -0.8834  0.9787 -0.8355
  800MPD2    C511840   1.103   4.725  13.961 -0.3853  0.4032 -0.1401
  800MPD2     H11841   1.455   4.649  13.832 -0.7698  0.7313 -0.1713
  800MPD2    H111842   1.033   4.635  13.777 -1.0609 -0.7393  0.3333
  800MPD2    H211843   1.206   0.081  14.124  0.2949  1.9885 -0.2259
  800MPD2    H311844   1.007   4.735  14.010  0.1694 -2.4608  1.5423
  800MPD2     N11845   1.258   4.573  13.658  0.0854 -0.3261 -0.8163
  800MPD2    H511846   1.350   4.587  13.616 -0.6429  0.3809 -2.1671
  800MPD2    N111847   1.439   0.015  14.080 -0.2448 -0.4790 -0.7534
  800MPD2    H711848   1.411   0.063  14.164 -3.5447 -1.7630 -1.0798
  801MPD2     C11849   1.409   0.202  14.757  0.0828  0.2110 -0.2433
  801MPD2    C111850   1.372   0.194  14.620  0.4776  0.2435  0.1060
  801MPD2    C211851   1.251   0.244  14.577 -0.0240  0.1125  0.4470
  801MPD2    C311852   1.169   0.304  14.670 -0.0744  0.1075  0.6434
  801MPD2    C411853   1.208   0.318  14.804 -0.3880 -0.3940  0.7152
  801MPD2    C511854   1.329   0.274  14.842  0.5768 -0.2796 -0.8059
  801MPD2     H11855   1.218   0.228  14.475 -0.7929 -0.7446  0.8326
  801MPD2    H111856   1.151   0.367  14.882 -0.4318  1.3245 -0.3906
  801MPD2    H211857   1.495   0.153  14.802 -0.1013  0.7025  0.6341
  801MPD2    H311858   1.354   0.282  14.947  0.2831  1.5767 -0.8820
  801MPD2     N11859   1.033   0.345  14.640  0.7468  0.2161 -0.0398
  801MPD2    H511860   0.999   0.405  14.714 -0.7073  0.0628 -0.5815
  801MPD2    N111861   1.455   0.126  14.524  0.6977  0.0592 -0.1633
  801MPD2    H711862   1.428   0.126  14.426 -1.0254 -0.5440  0.3054
  802MPD2     C11863   0.635   0.545   0.172 -0.0724 -0.3501  0.2270
  802MPD2    C111864   0.704   0.658   0.125 -0.1091  0.4086  0.4190
  802MPD2    C211865   0.780   0.642   0.010 -0.2996 -0.0473  0.2571
  802MPD2    C311866   0.780   0.515  17.709  0.0283 -0.3332 -0.7619
  802MPD2    C411867   0.705   0.412  17.751 -0.5443 -0.6761  0.1201
  802MPD2    C511868   0.629   0.428   0.102  0.1078 -0.5144 -0.5227
  802MPD2     H11869   0.828   0.731  17.734 -0.6515  0.4712  0.9907
  802MPD2    H111870   0.714   0.308  17.726  2.9101 -1.2364  3.6309
  802MPD2    H211871   0.595   0.539   0.273  1.3414 -1.4327  0.7384
  802MPD2    H311872   0.574   0.346   0.146 -1.7459 -0.3794 -2.5608
  802MPD2     N11873   0.882   0.504  17.612 -0.1507  0.8882 -0.6002
  802MPD2    H511874   0.937   0.588  17.592  1.9204  0.0080  1.4014
  802MPD2    N111875   0.710   0.771   0.198  0.0562  0.0433  0.1129
  802MPD2    H711876   0.787   0.832   0.172 -0.0840 -0.2207 -0.9152
  803MPD2     C11877   1.501   4.147  12.527  0.5071 -0.2504  0.2182
  803MPD2    C111878   1.631   4.193  12.526 -0.3575  1.7652 -0.1740
  803MPD2    C211879   1.702   4.210  12.642  0.3522  0.2198  0.2937
  803MPD2    C311880   1.636   4.181  12.755  0.0740 -0.0009 -0.1614
  803MPD2    C411881   1.514   4.111  12.759 -0.3153  0.3740 -0.8457
  803MPD2    C511882   1.448   4.096  12.640 -0.3331 -0.5323 -0.0403
  803MPD2     H11883   1.806   4.238  12.652 -0.0066  1.5596  0.2728
  803MPD2    H111884   1.473   4.080  12.855 -0.7062  1.5047 -0.6471
  803MPD2    H211885   1.444   4.142  12.434  1.3002  0.9907 -0.3353
  803MPD2    H311886   1.350   4.051  12.629  0.7097 -2.7907 -0.0414
  803MPD2     N11887   1.696   4.186  12.880  0.0620 -0.6001  0.3523
  803MPD2    H511888   1.661   4.134  12.959  0.3789 -0.7372  0.4041
  803MPD2    N111889   1.697   4.208  12.399 -0.2975 -0.0255 -0.4759
  803MPD2    H711890   1.797   4.225  12.402 -0.1247 -1.0029 -0.7746
  804MPD2     C11891   1.639   0.797  17.127  0.6659 -0.6316 -0.3524
  804MPD2    C111892   1.741   0.794  17.227  0.1761 -0.3814  0.2371
  804MPD2    C211893   1.820   0.909  17.240  0.4462 -0.0077 -0.9601
  804MPD2    C311894   1.797   1.023  17.163  0.1590  0.3825 -0.7031
  804MPD2    C411895   1.708   1.021  17.056  0.1384 -0.7917 -0.1054
  804MPD2    C511896   1.621   0.915  17.050 -0.0543  0.1352  0.0008
  804MPD2     H11897   1.895   0.919  17.319 -0.5982  1.8530 -0.2128
  804MPD2    H111898   1.689   1.093  16.977 -0.9698  0.3092  1.1445
  804MPD2    H211899   1.569   0.717  17.107 -0.8291  0.8043 -0.8870
  804MPD2    H311900   1.545   0.919  16.973  0.1326 -0.9386 -0.2395
  804MPD2     N11901   1.870   1.139  17.197 -1.0318 -0.9521  0.0781
  804MPD2    H511902   1.955   1.128  17.251 -0.6342  1.3196 -0.1005
  804MPD2    N111903   1.747   0.681  17.313 -0.3189 -0.6200  0.4716
  804MPD2    H711904   1.791   0.695  17.404  0.6209 -1.1259  0.0937
  805MPD2     C11905   0.392   3.098  15.602  0.0644 -0.4184 -0.7029
  805MPD2    C111906   0.398   3.233  15.604  0.0595  0.4165 -0.2218
  805MPD2    C211907   0.511   3.293  15.652  0.1991  0.4064 -0.4568
  805MPD2    C311908   0.613   3.216  15.700  0.0771  0.8473 -0.3559
  805MPD2    C411909   0.602   3.088  15.698 -0.2821  0.4253  0.0498
  805MPD2    C511910   0.490   3.021  15.658 -0.0635  0.2886 -0.3891
  805MPD2     H11911   0.541   3.397  15.652 -1.2816  0.8289 -0.4555
  805MPD2    H111912   0.681   3.021  15.732 -1.7886 -2.2096 -1.5974
  805MPD2    H211913   0.308   3.057  15.548 -0.0677  0.2240 -0.9822
  805MPD2    H311914   0.485   2.912  15.658 -0.2962  0.3058 -2.6000
  805MPD2     N11915   0.730   3.285  15.728 -0.4884 -0.0519 -0.3277
  805MPD2    H511916   0.727   3.383  15.705  0.0800 -0.2293 -1.1698
  805MPD2    N111917   0.289   3.302  15.551  0.4353 -0.0489  0.1034
  805MPD2    H711918   0.224   3.248  15.495  0.0946 -0.4273  0.8632
  806MPD2     C11919   1.043   3.252   0.974  0.2361  0.2252 -0.0218
  806MPD2    C111920   1.174   3.287   0.954  0.4277  0.3436 -0.4189
  806MPD2    C211921   1.234   3.218   0.855 -0.5962 -0.4098 -0.2995
  806MPD2    C311922   1.175   3.118   0.788  0.1493  0.4578 -0.3273
  806MPD2    C411923   1.049   3.068   0.821 -0.1516 -0.1524 -0.1679
  806MPD2    C511924   0.978   3.144   0.914  0.4826 -0.4127  0.2172
  806MPD2     H11925   1.336   3.229   0.821 -0.8006  1.7200 -0.2189
  806MPD2    H111926   0.996   2.991   0.766 -0.3814 -1.0920  1.3791
  806MPD2    H211927   0.978   3.307   1.041 -2.5986 -2.2291 -0.7892
  806MPD2    H311928   0.876   3.117   0.935 -0.2474  4.1294  2.5709
  806MPD2     N11929   1.258   3.055   0.691 -0.3342  0.1424 -0.5528
  806MPD2    H511930   1.344   3.097   0.657  0.2767 -0.4202  0.2999
  806MPD2    N111931   1.233   3.391   1.034 -0.1015  0.2174  0.2856
  806MPD2    H711932   1.187   3.412   1.122  0.4690 -1.9354  1.1085
  807MPD2     C11933   1.168   3.655   1.718 -0.3192  0.6679 -0.9433
  807MPD2    C111934   1.241   3.547   1.685  0.2093 -0.0415 -0.5467
  807MPD2    C211935   1.220   3.428   1.758  0.1948 -0.4586 -0.1211
  807MPD2    C311936   1.140   3.423   1.873 -0.6989 -0.8139 -0.3920
  807MPD2    C411937   1.086   3.544   1.914 -0.2875 -0.2497 -0.0200
  807MPD2    C511938   1.097   3.657   1.834 -0.0450 -0.5554  0.6140
  807MPD2     H11939   1.268   3.335   1.729  1.2182  0.1745 -0.4173
  807MPD2    H111940   1.021   3.551   2.000 -0.2152  0.8521 -0.0570
  807MPD2    H211941   1.174   3.747   1.660  0.1940  0.6339 -0.9386
  807MPD2    H311942   1.060   3.756   1.858 -0.7196 -0.7963  0.5523
  807MPD2     N11943   1.118   3.298   1.941 -0.5515 -0.1093 -0.0836
  807MPD2    H511944   1.139   3.210   1.896 -0.3685  0.8345 -1.8692
  807MPD2    N111945   1.313   3.538   1.555  0.2304  0.7011 -0.1805
  807MPD2    H711946   1.374   3.460   1.536 -0.3355  0.1592  0.2369
  808MPD2     C11947   0.950   1.401   9.774  0.2894 -0.3384 -0.1137
  808MPD2    C111948   0.993   1.274   9.828 -0.1066 -0.7381 -0.6277
  808MPD2    C211949   1.100   1.265   9.912 -0.6652 -0.3429  0.3361
  808MPD2    C311950   1.175   1.376   9.946 -0.0795 -0.3094  0.2703
  808MPD2    C411951   1.147   1.497   9.883  0.2061 -0.1631 -0.5317
  808MPD2    C511952   1.039   1.504   9.805 -0.4867  0.1782 -0.2382
  808MPD2     H11953   1.133   1.164   9.936  1.6935  0.2583 -0.3986
  808MPD2    H111954   1.218   1.578   9.891  1.7684 -1.4488 -1.3370
  808MPD2    H211955   0.863   1.423   9.714  1.1968 -0.3187 -1.4364
  808MPD2    H311956   1.026   1.597   9.752 -1.6070 -0.3176 -0.8311
  808MPD2     N11957   1.290   1.375  10.036  0.3252 -0.6010 -0.2333
  808MPD2    H511958   1.334   1.467  10.032 -0.0118 -0.3853  1.3602
  808MPD2    N111959   0.932   1.151   9.798 -0.7794  0.4751 -0.1063
  808MPD2    H711960   0.975   1.067   9.835 -1.6330  1.2018  2.5107
  809MPD2     C11961   2.063   1.593   9.760 -0.1045  0.2239 -0.9595
  809MPD2    C111962   2.077   1.462   9.812  0.0073 -0.4388 -0.4764
  809MPD2    C211963   1.995   1.430   9.919  0.1965  0.0905 -0.2669
  809MPD2    C311964   1.895   1.518   9.963  0.0206 -0.0018 -0.4803
  809MPD2    C411965   1.886   1.641   9.910  0.1784 -0.7584 -0.0865
  809MPD2    C511966   1.973   1.677   9.815 -0.8596  0.3650 -0.2922
  809MPD2     H11967   1.998   1.327   9.953  1.6963 -0.2945 -1.5779
  809MPD2    H111968   1.805   1.708   9.936 -1.6077 -2.6953 -0.7039
  809MPD2    H211969   2.133   1.635   9.687  2.6436 -1.5068  0.6835
  809MPD2    H311970   1.966   1.777   9.775  0.4394  0.7053  0.3643
  809MPD2     N11971   1.782   1.484  10.046 -0.1722 -0.0621 -0.3946
  809MPD2    H511972   1.705   1.547  10.066 -0.1786  0.4910 -2.1173
  809MPD2    N111973   2.165   1.366   9.764 -0.3640 -0.8657 -0.4618
  809MPD2    H711974   2.159   1.280   9.817 -1.8214 -2.2822 -2.9608
  810MPD2     C11975   1.417   4.583  10.815  0.3781 -0.2263  0.4497
  810MPD2    C111976   1.294   4.623  10.780  0.1692  0.2950 -0.0321
  810MPD2    C211977   1.259   0.014  10.796 -0.3998 -0.2362 -0.3038
  810MPD2    C311978   1.341   0.108  10.850 -0.3269  1.0458 -0.1124
  810MPD2    C411979   1.466   0.067  10.892 -0.2685  0.8253  0.5393
  810MPD2    C511980   1.499   4.677  10.874  0.3860  0.2042 -0.5372
  810MPD2     H11981   1.158   0.041  10.771 -0.8373 -0.1428  1.5401
  810MPD2    H111982   1.536   0.121  10.955 -2.1940  2.8152  0.9779
  810MPD2    H211983   1.441   4.477  10.812 -1.4461 -0.6550  1.3334
  810MPD2    H311984   1.597   4.639  10.902  1.3851  2.7279 -0.5146
  810MPD2     N11985   1.290   0.238  10.872 -0.2449 -0.5572 -0.6101
  810MPD2    H511986   1.350   0.289  10.936 -1.8849  1.3082 -0.5394
  810MPD2    N111987   1.194   4.539  10.725  0.6284  0.8760  0.9521
  810MPD2    H711988   1.112   4.586  10.689 -0.8485 -0.2141  2.8559
  811MPD2     C11989   0.574   4.589  10.165  0.1222 -0.6293  1.0157
  811MPD2    C111990   0.687   4.617  10.244 -0.2635 -0.1296 -0.2209
  811MPD2    C211991   0.709   0.013  10.273 -0.4119 -0.1723 -0.1402
  811MPD2    C311992   0.641   0.112  10.218  0.4561  0.0239  0.4740
  811MPD2    C411993   0.539   0.074  10.127  0.3105 -0.2476  0.0813
  811MPD2    C511994   0.507   4.687  10.104  0.1638 -0.1999 -0.8116
  811MPD2     H11995   0.790   0.033  10.342 -0.0863 -0.2436 -0.4984
  811MPD2    H111996   0.478   0.146  10.073  1.3463 -1.2577 -2.4586
  811MPD2    H211997   0.547   4.489  10.133 -0.4866 -0.2194  0.2417
  811MPD2    H311998   0.430   4.664  10.031 -0.8628 -0.6709  0.4209
  811MPD2     N11999   0.680   0.246  10.249 -0.1493  0.0410  0.1064
  811MPD2    H512000   0.766   0.265  10.298  1.2642 -3.4866 -1.0347
  811MPD2    N112001   0.757   4.510  10.302  0.1391  0.3198  0.0984
  811MPD2    H712002   0.729   4.413  10.289 -0.0749  0.0928  2.2686
  812MPD2     C12003   4.477   3.969  12.362  0.7397  0.4595  0.1138
  812MPD2    C112004   4.505   4.036  12.482  0.0475  0.4810 -0.1212
  812MPD2    C212005   4.554   3.965  12.589 -0.3540 -0.2119 -0.4362
  812MPD2    C312006   4.565   3.825  12.584 -0.1936 -0.0713  0.0401
  812MPD2    C412007   4.512   3.758  12.476 -0.5018 -0.0877  0.5553
  812MPD2    C512008   4.471   3.832  12.367 -0.0404 -0.1505  1.0735
  812MPD2     H12009   4.580   4.022  12.677  0.2572 -1.6294  0.3156
  812MPD2    H112010   4.504   3.652  12.457 -1.3947  0.5222 -2.4559
  812MPD2    H212011   4.446   4.021  12.272  0.9548  2.8115  1.4071
  812MPD2    H312012   4.434   3.777  12.282 -1.0557 -2.8264  3.2508
  812MPD2     N12013   4.630   3.754  12.692  0.4980 -0.6357 -0.2774
  812MPD2    H512014   4.681   3.806  12.762  0.7313 -2.3810  0.8442
  812MPD2    N112015   4.499   4.178  12.478  0.3397 -0.3892 -0.5642
  812MPD2    H712016   4.447   4.227  12.406  0.5337 -0.4672 -0.7559
  813MPD2     C12017   3.438   1.543  12.867  0.5617  0.5061 -1.0255
  813MPD2    C112018   3.491   1.434  12.938  0.6581 -0.1310  0.2375
  813MPD2    C212019   3.444   1.398  13.066 -0.8737 -0.0318 -0.3596
  813MPD2    C312020   3.344   1.482  13.120  0.1607  0.6527 -0.8117
  813MPD2    C412021   3.288   1.592  13.052 -0.2082 -0.7798 -0.1349
  813MPD2    C512022   3.338   1.620  12.924  0.4371 -0.3470  0.0264
  813MPD2     H12023   3.486   1.312  13.116  0.7911 -0.0624 -1.7991
  813MPD2    H112024   3.218   1.663  13.093  1.5194  2.2500 -2.3770
  813MPD2    H212025   3.471   1.559  12.765  0.9419 -0.0536 -0.9932
  813MPD2    H312026   3.301   1.706  12.868  1.9984 -1.8975 -3.4074
  813MPD2     N12027   3.291   1.458  13.249  0.6146 -0.4404  0.7242
  813MPD2    H512028   3.258   1.541  13.295  2.5184  1.7019 -1.7566
  813MPD2    N112029   3.597   1.374  12.867  0.4104  0.0125  0.2028
  813MPD2    H712030   3.618   1.424  12.782  0.8315  1.4149  1.1329
  814MPD2     C12031   4.203   2.578  12.377  0.0883  0.0155  0.4268
  814MPD2    C112032   4.269   2.630  12.265  0.2521 -0.4528 -0.1322
  814MPD2    C212033   4.374   2.713  12.286  0.0084 -0.8324 -0.2777
  814MPD2    C312034   4.439   2.724  12.414  0.2506  0.3228  0.3810
  814MPD2    C412035   4.376   2.662  12.523 -0.5044 -0.3798  0.3560
  814MPD2    C512036   4.262   2.590  12.502 -0.8218 -0.2354 -0.6437
  814MPD2     H12037   4.413   2.763  12.198 -0.4363  0.9937  0.5698
  814MPD2    H112038   4.431   2.645  12.615 -0.0017 -0.3145  0.0647
  814MPD2    H212039   4.117   2.513  12.359  0.6321 -0.3085 -1.0217
  814MPD2    H312040   4.206   2.549  12.585  1.4753  0.4098  1.2214
  814MPD2     N12041   4.553   2.803  12.436 -0.6268  0.1217 -1.0818
  814MPD2    H512042   4.575   2.816  12.534  0.2765 -0.8266 -1.1483
  814MPD2    N112043   4.222   2.611  12.130 -0.4670 -0.3870  0.2765
  814MPD2    H712044   4.265   2.657  12.050 -1.9306 -0.9437 -0.8459
  815MPD2     C12045   0.157   0.449  12.275 -0.9373  0.8304 -0.2855
  815MPD2    C112046   0.087   0.538  12.201 -0.2473  0.1069  0.2400
  815MPD2    C212047   4.685   0.525  12.200 -0.6338  0.4819  0.5466
  815MPD2    C312048   4.627   0.414  12.253  0.1603  0.6682  0.1488
  815MPD2    C412049   4.704   0.327  12.330 -0.0901 -0.0194 -0.0362
  815MPD2    C512050   0.098   0.347  12.341 -0.0355  0.0607  0.0233
  815MPD2     H12051   4.630   0.604  12.149 -2.1264 -1.5203 -0.9202
  815MPD2    H112052   4.662   0.234  12.368 -1.3296  0.7416  0.4719
  815MPD2    H212053   0.265   0.459  12.279 -1.1199  2.4562  0.6280
  815MPD2    H312054   0.160   0.286  12.406  0.3777 -0.2349 -0.6555
  815MPD2     N12055   4.484   0.399  12.226 -0.1464  0.1152 -0.3053
  815MPD2    H512056   4.439   0.473  12.173 -0.8743  0.2464  0.4852
  815MPD2    N112057   0.154   0.630  12.120 -0.5936  0.6060 -0.4463
  815MPD2    H712058   0.255   0.623  12.128 -0.7116  1.4585  1.8689
  816MPD2     C12059   4.719   4.313  17.236 -0.5068  1.0391 -0.5167
  816MPD2    C112060   0.065   4.412  17.273  0.3160 -0.0408  0.1120
  816MPD2    C212061   0.201   4.394  17.239  0.6859  0.2017 -0.3628
  816MPD2    C312062   0.240   4.287  17.162 -0.3105  0.3114 -0.0857
  816MPD2    C412063   0.153   4.182  17.138 -0.2483 -0.7098 -0.5559
  816MPD2    C512064   0.023   4.195  17.181  0.3817  0.2378 -0.4722
  816MPD2     H12065   0.275   4.469  17.267 -0.5189  1.4912 -0.6571
  816MPD2    H112066   0.176   4.083  17.100  2.7420 -0.1379 -0.2233
  816MPD2    H212067   4.614   4.306  17.262 -0.0984 -0.3214  0.7311
  816MPD2    H312068   4.693   4.116  17.162 -1.1817  2.3422 -3.3445
  816MPD2     N12069   0.367   4.287  17.110  0.2263  0.1358 -0.3020
  816MPD2    H512070   0.436   4.357  17.137 -0.2288  0.4465  0.0548
  816MPD2    N112071   0.028   4.524  17.343 -0.4563  0.2735  0.5248
  816MPD2    H712072   4.674   4.521  17.376  0.4638 -1.6919  2.9430
  817MPD2     C12073   3.963   2.032  10.279  0.4602  0.4257  0.7317
  817MPD2    C112074   4.057   2.080  10.190  0.2353  0.0758  0.3036
  817MPD2    C212075   4.032   2.202  10.127  0.1551  0.2164  0.1206
  817MPD2    C312076   3.925   2.275  10.165 -0.0822  0.1831 -0.0185
  817MPD2    C412077   3.842   2.234  10.267 -0.1786  0.2244  1.0967
  817MPD2    C512078   3.853   2.109  10.318  0.1653 -0.0670 -0.0995
  817MPD2     H12079   4.099   2.244  10.053 -1.0826 -2.6911 -2.6350
  817MPD2    H112080   3.763   2.297  10.305 -1.0862  0.2726 -0.8862
  817MPD2    H212081   3.963   1.937  10.332  1.1356  1.2649  2.2512
  817MPD2    H312082   3.786   2.077  10.397  0.4038  0.9081  0.4998
  817MPD2     N12083   3.903   2.401  10.095 -0.5976  0.5371  0.0367
  817MPD2    H512084   3.968   2.427  10.022  0.3237 -0.6871  0.4220
  817MPD2    N112085   4.175   2.011  10.167 -0.6274 -0.3893  0.2592
  817MPD2    H712086   4.239   2.051  10.099  1.0784 -2.0184  0.9144
  818MPD2     C12087   3.188   2.131  10.011  0.3893 -0.6576  0.1251
  818MPD2    C112088   3.195   2.080  10.137 -0.3794  0.6678 -0.3962
  818MPD2    C212089   3.237   1.947  10.149  0.1170 -0.3008  0.9412
  818MPD2    C312090   3.271   1.864  10.031  0.2349  0.6048 -0.1843
  818MPD2    C412091   3.278   1.929   9.914  0.0419  0.0216 -0.4128
  818MPD2    C512092   3.234   2.060   9.908  0.8525 -0.2658 -0.9134
  818MPD2     H12093   3.239   1.909  10.250  0.2800 -0.5636  0.8403
  818MPD2    H112094   3.315   1.873   9.829  2.6159  1.4374 -0.2457
  818MPD2    H212095   3.154   2.233   9.996 -1.0903 -1.5154 -2.2783
  818MPD2    H312096   3.232   2.113   9.813  3.4148  0.9894 -0.2638
  818MPD2     N12097   3.292   1.725  10.035  0.0777  0.1065  0.3611
  818MPD2    H512098   3.309   1.679   9.947  0.5855 -0.0270  0.5291
  818MPD2    N112099   3.157   2.142  10.260  0.8349 -0.1301 -0.2127
  818MPD2    H712100   3.177   2.089  10.344  0.9611  0.0216 -0.1462
  819MPD2     C12101   1.372   3.212  15.593 -0.2248  0.4815  0.3865
  819MPD2    C112102   1.325   3.102  15.652  0.3465 -0.4067  0.5381
  819MPD2    C212103   1.399   3.040  15.748  0.3251  0.1502  0.8099
  819MPD2    C312104   1.513   3.098  15.798 -0.2029 -0.4045  0.1765
  819MPD2    C412105   1.556   3.216  15.741 -0.5369 -0.1013  0.1143
  819MPD2    C512106   1.484   3.269  15.638 -0.0967 -0.2889  0.1404
  819MPD2     H12107   1.370   2.946  15.794 -1.3760 -0.4274 -1.4589
  819MPD2    H112108   1.643   3.268  15.781 -0.1170  0.7887 -1.9616
  819MPD2    H212109   1.315   3.252  15.510 -1.2964  3.0371  2.3630
  819MPD2    H312110   1.528   3.358  15.593 -1.0789 -0.3895 -1.0262
  819MPD2     N12111   1.582   3.029  15.895  0.2139 -0.6823  0.9538
  819MPD2    H512112   1.550   2.934  15.914 -2.7947 -0.7735 -4.4499
  819MPD2    N112113   1.196   3.043  15.612 -0.3015  0.4429 -0.0168
  819MPD2    H712114   1.157   3.092  15.533  0.3868  0.2138 -0.5046
  820MPD2     C12115   0.407   3.161  15.006 -0.2613  0.4424  0.3992
  820MPD2    C112116   0.440   3.235  15.118  0.4333  0.4518 -0.0256
  820MPD2    C212117   0.530   3.174  15.213  0.2847 -0.5317  0.3133
  820MPD2    C312118   0.586   3.049  15.184  0.3155  0.0762  0.1347
  820MPD2    C412119   0.544   2.981  15.071  0.2367  0.0953  0.1326
  820MPD2    C512120   0.446   3.033  14.993 -0.2507 -0.2310  0.1230
  820MPD2     H12121   0.556   3.233  15.301  0.1047 -0.1622  0.1154
  820MPD2    H112122   0.577   2.881  15.048  2.4048  0.7378  0.4490
  820MPD2    H212123   0.336   3.197  14.932 -0.8083  0.5796  0.9966
  820MPD2    H312124   0.411   2.977  14.907 -1.3533  0.5025  0.0833
  820MPD2     N12125   0.690   2.982  15.253  0.2178 -0.2773 -0.2943
  820MPD2    H512126   0.725   2.893  15.220  0.8475 -0.8582  1.9946
  820MPD2    N112127   0.385   3.364  15.124 -0.1089 -0.5846  0.0476
  820MPD2    H712128   0.305   3.376  15.063  0.0993  1.3012  0.1481
  821MPD2     C12129   1.161   0.233  13.044 -0.4387  0.5644  0.7007
  821MPD2    C112130   1.273   0.157  13.069  0.5345 -0.1181  0.3106
  821MPD2    C212131   1.396   0.203  13.017  0.2953 -0.1098 -0.4011
  821MPD2    C312132   1.413   0.314  12.950 -0.3885 -0.5435  0.5933
  821MPD2    C412133   1.302   0.376  12.906  0.2780 -0.0778 -0.4986
  821MPD2    C512134   1.176   0.340  12.952 -0.5061  0.2348 -0.2438
  821MPD2     H12135   1.479   0.136  13.032 -0.7491 -1.1026  0.9191
  821MPD2    H112136   1.306   0.469  12.849  3.6754 -0.2552 -0.5339
  821MPD2    H212137   1.060   0.210  13.076 -1.5067  1.6418 -1.9045
  821MPD2    H312138   1.091   0.404  12.934  0.0343  0.6093 -1.4123
  821MPD2     N12139   1.543   0.369  12.919 -0.0216  0.0986  0.4146
  821MPD2    H512140   1.547   0.448  12.856 -0.0087 -0.3597 -0.1594
  821MPD2    N112141   1.270   0.033  13.131  0.2584 -0.6340 -0.8513
  821MPD2    H712142   1.360   4.733  13.154  0.6965  0.3823 -0.7216
  822MPD2     C12143   1.945   4.419  15.822 -0.8385 -0.2891 -0.5114
  822MPD2    C112144   1.948   4.417  15.960  0.4357 -0.2703 -0.0243
  822MPD2    C212145   1.862   4.497  16.039  0.0105 -0.9725 -0.3091
  822MPD2    C312146   1.794   4.595  15.983  0.3112 -0.4061 -0.2236
  822MPD2    C412147   1.787   4.595  15.846 -0.1547 -0.0222 -0.8172
  822MPD2    C512148   1.852   4.505  15.768  0.3296 -0.1211 -0.9773
  822MPD2     H12149   1.865   4.493  16.147 -2.2892  1.7530 -0.1428
  822MPD2    H112150   1.725   4.665  15.791  0.2731 -0.6852 -2.1367
  822MPD2    H212151   2.001   4.359  15.752 -0.4306  1.1563 -1.4293
  822MPD2    H312152   1.826   4.504  15.663  1.7204  0.2846 -1.3279
  822MPD2     N12153   1.725   4.694  16.061  0.2217  0.6935  0.8125
  822MPD2    H512154   1.682   0.027  16.008  0.0051  0.8107  1.1475
  822MPD2    N112155   2.026   4.321  16.027  0.8630  0.3966  0.1671
  822MPD2    H712156   2.032   4.335  16.128 -0.1075 -0.1375  0.2884
  823MPD2     C12157   1.871   0.286  16.911  0.3155 -0.0737 -0.2944
  823MPD2    C112158   1.865   0.185  16.820  0.8414 -0.4570  0.3926
  823MPD2    C212159   1.951   0.077  16.843 -0.4427  0.1017 -0.3240
  823MPD2    C312160   2.027   0.070  16.958  0.2688  0.1474  0.2201
  823MPD2    C412161   2.014   0.169  17.055  0.4077  0.2666 -0.3179
  823MPD2    C512162   1.936   0.269  17.025 -0.4152  0.0502  0.2572
  823MPD2     H12163   1.982   4.742  16.773 -1.2427 -0.7388  0.2635
  823MPD2    H112164   2.061   0.163  17.152  0.5248  1.3838 -0.3115
  823MPD2    H212165   1.811   0.376  16.897 -0.2421 -0.5069 -0.6711
  823MPD2    H312166   1.928   0.355  17.090  0.3933  0.0783  0.3195
  823MPD2     N12167   2.112   4.710  16.997  0.4028 -0.1476 -0.1609
  823MPD2    H512168   2.141   4.708  17.095 -1.0268  1.3303  0.2973
  823MPD2    N112169   1.795   0.203  16.696  0.2731 -0.1521 -0.1940
  823MPD2    H712170   1.758   0.296  16.678 -0.6999 -0.7446 -1.2006
  824MPD2     C12171   2.249   3.588  15.947 -0.3765 -0.4090 -0.3082
  824MPD2    C112172   2.358   3.667  15.964 -0.2959 -0.4973 -0.1528
  824MPD2    C212173   2.481   3.626  15.919 -0.3986 -0.4967  0.0014
  824MPD2    C312174   2.490   3.501  15.863  0.5414  0.2870  0.2770
  824MPD2    C412175   2.380   3.419  15.850 -0.2317  0.2422  0.3579
  824MPD2    C512176   2.257   3.464  15.892 -0.4093  0.3885  0.1829
  824MPD2     H12177   2.571   3.687  15.931 -0.9049  0.1128  0.6920
  824MPD2    H112178   2.387   3.316  15.819 -1.6121 -0.7315  3.2997
  824MPD2    H212179   2.155   3.617  15.994 -0.1394 -1.2871  0.7117
  824MPD2    H312180   2.165   3.407  15.892 -0.4802  0.4814 -1.2999
  824MPD2     N12181   2.612   3.462  15.806 -0.4972 -0.3604  0.2423
  824MPD2    H512182   2.686   3.529  15.822 -1.2399  0.3716  0.6094
  824MPD2    N112183   2.329   3.796  16.017  0.5457  0.2907  0.2881
  824MPD2    H712184   2.233   3.822  16.037  0.9034 -0.2609  2.7169
  825MPD2     C12185   3.149   3.521  15.115  0.0808 -0.4444 -0.6328
  825MPD2    C112186   3.046   3.577  15.183 -0.1745  0.3264  0.6036
  825MPD2    C212187   3.001   3.706  15.149 -0.7147 -0.3998 -0.5607
  825MPD2    C312188   3.049   3.758  15.029 -0.7479  0.1397 -0.1880
  825MPD2    C412189   3.147   3.692  14.960  0.2654 -0.0772 -0.5327
  825MPD2    C512190   3.198   3.577  14.999 -0.3010 -0.4369  0.5580
  825MPD2     H12191   2.921   3.747  15.209  0.6100 -0.7817  1.4643
  825MPD2    H112192   3.183   3.734  14.867 -3.0261 -1.4292 -2.4307
  825MPD2    H212193   3.176   3.419  15.141  1.9725  0.2249  0.0271
  825MPD2    H312194   3.271   3.529  14.936  2.2126 -0.3911  3.4139
  825MPD2     N12195   3.008   3.878  14.973  0.2491 -0.6510 -0.2644
  825MPD2    H512196   3.058   3.906  14.889 -0.6258  1.3455 -0.1220
  825MPD2    N112197   3.005   3.508  15.304  0.4646 -0.5809 -0.3055
  825MPD2    H712198   3.055   3.422  15.323  0.1728 -0.1797  2.2904
  826MPD2     C12199   2.403   3.787  13.727 -0.2570 -0.2746  0.0411
  826MPD2    C112200   2.482   3.880  13.664 -0.6295  0.2170 -0.3748
  826MPD2    C212201   2.442   4.013  13.666 -0.1869 -0.0710 -0.2748
  826MPD2    C312202   2.332   4.052  13.743 -0.0212  0.6969  0.8819
  826MPD2    C412203   2.250   3.957  13.796  0.7270  0.1989  0.0344
  826MPD2    C512204   2.291   3.828  13.786 -0.2706  0.2235 -0.0357
  826MPD2     H12205   2.513   4.081  13.620 -0.1644 -0.5565 -0.9508
  826MPD2    H112206   2.161   3.980  13.854  1.7869 -1.1938  2.2578
  826MPD2    H212207   2.446   3.690  13.749  1.2786  0.9423  2.4387
  826MPD2    H312208   2.233   3.756  13.842  0.2367 -0.5871 -0.5595
  826MPD2     N12209   2.285   4.186  13.749  0.0992  0.1589 -0.6726
  826MPD2    H512210   2.201   4.204  13.803 -0.3844 -1.0157 -1.0221
  826MPD2    N112211   2.595   3.834  13.598  0.3226 -0.2213 -0.4809
  826MPD2    H712212   2.596   3.733  13.582  0.7330 -0.4899  1.2447
  827MPD2     C12213   4.512   1.052  10.053 -0.7789 -0.6809 -0.6004
  827MPD2    C112214   4.442   0.941  10.092  0.1233 -0.0054 -0.6168
  827MPD2    C212215   4.330   0.916  10.020 -0.4164  0.2506 -0.1866
  827MPD2    C312216   4.285   0.996   9.912 -0.3803 -0.2600 -0.8248
  827MPD2    C412217   4.364   1.096   9.863 -0.4085 -0.3705  0.9280
  827MPD2    C512218   4.479   1.119   9.937 -0.4003 -0.5456 -0.3866
  827MPD2     H12219   4.259   0.841  10.053 -0.4029  1.1554  1.9126
  827MPD2    H112220   4.362   1.143   9.765 -2.0931 -0.1137  1.0837
  827MPD2    H212221   4.604   1.086  10.100 -2.0515  1.3572  0.4258
  827MPD2    H312222   4.555   1.187   9.900  0.5339 -1.5337 -0.2996
  827MPD2     N12223   4.152   0.966   9.860 -0.3540  0.3718 -0.2432
  827MPD2    H512224   4.106   0.889   9.908  1.0669  0.2938  0.9726
  827MPD2    N112225   4.473   0.880  10.212  0.7395  0.1448  0.3997
  827MPD2    H712226   4.547   0.917  10.270 -0.3921  1.7143  0.8613
  828MPD2     C12227   2.146   0.514  11.786  0.0030 -0.1803  0.1717
  828MPD2    C112228   2.053   0.422  11.822 -0.3932  0.0824  0.6433
  828MPD2    C212229   2.036   0.309  11.746  0.6844 -0.0482  0.0302
  828MPD2    C312230   2.120   0.280  11.642 -0.8769 -0.3597 -0.5249
  828MPD2    C412231   2.218   0.374  11.609  0.3505  0.1745 -0.4612
  828MPD2    C512232   2.224   0.493  11.678 -0.0536  0.0934  0.3224
  828MPD2     H12233   1.950   0.246  11.767 -0.7333  2.0921  0.6236
  828MPD2    H112234   2.294   0.350  11.535  0.8968  0.8767 -0.1221
  828MPD2    H212235   2.144   0.609  11.839 -0.3255 -1.0993  1.7905
  828MPD2    H312236   2.291   0.573  11.652 -0.5803  0.3403 -0.2870
  828MPD2     N12237   2.118   0.157  11.574 -0.1006 -0.3092  0.1662
  828MPD2    H512238   2.182   0.132  11.500  1.1878  2.1997  0.4427
  828MPD2    N112239   1.970   0.424  11.941 -0.5759 -0.2618 -0.6632
  828MPD2    H712240   1.898   0.353  11.952 -1.0815  0.2904 -0.4029
  829MPD2     C12241   1.277   0.928  12.304  0.0229  0.7758  0.7808
  829MPD2    C112242   1.297   0.843  12.402  0.1055  0.3500 -0.2360
  829MPD2    C212243   1.419   0.780  12.416 -0.4662 -0.2067 -0.4888
  829MPD2    C312244   1.516   0.790  12.316  0.0799 -0.2153 -0.4896
  829MPD2    C412245   1.488   0.875  12.210 -0.4452 -0.1739 -0.0596
  829MPD2    C512246   1.373   0.955  12.210 -0.1708 -0.0266 -0.4432
  829MPD2     H12247   1.425   0.705  12.494 -1.6556  0.0073 -0.1959
  829MPD2    H112248   1.564   0.902  12.137  0.1191  0.1135  0.6382
  829MPD2    H212249   1.185   0.985  12.297 -0.1856  0.4348  0.7407
  829MPD2    H312250   1.353   1.030  12.135  2.2877  1.3122  0.2519
  829MPD2     N12251   1.637   0.715  12.310  0.4957 -0.7787  0.3427
  829MPD2    H512252   1.695   0.724  12.227  0.6153 -0.7633  0.4269
  829MPD2    N112253   1.191   0.811  12.492  0.1611  0.1525  0.6034
  829MPD2    H712254   1.107   0.864  12.472 -1.5738 -3.5643 -1.7995
  830MPD2     C12255   2.251   2.921  16.085  0.6522 -0.2406 -0.2453
  830MPD2    C112256   2.168   2.862  15.992  0.3601 -0.7283 -0.7123
  830MPD2    C212257   2.185   2.886  15.857  0.7058  0.2762  0.5544
  830MPD2    C312258   2.276   2.984  15.815 -0.2746  0.1453 -0.9316
  830MPD2    C412259   2.351   3.050  15.908 -0.0621  0.5711  0.5500
  830MPD2    C512260   2.338   3.012  16.042 -0.1900 -0.0909  0.1374
  830MPD2     H12261   2.130   2.836  15.779 -0.4149  2.0533  0.2130
  830MPD2    H112262   2.427   3.125  15.891  3.0231 -2.7966 -0.6076
  830MPD2    H212263   2.250   2.895  16.191  1.0858  1.7543  0.2555
  830MPD2    H312264   2.404   3.061  16.113 -1.2800  1.9369 -0.2620
  830MPD2     N12265   2.292   3.024  15.682 -0.2398  0.1359  0.2859
  830MPD2    H512266   2.346   3.109  15.670 -0.4868  0.1384 -0.8225
  830MPD2    N112267   2.067   2.780  16.050 -0.1424 -0.2078  0.1456
  830MPD2    H712268   2.065   2.777  16.151 -1.4982  1.0781  0.1547
  831MPD2     C12269   2.188   0.137  16.173  0.5427  0.1176  0.1858
  831MPD2    C112270   2.191   0.003  16.149 -0.3811  0.2351 -0.0891
  831MPD2    C212271   2.143   4.658  16.245 -0.0555 -0.5000 -0.3785
  831MPD2    C312272   2.072   4.705  16.355  0.2998 -0.1164 -0.6249
  831MPD2    C412273   2.079   0.100  16.377  0.6154  0.4277 -0.3089
  831MPD2    C512274   2.132   0.184  16.289  0.6745  0.0860  0.4064
  831MPD2     H12275   2.148   4.551  16.225  1.9503 -0.4660 -0.0377
  831MPD2    H112276   2.037   0.153  16.462  2.5324  2.7429 -0.8146
  831MPD2    H212277   2.233   0.212  16.110  0.3566  1.3165  1.4849
  831MPD2    H312278   2.127   0.290  16.308  1.0062  0.2585 -0.4596
  831MPD2     N12279   1.997   4.614  16.447  0.5288 -0.0605  0.2314
  831MPD2    H512280   1.940   4.645  16.525 -0.8002 -3.4769  0.6306
  831MPD2    N112281   2.219   4.683  16.027  0.1231 -0.0048 -0.0433
  831MPD2    H712282   2.230   4.583  16.031  1.8723  0.1610 -0.8183
  832MPD2     C12283   0.768   1.150  17.288 -0.4510  0.0359  0.5408
  832MPD2    C112284   0.696   1.268  17.271  0.1743  0.2915  0.2452
  832MPD2    C212285   0.567   1.256  17.209 -0.5246  0.0449  0.4426
  832MPD2    C312286   0.522   1.134  17.159  0.3861  0.2228  0.6984
  832MPD2    C412287   0.600   1.019  17.177 -0.4180  0.3842  0.4152
  832MPD2    C512288   0.719   1.027  17.247 -0.2576 -0.1409 -0.1458
  832MPD2     H12289   0.517   1.348  17.183 -2.3292 -0.9968  0.1956
  832MPD2    H112290   0.577   0.926  17.126 -1.5208  0.6201  0.4869
  832MPD2    H212291   0.873   1.147  17.314  0.1789  0.9235 -1.8341
  832MPD2    H312292   0.787   0.943  17.248 -0.1327 -0.0022  2.5195
  832MPD2     N12293   0.405   1.125  17.084  0.1941 -0.8939  0.4358
  832MPD2    H512294   0.383   1.032  17.050  1.7708 -0.0076 -3.0028
  832MPD2    N112295   0.763   1.391  17.297  0.4139  0.1153 -0.2965
  832MPD2    H712296   0.856   1.388  17.336  0.5935 -0.8703 -0.7917
  833MPD2     C12297   2.439   3.012  13.010  0.2276  0.3082  0.4705
  833MPD2    C112298   2.417   3.111  12.914 -0.4649 -0.2345  0.7620
  833MPD2    C212299   2.508   3.127  12.814  0.5092  0.1139  0.2581
  833MPD2    C312300   2.618   3.041  12.798  0.3011 -0.4168 -0.7718
  833MPD2    C412301   2.642   2.941  12.893  0.5563 -0.3319 -0.3902
  833MPD2    C512302   2.550   2.930  12.998  0.5927 -0.0905  0.5616
  833MPD2     H12303   2.487   3.196  12.733 -1.4959  0.2405  0.8700
  833MPD2    H112304   2.720   2.867  12.878  0.4557 -0.5399  0.1534
  833MPD2    H212305   2.381   2.997  13.101 -0.9179  0.0133 -0.3104
  833MPD2    H312306   2.563   2.857  13.076  1.3396 -0.6216 -0.0739
  833MPD2     N12307   2.701   3.035  12.682 -0.2149  0.0742  0.0529
  833MPD2    H512308   2.778   2.970  12.687  0.6745  1.0968 -0.3952
  833MPD2    N112309   2.297   3.185  12.919 -0.4031 -0.2487 -0.4248
  833MPD2    H712310   2.218   3.138  12.961 -0.7469  0.3477 -0.4061
  834MPD2     C12311   2.918   2.389  11.974  0.3138 -0.4380 -0.4908
  834MPD2    C112312   2.813   2.463  11.918 -0.3443 -0.7148  0.2036
  834MPD2    C212313   2.768   2.579  11.970  0.1614 -0.0248  0.2463
  834MPD2    C312314   2.841   2.624  12.084 -0.0680  0.2338  0.0066
  834MPD2    C412315   2.945   2.557  12.139 -0.0513 -0.2997 -0.1693
  834MPD2    C512316   2.989   2.442  12.082 -0.2962  0.0892 -0.3171
  834MPD2     H12317   2.679   2.629  11.933  2.0816  2.7725 -0.6308
  834MPD2    H112318   3.002   2.588  12.225  1.0899 -0.0673 -1.0120
  834MPD2    H212319   2.934   2.287  11.941  1.2998 -1.5860  3.4933
  834MPD2    H312320   3.062   2.373  12.123  1.8098  1.7869 -1.2305
  834MPD2     N12321   2.793   2.745  12.138 -0.1383 -0.3975  0.4398
  834MPD2    H512322   2.709   2.779  12.091  0.2354  0.5179  0.4329
  834MPD2    N112323   2.754   2.397  11.804  0.0011 -0.2940  0.1742
  834MPD2    H712324   2.797   2.309  11.777 -0.6819 -0.3874 -0.6184
  835MPD2     C12325   3.271   0.597  11.647 -0.0345 -1.0877 -0.0967
  835MPD2    C112326   3.154   0.546  11.614  0.5225 -1.0282  0.2310
  835MPD2    C212327   3.145   0.407  11.582 -0.0719 -0.9193 -0.1845
  835MPD2    C312328   3.264   0.329  11.585  0.3333  0.0126  0.3761
  835MPD2    C412329   3.384   0.386  11.620 -0.4152 -0.4789  0.1773
  835MPD2    C512330   3.387   0.520  11.644 -0.1383 -0.3463  0.6182
  835MPD2     H12331   3.047   0.368  11.557 -1.5500  2.2124  0.7520
  835MPD2    H112332   3.481   0.338  11.613 -0.6467 -0.7561 -1.0961
  835MPD2    H212333   3.278   0.703  11.668  2.1283 -1.1033 -0.7465
  835MPD2    H312334   3.486   0.556  11.669  0.7677 -3.9919  2.2893
  835MPD2     N12335   3.258   0.188  11.551 -0.1609 -0.2517  0.0643
  835MPD2    H512336   3.337   0.129  11.574 -0.6328 -1.5377 -1.5832
  835MPD2    N112337   3.034   0.626  11.608 -0.2164  0.0583  0.1973
  835MPD2    H712338   2.950   0.574  11.587 -0.1731 -0.3951  1.1498
  836MPD2     C12339   2.826   4.467  12.064 -0.0297 -0.2759  0.1573
  836MPD2    C112340   2.876   4.570  11.988 -0.1885  0.5910  0.0252
  836MPD2    C212341   2.829   4.697  12.019  0.3237  0.0195 -0.7287
  836MPD2    C312342   2.726   4.723  12.117  0.0469  0.1415 -0.3852
  836MPD2    C412343   2.684   4.615  12.191  0.3068 -0.0744 -0.1407
  836MPD2    C512344   2.732   4.493  12.158  0.8425  0.1228 -0.5276
  836MPD2     H12345   2.864   0.037  11.957  1.1341  1.9440  2.2344
  836MPD2    H112346   2.595   4.625  12.252 -0.1395 -0.3409 -0.7498
  836MPD2    H212347   2.845   4.363  12.043 -2.0388 -0.0529 -2.8128
  836MPD2    H312348   2.689   4.402  12.201  4.3548 -1.1311  0.3085
  836MPD2     N12349   2.676   0.117  12.143 -0.1099 -0.1590 -0.0133
  836MPD2    H512350   2.619   0.121  12.227  1.7570  0.4026  1.2248
  836MPD2    N112351   2.951   4.541  11.871  0.1471  0.3313  0.4289
  836MPD2    H712352   2.963   4.445  11.842 -0.0645  0.5655 -0.4239
  837MPD2     C12353   1.138   0.770  10.628 -0.0557 -0.9909 -0.3611
  837MPD2    C112354   1.062   0.838  10.534 -0.3054 -0.0043 -0.1240
  837MPD2    C212355   1.047   0.972  10.561  0.0181  0.1478 -0.7231
  837MPD2    C312356   1.107   1.035  10.672  0.6738 -0.1237 -0.5807
  837MPD2    C412357   1.192   0.970  10.762 -0.5482  0.4905  0.3653
  837MPD2    C512358   1.200   0.839  10.730 -0.6267  0.5052 -0.5613
  837MPD2     H12359   0.966   1.023  10.511 -1.9095 -0.3018  1.9432
  837MPD2    H112360   1.238   1.019  10.847  0.4175  0.2331 -0.0093
  837MPD2    H212361   1.144   0.662  10.629  0.7605 -0.9091  1.8495
  837MPD2    H312362   1.259   0.780  10.799 -0.4088  1.0255 -0.3015
  837MPD2     N12363   1.068   1.173  10.690  0.5570  0.2029  0.9215
  837MPD2    H512364   1.033   1.221  10.607 -0.3545 -1.9287  0.0814
  837MPD2    N112365   0.977   0.789  10.432  0.1970  0.1196 -0.2760
  837MPD2    H712366   0.920   0.858  10.384  1.1473  0.2716 -1.1947
  838MPD2     C12367   4.293   3.474  12.268 -0.0540 -0.7464 -0.3315
  838MPD2    C112368   4.220   3.397  12.187  0.6177 -0.2366 -0.1874
  838MPD2    C212369   4.096   3.352  12.228  0.2359  0.5235 -0.2287
  838MPD2    C312370   4.042   3.380  12.357  0.8199 -1.3054  0.5691
  838MPD2    C412371   4.110   3.470  12.439 -0.5870 -0.0934 -0.3744
  838MPD2    C512372   4.236   3.505  12.392 -0.3467 -0.0023  0.1245
  838MPD2     H12373   4.041   3.287  12.161 -1.2474  1.9084 -0.3769
  838MPD2    H112374   4.072   3.503  12.535  0.0231  0.0521 -0.1841
  838MPD2    H212375   4.392   3.504  12.237 -0.4547 -1.0998 -1.9670
  838MPD2    H312376   4.297   3.567  12.456 -0.8619  2.2098 -1.5128
  838MPD2     N12377   3.915   3.331  12.395 -0.2322 -0.9246  0.3298
  838MPD2    H512378   3.882   3.251  12.342  1.6925  0.3467 -2.7346
  838MPD2    N112379   4.258   3.333  12.064  0.1062  0.3333  0.1241
  838MPD2    H712380   4.187   3.287  12.008  0.5214 -1.2724  0.9284
  839MPD2     C12381   3.676   3.062  11.547  0.9852  0.0001  0.1683
  839MPD2    C112382   3.775   2.976  11.520  0.0125  0.6549 -0.8506
  839MPD2    C212383   3.905   3.006  11.556  0.1080  0.9389  0.0556
  839MPD2    C312384   3.938   3.121  11.630 -0.5261  0.0162  0.1796
  839MPD2    C412385   3.833   3.197  11.672 -0.8073  0.2374 -0.5153
  839MPD2    C512386   3.710   3.171  11.630  0.0308  0.2807 -0.7739
  839MPD2     H12387   3.980   2.935  11.523 -1.0525 -0.0772 -0.4078
  839MPD2    H112388   3.856   3.281  11.737  1.1767 -0.0313 -0.8649
  839MPD2    H212389   3.573   3.056  11.512  0.5925  1.3219  1.1011
  839MPD2    H312390   3.628   3.239  11.652  1.5793  1.2153  1.9554
  839MPD2     N12391   4.066   3.157  11.681 -0.0716 -0.2641 -0.6921
  839MPD2    H512392   4.067   3.220  11.761 -2.3078  2.7090 -3.0252
  839MPD2    N112393   3.746   2.853  11.463 -0.5387  0.4300  0.1860
  839MPD2    H712394   3.823   2.788  11.451 -1.9064 -1.3404  0.9049
  840MPD2     C12395   4.582   1.265  10.574 -0.0282 -0.5501 -0.3149
  840MPD2    C112396   4.573   1.164  10.673  0.7471  0.0175 -0.3123
  840MPD2    C212397   4.605   1.208  10.805  0.3286  0.0157  0.0258
  840MPD2    C312398   4.624   1.340  10.844  0.0136  0.0010 -0.3547
  840MPD2    C412399   4.625   1.436  10.744 -0.2995 -0.3430  0.2697
  840MPD2    C512400   4.603   1.397  10.614 -0.2201  0.4578 -0.2145
  840MPD2     H12401   4.604   1.134  10.884  0.2795 -1.0351 -0.9599
  840MPD2    H112402   4.627   1.542  10.765  1.0564 -0.1135 -1.0599
  840MPD2    H212403   4.571   1.248  10.468  0.6281  0.0158 -0.4735
  840MPD2    H312404   4.582   1.467  10.534  1.7438  0.5176 -0.6789
  840MPD2     N12405   4.635   1.383  10.979  0.2266 -0.1624  0.0185
  840MPD2    H512406   4.659   1.480  10.994  0.3172 -0.5421  2.4472
  840MPD2    N112407   4.539   1.035  10.630  0.4364  0.3777 -0.0063
  840MPD2    H712408   4.515   1.039  10.532 -0.3278 -1.3239  0.1208
  841MPD2     C12409   3.323   0.474  15.019  0.0458  0.1924 -0.4021
  841MPD2    C112410   3.396   0.364  15.063 -0.3820  0.1666 -0.5007
  841MPD2    C212411   3.533   0.357  15.049  0.0104 -0.0619 -0.1238
  841MPD2    C312412   3.600   0.460  14.995 -0.1329 -0.4992 -0.3048
  841MPD2    C412413   3.529   0.567  14.951  0.0685  0.4204 -0.3861
  841MPD2    C512414   3.393   0.572  14.958 -0.3010  0.4959  0.3063
  841MPD2     H12415   3.573   0.262  15.083  1.6636  0.5323 -0.3902
  841MPD2    H112416   3.577   0.658  14.917  2.5850 -1.2523 -1.2092
  841MPD2    H212417   3.216   0.481  15.030  0.3277  1.3375  1.4387
  841MPD2    H312418   3.335   0.657  14.924 -0.3205  0.3074 -0.1274
  841MPD2     N12419   3.736   0.444  14.986  0.1647  0.3438  0.0951
  841MPD2    H512420   3.782   0.371  15.040 -0.3902 -0.3783 -0.4284
  841MPD2    N112421   3.325   0.251  15.114  0.1122  0.3647  0.0363
  841MPD2    H712422   3.376   0.182  15.168 -1.5059 -1.4273 -0.6898
  842MPD2     C12423   4.633   1.583  16.963  0.0614 -0.0480 -0.8839
  842MPD2    C112424   4.575   1.461  16.990 -0.8686 -0.7850  0.0235
  842MPD2    C212425   4.618   1.382  17.094 -0.7376 -0.6822  0.4231
  842MPD2    C312426   4.731   1.423  17.164  0.2184  0.1354 -0.0118
  842MPD2    C412427   0.046   1.542  17.131  0.5012 -0.6086  0.0149
  842MPD2    C512428   4.733   1.628  17.042  0.1905 -0.3570  0.3322
  842MPD2     H12429   4.576   1.285  17.119 -0.5051 -0.7389  0.6001
  842MPD2    H112430   0.131   1.576  17.188 -0.5029  0.7461  0.7067
  842MPD2    H212431   4.602   1.657  16.890 -0.8870 -0.6491 -1.0722
  842MPD2    H312432   0.043   1.724  17.037  1.0971 -0.7892  1.4766
  842MPD2     N12433   0.055   1.346  17.275 -0.6170  0.1702  0.0447
  842MPD2    H512434   0.147   1.382  17.300 -0.5719  0.9300 -1.1869
  842MPD2    N112435   4.467   1.429  16.912  0.2593 -0.0923  0.6508
  842MPD2    H712436   4.442   1.507  16.852  0.6853 -0.6679 -0.2716
  843MPD2     C12437   2.120   2.258  17.703  0.4937  0.2850 -0.4667
  843MPD2    C112438   2.181   2.214   0.054  0.6223 -0.0063 -0.6252
  843MPD2    C212439   2.189   2.307   0.158 -0.3327  0.1562  0.0399
  843MPD2    C312440   2.115   2.424   0.148  0.1695 -1.0695  0.8212
  843MPD2    C412441   2.053   2.471   0.034 -0.3921  0.0865 -0.0652
  843MPD2    C512442   2.061   2.380  17.692  0.1802  0.7818 -0.7368
  843MPD2     H12443   2.245   2.282   0.247 -1.1192 -2.0370 -0.0828
  843MPD2    H112444   2.009   2.569   0.022  0.1064  0.6891  3.0890
  843MPD2    H212445   2.125   2.202  17.611 -0.2592 -1.1790  0.3848
  843MPD2    H312446   2.038   2.421  17.594  0.2164 -0.3372 -1.2107
  843MPD2     N12447   2.117   2.523   0.252  0.3752 -0.8976 -0.1622
  843MPD2    H512448   2.054   2.600   0.232  1.6596  0.1857 -0.0881
  843MPD2    N112449   2.246   2.090   0.049 -0.2131 -0.3060  0.0614
  843MPD2    H712450   2.271   2.055  17.721  0.1230 -3.3228  1.3094
  844MPD2     C12451   0.201   0.841  16.534  0.0368 -0.2327  0.1524
  844MPD2    C112452   0.325   0.794  16.502 -0.1590  0.0977  0.3999
  844MPD2    C212453   0.439   0.850  16.560 -0.1990 -0.4150 -0.1489
  844MPD2    C312454   0.428   0.961  16.646 -0.6991 -0.9374  0.9631
  844MPD2    C412455   0.298   1.002  16.674 -0.3065  0.4334  0.2433
  844MPD2    C512456   0.186   0.946  16.617 -0.4405 -0.0547 -0.5546
  844MPD2     H12457   0.535   0.806  16.538  0.3001  0.2961  0.6046
  844MPD2    H112458   0.276   1.095  16.725 -0.1155  0.6762 -0.1188
  844MPD2    H212459   0.115   0.798  16.483  0.8501 -0.7906 -0.7307
  844MPD2    H312460   0.089   0.991  16.635  0.1918  0.5734  1.3501
  844MPD2     N12461   0.543   1.029  16.707  0.0014  0.2478 -0.1739
  844MPD2    H512462   0.635   0.993  16.682 -0.8287 -1.8023 -0.2711
  844MPD2    N112463   0.344   0.682  16.414  0.2362  0.1771  0.1145
  844MPD2    H712464   0.437   0.670  16.377 -0.4310  0.5098 -1.6351
  845MPD2     C12465   0.727   1.989  17.086 -0.1795  0.0345 -0.5336
  845MPD2    C112466   0.614   1.914  17.085  0.2377 -0.5603 -0.0462
  845MPD2    C212467   0.611   1.785  17.032 -0.6301  0.0273  0.1313
  845MPD2    C312468   0.730   1.729  16.977 -0.7895  0.6607  0.1473
  845MPD2    C412469   0.845   1.805  16.973  0.1050  0.2956 -0.2150
  845MPD2    C512470   0.837   1.929  17.032  0.2166  0.3367  0.3758
  845MPD2     H12471   0.524   1.720  17.030 -0.4022 -0.3200  2.6728
  845MPD2    H112472   0.939   1.760  16.946 -0.3141 -0.2344 -0.7760
  845MPD2    H212473   0.741   2.081  17.142 -1.9382  0.4895 -0.8116
  845MPD2    H312474   0.932   1.980  17.044 -0.4948  2.0028 -1.1070
  845MPD2     N12475   0.724   1.591  16.947  0.1115  0.0607 -0.0195
  845MPD2    H512476   0.633   1.546  16.944 -0.2845  0.9626 -1.6201
  845MPD2    N112477   0.503   1.968  17.155 -0.5240 -0.0717  0.1408
  845MPD2    H712478   0.512   2.063  17.188 -2.7649 -0.5638  2.1491
  846MPD2     C12479   2.024   2.161  13.742 -0.5038  0.0812  0.2721
  846MPD2    C112480   1.946   2.274  13.759 -0.5682 -0.6087 -0.2043
  846MPD2    C212481   1.874   2.294  13.877  0.3184 -0.0455 -0.0182
  846MPD2    C312482   1.888   2.206  13.979 -0.6382 -0.2069 -0.3277
  846MPD2    C412483   1.977   2.103  13.965  0.7372 -0.5775  0.1613
  846MPD2    C512484   2.047   2.078  13.846  0.6260  0.2917 -0.0682
  846MPD2     H12485   1.801   2.373  13.889  0.1271 -0.1398 -0.5671
  846MPD2    H112486   2.004   2.029  14.039 -0.7246  0.9875  2.2359
  846MPD2    H212487   2.088   2.153  13.655  0.2989  1.6221  0.7264
  846MPD2    H312488   2.130   2.008  13.852  0.2069 -0.1998  0.0719
  846MPD2     N12489   1.807   2.218  14.090  0.5839 -0.9024 -0.2975
  846MPD2    H512490   1.729   2.283  14.082  2.2154  1.1330  0.3492
  846MPD2    N112491   1.943   2.378  13.664  0.6398 -0.0917  0.1832
  846MPD2    H712492   1.907   2.468  13.694  1.7743  0.7651 -1.0596
  847MPD2     C12493   1.981   2.769  15.122  0.2806 -0.1873 -0.1355
  847MPD2    C112494   2.117   2.800  15.095  0.0505  0.5055 -0.2818
  847MPD2    C212495   2.214   2.744  15.173  0.7248  0.1440  0.0433
  847MPD2    C312496   2.186   2.658  15.280 -0.4709  0.1418 -0.1087
  847MPD2    C412497   2.051   2.647  15.308  0.2375  0.6133  0.1338
  847MPD2    C512498   1.947   2.689  15.224  0.3273 -0.2635  0.8156
  847MPD2     H12499   2.313   2.779  15.146  0.0072  1.4645 -0.9082
  847MPD2    H112500   2.011   2.595  15.394  1.5389 -0.7502 -0.0872
  847MPD2    H212501   1.908   2.784  15.043 -1.1838 -0.5335  1.1533
  847MPD2    H312502   1.842   2.666  15.243  0.0289  0.7268  0.3613
  847MPD2     N12503   2.275   2.594  15.364  0.1257 -0.3456 -0.1511
  847MPD2    H512504   2.236   2.529  15.431  2.3254 -0.9595  0.5474
  847MPD2    N112505   2.160   2.868  14.977  0.1890 -0.2945  0.2484
  847MPD2    H712506   2.258   2.866  14.948  0.2929 -0.9152  0.6321
  848MPD2     C12507   4.556   1.261  16.491  0.0124 -0.4896  0.4142
  848MPD2    C112508   4.671   1.319  16.549  0.4963  0.1282  0.2374
  848MPD2    C212509   4.724   1.415  16.470 -0.3114 -0.0391  0.1217
  848MPD2    C312510   4.674   1.463  16.350  0.3651  0.1007  0.9215
  848MPD2    C412511   4.556   1.410  16.304  0.7210 -0.3973 -0.7122
  848MPD2    C512512   4.496   1.305  16.378  0.1932  0.9021  0.2690
  848MPD2     H12513   0.078   1.453  16.504 -0.3110  0.6411 -0.6215
  848MPD2    H112514   4.508   1.450  16.215 -1.3067  0.6887  0.8961
  848MPD2    H212515   4.495   1.194  16.550 -0.7258  0.5738  0.8444
  848MPD2    H312516   4.407   1.256  16.339 -0.7486  2.6899  0.1787
  848MPD2     N12517   4.720   1.566  16.276  0.2808 -0.3844 -0.2145
  848MPD2    H512518   4.669   1.586  16.191  0.2306  2.0436  0.3936
  848MPD2    N112519   4.722   1.283  16.678  0.8136 -0.1466  0.3600
  848MPD2    H712520   0.058   1.337  16.713  1.2686 -1.7204  1.7740
  849MPD2     C12521   3.608   1.289  14.224  0.5383  0.4269 -0.8905
  849MPD2    C112522   3.743   1.299  14.251  0.5043 -0.4259 -0.3833
  849MPD2    C212523   3.798   1.241  14.364  0.1104  0.3823 -0.1368
  849MPD2    C312524   3.713   1.162  14.441 -0.3399 -0.2980  0.1639
  849MPD2    C412525   3.576   1.152  14.419 -0.4716  0.4756 -1.0313
  849MPD2    C512526   3.528   1.223  14.312 -0.5391  0.0170 -0.1543
  849MPD2     H12527   3.903   1.247  14.388 -0.0159  0.3975  0.4092
  849MPD2    H112528   3.516   1.082  14.477  0.3584  0.5113 -0.1355
  849MPD2    H212529   3.568   1.318  14.127 -1.9432  0.0992  0.0440
  849MPD2    H312530   3.426   1.207  14.279 -0.4594 -1.2636  0.2167
  849MPD2     N12531   3.773   1.066  14.529  0.6830 -0.1394 -0.3205
  849MPD2    H512532   3.713   0.985  14.546 -0.1999  0.4653 -0.5525
  849MPD2    N112533   3.816   1.363  14.150  0.1278  1.2570 -0.3945
  849MPD2    H712534   3.767   1.368  14.061  0.8871  1.0489 -0.8226
  850MPD2     C12535   1.612   3.849  14.745  0.4318  1.1079  0.0066
  850MPD2    C112536   1.663   3.929  14.846 -0.1318  0.0029  0.3911
  850MPD2    C212537   1.802   3.921  14.871  1.0123 -0.1604  0.2435
  850MPD2    C312538   1.882   3.818  14.819 -0.0207  0.2234 -0.5474
  850MPD2    C412539   1.831   3.751  14.712  0.0771  0.1126 -0.1843
  850MPD2    C512540   1.699   3.769  14.683 -0.4918  0.5473 -0.4495
  850MPD2     H12541   1.835   3.983  14.954 -1.5938  0.5054  0.7567
  850MPD2    H112542   1.891   3.671  14.669 -2.2955 -2.0092  0.4611
  850MPD2    H212543   1.508   3.856  14.715  0.0996  0.4540  1.0112
  850MPD2    H312544   1.666   3.708  14.600  2.7400 -1.3365 -0.3579
  850MPD2     N12545   2.014   3.788  14.862  0.1914 -0.3885  0.4274
  850MPD2    H512546   2.048   3.697  14.832 -2.4758 -1.6410  1.2553
  850MPD2    N112547   1.573   4.019  14.918 -0.0395 -0.4336 -0.2319
  850MPD2    H712548   1.485   4.028  14.868  0.6229  2.1647 -0.9280
  851MPD2     C12549   2.161   3.837  15.552 -0.3040  0.5121  0.4616
  851MPD2    C112550   2.071   3.784  15.460 -0.3438 -0.5797 -0.1787
  851MPD2    C212551   2.101   3.655  15.404  0.1440  0.4125 -0.1397
  851MPD2    C312552   2.208   3.583  15.441  0.1406  0.4195 -0.0714
  851MPD2    C412553   2.288   3.634  15.539  0.1004 -0.0966 -0.1103
  851MPD2    C512554   2.269   3.758  15.594 -0.3025  0.2578 -0.1282
  851MPD2     H12555   2.030   3.610  15.336  1.3801  0.8642 -1.7137
  851MPD2    H112556   2.365   3.571  15.582  1.5440  2.9780  1.7724
  851MPD2    H212557   2.143   3.932  15.602 -0.7629  1.3059 -1.2073
  851MPD2    H312558   2.352   3.795  15.654 -0.4789 -1.7424  1.3239
  851MPD2     N12559   2.227   3.449  15.390 -0.0617  0.0744 -0.1532
  851MPD2    H512560   2.143   3.412  15.346  0.5030 -1.7466  0.2877
  851MPD2    N112561   1.977   3.874  15.413 -0.2587  0.0642 -0.3095
  851MPD2    H712562   1.970   3.968  15.451  2.8120 -0.1086  0.7288
  852MPD2     C12563   2.611   2.236  10.276 -0.6743  0.7894 -0.6524
  852MPD2    C112564   2.490   2.201  10.337 -0.3817 -0.0294 -0.2945
  852MPD2    C212565   2.443   2.291  10.427 -0.2882  0.0304 -0.0826
  852MPD2    C312566   2.506   2.415  10.450 -0.1421 -0.1848  0.0277
  852MPD2    C412567   2.625   2.449  10.400 -0.0612  0.4444  0.3236
  852MPD2    C512568   2.678   2.355  10.315  0.4439 -0.0276  0.4948
  852MPD2     H12569   2.340   2.271  10.453 -0.0907 -1.1033 -0.1519
  852MPD2    H112570   2.682   2.540  10.412  1.1161 -0.3324  0.6349
  852MPD2    H212571   2.656   2.156  10.219 -0.5593  0.5556 -0.2362
  852MPD2    H312572   2.771   2.376  10.264 -0.8240  0.1606 -1.7867
  852MPD2     N12573   2.428   2.498  10.541 -0.2981 -0.0371 -0.5949
  852MPD2    H512574   2.340   2.462  10.577  0.0895 -0.1269  0.2730
  852MPD2    N112575   2.421   2.075  10.319 -0.3449  1.0648  0.4194
  852MPD2    H712576   2.345   2.056  10.384 -0.6998 -1.3365 -0.7085
  853MPD2     C12577   3.886   1.619  12.516  0.0128 -0.3458  0.1106
  853MPD2    C112578   3.765   1.685  12.512  0.5772  0.0917 -0.5683
  853MPD2    C212579   3.704   1.687  12.383  0.2177 -0.3552  0.3117
  853MPD2    C312580   3.775   1.648  12.270 -0.0876  0.0216 -0.0874
  853MPD2    C412581   3.898   1.598  12.283 -0.0505 -0.6295  0.1735
  853MPD2    C512582   3.950   1.578  12.403  0.2604  0.2156  0.7197
  853MPD2     H12583   3.605   1.728  12.363 -0.5822 -1.8654  1.1879
  853MPD2    H112584   3.946   1.573  12.189 -1.5722  0.7741 -0.9676
  853MPD2    H212585   3.932   1.606  12.613 -1.5768  0.9910  1.0573
  853MPD2    H312586   4.045   1.527  12.400 -1.0792 -2.1054 -2.1504
  853MPD2     N12587   3.731   1.646  12.135  0.4795 -0.1952 -0.6397
  853MPD2    H512588   3.803   1.612  12.073  3.2204  1.2319  1.7028
  853MPD2    N112589   3.709   1.739  12.626  0.1155  0.0665  0.1282
  853MPD2    H712590   3.766   1.729  12.710  0.2200 -1.6491 -0.1445
  854MPD2     C12591   0.983   2.046  12.832 -0.0465 -0.3593 -0.4180
  854MPD2    C112592   0.973   2.064  12.966 -0.5839 -0.2728  0.2485
  854MPD2    C212593   1.014   1.963  13.050 -0.7377 -0.7101  0.0042
  854MPD2    C312594   1.052   1.838  12.997 -0.0375 -0.1308  0.2351
  854MPD2    C412595   1.058   1.817  12.864 -0.7110  0.0847 -0.0090
  854MPD2    C512596   1.020   1.924  12.789  0.6135  0.3594  0.0230
  854MPD2     H12597   1.023   1.977  13.157  0.2035 -0.7927 -0.0714
  854MPD2    H112598   1.079   1.721  12.819 -0.5990  0.4073 -0.6419
  854MPD2    H212599   0.955   2.121  12.758  1.3771  0.7614  0.1801
  854MPD2    H312600   1.012   1.911  12.681  1.1530  1.7938 -0.1866
  854MPD2     N12601   1.065   1.726  13.082  0.4609  0.0773 -0.0388
  854MPD2    H512602   1.121   1.646  13.055 -0.8473 -0.5147 -0.9620
  854MPD2    N112603   0.924   2.191  13.013  0.1007 -0.2032  0.7248
  854MPD2    H712604   0.877   2.253  12.947  1.3059 -0.9962 -0.8757
  855MPD2     C12605   0.579   1.496  13.950  0.1008 -0.2104 -0.0629
  855MPD2    C112606   0.663   1.390  13.932 -0.3904 -0.5279  0.6865
  855MPD2    C212607   0.763   1.406  13.835 -0.3499 -0.1953 -1.1041
  855MPD2    C312608   0.760   1.515  13.743  0.1964  0.2967  0.1419
  855MPD2    C412609   0.660   1.609  13.754 -0.4659 -0.4440  0.6175
  855MPD2    C512610   0.579   1.602  13.863  0.1122  0.2978  0.0291
  855MPD2     H12611   0.830   1.321  13.834  1.9488  1.5776  2.4111
  855MPD2    H112612   0.656   1.701  13.696 -0.2853  0.2110  1.6509
  855MPD2    H212613   0.513   1.501  14.036 -1.9180 -0.7683 -1.5815
  855MPD2    H312614   0.505   1.680  13.875  0.9817  1.0956  0.1108
  855MPD2     N12615   0.844   1.531  13.631  0.2280 -0.1800 -0.1043
  855MPD2    H512616   0.814   1.601  13.565 -1.6470 -0.8928 -0.0156
  855MPD2    N112617   0.674   1.286  14.027  0.4200  0.3081  0.4733
  855MPD2    H712618   0.759   1.230  14.018  0.9467  1.2256 -0.2986
  856MPD2     C12619   2.902   2.319  13.813  0.4771  0.1054  0.5523
  856MPD2    C112620   3.013   2.395  13.786  0.4948  0.1600 -0.1294
  856MPD2    C212621   3.003   2.530  13.809  0.3628  0.1967 -0.3484
  856MPD2    C312622   2.883   2.590  13.830  0.3389 -0.3902 -0.3298
  856MPD2    C412623   2.770   2.516  13.842 -0.3057 -0.0150 -0.1676
  856MPD2    C512624   2.783   2.382  13.838 -0.1098 -0.0093  0.3336
  856MPD2     H12625   3.095   2.581  13.783  1.0265 -1.7128 -1.7630
  856MPD2    H112626   2.670   2.555  13.860 -1.4800 -3.3088  0.4591
  856MPD2    H212627   2.901   2.212  13.797 -0.1129 -0.1355  2.1192
  856MPD2    H312628   2.698   2.315  13.843 -0.7830  0.8699  0.6775
  856MPD2     N12629   2.866   2.729  13.826 -0.5790 -0.0323 -0.1982
  856MPD2    H512630   2.768   2.753  13.813  0.1696  1.8140 -2.3678
  856MPD2    N112631   3.145   2.349  13.745 -0.2014 -0.1209 -0.7736
  856MPD2    H712632   3.220   2.417  13.740 -1.5023  1.1812 -2.4024
  857MPD2     C12633   4.564   4.680  12.804  0.8097 -0.0808 -0.5585
  857MPD2    C112634   4.702   4.682  12.805 -0.1785  0.9590 -0.0309
  857MPD2    C212635   0.016   0.061  12.766 -0.2086 -0.1928  0.3043
  857MPD2    C312636   4.685   0.175  12.743  0.3242 -1.4785  0.3697
  857MPD2    C412637   4.547   0.164  12.749 -0.1759 -0.9308 -0.9886
  857MPD2    C512638   4.490   0.044  12.767  0.4070  0.3055 -0.0429
  857MPD2     H12639   0.123   0.072  12.778 -0.1393 -1.6137  1.0520
  857MPD2    H112640   4.474   0.244  12.755  2.7365  1.6328  0.2834
  857MPD2    H212641   4.522   4.582  12.824 -0.3004  0.5514  0.2822
  857MPD2    H312642   4.382   0.030  12.763  0.2214  0.8302  3.2298
  857MPD2     N12643   0.009   0.292  12.713 -0.2645  0.2956 -0.1910
  857MPD2    H512644   0.107   0.278  12.691 -0.8175 -1.7537 -1.3655
  857MPD2    N112645   0.023   4.561  12.848 -0.3629  0.4908 -0.5736
  857MPD2    H712646   4.701   4.495  12.891 -1.2384  0.7622 -1.4552
  858MPD2     C12647   0.981   3.893  16.710 -0.0456  0.1707  0.3244
  858MPD2    C112648   0.936   3.776  16.766  0.6641 -0.0578  0.5004
  858MPD2    C212649   0.945   3.767  16.906  0.3036 -1.1026 -0.1994
  858MPD2    C312650   1.022   3.859  16.971 -0.2644  0.5835 -0.4138
  858MPD2    C412651   1.086   3.968  16.910 -0.1000 -0.4825  0.0869
  858MPD2    C512652   1.049   3.984  16.778 -0.7824  0.2075  0.0852
  858MPD2     H12653   0.892   3.691  16.963 -0.2623 -0.9619 -0.5361
  858MPD2    H112654   1.149   4.037  16.965 -1.2552 -1.2031  2.2920
  858MPD2    H212655   0.950   3.919  16.609 -2.6478  0.8502  1.2986
  858MPD2    H312656   1.081   4.078  16.733  3.9004 -1.4074  0.1593
  858MPD2     N12657   1.028   3.856  17.113  0.0718 -0.1233 -0.2903
  858MPD2    H512658   1.059   3.942  17.156  1.6354 -1.2354  0.7734
  858MPD2    N112659   0.859   3.684  16.681  0.5921 -0.3336 -0.2482
  858MPD2    H712660   0.852   3.720  16.586  0.0160  0.6734  0.1820
  859MPD2     C12661   4.116   0.960  15.870  0.0871 -0.0448 -0.2609
  859MPD2    C112662   4.158   0.908  15.751 -0.4909 -0.2019  0.1495
  859MPD2    C212663   4.206   0.781  15.748  0.5680 -0.2198 -0.0735
  859MPD2    C312664   4.225   0.714  15.865  0.1747  0.3649  0.4622
  859MPD2    C412665   4.187   0.769  15.987  0.0651  0.5007 -0.5036
  859MPD2    C512666   4.125   0.889  15.989  0.0793 -0.0512 -0.5342
  859MPD2     H12667   4.240   0.738  15.655  0.4482 -1.6623  0.5555
  859MPD2    H112668   4.208   0.713  16.077 -0.3921  2.6167  0.9194
  859MPD2    H212669   4.069   1.058  15.871  0.9335  0.3533  1.7686
  859MPD2    H312670   4.081   0.929  16.080  1.2884 -0.4553  0.2388
  859MPD2     N12671   4.290   0.590  15.880  0.0522 -0.1869 -0.3113
  859MPD2    H512672   4.307   0.542  15.968  0.2694  1.0950  0.3624
  859MPD2    N112673   4.128   0.977  15.633 -0.3141 -0.0243  0.2062
  859MPD2    H712674   4.115   1.077  15.646  1.1809  0.1635  0.3299
  860MPD2     C12675   2.354   1.428  12.010 -0.1198 -0.0519  1.0508
  860MPD2    C112676   2.319   1.537  12.089 -0.5547 -0.1988 -0.1180
  860MPD2    C212677   2.214   1.516  12.177  0.1118 -0.5991 -0.0984
  860MPD2    C312678   2.134   1.404  12.184 -0.4747  0.2080 -0.1586
  860MPD2    C412679   2.165   1.300  12.101 -0.7630 -0.6870  0.2906
  860MPD2    C512680   2.268   1.315  12.005  0.0752 -0.5432 -0.3572
  860MPD2     H12681   2.184   1.595  12.245  2.4148  2.2716 -2.3901
  860MPD2    H112682   2.108   1.208  12.100  0.3903 -1.4220  1.3750
  860MPD2    H212683   2.428   1.420  11.931 -3.4898 -0.9138 -2.0475
  860MPD2    H312684   2.285   1.241  11.927  0.5261  1.2913 -1.9905
  860MPD2     N12685   2.018   1.406  12.265 -0.3567  0.0313  0.1511
  860MPD2    H512686   1.992   1.482  12.327  2.4760  0.5027  0.7345
  860MPD2    N112687   2.379   1.667  12.081 -0.3900 -0.3911  0.6137
  860MPD2    H712688   2.339   1.735  12.145 -0.3249 -0.1173  0.3651
  861MPD2     C12689   0.942   0.010  11.099  0.1108  0.7905 -0.5254
  861MPD2    C112690   0.884   0.083  11.201 -0.3406 -0.0068  0.5735
  861MPD2    C212691   0.833   0.212  11.172  0.1494 -0.3867 -0.2056
  861MPD2    C312692   0.818   0.248  11.037  1.0342  0.4655  0.4245
  861MPD2    C412693   0.868   0.169  10.939 -0.1714  0.1475 -0.2410
  861MPD2    C512694   0.937   0.052  10.967  0.3694 -1.2235  0.3585
  861MPD2     H12695   0.810   0.291  11.243  0.5282  0.0711 -0.5902
  861MPD2    H112696   0.857   0.203  10.837 -2.4060 -0.7121 -0.2951
  861MPD2    H212697   0.996   4.660  11.119 -0.0213  1.1736  1.6475
  861MPD2    H312698   0.976   4.723  10.895  0.6994  0.5862 -1.2449
  861MPD2     N12699   0.717   0.349  10.997 -0.1847 -0.4051 -0.5985
  861MPD2    H512700   0.658   0.325  10.918  0.5004 -1.6650 -0.7207
  861MPD2    N112701   0.907   0.044  11.334  1.0532 -0.1237 -0.6702
  861MPD2    H712702   0.905   0.121  11.400 -1.0622 -1.2600  0.5839
  862MPD2     C12703   0.128   0.153  10.672 -0.1896  0.0425 -0.5118
  862MPD2    C112704   0.228   0.132  10.770 -0.2633  0.0783  0.9786
  862MPD2    C212705   0.272   0.005  10.808 -0.2726 -0.3302  0.3322
  862MPD2    C312706   0.221   4.635  10.758 -0.3467  0.5973  0.3765
  862MPD2    C412707   0.119   4.652  10.665 -0.1533 -0.2872 -0.2266
  862MPD2    C512708   0.075   0.037  10.620 -0.0748  0.7004 -0.5142
  862MPD2     H12709   0.359   0.003  10.873  0.2946 -2.6504 -0.4911
  862MPD2    H112710   0.061   4.576  10.614 -2.0676  0.7898  0.3557
  862MPD2    H212711   0.102   0.251  10.634 -0.3238  1.2605  2.7002
  862MPD2    H312712   4.736   0.038  10.548  0.7536  0.1672 -1.4513
  862MPD2     N12713   0.257   4.505  10.804 -0.5091 -0.2905 -0.4395
  862MPD2    H512714   0.219   4.420  10.761 -1.2901 -0.1238 -0.0746
  862MPD2    N112715   0.296   0.237  10.834 -0.2307 -0.1714 -0.2131
  862MPD2    H712716   0.382   0.207  10.879  1.0040  0.3820 -2.2148
  863MPD2     C12717   3.675   2.240  16.743 -0.2884 -0.2358  0.8392
  863MPD2    C112718   3.660   2.352  16.816  0.1924 -0.2026 -0.0280
  863MPD2    C212719   3.728   2.365  16.937  0.9109  0.2191  0.1720
  863MPD2    C312720   3.819   2.269  16.974  0.7312 -1.1063 -0.0388
  863MPD2    C412721   3.818   2.147  16.905 -0.0630  0.1766 -0.6860
  863MPD2    C512722   3.753   2.136  16.786  0.0118 -0.3317  0.7688
  863MPD2     H12723   3.692   2.446  17.000  0.8366  1.9258 -2.0527
  863MPD2    H112724   3.854   2.051  16.938  1.5305  0.6042 -1.1644
  863MPD2    H212725   3.630   2.221  16.646 -1.6199  0.4813  1.3183
  863MPD2    H312726   3.755   2.039  16.736 -0.6987  0.7511 -1.3723
  863MPD2     N12727   3.883   2.265  17.097 -0.6273 -0.5715  0.0753
  863MPD2    H512728   3.935   2.181  17.121  0.3657  0.1627  0.4914
  863MPD2    N112729   3.568   2.443  16.759 -0.4563 -0.4164 -0.2436
  863MPD2    H712730   3.524   2.415  16.672  0.9700  1.1540 -1.4973
  864MPD2     C12731   3.996   3.805  17.507  0.3098 -0.2747 -0.5659
  864MPD2    C112732   4.021   3.754  17.380 -0.3685 -0.6483  0.3507
  864MPD2    C212733   4.049   3.846  17.278  0.4357  1.0063  0.3642
  864MPD2    C312734   4.073   3.975  17.315 -0.5352  1.3227  0.6211
  864MPD2    C412735   4.061   4.019  17.444  0.0723 -0.3136  0.5721
  864MPD2    C512736   4.001   3.939  17.538 -0.5008 -0.6630 -0.2235
  864MPD2     H12737   4.066   3.810  17.178 -0.1126 -0.2566  0.7156
  864MPD2    H112738   4.084   4.122  17.468 -1.5692  0.0727  0.4573
  864MPD2    H212739   3.972   3.737  17.587  0.5529 -0.4103 -0.6075
  864MPD2    H312740   3.962   3.973  17.634 -0.3013  1.0795 -0.7675
  864MPD2     N12741   4.144   4.052  17.225 -0.2014 -0.0488  0.0880
  864MPD2    H512742   4.208   4.116  17.270 -0.5997  1.5784 -1.6546
  864MPD2    N112743   4.031   3.611  17.374 -0.1538  0.4673  0.5629
  864MPD2    H712744   4.002   3.559  17.456  1.4115 -1.8032 -0.3447
  865MPD2     C12745   3.814   3.683  16.559  0.3775 -0.1668 -0.1181
  865MPD2    C112746   3.941   3.697  16.510  0.7970 -0.2459 -0.7512
  865MPD2    C212747   4.029   3.796  16.565 -0.0174 -0.5585 -0.0061
  865MPD2    C312748   3.996   3.874  16.671  0.4170 -0.3118  0.3361
  865MPD2    C412749   3.876   3.863  16.722 -0.3144 -0.6771  0.5862
  865MPD2    C512750   3.784   3.768  16.666 -0.5339  0.4704  0.2972
  865MPD2     H12751   4.131   3.805  16.530  0.4578 -0.2942  1.4743
  865MPD2    H112752   3.851   3.916  16.814  0.7355  0.3241  0.2942
  865MPD2    H212753   3.736   3.619  16.518 -1.5020  2.3142 -0.4502
  865MPD2    H312754   3.690   3.749  16.715 -0.6803 -0.2727 -0.2616
  865MPD2     N12755   4.088   3.964  16.728 -0.2031 -0.4666  0.1751
  865MPD2    H512756   4.063   3.999  16.820  2.0709 -1.8859  1.3312
  865MPD2    N112757   3.984   3.606  16.416  0.8095  0.0230 -0.7904
  865MPD2    H712758   3.941   3.514  16.416 -0.9058  0.8168 -3.5723
  866MPD2     C12759   1.428   0.327  11.669 -0.1027 -0.2505  0.1279
  866MPD2    C112760   1.332   0.237  11.634 -0.6064  0.6945  0.1879
  866MPD2    C212761   1.204   0.285  11.605 -0.6189 -0.3472  0.4106
  866MPD2    C312762   1.168   0.416  11.615 -0.1160 -0.1234 -1.1462
  866MPD2    C412763   1.259   0.504  11.659 -0.2496  0.0296  0.0000
  866MPD2    C512764   1.391   0.461  11.686  0.5801  0.4080 -0.3410
  866MPD2     H12765   1.128   0.221  11.562  0.3222 -1.6079  0.6195
  866MPD2    H112766   1.239   0.608  11.685  0.9941  0.5457 -1.0858
  866MPD2    H212767   1.528   0.303  11.704  0.9737 -0.5687 -3.1416
  866MPD2    H312768   1.465   0.534  11.717 -2.5127  2.9678  0.9702
  866MPD2     N12769   1.040   0.476  11.584 -0.2192 -0.8821  0.2422
  866MPD2    H512770   1.012   0.563  11.629 -0.6638  0.2267 -2.2088
  866MPD2    N112771   1.378   0.104  11.613  0.3553 -0.0755  0.2975
  866MPD2    H712772   1.475   0.088  11.637  0.3533  0.4967  0.7140
  867MPD2     C12773   3.446   3.873  16.791 -0.3218 -0.6460 -0.2796
  867MPD2    C112774   3.482   3.795  16.898 -0.1079  0.2491 -0.4933
  867MPD2    C212775   3.556   3.859  16.994 -0.5597  0.3595  0.1178
  867MPD2    C312776   3.594   3.992  16.988  0.6422  0.2103  0.2885
  867MPD2    C412777   3.541   4.065  16.884 -0.7742  0.0641  0.2116
  867MPD2    C512778   3.462   4.008  16.791 -0.2005 -0.0001  0.3013
  867MPD2     H12779   3.604   3.801  17.072  0.6239  1.9689  0.5877
  867MPD2    H112780   3.564   4.171  16.877  0.6650 -0.1655  1.6343
  867MPD2    H212781   3.381   3.826  16.718 -0.4721  1.9443 -1.8003
  867MPD2    H312782   3.418   4.070  16.713 -1.6829 -0.7811  0.5259
  867MPD2     N12783   3.680   4.049  17.085  0.6324  0.5085 -0.5568
  867MPD2    H512784   3.696   4.148  17.071 -1.6739  0.7424 -1.6479
  867MPD2    N112785   3.455   3.660  16.897  0.0922  0.4294  0.6284
  867MPD2    H712786   3.405   3.621  16.817  1.1814 -0.9592  0.6112
  868MPD2     C12787   0.217   3.382  13.237  0.4539 -0.7379  0.0567
  868MPD2    C112788   0.266   3.393  13.362 -0.0938  0.1981 -0.1767
  868MPD2    C212789   0.180   3.397  13.468 -0.2397 -0.1029  0.9180
  868MPD2    C312790   0.041   3.411  13.450 -0.4655 -0.6856 -0.0001
  868MPD2    C412791   4.732   3.393  13.320  0.9034 -0.1810  0.8059
  868MPD2    C512792   0.083   3.382  13.211  0.5202 -0.2266  0.1654
  868MPD2     H12793   0.224   3.400  13.568  0.3540 -0.3219  0.6627
  868MPD2    H112794   4.626   3.394  13.295  0.6251  1.7491  2.0328
  868MPD2    H212795   0.277   3.375  13.147  1.0411  1.9995  0.2291
  868MPD2    H312796   0.063   3.390  13.105 -1.7408  0.5342  0.6645
  868MPD2     N12797   4.703   3.435  13.564  0.2725  0.4361  0.0889
  868MPD2    H512798   0.014   3.412  13.648  0.1304  0.8118  0.2804
  868MPD2    N112799   0.395   3.374  13.376  0.4136  0.2170  0.0112
  868MPD2    H712800   0.449   3.376  13.290  1.8530  2.3212  0.9544
  869MPD2     C12801   1.429   0.964  17.727 -0.0881  0.1282 -0.1889
  869MPD2    C112802   1.375   1.015   0.087 -0.2740 -1.1510  1.4898
  869MPD2    C212803   1.440   0.981   0.202 -0.2940 -0.2679  0.1579
  869MPD2    C312804   1.557   0.906   0.201 -0.8249 -0.1249  0.6913
  869MPD2    C412805   1.594   0.848   0.081  0.0527 -0.2313  0.3517
  869MPD2    C512806   1.524   0.865  17.736  0.2830 -0.7351  0.9128
  869MPD2     H12807   1.423   1.033   0.296  1.7165  1.1743 -0.2767
  869MPD2    H112808   1.680   0.783   0.067 -0.5627 -1.2239  1.2418
  869MPD2    H212809   1.383   0.984  17.631 -0.1858  0.7873 -0.0045
  869MPD2    H312810   1.558   0.825  17.641 -0.0993 -1.7033  1.1877
  869MPD2     N12811   1.641   0.890   0.313 -0.4825 -0.3035  0.3236
  869MPD2    H512812   1.726   0.837   0.296 -2.1238 -2.5060 -0.9772
  869MPD2    N112813   1.273   1.106   0.086 -0.0093 -0.0325  0.2864
  869MPD2    H712814   1.238   1.137  17.760  1.4243  1.7410  0.3422
  870MPD2     C12815   1.174   0.470   0.993 -0.2021 -0.0039  0.0111
  870MPD2    C112816   1.107   0.429   1.109 -0.1150 -0.1164 -0.5975
  870MPD2    C212817   0.973   0.468   1.123 -0.1080 -0.0445 -0.2684
  870MPD2    C312818   0.911   0.545   1.027  0.6340  0.1766 -0.8106
  870MPD2    C412819   0.982   0.598   0.920  0.0448 -0.1454 -0.0069
  870MPD2    C512820   1.112   0.561   0.913 -0.0759  0.9840  0.3845
  870MPD2     H12821   0.919   0.456   1.216  0.1674  1.9285  0.1576
  870MPD2    H112822   0.939   0.673   0.855  2.6126  1.9351  0.6887
  870MPD2    H212823   1.271   0.433   0.964 -0.5199 -2.1827  1.6999
  870MPD2    H312824   1.170   0.613   0.837  1.6392 -2.1574 -0.4443
  870MPD2     N12825   0.770   0.580   1.037 -0.8013 -0.4080  0.3493
  870MPD2    H512826   0.712   0.528   1.103 -2.0263  0.3083 -0.1460
  870MPD2    N112827   1.174   0.347   1.200  0.0706 -0.6271 -0.1659
  870MPD2    H712828   1.253   0.294   1.166  0.1424 -1.1711  0.8607
  871MPD2     C12829   2.142   4.188  16.514  0.7049 -0.0246 -0.6446
  871MPD2    C112830   2.231   4.134  16.607  0.1661  0.0529 -0.2327
  871MPD2    C212831   2.269   4.001  16.599  0.7148  0.8691 -0.3460
  871MPD2    C312832   2.218   3.922  16.495  0.8574  0.1978  0.0996
  871MPD2    C412833   2.131   3.983  16.402 -0.8416  0.1188  0.3093
  871MPD2    C512834   2.087   4.117  16.411  0.0435  0.1899 -0.0083
  871MPD2     H12835   2.315   3.957  16.686 -0.9223 -2.2626 -1.0808
  871MPD2    H112836   2.079   3.933  16.321  0.2403 -0.8715  0.2253
  871MPD2    H212837   2.111   4.291  16.522 -1.6208 -0.5990 -2.5307
  871MPD2    H312838   2.018   4.153  16.336 -2.6273 -0.0589  2.3153
  871MPD2     N12839   2.241   3.783  16.500 -0.1437 -0.0474 -0.2556
  871MPD2    H512840   2.305   3.753  16.573  0.6118  1.4772 -0.2917
  871MPD2    N112841   2.257   4.218  16.717 -0.1657  0.5005 -0.1210
  871MPD2    H712842   2.222   4.312  16.704  1.2201  1.0686  0.2596
  872MPD2     C12843   2.965   1.641  14.342 -0.1303  0.0696  0.5260
  872MPD2    C112844   2.886   1.705  14.251  0.2605 -0.3088  0.0039
  872MPD2    C212845   2.757   1.719  14.285 -0.6189  0.3193 -0.0254
  872MPD2    C312846   2.708   1.684  14.417  0.1944  0.0151  0.6150
  872MPD2    C412847   2.788   1.610  14.501  0.4901 -0.5604  0.3821
  872MPD2    C512848   2.915   1.581  14.450 -0.1166  0.7089  0.1294
  872MPD2     H12849   2.688   1.766  14.216  1.4919  0.5993 -1.9042
  872MPD2    H112850   2.754   1.574  14.597  2.4084 -1.6271  0.6629
  872MPD2    H212851   3.070   1.617  14.326  0.1369  0.6895  1.3584
  872MPD2    H312852   2.981   1.513  14.503  0.6831 -0.5968 -2.5113
  872MPD2     N12853   2.588   1.727  14.474  0.1369 -0.9472  0.0895
  872MPD2    H512854   2.569   1.694  14.568  0.7873  1.6096  1.1254
  872MPD2    N112855   2.936   1.752  14.124  0.1690 -0.1012  0.5090
  872MPD2    H712856   2.872   1.782  14.051  0.8663 -1.4336 -0.6498
  873MPD2     C12857   0.253   1.605   0.945 -0.2272  0.1252  0.2476
  873MPD2    C112858   0.166   1.656   1.029 -0.2076 -0.4745  0.0450
  873MPD2    C212859   0.070   1.576   1.090  0.3304  0.3552 -0.4689
  873MPD2    C312860   0.062   1.441   1.062 -0.2263 -0.3682 -0.8417
  873MPD2    C412861   0.147   1.387   0.977 -0.5444 -0.4110  0.4617
  873MPD2    C512862   0.242   1.462   0.915  0.4460  0.7588  0.2212
  873MPD2     H12863   0.016   1.632   1.166  0.9100 -0.0400  0.2334
  873MPD2    H112864   0.157   1.279   0.975  1.8510 -0.1666 -0.4088
  873MPD2    H212865   0.316   1.664   0.880  2.0674 -2.1823  0.3819
  873MPD2    H312866   0.310   1.419   0.843 -2.2647  1.0563 -2.5597
  873MPD2     N12867   4.707   1.354   1.122 -0.1227  0.1023  0.2491
  873MPD2    H512868   4.697   1.263   1.079  1.8428  0.2856 -0.6023
  873MPD2    N112869   0.185   1.792   1.052 -1.0917  0.0846  0.3080
  873MPD2    H712870   0.270   1.838   1.023 -2.8283  2.7093 -0.6415
  874MPD2     C12871   4.094   1.649  16.180 -0.3487  0.3341  0.3628
  874MPD2    C112872   4.189   1.625  16.277  0.7292 -0.4451 -0.2673
  874MPD2    C212873   4.316   1.679  16.259  0.5853  0.5701 -0.6594
  874MPD2    C312874   4.349   1.761  16.155 -0.1857  0.0641  0.6700
  874MPD2    C412875   4.254   1.779  16.059  0.0382  0.4173  0.4847
  874MPD2    C512876   4.131   1.723  16.075  0.6255  0.3619 -0.2841
  874MPD2     H12877   4.400   1.649  16.320 -0.2115  0.0348  0.1733
  874MPD2    H112878   4.263   1.857  15.984 -1.0489  0.9778  0.9426
  874MPD2    H212879   3.991   1.617  16.179  0.1564 -1.3002  0.5077
  874MPD2    H312880   4.056   1.747  16.000 -0.1421 -0.1667  0.3081
  874MPD2     N12881   4.477   1.814  16.154 -0.6068 -0.2028  0.2960
  874MPD2    H512882   4.526   1.802  16.242  0.8706 -1.3005 -0.6750
  874MPD2    N112883   4.162   1.549  16.393 -0.7536 -0.4373  0.2810
  874MPD2    H712884   4.079   1.491  16.395 -1.0096 -0.0279  1.7229
  875MPD2     C12885   0.829   0.099  14.756 -0.3240  0.2141 -0.1873
  875MPD2    C112886   0.696   0.119  14.794 -0.1108 -0.1658 -0.3757
  875MPD2    C212887   0.668   0.156  14.929  0.1243  0.1523 -0.4056
  875MPD2    C312888   0.777   0.156  15.018  0.2876 -0.7225  0.1295
  875MPD2    C412889   0.906   0.134  14.976 -0.3016 -0.3377  0.2528
  875MPD2    C512890   0.928   0.092  14.847  0.3122 -0.0292  0.1291
  875MPD2     H12891   0.566   0.176  14.958 -0.0390 -1.9290  0.4347
  875MPD2    H112892   0.994   0.136  15.040 -0.9227 -0.5097  1.1131
  875MPD2    H212893   0.862   0.084  14.654  0.4861 -1.7158  0.3590
  875MPD2    H312894   1.031   0.092  14.813  0.5879 -1.3545  0.9388
  875MPD2     N12895   0.760   0.184  15.155  0.0805  0.0494 -0.7503
  875MPD2    H512896   0.841   0.182  15.216 -1.2281 -0.3251  1.0043
  875MPD2    N112897   0.585   0.106  14.704  0.6045 -0.2613  0.3832
  875MPD2    H712898   0.493   0.127  14.744 -0.0663  1.3233 -1.9705
  876MPD2     C12899   4.107   1.262  16.145 -0.5159 -0.6261 -1.1500
  876MPD2    C112900   4.222   1.244  16.087 -0.2631 -0.5014 -0.1840
  876MPD2    C212901   4.300   1.137  16.123 -0.3002  0.2206  0.9810
  876MPD2    C312902   4.258   1.049  16.216  0.3149 -0.5774 -0.5208
  876MPD2    C412903   4.145   1.083  16.293 -0.3616 -0.3493 -0.0463
  876MPD2    C512904   4.069   1.192  16.259 -0.5880  0.4383  0.2259
  876MPD2     H12905   4.399   1.130  16.078 -0.5991  1.6576  0.0733
  876MPD2    H112906   4.109   1.023  16.375  0.4647  1.6437  1.7563
  876MPD2    H212907   4.039   1.341  16.115 -1.2983  0.3902  3.2195
  876MPD2    H312908   3.983   1.210  16.323 -1.0944 -1.5649  0.1056
  876MPD2     N12909   4.334   0.935  16.256 -0.6068 -0.5331 -0.4471
  876MPD2    H512910   4.427   0.916  16.220  0.4143  0.7810  1.4656
  876MPD2    N112911   4.255   1.339  15.985  0.2986 -0.1259  0.0734
  876MPD2    H712912   4.183   1.402  15.951 -0.2994 -0.5059  0.6406
  877MPD2     C12913   4.064   1.541  15.285 -0.4374 -0.5666 -0.0539
  877MPD2    C112914   4.193   1.584  15.303  0.3509  0.6522  0.0428
  877MPD2    C212915   4.271   1.609  15.192 -0.2428  0.3360 -0.2429
  877MPD2    C312916   4.228   1.603  15.066  0.0153 -0.8709  0.4166
  877MPD2    C412917   4.095   1.576  15.048 -0.1671 -0.0312  0.7510
  877MPD2    C512918   4.022   1.547  15.159 -0.4170  0.8020  0.3893
  877MPD2     H12919   4.377   1.630  15.200 -0.5050  1.2359  0.8047
  877MPD2    H112920   4.042   1.570  14.953  0.7915 -0.0307  0.2223
  877MPD2    H212921   3.988   1.526  15.362  1.3629 -1.2895  1.5748
  877MPD2    H312922   3.917   1.524  15.142 -0.6342  2.1443 -0.1299
  877MPD2     N12923   4.310   1.632  14.954 -0.0024  0.2524  0.2881
  877MPD2    H512924   4.410   1.640  14.973  0.2264 -1.4340 -0.2166
  877MPD2    N112925   4.255   1.587  15.427  0.2147 -0.5361 -0.4298
  877MPD2    H712926   4.349   1.624  15.425 -0.0229  0.1250  0.2304
  878MPD2     C12927   3.710   1.070  13.302  0.0938  0.1056  0.1934
  878MPD2    C112928   3.839   1.113  13.281 -0.5480 -0.2698  0.2614
  878MPD2    C212929   3.915   1.156  13.396  0.2419 -0.5421 -0.1526
  878MPD2    C312930   3.850   1.160  13.520  0.4070 -0.1228 -0.1137
  878MPD2    C412931   3.729   1.103  13.536 -0.2444  0.0175 -0.8337
  878MPD2    C512932   3.662   1.065  13.426 -0.0733  0.1633  0.6935
  878MPD2     H12933   4.016   1.193  13.382  0.3337 -0.3004  1.1692
  878MPD2    H112934   3.674   1.104  13.630  0.4164 -1.5143 -0.4225
  878MPD2    H212935   3.645   1.038  13.221  2.5527  0.6411 -2.0239
  878MPD2    H312936   3.555   1.058  13.442 -0.1921 -0.5879 -0.4789
  878MPD2     N12937   3.922   1.192  13.636  0.0031 -0.2126 -0.6426
  878MPD2    H512938   4.021   1.205  13.619  0.4820 -1.2884  1.4219
  878MPD2    N112939   3.874   1.139  13.144  0.1067 -0.2865  0.1170
  878MPD2    H712940   3.794   1.138  13.081  0.0365 -1.2663  0.2173
  879MPD2     C12941   4.260   2.579  16.976  0.1054  0.0366 -0.6014
  879MPD2    C112942   4.324   2.469  17.022 -1.2036 -0.4246 -0.5403
  879MPD2    C212943   4.274   2.340  16.982  0.4044 -0.0219 -0.4322
  879MPD2    C312944   4.169   2.330  16.898  0.3376 -0.2920 -0.8750
  879MPD2    C412945   4.101   2.442  16.866 -0.3672 -0.2809 -0.0020
  879MPD2    C512946   4.148   2.568  16.898 -0.7536 -0.5043 -0.2203
  879MPD2     H12947   4.319   2.249  17.021 -1.9254 -2.2491 -2.9364
  879MPD2    H112948   4.015   2.439  16.800  0.6067 -1.3150 -1.2244
  879MPD2    H212949   4.278   2.684  16.997 -0.8785  0.1446 -0.2904
  879MPD2    H312950   4.092   2.659  16.877  1.6119  0.9800 -0.1077
  879MPD2     N12951   4.124   2.205  16.850 -0.1880 -0.1419  0.0299
  879MPD2    H512952   4.061   2.214  16.771  1.8714 -2.2775 -1.8714
  879MPD2    N112953   4.440   2.491  17.103 -0.6041 -0.2001 -0.8985
  879MPD2    H712954   4.478   2.585  17.110  1.2786 -1.1609  1.6694
  880MPD2     C12955   1.049   4.325  17.642  0.2906  0.3466  0.0738
  880MPD2    C112956   1.035   4.364   0.012  0.1801  0.0651 -0.0483
  880MPD2    C212957   1.114   4.292   0.105  0.3128  0.0982 -0.2879
  880MPD2    C312958   1.191   4.184   0.061 -0.7408  0.2510 -0.1361
  880MPD2    C412959   1.196   4.154  17.687 -0.0723 -0.1679 -0.5239
  880MPD2    C512960   1.119   4.221  17.603 -0.7199  0.0446  0.5834
  880MPD2     H12961   1.111   4.319   0.209  1.4550 -1.4004  0.1360
  880MPD2    H112962   1.234   4.059  17.652  0.6036 -0.4183  0.8815
  880MPD2    H212963   1.007   4.389  17.566 -0.0007 -0.8837 -0.8067
  880MPD2    H312964   1.109   4.185  17.501  3.2110  0.1718  0.1496
  880MPD2     N12965   1.261   4.110   0.158 -0.4696  0.3055 -0.1766
  880MPD2    H512966   1.260   4.148   0.252  0.5036 -0.3253  0.0764
  880MPD2    N112967   0.964   4.486   0.041  0.1541  0.1743 -0.5235
  880MPD2    H712968   0.938   4.541  17.723 -1.5286 -1.5985 -1.1613
  881MPD2     C12969   1.264   0.663  17.726  0.1483  0.0714  0.4017
  881MPD2    C112970   1.337   0.545  17.743 -0.3860  0.6012 -0.0642
  881MPD2    C212971   1.266   0.438   0.039  0.3288  0.0159 -0.4886
  881MPD2    C312972   1.140   0.454   0.093 -0.8000 -0.1190  0.6479
  881MPD2    C412973   1.087   0.582   0.107 -0.7837  0.2977  0.2996
  881MPD2    C512974   1.145   0.678   0.032  0.0521 -0.9991 -0.8211
  881MPD2     H12975   1.297   0.334   0.037 -0.7511 -0.3805  2.5329
  881MPD2    H112976   0.998   0.602   0.166 -0.3726  1.5596  0.5041
  881MPD2    H212977   1.282   0.755  17.672  2.0503 -1.0981 -0.9689
  881MPD2    H312978   1.092   0.773   0.035 -0.7374 -1.4511 -0.4048
  881MPD2     N12979   1.051   0.353   0.141 -1.1147  0.1714  0.4370
  881MPD2    H512980   0.966   0.376   0.191 -0.5531  2.7809  0.1990
  881MPD2    N112981   1.466   0.528  17.672 -0.4231 -0.3535  0.5667
  881MPD2    H712982   1.488   0.596  17.600 -3.3114 -0.8145 -0.7499
  882MPD2     C12983   4.427   1.853  14.120 -0.0482 -0.5493  0.0819
  882MPD2    C112984   4.340   1.812  14.221  0.6570  0.9667 -0.1443
  882MPD2    C212985   4.214   1.788  14.190  0.3974  0.3417 -0.3261
  882MPD2    C312986   4.163   1.818  14.070  0.0533  0.0638  0.5674
  882MPD2    C412987   4.251   1.872  13.974  0.1262 -0.7146 -1.0100
  882MPD2    C512988   4.378   1.897  14.001 -0.0168  0.6808 -0.6282
  882MPD2     H12989   4.155   1.738  14.265 -2.5541  3.1611 -0.7774
  882MPD2    H112990   4.218   1.881  13.871 -0.6974 -2.1244 -0.8689
  882MPD2    H212991   4.531   1.879  14.136 -0.0709 -0.5836  0.2807
  882MPD2    H312992   4.452   1.925  13.927  1.7151 -0.3405  0.7221
  882MPD2     N12993   4.028   1.799  14.046  0.9208 -0.1638 -0.4875
  882MPD2    H512994   3.996   1.837  13.957  0.1149 -0.8445 -0.4914
  882MPD2    N112995   4.382   1.781  14.354 -0.0903  0.8079  0.5585
  882MPD2    H712996   4.309   1.755  14.421 -1.3970  1.0868 -0.7528
  883MPD2     C12997   1.408   1.285  16.331  0.5356 -0.0180 -0.6786
  883MPD2    C112998   1.502   1.273  16.232  0.4970  0.4777 -0.4190
  883MPD2    C212999   1.631   1.305  16.248  0.6492 -0.5835  0.1180
  883MPD2    C313000   1.667   1.361  16.367 -0.5495 -0.5362  0.1694
  883MPD2    C413001   1.573   1.384  16.468 -0.1031  0.8598 -0.0686
  883MPD2    C513002   1.447   1.342  16.455  0.2646 -0.3047 -0.2054
  883MPD2     H13003   1.701   1.305  16.166 -0.2178 -1.9663 -0.6147
  883MPD2    H113004   1.591   1.429  16.565 -0.3906 -1.1631  0.9336
  883MPD2    H213005   1.306   1.248  16.333  1.2578 -1.8439  2.3302
  883MPD2    H313006   1.374   1.352  16.534  0.6568  1.4291 -0.0600
  883MPD2     N13007   1.789   1.428  16.376 -0.0163  0.0463 -0.1701
  883MPD2    H513008   1.841   1.443  16.290  0.0128  1.3508  0.0771
  883MPD2    N113009   1.465   1.220  16.098  0.4227  0.2474 -0.3341
  883MPD2    H713010   1.537   1.214  16.026  0.0231 -1.5596 -0.5919
  884MPD2     C13011   3.521   2.445  15.295 -0.4829 -0.3580 -0.0413
  884MPD2    C113012   3.484   2.520  15.185  0.1280  0.5581 -0.0351
  884MPD2    C213013   3.355   2.565  15.185 -0.0181 -0.4572 -0.1810
  884MPD2    C313014   3.270   2.548  15.291  0.5132  0.0651  0.1530
  884MPD2    C413015   3.305   2.469  15.399  0.0013 -0.0962 -0.3491
  884MPD2    C513016   3.429   2.417  15.396  0.4056 -0.1454  0.3514
  884MPD2     H13017   3.325   2.621  15.097 -0.6986  0.9581  0.9638
  884MPD2    H113018   3.235   2.451  15.480  2.2226  0.5849  1.7171
  884MPD2    H213019   3.618   2.397  15.302 -1.2811 -1.8935  0.4893
  884MPD2    H313020   3.468   2.348  15.469 -1.6748 -1.8998 -0.2124
  884MPD2     N13021   3.143   2.614  15.289 -0.2623  0.7335 -0.3157
  884MPD2    H513022   3.126   2.680  15.214  0.6497 -0.8474 -1.9222
  884MPD2    N113023   3.562   2.556  15.076  0.2748 -0.4989 -0.2840
  884MPD2    H713024   3.528   2.619  15.004  1.7054  1.8775  1.1399
  885MPD2     C13025   1.784   2.523   0.389 -0.0903 -0.0773 -1.0727
  885MPD2    C113026   1.831   2.630   0.465  0.9986  0.2219 -0.5153
  885MPD2    C213027   1.856   2.748   0.396  0.5834  0.2619  0.2636
  885MPD2    C313028   1.828   2.767   0.261  0.2671  0.9533 -0.3885
  885MPD2    C413029   1.781   2.656   0.188 -0.2924  0.1524  0.3599
  885MPD2    C513030   1.764   2.535   0.255  0.0436  0.1036  0.3766
  885MPD2     H13031   1.875   2.842   0.447 -0.3547  1.9596 -2.5256
  885MPD2    H113032   1.780   2.646   0.080 -1.0590  0.5702  0.3340
  885MPD2    H213033   1.781   2.430   0.445 -0.3583  0.7016  0.2152
  885MPD2    H313034   1.744   2.454   0.187 -0.3261 -0.9556  1.7516
  885MPD2     N13035   1.851   2.895   0.200 -0.0781 -0.1166  0.4414
  885MPD2    H513036   1.895   2.964   0.261 -2.0365 -0.0940  1.8130
  885MPD2    N113037   1.871   2.610   0.596 -0.2616  0.4433 -0.5623
  885MPD2    H713038   1.842   2.521   0.635  3.4336 -1.3706 -1.9548
  886MPD2     C13039   2.812   0.830  15.358 -0.3614  0.2376  0.2537
  886MPD2    C113040   2.941   0.855  15.401  0.3879  0.0764  0.2021
  886MPD2    C213041   3.004   0.974  15.364  0.5083 -0.3803  0.5625
  886MPD2    C313042   2.944   1.060  15.276 -0.5743 -1.3519  0.0524
  886MPD2    C413043   2.823   1.025  15.221 -0.3870 -0.4205  0.9936
  886MPD2    C513044   2.754   0.915  15.265 -0.4527  0.1246 -0.2109
  886MPD2     H13045   3.102   1.000  15.402  0.4791 -1.0173  1.0709
  886MPD2    H113046   2.775   1.094  15.152  0.2195 -1.5202 -0.5307
  886MPD2    H213047   2.741   0.761  15.401  2.0895 -0.7800  2.6228
  886MPD2    H313048   2.655   0.887  15.230 -0.6687  0.2964  0.2714
  886MPD2     N13049   3.017   1.183  15.253 -0.0043 -0.1135 -0.3307
  886MPD2    H513050   3.104   1.200  15.301 -0.2217  0.1736 -0.0366
  886MPD2    N113051   3.006   0.772  15.500 -0.0772  0.6947  0.3807
  886MPD2    H713052   3.095   0.803  15.538 -0.4723  1.5141  0.6296
  887MPD2     C13053   3.650   0.787  15.692  0.4480 -0.6241 -0.1151
  887MPD2    C113054   3.515   0.830  15.685  0.2503  0.4150  0.3501
  887MPD2    C213055   3.495   0.965  15.665 -0.4036  0.0990 -0.5982
  887MPD2    C313056   3.594   1.057  15.654 -0.1576 -0.6340 -0.4946
  887MPD2    C413057   3.726   1.016  15.651  0.2795 -0.0774 -0.4989
  887MPD2    C513058   3.755   0.879  15.664 -0.1471  0.0926 -0.0026
  887MPD2     H13059   3.396   1.009  15.657 -0.2365  0.6096  0.0580
  887MPD2    H113060   3.811   1.082  15.650 -0.1272  0.4445 -0.8731
  887MPD2    H213061   3.685   0.686  15.711 -0.4155 -0.7325  0.8501
  887MPD2    H313062   3.859   0.849  15.671  0.4647  2.3600  0.4253
  887MPD2     N13063   3.550   1.192  15.634 -0.3566  0.4918  0.0486
  887MPD2    H513064   3.450   1.203  15.642 -0.3839 -0.1936  0.6081
  887MPD2    N113065   3.403   0.746  15.701  0.5890 -0.1238  0.1236
  887MPD2    H713066   3.314   0.795  15.696  1.8035  2.1351  0.5138
  888MPD2     C13067   0.466   1.169  14.869  0.2081 -0.3404 -0.8318
  888MPD2    C113068   0.466   1.198  15.005  0.8853 -0.3004  1.3768
  888MPD2    C213069   0.520   1.320  15.041 -0.6925  0.0439  0.3584
  888MPD2    C313070   0.563   1.415  14.942 -0.4897  0.6738  0.0165
  888MPD2    C413071   0.555   1.380  14.812  0.4938  0.4890 -0.3738
  888MPD2    C513072   0.514   1.257  14.775  0.2231 -0.0812  1.1531
  888MPD2     H13073   0.525   1.346  15.146  2.0759 -1.4318  0.6025
  888MPD2    H113074   0.585   1.449  14.734  0.7045  1.7358  0.8128
  888MPD2    H213075   0.443   1.068  14.837  0.8225 -1.2249  1.5185
  888MPD2    H313076   0.516   1.239  14.669  1.7312  0.4595  1.0945
  888MPD2     N13077   0.600   1.546  14.985  0.4658  0.0571  0.4398
  888MPD2    H513078   0.628   1.564  15.081 -0.1413 -0.6506  0.7540
  888MPD2    N113079   0.438   1.105  15.106  0.3330  0.0624 -0.0065
  888MPD2    H713080   0.443   1.150  15.197 -2.1215  2.3734 -0.9917
  889MPD2     C13081   4.715   1.075  12.502 -0.2866 -0.2015  0.0055
  889MPD2    C113082   0.092   1.057  12.561  0.4730  0.1585  0.5085
  889MPD2    C213083   0.152   1.152  12.642 -0.3652 -0.0551 -0.3381
  889MPD2    C313084   0.113   1.279  12.640 -0.1049 -0.5103 -0.0480
  889MPD2    C413085   0.004   1.310  12.559  0.2023 -0.1600 -0.1741
  889MPD2    C513086   4.684   1.209  12.491 -0.7517  0.1884 -0.2460
  889MPD2     H13087   0.242   1.121  12.692 -0.3141  1.8657  0.7729
  889MPD2    H113088   4.715   1.413  12.542  0.9045  0.4868  2.5663
  889MPD2    H213089   4.662   1.014  12.430 -0.8840 -0.2888  0.5212
  889MPD2    H313090   4.585   1.228  12.449 -0.7153 -0.5785 -0.6670
  889MPD2     N13091   0.188   1.378  12.707 -0.5081  0.4753 -0.4644
  889MPD2    H513092   0.274   1.349  12.753 -0.8474  0.4414  0.1563
  889MPD2    N113093   0.143   0.925  12.572  0.4198  0.1556  0.4091
  889MPD2    H713094   0.225   0.911  12.630 -0.0605 -0.7537  0.8713
  890MPD2     C13095   4.034   2.519  14.595  0.6252 -0.3707  0.0398
  890MPD2    C113096   4.158   2.556  14.649 -0.0458  0.3964 -0.1872
  890MPD2    C213097   4.226   2.469  14.732 -1.0589 -0.3716  0.3785
  890MPD2    C313098   4.171   2.349  14.760 -0.0603  0.5620  0.2088
  890MPD2    C413099   4.050   2.308  14.712 -0.8366 -0.1611 -0.4581
  890MPD2    C513100   3.982   2.398  14.631  0.6119 -0.1591 -0.9653
  890MPD2     H13101   4.326   2.478  14.774 -0.7798 -1.1809 -0.1108
  890MPD2    H113102   4.008   2.214  14.745  0.0440 -0.5469 -0.4530
  890MPD2    H213103   3.973   2.580  14.529  0.8328 -0.7802 -0.5318
  890MPD2    H313104   3.877   2.382  14.608  0.0022  1.1632  0.8881
  890MPD2     N13105   4.234   2.267  14.856  0.0837 -0.2786  0.4531
  890MPD2    H513106   4.334   2.284  14.861  0.1713 -0.4345 -0.7746
  890MPD2    N113107   4.196   2.688  14.621 -0.4719 -0.3322  0.2454
  890MPD2    H713108   4.134   2.749  14.568  1.6616 -0.9146 -2.9239
  891MPD2     C13109   2.499   0.714  16.519  0.1187  0.2721 -0.0466
  891MPD2    C113110   2.446   0.809  16.605  0.8738  0.8473  0.0353
  891MPD2    C213111   2.532   0.858  16.703  0.3776 -0.7049 -0.5039
  891MPD2    C313112   2.659   0.806  16.728  0.4758  0.1465  0.2593
  891MPD2    C413113   2.700   0.710  16.641  0.2675  0.1819 -0.2866
  891MPD2    C513114   2.622   0.658  16.543  0.4226  0.7546  0.0581
  891MPD2     H13115   2.497   0.939  16.766 -0.2346 -0.7216 -0.8146
  891MPD2    H113116   2.795   0.659  16.655 -0.9935 -2.0465  0.0892
  891MPD2    H213117   2.448   0.671  16.434  1.0998  0.0783 -0.5366
  891MPD2    H313118   2.651   0.573  16.482 -2.6106  0.0390 -0.3806
  891MPD2     N13119   2.749   0.860  16.821  0.2276 -0.4236 -0.5721
  891MPD2    H513120   2.711   0.932  16.882 -0.1366 -0.0274 -1.2747
  891MPD2    N113121   2.307   0.848  16.595  0.1313 -0.0230 -1.1519
  891MPD2    H713122   2.255   0.794  16.527 -0.5435 -2.2057  1.0895
  892MPD2     C13123   3.633   2.203  14.781  0.1423  0.2556  0.1332
  892MPD2    C113124   3.538   2.217  14.692  0.5521 -0.2554 -0.3233
  892MPD2    C213125   3.555   2.185  14.561 -0.2060 -0.2534  0.2527
  892MPD2    C313126   3.673   2.132  14.522 -0.1439 -0.3479 -0.1102
  892MPD2    C413127   3.783   2.120  14.610 -0.6125 -0.9685 -0.9655
  892MPD2    C513128   3.758   2.157  14.741  0.1072 -0.6187  0.1146
  892MPD2     H13129   3.478   2.202  14.487 -0.7387 -1.7458  0.4610
  892MPD2    H113130   3.878   2.077  14.580  0.1525 -0.1434  0.2865
  892MPD2    H213131   3.625   2.227  14.887 -1.1761 -1.3545  0.3814
  892MPD2    H313132   3.835   2.144  14.816 -0.1696 -1.5475  0.2367
  892MPD2     N13133   3.691   2.073  14.392 -0.1222 -0.4126  0.1515
  892MPD2    H513134   3.782   2.032  14.375 -0.3962 -0.4387 -1.2254
  892MPD2    N113135   3.413   2.262  14.731  0.0783  0.8314  0.3173
  892MPD2    H713136   3.354   2.282  14.651  0.4069  0.0455 -0.1155
  893MPD2     C13137   0.059   0.984   1.342  0.1977 -0.7699  0.1570
  893MPD2    C113138   0.145   1.094   1.346  0.6829  0.0856  1.1445
  893MPD2    C213139   0.116   1.205   1.418 -0.4640 -0.3977 -0.0260
  893MPD2    C313140   0.011   1.194   1.509  0.4839 -0.5687  0.1185
  893MPD2    C413141   4.673   1.083   1.514 -0.4598  0.7908 -0.6015
  893MPD2    C513142   4.694   0.987   1.425 -0.4057  0.9266 -0.2907
  893MPD2     H13143   0.172   1.297   1.405 -0.3250 -0.3373  0.9731
  893MPD2    H113144   4.591   1.067   1.584 -0.8039  0.0271 -1.1820
  893MPD2    H213145   0.074   0.894   1.283  0.6556 -1.2108  0.9489
  893MPD2    H313146   4.621   0.907   1.423  0.7034 -0.0489 -1.0054
  893MPD2     N13147   4.719   1.291   1.608 -0.8999 -0.1529  0.1027
  893MPD2    H513148   4.629   1.267   1.648 -0.1754 -0.2336  1.6702
  893MPD2    N113149   0.266   1.082   1.269 -0.3217 -0.1709  0.3671
  893MPD2    H713150   0.284   0.991   1.227  0.0573 -1.0388  2.4434
  894MPD2     C13151   3.010   2.778   1.319  0.2317  0.5750 -0.2272
  894MPD2    C113152   3.013   2.883   1.412  0.4337  0.4461 -0.7182
  894MPD2    C213153   3.120   2.968   1.422 -0.0751 -0.5185  0.3696
  894MPD2    C313154   3.223   2.951   1.337 -0.0809  0.1964  0.4526
  894MPD2    C413155   3.217   2.852   1.237 -0.5252 -0.0095 -0.1328
  894MPD2    C513156   3.114   2.760   1.232 -0.8090  0.2787  0.3418
  894MPD2     H13157   3.114   3.056   1.484 -0.9717  1.1541 -2.0550
  894MPD2    H113158   3.297   2.837   1.164 -0.2627 -0.0422  0.1619
  894MPD2    H213159   2.928   2.707   1.324 -0.9744  1.9470 -0.5238
  894MPD2    H313160   3.128   2.685   1.155  0.7670 -0.0383  0.9436
  894MPD2     N13161   3.334   3.043   1.339 -0.0293  0.0414  0.4980
  894MPD2    H513162   3.323   3.127   1.394 -0.5696 -0.2258  0.7995
  894MPD2    N113163   2.910   2.895   1.507  0.0863 -0.3041 -0.1231
  894MPD2    H713164   2.928   2.941   1.595 -1.6514 -3.2499  1.7810
  895MPD2     C13165   2.218   1.545  13.779  0.2522  0.2513  0.2315
  895MPD2    C113166   2.160   1.426  13.733 -1.2223 -0.1269  0.8964
  895MPD2    C213167   2.245   1.313  13.725  0.1845 -0.2993  0.4317
  895MPD2    C313168   2.379   1.317  13.761  0.4004  0.3167 -0.0453
  895MPD2    C413169   2.435   1.436  13.812  0.2376 -0.5109 -0.8917
  895MPD2    C513170   2.353   1.548  13.823  0.3368  0.0453  0.1711
  895MPD2     H13171   2.204   1.228  13.671  1.0702 -1.4258  1.5033
  895MPD2    H113172   2.540   1.438  13.841  0.0197 -1.4561 -0.0278
  895MPD2    H213173   2.155   1.633  13.775 -1.1859 -0.8260 -0.7324
  895MPD2    H313174   2.399   1.642  13.850  1.8731  0.0282 -2.3385
  895MPD2     N13175   2.455   1.205  13.729 -0.0323  0.1511 -0.0978
  895MPD2    H513176   2.415   1.139  13.663  1.7918 -0.2294 -0.8393
  895MPD2    N113177   2.028   1.422  13.678 -0.1630  0.0770  1.1345
  895MPD2    H713178   2.007   1.330  13.639  2.2547 -0.3732  0.8776
  896MPD2     C13179   0.513   3.843   1.633 -0.0380  0.7718  0.0768
  896MPD2    C113180   0.473   3.804   1.508 -0.5344  0.7733 -0.6818
  896MPD2    C213181   0.367   3.720   1.496  0.5659 -0.3499 -0.1582
  896MPD2    C313182   0.288   3.690   1.609  0.4892 -0.3836  0.0931
  896MPD2    C413183   0.323   3.733   1.734 -0.0765  0.4742  1.0984
  896MPD2    C513184   0.441   3.810   1.739  0.0701  0.5594  0.8558
  896MPD2     H13185   0.335   3.685   1.399  0.3370  3.1076 -1.3251
  896MPD2    H113186   0.273   3.704   1.825 -0.9096 -1.8377 -0.0989
  896MPD2    H213187   0.596   3.910   1.651 -0.2877  0.9222  0.6646
  896MPD2    H313188   0.486   3.843   1.831 -0.0281  3.5368 -0.1850
  896MPD2     N13189   0.177   3.601   1.586  1.2590  0.3034 -0.3599
  896MPD2    H513190   0.161   3.567   1.492 -3.0280  2.8407 -0.5901
  896MPD2    N113191   0.543   3.853   1.396  0.2549 -0.5152 -0.0661
  896MPD2    H713192   0.637   3.885   1.418  1.0426 -2.3548 -0.7330
  897MPD2     C13193   1.436   0.840  11.328 -0.6044  0.1323 -0.3654
  897MPD2    C113194   1.392   0.964  11.299 -0.2961 -0.2080  0.0149
  897MPD2    C213195   1.263   1.005  11.339  0.1682  0.1027 -0.2652
  897MPD2    C313196   1.183   0.926  11.429 -0.0589 -0.4846 -0.8500
  897MPD2    C413197   1.229   0.789  11.435  0.3435  0.1371 -0.4979
  897MPD2    C513198   1.355   0.748  11.398  0.0245 -0.7734 -0.7244
  897MPD2     H13199   1.235   1.108  11.319 -0.2072  0.3529  1.5617
  897MPD2    H113200   1.172   0.712  11.486  2.8416 -1.2615  0.1886
  897MPD2    H213201   1.533   0.801  11.300 -0.7397 -0.1580 -0.4327
  897MPD2    H313202   1.383   0.643  11.403  0.7814 -0.5357  0.1422
  897MPD2     N13203   1.068   0.973  11.494  0.2150 -0.1657  0.0631
  897MPD2    H513204   1.040   1.070  11.483 -1.6708 -0.7666 -0.4387
  897MPD2    N113205   1.472   1.040  11.214  0.1568  1.0982 -0.3865
  897MPD2    H713206   1.560   0.993  11.195  0.1466  0.3900  1.2334
  898MPD2     C13207   3.378   1.949   0.538  0.2587 -0.3280 -0.0043
  898MPD2    C113208   3.366   1.872   0.422 -0.1454 -0.0289 -0.3758
  898MPD2    C213209   3.331   1.941   0.304  0.2524  0.2825 -0.2706
  898MPD2    C313210   3.336   2.074   0.295 -0.5800  0.3988  0.2335
  898MPD2    C413211   3.353   2.147   0.407 -0.6624  0.2601 -0.1200
  898MPD2    C513212   3.373   2.088   0.534  0.2617 -0.1714  0.4786
  898MPD2     H13213   3.324   1.880   0.214 -0.0911  1.0264 -0.7521
  898MPD2    H113214   3.345   2.255   0.411  0.4483  0.2773  1.8444
  898MPD2    H213215   3.374   1.909   0.639  0.2089 -1.6140 -0.5197
  898MPD2    H313216   3.390   2.149   0.622 -0.4848  0.0042  0.5014
  898MPD2     N13217   3.333   2.148   0.176  0.0486 -0.3319 -0.1992
  898MPD2    H513218   3.354   2.247   0.181  1.5026 -0.6217 -0.3785
  898MPD2    N113219   3.379   1.729   0.414  0.1177 -0.1421 -0.0076
  898MPD2    H713220   3.369   1.675   0.329  1.9380 -1.1104  0.4056
  899MPD2     C13221   3.942   1.729  17.403  0.4698 -0.3869  0.0437
  899MPD2    C113222   3.957   1.828  17.496  0.1223  0.0014  0.7561
  899MPD2    C213223   3.950   1.799  17.629  0.0265 -0.5260  0.0573
  899MPD2    C313224   3.924   1.673  17.673 -0.2798  0.2713  0.3418
  899MPD2    C413225   3.906   1.578  17.581 -0.0981 -0.6547  0.0648
  899MPD2    C513226   3.915   1.603  17.443  0.5903  0.6628  0.8955
  899MPD2     H13227   3.970   1.869  17.709 -3.4420 -0.7115  1.0984
  899MPD2    H113228   3.886   1.475  17.606  0.1884 -0.5710  0.6401
  899MPD2    H213229   3.958   1.729  17.296 -2.6638  0.0350 -0.4200
  899MPD2    H313230   3.901   1.520  17.375 -0.8514  0.7255  1.1086
  899MPD2     N13231   3.902   1.639   0.046  1.1131  0.8261 -0.0521
  899MPD2    H513232   3.856   1.550   0.063  1.8094  0.4788  0.0282
  899MPD2    N113233   3.996   1.960  17.454 -0.5816  0.6185  0.0225
  899MPD2    H713234   3.997   1.973  17.353 -0.3608  0.3460 -0.0077
  900MPD2     C13235   3.940   3.852  12.868 -0.5891  0.2064 -0.4326
  900MPD2    C113236   3.826   3.782  12.849  0.0961 -0.1070 -0.3630
  900MPD2    C213237   3.719   3.843  12.779 -0.5630 -0.8194 -0.1226
  900MPD2    C313238   3.743   3.975  12.731 -0.8247  0.0741  0.3476
  900MPD2    C413239   3.865   4.041  12.755  0.3544 -0.6931 -1.1059
  900MPD2    C513240   3.961   3.978  12.830 -0.4009 -0.0677  0.1985
  900MPD2     H13241   3.625   3.789  12.773 -1.6106  0.9688  0.2019
  900MPD2    H113242   3.890   4.136  12.709  1.1643 -0.0050  0.7617
  900MPD2    H213243   4.024   3.803  12.914 -0.5083  1.0512  0.3007
  900MPD2    H313244   4.053   4.033  12.847  0.3225 -1.5173  0.8988
  900MPD2     N13245   3.626   4.034  12.669  0.3551  0.0825 -0.3634
  900MPD2    H513246   3.536   3.988  12.661  0.7436 -0.4724 -1.6306
  900MPD2    N113247   3.824   3.643  12.884  0.0382 -0.1151 -0.0874
  900MPD2    H713248   3.917   3.617  12.914  0.6464  0.2536 -1.6727
  901MPD2     C13249   3.446   2.637  13.056 -0.5563  0.4932 -0.5407
  901MPD2    C113250   3.574   2.618  13.012  0.1871 -0.3967  0.1619
  901MPD2    C213251   3.651   2.726  12.971  0.1541  0.4364 -0.4830
  901MPD2    C313252   3.599   2.852  12.982  0.1157  0.9923 -0.3776
  901MPD2    C413253   3.466   2.868  13.033  0.4788  0.4061 -0.2686
  901MPD2    C513254   3.396   2.760  13.071 -0.0346 -0.1536 -0.3408
  901MPD2     H13255   3.746   2.718  12.920  0.1256 -0.8565 -0.3343
  901MPD2    H113256   3.424   2.968  13.035  0.7324  0.5424 -1.9518
  901MPD2    H213257   3.381   2.554  13.081 -0.0356 -0.1886 -1.4770
  901MPD2    H313258   3.299   2.779  13.115  0.8598 -0.4163  1.7300
  901MPD2     N13259   3.660   2.964  12.922 -0.2292 -0.2251 -0.2078
  901MPD2    H513260   3.725   2.939  12.849 -0.5807 -0.2527 -0.5118
  901MPD2    N113261   3.613   2.489  12.983  0.1476  0.0630 -0.4614
  901MPD2    H713262   3.544   2.417  13.003  0.0053  0.5754  0.9532
  902MPD2     C13263   2.505   1.790  12.790  1.0788  0.0448  0.1030
  902MPD2    C113264   2.579   1.881  12.723  0.2392 -0.4796  0.3753
  902MPD2    C213265   2.695   1.831  12.660  0.3418 -0.4059 -0.1103
  902MPD2    C313266   2.731   1.698  12.667  0.5878 -0.1244  0.7129
  902MPD2    C413267   2.663   1.613  12.752  0.6157 -0.5806 -0.0722
  902MPD2    C513268   2.546   1.658  12.802  0.2883 -0.3622 -0.5715
  902MPD2     H13269   2.756   1.900  12.604  1.6859 -0.8459  0.7998
  902MPD2    H113270   2.704   1.516  12.778 -1.5227 -2.0715 -2.3182
  902MPD2    H213271   2.419   1.820  12.850  1.2382 -1.0467  0.8604
  902MPD2    H313272   2.493   1.590  12.867  0.5491 -0.2015 -0.1903
  902MPD2     N13273   2.845   1.649  12.609 -0.2986 -0.0811  0.2480
  902MPD2    H513274   2.849   1.548  12.616  0.2283 -0.0514  0.3853
  902MPD2    N113275   2.549   2.019  12.706  0.1741  0.1857  0.2641
  902MPD2    H713276   2.626   2.068  12.662  2.3185 -2.1196  1.4261
  903MPD2     C13277   3.273   2.010  12.049 -0.6063 -0.8703 -0.9855
  903MPD2    C113278   3.200   1.900  12.093  0.3430 -0.1846 -0.3204
  903MPD2    C213279   3.064   1.877  12.052  1.1206 -0.0155 -0.1868
  903MPD2    C313280   3.015   1.962  11.954  0.3880  0.2030 -0.1409
  903MPD2    C413281   3.088   2.065  11.906  0.5424 -0.0142 -0.0947
  903MPD2    C513282   3.210   2.095  11.955  0.2829  0.2734 -0.3006
  903MPD2     H13283   3.010   1.796  12.100  0.8094  0.0896 -0.3609
  903MPD2    H113284   3.051   2.131  11.828  3.4934 -0.4612 -1.9029
  903MPD2    H213285   3.378   2.029  12.069 -1.2250  0.4331  1.0140
  903MPD2    H313286   3.270   2.175  11.912 -0.4857  1.7427  1.3637
  903MPD2     N13287   2.877   1.939  11.929  0.1926 -0.5395  0.5220
  903MPD2    H513288   2.825   1.864  11.973 -1.9533  0.6992  0.0811
  903MPD2    N113289   3.262   1.820  12.195 -0.1597  0.4759 -0.1977
  903MPD2    H713290   3.329   1.865  12.256 -0.0202 -1.0238  0.7616
  904MPD2     C13291   2.234   0.941  14.040 -0.4844  0.0377  0.0508
  904MPD2    C113292   2.244   0.840  14.135  0.2631  0.6304  0.3655
  904MPD2    C213293   2.363   0.805  14.193 -0.0354 -0.7323 -0.3187
  904MPD2    C313294   2.479   0.876  14.156  0.8218  0.2074 -0.8034
  904MPD2    C413295   2.466   0.989  14.074 -0.1413 -0.7672 -0.0112
  904MPD2    C513296   2.344   1.019  14.024 -0.8127  0.3243 -0.4495
  904MPD2     H13297   2.368   0.724  14.264 -2.5997 -1.0976 -0.5476
  904MPD2    H113298   2.547   1.056  14.048 -1.2238  1.2626  1.7928
  904MPD2    H213299   2.139   0.979  14.004 -0.3794 -0.3713 -0.6498
  904MPD2    H313300   2.344   1.104  13.957  2.3323  0.4433 -0.2945
  904MPD2     N13301   2.596   0.828  14.217  0.1873 -0.2069 -0.2570
  904MPD2    H513302   2.594   0.736  14.261  0.5263 -0.0646  0.0581
  904MPD2    N113303   2.130   0.776  14.192 -0.5234  0.2234  0.1989
  904MPD2    H713304   2.157   0.707  14.262  1.0222  0.4712 -0.1542
  905MPD2     C13305   1.934   0.714  13.579 -0.4261  0.3322 -0.5075
  905MPD2    C113306   1.986   0.829  13.628  0.2348  0.3782  1.2164
  905MPD2    C213307   2.120   0.859  13.601 -0.0689  0.1809 -0.3230
  905MPD2    C313308   2.203   0.769  13.542  0.1728 -0.6162 -0.2068
  905MPD2    C413309   2.161   0.640  13.524 -0.2210  0.7342  0.2352
  905MPD2    C513310   2.022   0.619  13.537  0.4169  0.4618  0.1609
  905MPD2     H13311   2.153   0.961  13.616 -1.5105  0.4613  0.9070
  905MPD2    H113312   2.228   0.566  13.482 -0.0678  1.0793 -0.1402
  905MPD2    H213313   1.833   0.690  13.610 -0.1023  0.1366  0.3851
  905MPD2    H313314   2.000   0.517  13.507  0.5004  0.9582 -1.6047
  905MPD2     N13315   2.336   0.797  13.516 -0.0449 -0.4900  0.4613
  905MPD2    H513316   2.395   0.719  13.488  3.0871  1.2414  2.2873
  905MPD2    N113317   1.906   0.902  13.718 -0.0599  0.0392  0.2062
  905MPD2    H713318   1.824   0.851  13.750  0.6269  0.2369  2.2574
  906MPD2     C13319   4.507   1.124  11.777  0.3411 -0.5947 -0.2592
  906MPD2    C113320   4.527   1.088  11.642 -0.2833  0.1783 -0.1836
  906MPD2    C213321   4.507   0.962  11.598  0.3027 -0.3766 -0.5185
  906MPD2    C313322   4.472   0.863  11.691  0.1098  0.0630 -0.1355
  906MPD2    C413323   4.449   0.893  11.824 -0.1896  0.2224 -0.4307
  906MPD2    C513324   4.478   1.024  11.864  0.0112  1.0872 -0.0977
  906MPD2     H13325   4.515   0.944  11.492  2.1241  2.4852 -0.8497
  906MPD2    H113326   4.416   0.832  11.907 -0.5478  2.2176  0.8862
  906MPD2    H213327   4.509   1.224  11.819  2.0368 -1.4146  1.5798
  906MPD2    H313328   4.466   1.043  11.970  1.2801  2.5930 -0.2281
  906MPD2     N13329   4.456   0.730  11.641 -0.7996 -0.5093  0.0754
  906MPD2    H513330   4.482   0.718  11.544  1.0362 -0.2686  0.5342
  906MPD2    N113331   4.567   1.180  11.543 -0.1408  0.6345 -1.2275
  906MPD2    H713332   4.573   1.151  11.446  0.2377 -1.1924 -0.6571
  907MPD2     C13333   2.915   4.588  15.289  0.5785 -0.2373 -0.0397
  907MPD2    C113334   2.937   4.450  15.285 -0.4827  0.2549  0.8199
  907MPD2    C213335   3.018   4.389  15.380 -0.2459  0.2247 -0.2877
  907MPD2    C313336   3.080   4.467  15.475 -0.1058 -0.0688  1.0373
  907MPD2    C413337   3.049   4.604  15.482  0.2136 -0.1783 -0.6494
  907MPD2    C513338   2.964   4.658  15.392  0.1918  1.4214  0.0309
  907MPD2     H13339   3.052   4.286  15.380 -1.1054 -0.0588  0.4245
  907MPD2    H113340   3.084   4.669  15.561 -1.1639 -0.0409 -0.1392
  907MPD2    H213341   2.850   4.631  15.213  0.0554 -0.6442  0.1737
  907MPD2    H313342   2.938   0.022  15.397  1.2356  1.7284 -0.9750
  907MPD2     N13343   3.178   4.415  15.563 -0.2285  0.0762  0.1570
  907MPD2    H513344   3.184   4.315  15.550 -0.8990  0.0133  0.3182
  907MPD2    N113345   2.906   4.368  15.169  0.4120  0.4556  0.5601
  907MPD2    H713346   2.938   4.272  15.157 -0.0362  0.8860 -4.1952
  908MPD2     C13347   1.370   1.684  10.442 -0.6780  0.9005  0.6413
  908MPD2    C113348   1.310   1.567  10.465 -0.0944  0.2538  0.1064
  908MPD2    C213349   1.355   1.488  10.573  0.0735 -0.6726 -0.1354
  908MPD2    C313350   1.464   1.529  10.654  0.0408  0.0554  0.0230
  908MPD2    C413351   1.524   1.647  10.622 -0.0023 -0.3611  0.5063
  908MPD2    C513352   1.479   1.730  10.521  0.6232 -0.3407 -0.3174
  908MPD2     H13353   1.305   1.392  10.585 -2.6326  0.5784 -1.6636
  908MPD2    H113354   1.608   1.684  10.678 -0.0661  1.7767 -0.8044
  908MPD2    H213355   1.329   1.755  10.371 -0.7397  0.4821  0.2648
  908MPD2    H313356   1.524   1.826  10.498  0.0787  0.2917  1.2648
  908MPD2     N13357   1.510   1.428  10.742 -0.3359 -0.4380  0.5525
  908MPD2    H513358   1.442   1.355  10.765 -0.6182 -0.5273 -0.5581
  908MPD2    N113359   1.193   1.542  10.386  0.0843 -0.3275 -0.0776
  908MPD2    H713360   1.165   1.601  10.309 -0.8412  1.0718  1.3230
  909MPD2     C13361   1.874   3.427  11.609 -0.3686  0.3402 -0.8741
  909MPD2    C113362   1.891   3.568  11.629 -0.2288  0.3630 -0.9955
  909MPD2    C213363   1.811   3.636  11.719 -0.6231  0.0708 -0.6096
  909MPD2    C313364   1.723   3.565  11.797  0.9836  0.2758 -0.1781
  909MPD2    C413365   1.717   3.428  11.786 -0.1271  0.5945  0.1455
  909MPD2    C513366   1.791   3.361  11.694 -0.0785  0.1362  0.1531
  909MPD2     H13367   1.820   3.744  11.712 -0.1604  0.2176  2.2330
  909MPD2    H113368   1.645   3.372  11.845 -0.7914  0.1667 -1.0733
  909MPD2    H213369   1.923   3.360  11.539  0.2386 -3.0171  2.8030
  909MPD2    H313370   1.770   3.255  11.687  2.0245 -0.3309  0.6778
  909MPD2     N13371   1.636   3.641  11.882  0.0365  0.0819 -0.1514
  909MPD2    H513372   1.649   3.741  11.871  2.1536 -0.1438  0.3647
  909MPD2    N113373   1.981   3.643  11.548 -0.4833 -0.0549 -0.4258
  909MPD2    H713374   1.972   3.743  11.564  0.9585 -0.0709  0.4477
  910MPD2     C13375   2.763   4.655  15.797 -0.3027 -0.1680  0.3347
  910MPD2    C113376   2.871   0.001  15.778  0.0631  0.3570 -1.2790
  910MPD2    C213377   2.864   0.095  15.676  0.0228  0.3181 -0.3276
  910MPD2    C313378   2.747   0.115  15.600  0.0753  0.2782  0.5669
  910MPD2    C413379   2.633   0.054  15.642 -0.2131  0.7560 -0.4079
  910MPD2    C513380   2.643   4.692  15.734  0.4636  0.7225  1.1608
  910MPD2     H13381   2.954   0.154  15.659  0.8772 -0.6501  0.9233
  910MPD2    H113382   2.541   0.074  15.588 -0.7979  0.9699  0.6589
  910MPD2    H213383   2.761   4.569  15.863 -1.5276 -0.3613  0.0334
  910MPD2    H313384   2.558   4.627  15.751  0.4507  0.3141 -0.4952
  910MPD2     N13385   2.738   0.214  15.492  0.1047  0.5992 -0.1508
  910MPD2    H513386   2.646   0.207  15.449 -0.3684 -0.1400  0.9694
  910MPD2    N113387   2.993   4.731  15.850 -0.0652 -0.5061  0.5724
  910MPD2    H713388   3.067   0.049  15.814  0.2814 -0.6426  1.0582
  911MPD2     C13389   0.701   0.821  16.182  0.1148 -0.4659  1.3283
  911MPD2    C113390   0.724   0.889  16.292  0.7328  0.0499 -0.5234
  911MPD2    C213391   0.645   1.000  16.335  0.1250 -0.3902  0.1214
  911MPD2    C313392   0.531   1.033  16.258  0.0593  0.3139 -0.1548
  911MPD2    C413393   0.507   0.963  16.140 -0.2160 -0.4227 -0.0937
  911MPD2    C513394   0.599   0.866  16.101 -0.1663  0.0374  0.2976
  911MPD2     H13395   0.666   1.059  16.424  3.0721  0.7072 -1.3389
  911MPD2    H113396   0.416   0.976  16.083 -0.3406 -0.2348  0.1439
  911MPD2    H213397   0.762   0.735  16.156 -1.4341 -0.2585 -2.9895
  911MPD2    H313398   0.601   0.818  16.004  1.8752 -1.6347  1.1384
  911MPD2     N13399   0.439   1.140  16.286 -0.3456  0.0499  0.3430
  911MPD2    H513400   0.356   1.148  16.228 -0.9851 -0.1341  1.2507
  911MPD2    N113401   0.819   0.832  16.380 -0.3537 -0.1724  0.0332
  911MPD2    H713402   0.878   0.758  16.344 -1.5531 -1.0413 -0.1578
  912MPD2     C13403   0.162   1.028  15.806  0.3830  0.3590  0.0179
  912MPD2    C113404   0.152   1.027  15.940 -0.0169  0.2675 -0.2185
  912MPD2    C213405   0.172   0.903  16.007  0.5104 -0.2009  0.3594
  912MPD2    C313406   0.200   0.788  15.942  0.4953 -0.2607  0.9335
  912MPD2    C413407   0.205   0.794  15.799 -0.1076  0.0305  0.6048
  912MPD2    C513408   0.184   0.914  15.738  0.9815 -0.4153 -0.3247
  912MPD2     H13409   0.163   0.903  16.115 -1.1933 -0.0169  0.2264
  912MPD2    H113410   0.215   0.701  15.745  0.2632 -0.2591  1.1645
  912MPD2    H213411   0.144   1.117  15.746  2.4170 -0.2435 -1.4713
  912MPD2    H313412   0.190   0.914  15.629  0.5776  3.0425 -0.3434
  912MPD2     N13413   0.222   0.664  16.007  0.1991  0.1834  0.2190
  912MPD2    H513414   0.219   0.668  16.108 -0.4311  0.9064  0.1664
  912MPD2    N113415   0.132   1.150  16.008 -0.5652  0.0254  0.0376
  912MPD2    H713416   0.151   1.232  15.952  0.6857 -1.3291 -1.5149
  913MPD2     C13417   1.295   2.584  10.918  0.2084  0.9319  0.5386
  913MPD2    C113418   1.184   2.515  10.877 -0.4941  0.0662 -0.1857
  913MPD2    C213419   1.112   2.562  10.764 -0.5291 -0.7295 -0.1018
  913MPD2    C313420   1.153   2.669  10.688  0.8678 -0.0167 -0.0546
  913MPD2    C413421   1.270   2.735  10.727 -0.3891  0.2307  0.6044
  913MPD2    C513422   1.341   2.690  10.841  0.3055  0.0053 -0.2020
  913MPD2     H13423   1.031   2.503  10.721 -1.9159 -0.6236  2.3918
  913MPD2    H113424   1.309   2.823  10.679 -0.9432  0.4698  0.5933
  913MPD2    H213425   1.354   2.561  11.006 -0.7996 -0.8144  0.7579
  913MPD2    H313426   1.438   2.733  10.863  0.1002  0.3309  0.0610
  913MPD2     N13427   1.073   2.728  10.585 -0.3850  0.3641  0.2919
  913MPD2    H513428   1.112   2.814  10.546 -3.2350  0.8871 -1.4408
  913MPD2    N113429   1.150   2.398  10.948 -0.1079  0.1473 -0.3997
  913MPD2    H713430   1.213   2.363  11.020 -1.9625  1.6651  1.9725
  914MPD2     C13431   3.353   2.722  12.289  0.2771  0.1351  0.6211
  914MPD2    C113432   3.454   2.770  12.370  0.1047 -0.1120  0.5283
  914MPD2    C213433   3.526   2.678  12.442  0.6414 -0.2496  0.3395
  914MPD2    C313434   3.503   2.544  12.433  0.2415  0.1713 -0.1947
  914MPD2    C413435   3.407   2.497  12.346 -0.2567  0.4773  0.7160
  914MPD2    C513436   3.326   2.589  12.277 -0.1926  0.7186 -0.3065
  914MPD2     H13437   3.606   2.707  12.509  1.4483  0.0221 -0.7277
  914MPD2    H113438   3.379   2.393  12.334 -0.7317  0.7196 -0.2370
  914MPD2    H213439   3.278   2.782  12.239  1.1938  0.0817 -0.8166
  914MPD2    H313440   3.248   2.552  12.211 -0.1048  0.9847 -0.5582
  914MPD2     N13441   3.574   2.454  12.517 -0.0751  0.5605  0.1833
  914MPD2    H513442   3.645   2.501  12.571  0.6989 -0.9869  0.5219
  914MPD2    N113443   3.473   2.906  12.381 -0.1651  0.0988  0.2281
  914MPD2    H713444   3.416   2.956  12.314  0.0526 -0.4279 -0.3573
  915MPD2     C13445   2.024   2.244  15.942  0.6806 -0.0590  0.0690
  915MPD2    C113446   1.892   2.231  15.899 -0.5837  0.1738 -0.5311
  915MPD2    C213447   1.796   2.295  15.980 -0.1715  0.2946  0.0013
  915MPD2    C313448   1.836   2.361  16.098 -0.1845 -0.6571  1.0552
  915MPD2    C413449   1.972   2.375  16.131 -0.0111  0.8502 -0.0707
  915MPD2    C513450   2.063   2.306  16.058 -0.3594 -0.1703  0.2949
  915MPD2     H13451   1.690   2.295  15.957  0.3123  1.7019 -2.1786
  915MPD2    H113452   2.002   2.417  16.226 -1.9062  0.7524  0.5630
  915MPD2    H213453   2.106   2.192  15.892  0.5755 -0.3185  0.1684
  915MPD2    H313454   2.169   2.311  16.084  0.1213 -1.1514 -1.4657
  915MPD2     N13455   1.735   2.400  16.187  0.5066  0.1255 -0.3264
  915MPD2    H513456   1.640   2.377  16.159  1.2088 -0.9922 -1.7197
  915MPD2    N113457   1.858   2.169  15.773  1.0237  0.3327  0.4728
  915MPD2    H713458   1.933   2.127  15.719 -0.7565  0.2526 -1.9774
  916MPD2     C13459   4.637   0.638  15.822  0.2502 -0.3661 -0.1412
  916MPD2    C113460   4.633   0.542  15.922 -0.2364 -0.1621  0.3648
  916MPD2    C213461   4.660   0.413  15.893  0.6266  0.1085  0.1244
  916MPD2    C313462   4.697   0.379  15.766  0.5777  0.1490 -0.8000
  916MPD2    C413463   4.709   0.475  15.665  0.2761  0.2121 -0.4585
  916MPD2    C513464   4.672   0.606  15.692 -0.7379  0.2772 -0.0343
  916MPD2     H13465   4.669   0.335  15.967 -0.7669  0.7017  0.9137
  916MPD2    H113466   0.011   0.459  15.567  1.1416 -0.1720 -0.0065
  916MPD2    H213467   4.616   0.743  15.835  2.2265  0.1536 -1.1076
  916MPD2    H313468   4.685   0.679  15.613  2.6122 -0.7873 -0.4977
  916MPD2     N13469   4.722   0.242  15.750  0.3135  0.5847 -0.2969
  916MPD2    H513470   0.008   0.190  15.833 -0.2286  1.0239  0.1594
  916MPD2    N113471   4.603   0.589  16.047 -0.1458  0.5271  0.4275
  916MPD2    H713472   4.611   0.689  16.062  3.0506  0.1164  1.3681
  917MPD2     C13473   0.611   2.909  11.817  0.5285  0.1905 -0.0658
  917MPD2    C113474   0.548   3.027  11.794 -0.2252  0.6124  0.8480
  917MPD2    C213475   0.608   3.117  11.708 -0.0109 -0.1922 -0.2323
  917MPD2    C313476   0.716   3.086  11.626 -0.5384  0.6007  0.4314
  917MPD2    C413477   0.776   2.965  11.651 -0.6587 -0.1511  0.0086
  917MPD2    C513478   0.724   2.879  11.741 -0.0790  0.1554 -0.0852
  917MPD2     H13479   0.565   3.214  11.682 -0.5680  0.1010  1.8415
  917MPD2    H113480   0.865   2.939  11.596 -0.3726  0.4874  0.1620
  917MPD2    H213481   0.575   2.836  11.889 -1.2073 -1.1715 -2.2980
  917MPD2    H313482   0.775   2.784  11.753  1.1486  0.8717  0.3002
  917MPD2     N13483   0.762   3.164  11.519 -0.4336  0.1621  0.6207
  917MPD2    H513484   0.854   3.136  11.486  0.1664 -0.2086  2.5935
  917MPD2    N113485   0.427   3.068  11.859  0.7363  0.3308  0.5546
  917MPD2    H713486   0.383   2.990  11.908  3.6332 -0.3417  2.1173
  918MPD2     C13487   0.310   3.784  12.518  0.3670  0.1862 -0.7784
  918MPD2    C113488   0.410   3.710  12.461  0.0085 -0.2505 -0.5798
  918MPD2    C213489   0.373   3.610  12.377  0.7087 -0.4503  0.2942
  918MPD2    C313490   0.244   3.580  12.351  0.2308 -0.0241  0.5168
  918MPD2    C413491   0.145   3.648  12.410 -0.3933  0.0643 -0.1049
  918MPD2    C513492   0.180   3.757  12.495  0.0465 -0.2866  0.0237
  918MPD2     H13493   0.444   3.538  12.339  1.1550 -0.0691  0.4108
  918MPD2    H113494   0.040   3.628  12.396 -0.3457 -0.8059  0.8456
  918MPD2    H213495   0.331   3.859  12.593 -0.0513 -0.4349 -0.0401
  918MPD2    H313496   0.107   3.810  12.555 -0.3369 -2.4653  1.4769
  918MPD2     N13497   0.231   3.469  12.255  0.2450  0.4535  0.1155
  918MPD2    H513498   0.315   3.442  12.204  0.6865 -1.5935  1.8910
  918MPD2    N113499   0.545   3.738  12.495  0.0644 -0.1341  0.0164
  918MPD2    H713500   0.574   3.803  12.567  2.3415 -2.4737  1.2335
  919MPD2     C13501   1.141   2.203  11.727 -0.2094 -0.2582  0.0646
  919MPD2    C113502   1.005   2.208  11.730 -0.2061  0.4184  0.2758
  919MPD2    C213503   0.939   2.253  11.619  0.4284 -0.5262 -0.3709
  919MPD2    C313504   1.016   2.311  11.517  0.1372  0.3430 -0.2056
  919MPD2    C413505   1.149   2.316  11.522  0.3123 -0.5514  0.4722
  919MPD2    C513506   1.218   2.274  11.636  0.8296  0.1046  0.8596
  919MPD2     H13507   0.831   2.249  11.605  0.4175  2.1699 -1.0804
  919MPD2    H113508   1.212   2.350  11.440  0.3760 -0.7828  0.4259
  919MPD2    H213509   1.189   2.143  11.803  2.2318  2.4755  0.7049
  919MPD2    H313510   1.326   2.267  11.632  0.8850  0.6742  1.3474
  919MPD2     N13511   0.967   2.368  11.396  0.3248  0.1049 -0.1185
  919MPD2    H513512   1.033   2.389  11.322  0.6513 -0.4022  0.0299
  919MPD2    N113513   0.940   2.148  11.839 -0.6667  0.5157 -0.6462
  919MPD2    H713514   1.001   2.109  11.910  0.6236  0.9521 -1.5186
  920MPD2     C13515   0.696   3.099  10.705 -0.3639  0.1399 -0.8074
  920MPD2    C113516   0.605   2.998  10.683  1.0411 -0.0236 -0.1385
  920MPD2    C213517   0.614   2.878  10.750 -0.2194  0.0519  0.4379
  920MPD2    C313518   0.725   2.856  10.831 -0.3764 -0.1486  0.6018
  920MPD2    C413519   0.828   2.949  10.836  0.3993  0.1117 -0.9487
  920MPD2    C513520   0.806   3.074  10.783  0.6623 -0.0836 -0.4262
  920MPD2     H13521   0.540   2.800  10.738 -0.4787  0.4457 -0.5801
  920MPD2    H113522   0.918   2.934  10.895  0.1151  0.7450 -0.3588
  920MPD2    H213523   0.691   3.193  10.651  0.9649  0.2232 -0.7668
  920MPD2    H313524   0.891   3.142  10.785 -0.2940  1.1022 -0.5191
  920MPD2     N13525   0.737   2.731  10.891 -0.5456 -0.3024  0.1633
  920MPD2    H513526   0.649   2.681  10.880 -0.1913 -0.8345 -0.2656
  920MPD2    N113527   0.489   3.017  10.604 -0.1474 -0.3393 -0.3443
  920MPD2    H713528   0.411   2.953  10.616 -0.6112 -0.0051 -1.5383
  921MPD2     C13529   1.524   1.314  16.800 -0.5477  0.4489  0.2125
  921MPD2    C113530   1.575   1.192  16.763 -0.0400  0.5834  0.1969
  921MPD2    C213531   1.483   1.083  16.755 -0.7012  0.5700  0.1489
  921MPD2    C313532   1.344   1.104  16.763 -0.4915 -0.1776  0.3276
  921MPD2    C413533   1.300   1.228  16.803 -0.0949  0.1538 -0.0130
  921MPD2    C513534   1.391   1.327  16.828 -0.0553  0.0276 -0.2333
  921MPD2     H13535   1.517   0.983  16.728 -0.6530  0.1552  1.7260
  921MPD2    H113536   1.195   1.248  16.821 -0.4312  0.5412 -2.4822
  921MPD2    H213537   1.585   1.404  16.798 -0.7252  0.5245 -1.5274
  921MPD2    H313538   1.347   1.419  16.865 -2.2203 -1.3202  0.5414
  921MPD2     N13539   1.248   1.001  16.742 -0.0292  0.1116  0.0298
  921MPD2    H513540   1.152   1.030  16.724 -0.1864 -0.8946 -0.7941
  921MPD2    N113541   1.719   1.182  16.739 -0.3990  0.2034 -0.1161
  921MPD2    H713542   1.773   1.267  16.734 -2.0684  1.2457 -0.6359
  922MPD2     C13543   2.543   3.874  17.372 -0.0605  0.0581 -0.6611
  922MPD2    C113544   2.459   3.885  17.480 -0.5612  0.1809  0.5557
  922MPD2    C213545   2.362   3.791  17.500  0.9383 -0.1494  0.1299
  922MPD2    C313546   2.338   3.688  17.411 -0.4941  0.6079 -0.0881
  922MPD2    C413547   2.422   3.674  17.302 -1.2243  0.2478  0.3082
  922MPD2    C513548   2.528   3.760  17.297 -0.0482 -0.6204  0.3735
  922MPD2     H13549   2.301   3.795  17.589 -0.0495 -0.4187 -0.5432
  922MPD2    H113550   2.411   3.595  17.228  0.5810 -0.5574  0.9106
  922MPD2    H213551   2.628   3.940  17.362  1.2533 -1.5181  0.2346
  922MPD2    H313552   2.598   3.747  17.216  1.5196  0.3007  1.5886
  922MPD2     N13553   2.217   3.616  17.447  0.1334 -0.6078  0.4822
  922MPD2    H513554   2.171   3.629  17.536  1.3383 -0.8510  1.1479
  922MPD2    N113555   2.466   3.995  17.570 -1.6127  0.7623 -0.2671
  922MPD2    H713556   2.413   3.988  17.656 -0.3511  1.0099  0.5363
  923MPD2     C13557   4.040   1.821   9.016  0.8595 -0.2019  0.0773
  923MPD2    C113558   3.974   1.776   9.128  0.2357 -0.0294  0.1267
  923MPD2    C213559   4.040   1.716   9.224 -0.5006 -0.0686 -0.0609
  923MPD2    C313560   4.180   1.712   9.223  0.1353  0.3954  0.4917
  923MPD2    C413561   4.247   1.768   9.115  0.0612 -0.3114 -1.0094
  923MPD2    C513562   4.174   1.822   9.012  0.1076  0.6060 -0.3099
  923MPD2     H13563   3.995   1.667   9.309  1.1114  0.1502  0.9293
  923MPD2    H113564   4.355   1.770   9.105  0.2212  0.0536  0.8681
  923MPD2    H213565   3.985   1.872   8.938  1.2355  3.0608  1.9610
  923MPD2    H313566   4.222   1.869   8.927  0.0932  2.0060  0.4610
  923MPD2     N13567   4.253   1.670   9.331 -0.1857  0.0178  0.4763
  923MPD2    H513568   4.340   1.718   9.353  0.6338 -1.6644  0.8793
  923MPD2    N113569   3.827   1.790   9.133  0.8168  0.1168  0.1924
  923MPD2    H713570   3.791   1.852   9.061  0.2128  1.5882  1.7473
  924MPD2     C13571   3.662   3.774  16.215  0.1362 -0.1368 -0.1445
  924MPD2    C113572   3.720   3.895  16.202 -0.6407  0.7910  0.1353
  924MPD2    C213573   3.655   3.991  16.131  0.4215 -0.2761 -0.0559
  924MPD2    C313574   3.530   3.973  16.069  0.8953  0.2887 -0.3826
  924MPD2    C413575   3.471   3.847  16.075 -0.9682 -0.1769 -0.1317
  924MPD2    C513576   3.540   3.753  16.152  0.0196  0.3061  0.4032
  924MPD2     H13577   3.689   4.093  16.120  1.9617 -0.7386  0.3805
  924MPD2    H113578   3.382   3.817  16.022 -0.1533 -0.1772 -1.5072
  924MPD2    H213579   3.708   3.694  16.271  0.6695  0.2704  0.0018
  924MPD2    H313580   3.491   3.657  16.165 -0.6092  0.3689 -1.5041
  924MPD2     N13581   3.480   4.084  15.996  0.6940 -0.4402 -0.1531
  924MPD2    H513582   3.542   4.164  15.992  0.4356 -0.2260  0.1716
  924MPD2    N113583   3.848   3.927  16.258  0.5459  0.9317  0.2732
  924MPD2    H713584   3.874   3.861  16.331  1.1451  0.2644 -0.5526
  925MPD2     C13585   2.429   1.840  15.156 -0.9822 -0.3621  0.2354
  925MPD2    C113586   2.302   1.810  15.110  0.6065 -0.2651 -0.2712
  925MPD2    C213587   2.194   1.780  15.196  0.1531 -0.4077 -0.1203
  925MPD2    C313588   2.222   1.766  15.333 -0.4195  0.3873  0.4587
  925MPD2    C413589   2.355   1.789  15.380 -0.0348  0.7827  0.2611
  925MPD2    C513590   2.450   1.832  15.292  0.4258 -0.3488 -0.7717
  925MPD2     H13591   2.092   1.771  15.160  0.5382 -1.1371 -1.0388
  925MPD2    H113592   2.383   1.778  15.484  0.0755  3.2778  0.4979
  925MPD2    H213593   2.509   1.862  15.087 -1.2346  0.3572  0.1771
  925MPD2    H313594   2.546   1.864  15.331 -0.0820  0.8852 -0.5231
  925MPD2     N13595   2.129   1.721  15.436  0.0872  0.0008  0.4243
  925MPD2    H513596   2.158   1.726  15.533  0.3647  1.9525  0.2595
  925MPD2    N113597   2.282   1.813  14.969  0.3812  0.0264 -0.5610
  925MPD2    H713598   2.195   1.776  14.932 -1.3213  0.8673  2.6804
  926MPD2     C13599   1.130   0.226  13.645 -0.8525  0.6226  0.3879
  926MPD2    C113600   1.061   0.278  13.547  0.4140 -0.5103  0.2044
  926MPD2    C213601   1.118   0.352  13.445 -0.3247 -0.4800  0.0163
  926MPD2    C313602   1.252   0.377  13.448  0.2555 -0.4290 -0.7757
  926MPD2    C413603   1.327   0.328  13.551  0.2118  0.0089 -0.1217
  926MPD2    C513604   1.268   0.259  13.647  0.5328  0.5225 -0.0745
  926MPD2     H13605   1.055   0.387  13.364  0.9747 -0.2281 -0.8701
  926MPD2    H113606   1.426   0.364  13.573  0.1364  1.7509 -2.6170
  926MPD2    H213607   1.090   0.176  13.732  1.0333 -0.3367  0.7033
  926MPD2    H313608   1.320   0.213  13.730  0.5934  2.2558  0.8403
  926MPD2     N13609   1.314   0.462  13.357  0.1865  0.1040 -0.1422
  926MPD2    H513610   1.410   0.481  13.383  0.3974 -1.5016  0.2478
  926MPD2    N113611   0.922   0.256  13.538  0.2176  0.7350  0.6525
  926MPD2    H713612   0.871   0.291  13.457 -3.8050 -2.3013  1.8449
  927MPD2     C13613   1.762   2.066   0.116  0.4687 -0.2972  1.2846
  927MPD2    C113614   1.679   2.176   0.079 -0.2493  0.6163 -0.0249
  927MPD2    C213615   1.694   2.216  17.716  0.1465  0.9632 -0.3741
  927MPD2    C313616   1.776   2.158  17.621  0.1579 -1.0232 -0.3094
  927MPD2    C413617   1.861   2.055  17.656  0.0427  0.0346 -0.3231
  927MPD2    C513618   1.843   2.001   0.021  0.1915  0.1999 -0.1927
  927MPD2     H13619   1.612   2.276  17.678 -0.3035  0.7261  0.2112
  927MPD2    H113620   1.931   2.015  17.584  0.4544  0.0935  0.0432
  927MPD2    H213621   1.752   2.032   0.219 -1.7129 -0.9292  0.8531
  927MPD2    H313622   1.894   1.914   0.060  2.4928  2.1512  1.1746
  927MPD2     N13623   1.764   2.204  17.486  0.0112  0.5138  0.2563
  927MPD2    H513624   1.704   2.284  17.466 -1.4612 -0.3618  1.1609
  927MPD2    N113625   1.570   2.214   0.163  0.8884  0.2059 -0.8503
  927MPD2    H713626   1.559   2.178   0.257 -0.9982  0.3774 -0.9892
  928MPD2     C13627   3.532   0.524   0.945 -0.0109  0.3637 -0.1663
  928MPD2    C113628   3.527   0.641   0.875 -0.3214  0.9516 -0.5276
  928MPD2    C213629   3.632   0.685   0.802  0.2643 -0.5526  0.1725
  928MPD2    C313630   3.749   0.610   0.804 -0.4169 -0.5853 -0.1128
  928MPD2    C413631   3.754   0.484   0.865  0.4145  0.1454 -0.6897
  928MPD2    C513632   3.640   0.443   0.929 -0.0324 -0.3749  0.3615
  928MPD2     H13633   3.619   0.770   0.736  0.8238 -0.3093  0.3854
  928MPD2    H113634   3.843   0.422   0.868  0.7338  0.5747 -1.1590
  928MPD2    H213635   3.446   0.488   1.000  0.3790 -2.8804 -1.6754
  928MPD2    H313636   3.635   0.342   0.970 -0.4721  0.2008  1.7030
  928MPD2     N13637   3.872   0.660   0.750 -0.2997  0.2485 -0.1254
  928MPD2    H513638   3.952   0.599   0.760 -1.6008 -1.8162 -2.5251
  928MPD2    N113639   3.405   0.718   0.888  0.6033 -0.1911 -0.2419
  928MPD2    H713640   3.338   0.695   0.962 -1.7642  1.7625 -1.7751
  929MPD2     C13641   3.911   1.385   9.738  0.5588 -0.2077  0.1635
  929MPD2    C113642   3.870   1.325   9.855  0.4060  0.5387  0.2314
  929MPD2    C213643   3.735   1.291   9.878  0.2300  0.5802 -0.0170
  929MPD2    C313644   3.636   1.353   9.801 -0.3454  0.8899  0.0690
  929MPD2    C413645   3.673   1.433   9.691 -0.4519 -0.1935  0.0409
  929MPD2    C513646   3.812   1.451   9.662 -0.0809 -0.1310  0.7230
  929MPD2     H13647   3.705   1.245   9.971  1.6331  1.5447  0.9084
  929MPD2    H113648   3.597   1.485   9.635 -0.7499  1.6376  2.1474
  929MPD2    H213649   4.015   1.409   9.720  0.5030  0.8733  1.3164
  929MPD2    H313650   3.845   1.502   9.573 -0.4559 -2.2270 -0.6354
  929MPD2     N13651   3.501   1.357   9.846  0.0358 -0.2708 -0.8208
  929MPD2    H513652   3.431   1.418   9.805  1.0052 -0.3287 -2.5555
  929MPD2    N113653   3.973   1.273   9.942 -0.8061  0.3508  0.8492
  929MPD2    H713654   4.067   1.308   9.924 -1.4599  1.5576 -0.2460
  930MPD2     C13655   1.623   2.896  14.479 -0.2131  0.8112  0.2415
  930MPD2    C113656   1.529   2.995  14.470 -0.2559  0.5337  0.3211
  930MPD2    C213657   1.433   2.987  14.368 -0.0178  0.3169  1.0596
  930MPD2    C313658   1.437   2.884  14.274 -0.1009  1.4498  0.6366
  930MPD2    C413659   1.530   2.779  14.290 -0.4463  0.1566 -0.7662
  930MPD2    C513660   1.625   2.792  14.389  1.0078  0.6517 -0.6568
  930MPD2     H13661   1.357   3.064  14.370  0.1894  0.5488  0.0171
  930MPD2    H113662   1.538   2.702  14.214 -0.6391 -0.8968  0.2732
  930MPD2    H213663   1.697   2.887  14.557 -1.1795 -2.6136  0.7625
  930MPD2    H313664   1.694   2.712  14.415 -2.4173 -1.0994  2.9932
  930MPD2     N13665   1.357   2.886  14.157 -0.4804 -0.1401  0.2553
  930MPD2    H513666   1.363   2.814  14.085  2.0886  1.4694 -1.1468
  930MPD2    N113667   1.517   3.106  14.557 -0.0732  0.7048 -0.1173
  930MPD2    H713668   1.432   3.158  14.538 -0.8263 -0.7862 -0.7635
  931MPD2     C13669   1.246   2.393   0.889  0.2455 -0.1941  0.1728
  931MPD2    C113670   1.276   2.288   0.810 -0.0836 -0.2851  0.1540
  931MPD2    C213671   1.302   2.169   0.874 -0.6113  0.2035  0.1864
  931MPD2    C313672   1.294   2.148   1.011 -0.3586 -0.5990 -0.7489
  931MPD2    C413673   1.259   2.257   1.088 -0.7905  0.5077 -0.2571
  931MPD2    C513674   1.228   2.375   1.025  0.3777 -0.6216 -0.0853
  931MPD2     H13675   1.321   2.085   0.808 -0.6237  1.1092 -0.9729
  931MPD2    H113676   1.238   2.247   1.194  0.0969 -1.1558 -0.2428
  931MPD2    H213677   1.232   2.493   0.850 -2.3976  1.0728  4.3412
  931MPD2    H313678   1.187   2.458   1.080  2.8997  0.3273  0.3479
  931MPD2     N13679   1.309   2.018   1.072 -0.1871  0.4697  0.0023
  931MPD2    H513680   1.290   2.006   1.171  2.9258 -0.1367  0.4993
  931MPD2    N113681   1.293   2.314   0.675 -1.0464 -0.5383  0.0050
  931MPD2    H713682   1.267   2.404   0.638 -1.1605 -0.8533 -0.6841
  932MPD2     C13683   2.512   1.711  11.592 -0.0861  0.2660 -0.0596
  932MPD2    C113684   2.610   1.774  11.522  0.8480  0.2959 -0.0404
  932MPD2    C213685   2.714   1.702  11.463 -0.4024  0.0186  0.3577
  932MPD2    C313686   2.713   1.562  11.486 -0.4751  0.2915 -0.5497
  932MPD2    C413687   2.608   1.501  11.562  0.4439  0.2458 -0.4797
  932MPD2    C513688   2.507   1.575  11.609 -0.4033 -0.1256 -0.1793
  932MPD2     H13689   2.792   1.757  11.411 -0.6257 -0.8829 -0.9544
  932MPD2    H113690   2.597   1.394  11.571 -1.2022  0.4966  0.4678
  932MPD2    H213691   2.438   1.776  11.638  0.2888  0.7126 -0.0914
  932MPD2    H313692   2.421   1.525  11.652 -0.2975 -0.7815 -0.7338
  932MPD2     N13693   2.815   1.474  11.449  0.3931  0.2333  0.5087
  932MPD2    H513694   2.815   1.377  11.479  1.5019  0.2167  0.4542
  932MPD2    N113695   2.608   1.916  11.493  0.0759 -0.2486  0.1251
  932MPD2    H713696   2.675   1.938  11.421 -0.5326  0.2547 -0.2932
  933MPD2     C13697   3.129   1.263   0.410  0.1552 -0.7509  0.0590
  933MPD2    C113698   3.078   1.277   0.536 -0.2275  0.0197  0.3597
  933MPD2    C213699   3.041   1.404   0.584  0.0354 -0.3476 -0.0032
  933MPD2    C313700   3.037   1.505   0.492  0.2348 -0.8315 -0.3291
  933MPD2    C413701   3.066   1.483   0.360 -0.6517  0.3118 -0.6430
  933MPD2    C513702   3.114   1.363   0.319 -0.1628  0.4380 -0.5002
  933MPD2     H13703   3.010   1.420   0.687 -1.2645 -1.0400 -0.2879
  933MPD2    H113704   3.051   1.556   0.282 -3.4903  1.1025  0.5998
  933MPD2    H213705   3.158   1.167   0.367  0.0103 -0.5497 -0.4976
  933MPD2    H313706   3.134   1.347   0.213  1.7626  2.0559 -0.3956
  933MPD2     N13707   3.005   1.636   0.536 -0.3410 -0.1456  0.2116
  933MPD2    H513708   2.976   1.640   0.633 -3.0154 -1.3695 -0.5235
  933MPD2    N113709   3.079   1.165   0.621 -0.8975 -0.1720  0.5833
  933MPD2    H713710   3.112   1.081   0.575  4.7004  1.0207  2.4703
  934MPD2     C13711   0.419   3.355   1.746 -0.1532 -0.2588  0.1725
  934MPD2    C113712   0.424   3.346   1.608 -0.1065  0.1386  0.0755
  934MPD2    C213713   0.329   3.259   1.557  0.3429 -0.0377 -0.7346
  934MPD2    C313714   0.232   3.188   1.636  0.2476  0.1012 -0.0783
  934MPD2    C413715   0.221   3.228   1.759 -0.2671  0.9384 -0.2957
  934MPD2    C513716   0.311   3.314   1.818 -0.1589 -0.4014 -0.1976
  934MPD2     H13717   0.328   3.231   1.453  2.5161  0.7454 -0.9527
  934MPD2    H113718   0.149   3.181   1.825  1.5724  0.6839  1.5466
  934MPD2    H213719   0.501   3.399   1.803  1.0160 -0.9014 -1.0290
  934MPD2    H313720   0.302   3.318   1.926  0.6498 -0.5074 -0.1295
  934MPD2     N13721   0.128   3.108   1.585  0.4054  0.1368 -0.5465
  934MPD2    H513722   0.043   3.086   1.637  1.7898 -0.4882  1.4486
  934MPD2    N113723   0.533   3.402   1.529  0.0626 -0.7658  0.6752
  934MPD2    H713724   0.524   3.397   1.428 -2.1771 -1.7754  0.9054
  935MPD2     C13725   0.280   2.365   0.998 -0.0770 -0.9139 -0.0843
  935MPD2    C113726   0.141   2.359   1.003 -0.0140  0.7631 -0.4740
  935MPD2    C213727   0.074   2.475   1.045  0.1769  0.5998 -0.4816
  935MPD2    C313728   0.141   2.586   1.085  0.0619 -0.5548 -0.0950
  935MPD2    C413729   0.278   2.593   1.078  0.6938 -0.0617 -0.2079
  935MPD2    C513730   0.346   2.484   1.036 -0.7986 -0.5680 -0.1610
  935MPD2     H13731   4.708   2.475   1.043  0.1975  1.3791 -1.5307
  935MPD2    H113732   0.335   2.681   1.107  1.8898 -0.9395  0.0765
  935MPD2    H213733   0.343   2.282   0.967  1.2167 -0.1644  0.5509
  935MPD2    H313734   0.453   2.487   1.022 -1.0800  0.2108 -2.2045
  935MPD2     N13735   0.072   2.689   1.143  0.0058  0.0799 -0.3569
  935MPD2    H513736   0.137   2.766   1.158 -0.4378  0.3518  0.1954
  935MPD2    N113737   0.067   2.250   0.953 -0.1355 -0.1117 -0.2814
  935MPD2    H713738   4.707   2.258   0.955  0.0361  1.2711  2.7122
  936MPD2     C13739   2.836   4.581  12.875  0.3612 -0.3461 -0.2022
  936MPD2    C113740   2.867   4.717  12.888 -0.0549 -0.0384 -0.0063
  936MPD2    C213741   2.872   0.058  12.782  0.3268 -0.5694 -0.2931
  936MPD2    C313742   2.859   4.742  12.653  0.1066  0.0380  0.4381
  936MPD2    C413743   2.828   4.607  12.641 -0.6324  0.5887 -0.1710
  936MPD2    C513744   2.814   4.532  12.755  0.2327 -0.0685 -0.7791
  936MPD2     H13745   2.892   0.164  12.789 -2.5912 -0.1465  1.5040
  936MPD2    H113746   2.800   4.569  12.543 -0.1510 -4.0469  1.5058
  936MPD2    H213747   2.832   4.516  12.962  0.0228 -0.4442 -0.2922
  936MPD2    H313748   2.789   4.428  12.741  0.8904 -0.6145  2.1041
  936MPD2     N13749   2.867   0.081  12.542 -0.4559  0.1678 -0.1842
  936MPD2    H513750   2.865   0.181  12.558 -2.1760 -0.2295  2.0788
  936MPD2    N113751   2.894   0.025  13.011 -0.1845 -0.4867  0.7623
  936MPD2    H713752   2.887   4.703  13.090  0.3652 -0.8060  0.5522
  937MPD2     C13753   1.187   1.623  12.158  0.1818  1.0620  0.4015
  937MPD2    C113754   1.190   1.756  12.144 -0.7100 -1.2695  0.1258
  937MPD2    C213755   1.303   1.809  12.094 -0.5611  0.4179  0.1566
  937MPD2    C313756   1.421   1.735  12.083  0.2076 -0.0572 -0.5292
  937MPD2    C413757   1.420   1.601  12.113  1.1880  0.1767 -0.4903
  937MPD2    C513758   1.297   1.552  12.146 -0.0828  0.5630  0.8232
  937MPD2     H13759   1.301   1.915  12.071  1.1734  0.1076 -1.4809
  937MPD2    H113760   1.501   1.529  12.108  0.4197 -0.6581 -1.2116
  937MPD2    H213761   1.100   1.565  12.186  0.0830  0.7047 -0.6360
  937MPD2    H313762   1.293   1.446  12.168  0.2466  0.6874  1.5039
  937MPD2     N13763   1.535   1.793  12.031 -0.2579  0.3208 -0.5973
  937MPD2    H513764   1.513   1.883  11.990  1.3543 -0.1777 -2.5176
  937MPD2    N113765   1.079   1.829  12.135  0.4970  0.5233 -0.2486
  937MPD2    H713766   1.085   1.927  12.111  1.0832  0.9685  1.7505
  938MPD2     C13767   3.902   2.406   0.868 -0.0944 -0.2218 -0.1096
  938MPD2    C113768   3.820   2.507   0.911  0.9873  0.1096 -0.3975
  938MPD2    C213769   3.716   2.476   0.997  0.5025 -0.4982 -0.6657
  938MPD2    C313770   3.689   2.345   1.031 -0.0077  0.5266 -0.3186
  938MPD2    C413771   3.779   2.250   0.987  0.1376  0.0594  0.1526
  938MPD2    C513772   3.888   2.281   0.906  0.6252  0.1220 -0.4104
  938MPD2     H13773   3.669   2.559   1.049  2.0556  0.0121 -0.0667
  938MPD2    H113774   3.779   2.145   1.015 -1.5585 -0.2473 -0.9731
  938MPD2    H213775   3.988   2.416   0.803  0.6743 -0.3556  0.9010
  938MPD2    H313776   3.957   2.206   0.869  0.7905  0.3041 -0.4688
  938MPD2     N13777   3.575   2.313   1.109 -0.4653  0.3355  0.8052
  938MPD2    H513778   3.567   2.217   1.139 -0.5591 -0.3060 -1.3284
  938MPD2    N113779   3.838   2.641   0.860 -0.7748  0.2570 -0.4016
  938MPD2    H713780   3.781   2.713   0.903 -1.8493 -0.8031 -0.0584
  939MPD2     C13781   4.566   3.692   0.629 -0.3280  0.1817 -0.0095
  939MPD2    C113782   4.503   3.616   0.537  0.8536  0.6951  0.9070
  939MPD2    C213783   4.575   3.528   0.462 -0.0109 -0.2244  1.1157
  939MPD2    C313784   4.710   3.516   0.484 -0.2690 -0.2428 -0.7023
  939MPD2    C413785   0.039   3.589   0.577 -0.1325 -0.7449 -0.0271
  939MPD2    C513786   4.705   3.678   0.657 -0.0610 -0.8532  1.0705
  939MPD2     H13787   4.529   3.462   0.389 -0.3468  0.1715  0.9704
  939MPD2    H113788   0.147   3.585   0.586 -0.1187  3.4057  1.4630
  939MPD2    H213789   4.511   3.764   0.688 -0.8107 -1.0514  1.0532
  939MPD2    H313790   0.013   3.745   0.727  0.5383 -0.8295  0.6295
  939MPD2     N13791   0.025   3.426   0.402  0.1533 -0.6532 -0.4484
  939MPD2    H513792   4.704   3.390   0.331  0.3275  0.7884 -1.3159
  939MPD2    N113793   4.370   3.642   0.507 -0.3544 -0.3881  0.2386
  939MPD2    H713794   4.319   3.711   0.562  0.2221 -0.7894  1.2790
  940MPD2     C13795   3.988   0.084  13.740 -0.5523  0.1759  0.0500
  940MPD2    C113796   3.851   0.098  13.725 -0.2138  0.1280 -0.1302
  940MPD2    C213797   3.798   0.138  13.602  0.1765  0.3921 -0.2263
  940MPD2    C313798   3.885   0.146  13.488  0.0851 -0.3637  0.1904
  940MPD2    C413799   4.017   0.122  13.511  0.4990 -0.6635 -0.0377
  940MPD2    C513800   4.072   0.095  13.633  0.8051  0.0578  0.0232
  940MPD2     H13801   3.690   0.143  13.597  0.1009 -0.1281  0.9006
  940MPD2    H113802   4.082   0.133  13.424  2.2078 -0.0780  1.3186
  940MPD2    H213803   4.032   0.065  13.837 -0.0805  1.6055  0.1171
  940MPD2    H313804   4.178   0.075  13.627  0.7903  0.5424 -1.9484
  940MPD2     N13805   3.842   0.166  13.353 -0.4583  0.5026 -0.2814
  940MPD2    H513806   3.909   0.155  13.277  0.5318  0.8772  0.5403
  940MPD2    N113807   3.750   0.080  13.827 -0.2141  0.3774  0.1379
  940MPD2    H713808   3.656   0.085  13.789 -0.6886 -1.6121  1.0398
  941MPD2     C13809   3.365   4.681   9.910 -0.3578  0.0435 -0.8748
  941MPD2    C113810   3.414   4.718  10.035  0.5847  0.1175  0.1510
  941MPD2    C213811   3.450   4.620  10.125 -0.6947 -0.1652 -0.0661
  941MPD2    C313812   3.416   4.488  10.095  0.3874 -0.2554  0.3586
  941MPD2    C413813   3.363   4.453   9.969  0.2500  0.3723 -0.4939
  941MPD2    C513814   3.337   4.549   9.882  0.0630 -0.1989  0.2464
  941MPD2     H13815   3.512   4.647  10.209 -2.0535  0.0462  0.8633
  941MPD2    H113816   3.339   4.349   9.948 -3.3106  1.3169 -1.0587
  941MPD2    H213817   3.331   0.014   9.839  0.3310 -0.7740 -2.0494
  941MPD2    H313818   3.288   4.538   9.786 -0.7073 -1.1409  0.7461
  941MPD2     N13819   3.458   4.380  10.182  0.2698 -0.2364 -0.2437
  941MPD2    H513820   3.454   4.285  10.147  0.7907 -0.5114  0.4428
  941MPD2    N113821   3.443   0.109  10.066  0.3559 -0.0178 -0.1783
  941MPD2    H713822   3.474   0.113  10.163 -0.2765  0.4610  0.0057
  942MPD2     C13823   3.322   1.365   9.479 -0.1362 -0.1241 -0.5653
  942MPD2    C113824   3.277   1.433   9.369  0.1778 -0.4891  0.1606
  942MPD2    C213825   3.365   1.463   9.266 -0.0919 -0.1621 -0.5871
  942MPD2    C313826   3.498   1.417   9.259 -1.0447 -0.1223 -0.0134
  942MPD2    C413827   3.541   1.349   9.374 -0.9257  0.0061 -0.2365
  942MPD2    C513828   3.458   1.324   9.483  0.5629  0.5000  0.7221
  942MPD2     H13829   3.333   1.506   9.171  0.2394 -0.8406 -1.0051
  942MPD2    H113830   3.645   1.322   9.384 -1.1817 -0.7808  0.3065
  942MPD2    H213831   3.257   1.341   9.562 -0.0780  0.5501 -0.3248
  942MPD2    H313832   3.492   1.277   9.575 -0.0101 -3.1155 -0.9283
  942MPD2     N13833   3.580   1.429   9.145  0.4538 -0.2492  0.1257
  942MPD2    H513834   3.670   1.389   9.170 -0.9625 -2.6472  1.4204
  942MPD2    N113835   3.144   1.487   9.356  0.0327 -0.4701 -0.1271
  942MPD2    H713836   3.119   1.514   9.261 -1.5838  2.4248  1.1180
  943MPD2     C13837   1.387   4.440  10.380  0.5318 -0.1698  0.1358
  943MPD2    C113838   1.309   4.349  10.312 -0.2624 -0.0829 -0.4376
  943MPD2    C213839   1.238   4.380  10.203 -0.5262  0.7207  0.5249
  943MPD2    C313840   1.223   4.512  10.162 -0.9090 -0.1367  0.0242
  943MPD2    C413841   1.289   4.605  10.239 -0.8065 -0.4222 -0.0212
  943MPD2    C513842   1.368   4.572  10.350  0.0873  0.2972 -0.1500
  943MPD2     H13843   1.182   4.308  10.145 -0.8121  1.2288  0.1691
  943MPD2    H113844   1.275   4.711  10.219 -0.5487 -0.2496  0.7007
  943MPD2    H213845   1.439   4.415  10.471  0.5554 -0.9352 -0.0905
  943MPD2    H313846   1.412   4.655  10.404 -0.1465  0.0319  0.4464
  943MPD2     N13847   1.139   4.558  10.055 -0.4133  0.7643 -0.4999
  943MPD2    H513848   1.143   4.659  10.042 -1.3644  0.4335 -3.3633
  943MPD2    N113849   1.324   4.221  10.363 -0.4272 -1.1982 -0.1940
  943MPD2    H713850   1.404   4.209  10.424 -0.9532  0.3046  0.7819
  944MPD2     C13851   1.672   2.717  11.556  0.7086 -0.0394 -0.1322
  944MPD2    C113852   1.587   2.742  11.656 -0.2703  0.1130 -0.2138
  944MPD2    C213853   1.510   2.859  11.669  0.2017 -0.7923  0.4908
  944MPD2    C313854   1.538   2.962  11.579  0.2184 -0.4352  0.1991
  944MPD2    C413855   1.608   2.925  11.461 -0.2361 -0.4998 -0.1588
  944MPD2    C513856   1.675   2.805  11.452 -0.5749 -0.4629  0.0273
  944MPD2     H13857   1.442   2.874  11.751 -2.0667  0.2506 -1.5628
  944MPD2    H113858   1.601   2.982  11.369  3.8944  0.3110  0.0592
  944MPD2    H213859   1.731   2.625  11.554  2.3211  0.9677  0.8757
  944MPD2    H313860   1.727   2.775  11.362 -0.2397  0.5068 -0.1041
  944MPD2     N13861   1.468   3.082  11.597 -0.1404  0.0393 -0.0389
  944MPD2    H513862   1.399   3.092  11.670 -1.6598 -0.0405 -1.4551
  944MPD2    N113863   1.555   2.632  11.737  1.1452  0.1533 -0.4792
  944MPD2    H713864   1.616   2.553  11.719  0.5852 -0.2649 -0.5568
    1TMC1    C113865   0.092   3.818  14.847 -0.6321  0.0904  0.6279
    1TMC1    C213866   0.191   3.727  14.863 -0.0888  0.0900  0.0502
    1TMC1    C313867   0.200   3.622  14.776 -0.0481  0.2090  0.3107
    1TMC1    C413868   0.003   3.822  14.745 -0.0898  0.2058  0.7115
    1TMC1    C513869   0.020   3.718  14.652 -0.8197  0.3938 -0.0438
    1TMC1    C613870   0.113   3.616  14.667  0.2916  0.5733 -0.3175
    1TMC1     C13871   0.096   3.939  14.931 -0.0527 -0.0942  0.1289
    1TMC1     O13872   0.132   3.928  15.046 -0.1975  0.8805  0.2876
    1TMC1     H13873   0.253   3.722  14.952  0.8447  3.9156 -0.4168
    1TMC1    H113874   4.665   3.894  14.727 -0.6716 -0.5648  0.2148
    1TMC1    H213875   0.103   3.534  14.597  4.0727 -1.0492  1.0617
    1TMC1    C713876   4.682   3.712  14.533  0.5751  0.6838 -1.7577
    1TMC1    C813877   0.296   3.516  14.804  0.1891 -0.9005 -0.2014
    1TMC1    O113878   4.564   3.753  14.523  0.2258  0.1066  0.3266
    1TMC1    O213879   0.384   3.530  14.889 -0.4903 -0.8500 -0.2926
    1TMC1    O313880   0.039   3.727  14.440  0.2680  0.2603 -0.3265
    1TMC1    H313881   0.130   3.752  14.469 -0.6129  2.2947  0.6164
    1TMC1    O513882   0.327   3.453  14.690 -0.0385  0.1558  0.0884
    1TMC1    H513883   0.282   3.483  14.608 -2.0079 -0.6278  0.8764
    2MPD2     C13884   4.705   4.432  14.992 -0.1901 -0.3439 -0.3481
    2MPD2    C113885   4.716   4.406  14.859 -0.1329 -0.2124 -0.2481
    2MPD2    C213886   0.003   4.281  14.812  0.0735  0.0989 -0.0251
    2MPD2    C313887   0.038   4.182  14.906 -0.2716  0.5836 -0.6014
    2MPD2    C413888   0.045   4.212  15.038  0.7195  0.0864  0.5507
    2MPD2    C513889   0.001   4.338  15.085  0.3125 -0.1782 -0.4327
    2MPD2     H13890   0.001   4.255  14.707 -1.2877  0.9394 -0.2099
    2MPD2    H113891   0.079   4.135  15.107 -0.5445 -1.1614 -0.2110
    2MPD2    H213892   4.668   4.528  15.028 -0.9358 -0.6577 -0.2844
    2MPD2    H313893   4.729   4.358  15.191 -1.4742 -0.7140 -0.5597
    2MPD2     N13894   0.063   4.051  14.856 -0.4504 -0.1144  0.0548
    2MPD2    H513895   0.062   4.041  14.755 -0.7504  1.3367 -0.0915
    2MPD2    N113896   4.687   4.511  14.764  0.3970 -0.0326  0.8186
    2MPD2    H713897   4.668   4.604  14.800  0.1404  1.1301 -2.3273
    3TMC2    C113898   4.616   4.608  14.566  0.0228  0.1700  0.3474
    3TMC2    C213899   4.519   4.673  14.646  0.8143 -0.1322 -0.0359
    3TMC2    C313900   4.467   0.047  14.598 -0.1976 -0.4581 -0.5205
    3TMC2    C413901   4.645   4.663  14.448  0.0115  0.0292 -0.2644
    3TMC2    C513902   4.579   0.031  14.396  0.8710 -0.9653  0.3025
    3TMC2    C613903   4.484   0.096  14.470  0.3060 -0.0394 -0.4864
    3TMC2     C13904   4.697   4.501  14.625 -0.3459 -0.2511  0.0738
    3TMC2     O13905   0.028   4.436  14.552 -0.2965  0.6434 -0.3658
    3TMC2     H13906   4.482   4.622  14.734  1.3989  0.9500  0.8230
    3TMC2    H113907   4.719   4.612  14.388  1.7749  1.9113  0.2943
    3TMC2    H213908   4.429   0.184  14.441 -0.8331 -0.4621  0.4164
    3TMC2    C713909   4.579   0.048  14.249 -0.0630 -0.5023  0.3775
    3TMC2    C813910   4.371   0.111  14.685 -0.1801 -0.1415  0.3467
    3TMC2    O113911   4.670   4.737  14.187 -0.0654  0.0817 -0.3340
    3TMC2    O213912   4.277   0.183  14.649 -0.0925 -0.3538 -0.0942
    3TMC2    O513913   4.407   0.099  14.814 -0.4170 -0.3780  0.1648
    3TMC2    H513914   4.491   0.049  14.819  0.5958  1.1179 -1.5803
    4TMC2    C113915   3.878   0.693  13.916 -0.4150  0.0106  0.3127
    4TMC2    C213916   3.930   0.779  13.824 -0.1298  0.1524 -0.1531
    4TMC2    C313917   4.049   0.734  13.767 -0.0292 -0.3651 -0.0780
    4TMC2    C413918   3.943   0.575  13.959 -0.1720  0.2687  1.1201
    4TMC2    C513919   4.059   0.542  13.903  0.1277 -0.0407 -0.3848
    4TMC2    C613920   4.123   0.628  13.816  0.0907  0.2546  0.1560
    4TMC2     C13921   3.731   0.670  13.923 -0.0714 -0.2977  0.1706
    4TMC2     O13922   3.694   0.601  14.019 -0.0707 -0.0716 -0.3242
    4TMC2     H13923   3.884   0.873  13.795 -0.3847  0.3541  0.8889
    4TMC2    H113924   3.905   0.511  14.038 -1.1038  2.3374  2.3447
    4TMC2    H213925   4.225   0.611  13.781 -0.6558  0.1419 -1.9957
    4TMC2    C713926   4.130   0.432  13.962  0.1021  0.4954  0.8245
    4TMC2    C813927   4.122   0.818  13.671 -0.7580 -0.5861 -0.1405
    4TMC2    O113928   4.097   0.391  14.073  0.2722 -0.1606  0.5590
    4TMC2    O213929   4.245   0.830  13.669  0.4209 -0.1261  0.7296
    4TMC2    O513930   4.032   0.865  13.581 -0.5949  0.7047 -0.2797
    4TMC2    H513931   3.947   0.819  13.597  0.6325 -1.2558  0.6934
    5MPD2     C13932   3.248   0.670  13.763  0.6213  0.1200  0.3766
    5MPD2    C113933   3.324   0.735  13.668  0.4795 -0.3162  0.4923
    5MPD2    C213934   3.459   0.748  13.687 -0.1780 -0.0039 -0.4468
    5MPD2    C313935   3.521   0.692  13.793 -0.5547  0.8912  0.4137
    5MPD2    C413936   3.443   0.617  13.885 -0.1803 -0.1852 -0.2993
    5MPD2    C513937   3.306   0.611  13.866 -0.7600  0.5053 -0.1645
    5MPD2     H13938   3.517   0.811  13.620  0.1900  1.0564  0.8709
    5MPD2    H113939   3.476   0.567  13.976 -2.0487 -1.4794 -0.3340
    5MPD2    H213940   3.141   0.656  13.756  0.9659 -0.9221 -2.8594
    5MPD2    H313941   3.246   0.565  13.943  1.5302 -1.2066  0.6028
    5MPD2     N13942   3.660   0.717  13.814  0.6633  0.3898 -0.3599
    5MPD2    H513943   3.708   0.757  13.733  0.6845  1.7607  0.3314
    5MPD2    N113944   3.260   0.794  13.555  0.4437 -0.7237  0.0691
    5MPD2    H713945   3.160   0.779  13.546  0.2041  0.0870  1.4173
    6MPD1     C13946   2.292   2.444  13.025 -0.6284  0.3154 -0.9257
    6MPD1    C113947   2.424   2.454  12.989  0.4426  0.6547 -0.1569
    6MPD1    C213948   2.505   2.346  13.009  0.1956 -0.2484  0.0122
    6MPD1    C313949   2.452   2.227  13.061  0.4481 -0.0989 -0.4873
    6MPD1    C413950   2.317   2.220  13.084 -0.4183  0.6517  0.0756
    6MPD1    C513951   2.237   2.330  13.074 -0.1527 -0.1082  1.0972
    6MPD1     H13952   2.613   2.357  12.999  0.2885 -2.0231 -0.9848
    6MPD1    H113953   2.276   2.129  13.127  0.8568 -0.4174 -0.9857
    6MPD1    H213954   2.235   2.536  13.032 -1.5592 -0.0747 -3.2842
    6MPD1    H313955   2.133   2.335  13.103 -0.4380  1.2025 -0.1698
    6MPD1     N13956   2.530   2.115  13.098  0.3181 -0.4020  0.7248
    6MPD1    H513957   2.489   2.038  13.150 -2.1328 -0.0961 -0.7726
    6MPD1    N113958   2.477   2.580  12.957  0.9604  0.1758 -0.5362
    6MPD1    H613959   2.558   2.574  12.895  1.0834  0.8210 -0.4356
    6MPD1    H713960   2.410   2.646  12.919 -1.4229 -2.8721 -1.5956
    7MPD2     C13961   2.781   1.546  13.623  0.3132 -0.0176  0.0726
    7MPD2    C113962   2.784   1.518  13.484 -0.7071 -0.0533 -0.2965
    7MPD2    C213963   2.822   1.393  13.440 -0.4390  0.5814  0.0564
    7MPD2    C313964   2.851   1.289  13.533  0.0584 -0.1552 -0.3727
    7MPD2    C413965   2.836   1.316  13.668  0.1038  0.2120  0.1943
    7MPD2    C513966   2.815   1.442  13.711  0.5194  1.1511  0.1677
    7MPD2     H13967   2.836   1.374  13.334  1.0326  0.1463  0.3309
    7MPD2    H113968   2.866   1.254  13.751 -1.7485 -0.9183 -0.0073
    7MPD2    H213969   2.746   1.643  13.654  0.0811 -0.2078  0.4108
    7MPD2    H313970   2.823   1.454  13.819  0.9276  0.2141  0.2384
    7MPD2     N13971   2.901   1.170  13.497 -0.1644  0.2467  0.0179
    7MPD2    H513972   2.931   1.115  13.577 -2.2208 -0.8288  0.0667
    7MPD2    N113973   2.762   1.611  13.382  0.3102  0.2213  0.2653
    7MPD2    H713974   2.768   1.575  13.288 -0.4853  2.6010 -0.7045
    8TMC3    C113975   2.995   0.994  13.344 -0.2617 -0.9071  0.5734
    8TMC3    C213976   3.096   0.963  13.428 -0.4211 -0.0927 -0.0926
    8TMC3    C313977   3.214   0.920  13.366  0.4312  0.1273 -0.3048
    8TMC3    C413978   3.011   0.965  13.211  0.2348 -0.0715 -0.0787
    8TMC3    C513979   3.132   0.939  13.155  0.3259 -0.5442  0.0769
    8TMC3    C613980   3.238   0.901  13.232  0.0543  0.4914 -0.8600
    8TMC3     C13981   2.927   1.126  13.369 -0.3001  0.0138  0.0932
    8TMC3     O13982   2.900   1.177  13.262 -0.2005  0.1586  0.2126
    8TMC3     H13983   3.091   0.987  13.533 -0.2695  4.5660 -1.1805
    8TMC3    H113984   2.927   0.966  13.143 -0.2204 -3.0578  0.4265
    8TMC3    H213985   3.338   0.898  13.190 -0.4850  1.1991 -2.1716
    8TMC3    C713986   3.163   1.027  13.046  0.3162 -0.0614  0.1504
    8TMC3    C813987   3.319   0.860  13.446 -0.3528 -0.0365 -0.0805
    8TMC3    O113988   3.262   1.009  12.977  0.8141  0.1384 -0.6010
    8TMC3    O213989   3.432   0.844  13.403  0.1612  0.3462 -0.1753
    9TMC3    C113990   2.724   1.977  13.109  1.2307 -0.4274  0.0825
    9TMC3    C213991   2.796   1.914  13.014 -0.1074 -0.8516  0.4751
    9TMC3    C313992   2.846   1.788  13.051  0.3358  0.5933  0.0253
    9TMC3    C413993   2.698   1.932  13.236 -0.8106 -0.6774  0.6496
    9TMC3    C513994   2.775   1.820  13.274  0.1150 -0.0084 -0.3129
    9TMC3    C613995   2.848   1.748  13.184  0.8335  0.1385  0.4044
    9TMC3     C13996   2.666   2.103  13.062  0.1693  0.5286  0.3966
    9TMC3     O13997   2.731   2.170  12.983  0.4924 -0.3399  0.2607
    9TMC3     H13998   2.804   1.964  12.918  0.4542  0.7575  1.3604
    9TMC3    H113999   2.656   1.999  13.311 -1.9219 -0.7219  0.0742
    9TMC3    H214000   2.926   1.682  13.219  0.4793 -0.1562  0.6399
    9TMC3    C714001   2.727   1.748  13.393  0.5351 -0.2239 -0.4157
    9TMC3    C814002   2.938   1.718  12.967 -0.3235 -0.3473 -0.6078
    9TMC3    O114003   2.686   1.805  13.493  0.6949 -0.1106 -0.0292
    9TMC3    O214004   3.009   1.779  12.887  0.4505 -0.2548 -0.2200
   10MPD2     C14005   3.145   1.255  12.844  0.4367  0.6844 -1.1420
   10MPD2    C114006   3.068   1.246  12.955 -0.0187  0.7543 -0.1477
   10MPD2    C214007   2.980   1.349  12.981 -0.4083 -0.5647 -0.3361
   10MPD2    C314008   2.992   1.469  12.926 -0.1874 -0.6626 -0.1284
   10MPD2    C414009   3.077   1.480  12.820 -0.5444 -0.1348 -0.0458
   10MPD2    C514010   3.144   1.373  12.777  0.2084  0.3772 -0.3955
   10MPD2     H14011   2.917   1.322  13.064  0.7425  0.6835  0.9442
   10MPD2    H114012   3.088   1.571  12.764 -0.3004  0.0714  0.3389
   10MPD2    H214013   3.217   1.182  12.808  0.2834  0.8110 -1.7073
   10MPD2    H314014   3.215   1.383  12.695  1.6569 -0.2412  0.7889
   10MPD2     N14015   2.920   1.579  12.982  0.6599 -0.0390 -0.1905
   10MPD2    H514016   2.844   1.556  13.045 -1.5800 -0.4888 -3.0523
   10MPD2    N114017   3.070   1.137  13.042 -0.0023  0.3116 -0.2557
   10MPD2    H714018   3.005   1.147  13.119  1.1318  5.0122  0.1126
   11MPD2     C14019   4.491   0.073  13.954 -0.4520  0.3274 -0.2228
   11MPD2    C114020   4.443   0.151  14.055 -0.5578 -0.5673 -0.0573
   11MPD2    C214021   4.339   0.246  14.030 -0.0662 -0.2087 -0.1045
   11MPD2    C314022   4.302   0.278  13.900  0.0148 -0.2949  0.3152
   11MPD2    C414023   4.369   0.211  13.798 -0.5808  0.1888  0.1180
   11MPD2    C514024   4.453   0.108  13.827  0.4573 -0.0398  0.2886
   11MPD2     H14025   4.294   0.289  14.119  2.2295  0.3605  0.7722
   11MPD2    H114026   4.340   0.222  13.694  2.5342  0.5547 -0.7022
   11MPD2    H214027   4.551   4.727  13.976  2.2453  2.2328  0.0067
   11MPD2    H314028   4.499   0.049  13.749 -0.5602 -0.9873  0.4157
   11MPD2     N14029   4.201   0.368  13.868 -0.0602  0.0804  0.4041
   11MPD2    H514030   4.197   0.400  13.772 -1.4949 -1.4948 -0.0501
   11MPD2    N114031   4.472   0.124  14.193 -0.5396 -0.8830 -0.4098
   11MPD2    H714032   4.404   0.152  14.264 -0.1315  0.6896 -0.6440
    1MPD1     C14033   2.949   2.202  17.210  0.0595 -0.0752 -0.0956
    1MPD1    C114034   2.839   2.153  17.279 -0.3643 -0.6315  0.3422
    1MPD1    C214035   2.764   2.047  17.223  0.5051 -0.4739 -0.7555
    1MPD1    C314036   2.787   2.002  17.098  0.5759 -0.0594 -0.0354
    1MPD1    C414037   2.897   2.045  17.032 -0.2417  0.1777  0.1943
    1MPD1    C514038   2.966   2.152  17.082 -0.0344 -0.2502 -0.1886
    1MPD1     H14039   2.678   2.001  17.270  1.0155  1.1547  1.7663
    1MPD1    H114040   2.935   2.018  16.934  0.9984 -0.0146  0.7314
    1MPD1    H214041   3.018   2.278  17.245  0.0306  0.0086 -0.2207
    1MPD1    H314042   3.055   2.188  17.031 -0.8845  2.9082  0.5491
    1MPD1     N14043   2.717   1.892  17.043  0.2113 -0.3415  0.2078
    1MPD1    H514044   2.756   1.859  16.955  0.6551 -0.8464  0.6013
    1MPD1    N114045   2.824   2.187  17.417  0.2900  0.4064  0.0471
    1MPD1    H614046   2.727   2.182  17.445  0.5066 -0.4259  0.6248
    1MPD1    H714047   2.853   2.284  17.430 -2.0178  0.9003  1.3781
    2MPD1     C14048   2.623   1.228  16.309  0.2763  0.0326 -0.2402
    2MPD1    C114049   2.549   1.173  16.412  0.1074  0.3997  0.2101
    2MPD1    C214050   2.520   1.243  16.523  0.2075  0.2855  0.1821
    2MPD1    C314051   2.578   1.365  16.547  0.0705 -0.1693  0.0005
    2MPD1    C414052   2.656   1.420  16.442 -0.1381 -0.5647 -0.0750
    2MPD1    C514053   2.674   1.354  16.325  0.1261 -0.3087 -0.3907
    2MPD1     H14054   2.452   1.203  16.597 -0.0147 -0.4392 -0.4122
    2MPD1    H114055   2.693   1.520  16.460  1.2498 -1.2039  0.6454
    2MPD1    H214056   2.640   1.170  16.219  0.6495 -0.7527  0.3381
    2MPD1    H314057   2.728   1.401  16.244  2.9288  1.8518  2.6901
    2MPD1     N14058   2.552   1.432  16.672  0.1130 -0.2828  0.0511
    2MPD1    H514059   2.503   1.371  16.737  0.3816 -0.9372 -0.3626
    2MPD1    N114060   2.476   1.059  16.381  0.1600 -0.5194 -0.8734
    2MPD1    H614061   2.433   1.006  16.456 -0.3570  1.0937 -0.0260
    2MPD1    H714062   2.526   1.003  16.312 -0.7617 -2.5020  0.0783
    3TMC3    C114063   2.530   1.596  16.833 -0.1110  0.0827 -0.4422
    3TMC3    C214064   2.398   1.567  16.852  0.7885  0.3859 -0.5603
    3TMC3    C314065   2.327   1.644  16.938 -0.5115  0.6706 -0.5655
    3TMC3    C414066   2.592   1.700  16.891 -0.4306  0.4681 -0.2493
    3TMC3    C514067   2.520   1.771  16.988  0.0582 -0.2216 -0.2221
    3TMC3    C614068   2.390   1.744  17.007  0.5058  0.4569  0.2147
    3TMC3     C14069   2.600   1.554  16.717  0.0823 -0.2887  0.2437
    3TMC3     O14070   2.694   1.620  16.667  0.5700 -0.8040  0.0423
    3TMC3     H14071   2.337   1.504  16.788  0.3242 -1.5237  1.7723
    3TMC3    H114072   2.691   1.730  16.860  0.5803 -0.4994  2.0321
    3TMC3    H214073   2.332   1.796  17.082 -0.0579  0.3782 -0.1625
    3TMC3    C714074   2.581   1.875  17.072  0.0355 -0.0590 -0.1276
    3TMC3    C814075   2.178   1.632  16.952  0.1428 -0.1043 -0.2633
    3TMC3    O114076   2.506   1.942  17.141 -0.5147 -0.5084  0.4037
    3TMC3    O214077   2.125   1.563  16.866  0.3363  0.0289 -0.0688
    4MPD1     C14078   1.706   1.724  17.136 -0.1909 -0.2109 -0.2280
    4MPD1    C114079   1.790   1.756  17.232  0.1727  0.1293  0.6218
    4MPD1    C214080   1.927   1.747  17.210 -0.1089 -0.2009 -0.1945
    4MPD1    C314081   1.974   1.703  17.084 -0.3369 -0.8473  0.0218
    4MPD1    C414082   1.883   1.663  16.990  0.3924  0.2485 -0.5775
    4MPD1    C514083   1.746   1.675  17.013  0.5057 -0.6960 -0.4641
    4MPD1     H14084   2.001   1.777  17.282 -0.7435 -1.6149  1.0452
    4MPD1    H114085   1.901   1.624  16.891  2.1418  0.3138 -0.2740
    4MPD1    H214086   1.599   1.732  17.153 -0.3157 -0.3331 -0.9552
    4MPD1    H314087   1.681   1.656  16.928  0.5343  0.3011 -0.7179
    4MPD1     N14088   2.115   1.701  17.057 -0.3420  0.9332  0.4189
    4MPD1    H514089   2.170   1.736  17.135  0.6611 -0.4860  0.3617
    4MPD1    N114090   1.746   1.804  17.354  0.3949  0.7537  0.1959
    4MPD1    H614091   1.811   1.879  17.378  1.6058  0.0653 -0.9282
    4MPD1    H714092   1.648   1.830  17.365  0.3816  0.7916 -0.0161
    1TCq1    O114093   3.496   0.640  11.378  0.4524  0.3381 -0.3019
    1TCq1    C114094   3.408   0.729  11.325  0.6347 -0.2902 -0.0807
    1TCq1    O214095   3.378   0.838  11.373 -0.3914 -0.1020  0.1881
    1TCq1    C214096   3.322   0.653  11.234 -0.5643 -0.5909 -0.7152
    1TCq1    C314097   3.341   0.518  11.215 -0.5451  0.3408 -0.4462
    1TCq1    C414098   3.302   0.469  11.088  1.0834  0.0782 -0.3865
    1TCq1    C514099   3.232   0.548  11.000 -0.1529  0.4497 -0.5859
    1TCq1    C614100   3.211   0.678  11.031  0.2202 -0.1254  0.3618
    1TCq1    C714101   3.260   0.736  11.146  0.0860  0.0196 -0.1818
    1TCq1    C814102   3.103   0.747  10.965 -0.3849 -0.3687 -0.2117
    1TCq1    O414103   3.039   0.680  10.885  0.6776 -0.1649  0.2277
    1TCq1    C914104   3.271   0.327  11.081 -0.4967 -0.7568 -0.3307
    1TCq1    O514105   3.256   0.280  10.964  0.6978 -0.2608 -0.1529
    1TCq1    O614106   3.258   0.259  11.185 -0.5157  0.1314  0.1922
    1TCq1    H114107   3.518   0.565  11.319 -0.6979 -0.4175  0.2248
    1TCq1    H214108   3.340   0.445  11.296 -0.6883  0.0481 -0.7089
    1TCq1    H314109   3.187   0.489  10.921  1.6563  0.3362 -1.5099
    1TCq1    H414110   3.265   0.842  11.171 -2.5099 -0.4981  2.5808
    2MPD1     C14111   2.900   1.182  10.788  0.3202 -0.2631 -0.5373
    2MPD1    C114112   2.967   1.203  10.910  0.7784  0.6824  0.2842
    2MPD1    C214113   3.024   1.099  10.977  0.2926 -0.0004 -0.5450
    2MPD1    C314114   3.015   0.973  10.929  0.1421  0.2221  0.0946
    2MPD1    C414115   2.947   0.947  10.814  0.3651 -0.3595 -0.1964
    2MPD1    C514116   2.887   1.053  10.748 -0.3340  0.4806 -0.0749
    2MPD1     H14117   3.077   1.115  11.071 -2.0082  1.0599  0.5730
    2MPD1    H114118   2.939   0.847  10.773 -1.6747 -0.6035  0.7803
    2MPD1    H214119   2.855   1.262  10.731 -0.5313 -0.4116 -0.0713
    2MPD1    H314120   2.844   1.036  10.650 -1.5169 -0.6353  0.6417
    2MPD1     N14121   3.085   0.877  11.002 -0.0758  0.4473  0.1218
    2MPD1    H514122   3.134   0.907  11.087  0.9783  0.8762 -0.6359
    2MPD1    N114123   2.942   1.327  10.970  0.8103  0.7594 -0.3593
    2MPD1    H614124   2.950   1.401  10.900  0.6920 -1.4610 -2.7194
    2MPD1    H714125   3.007   1.345  11.045 -1.9979  0.5231  2.1309
    1TMC1    C114126   2.703   3.321   1.657 -0.0744  0.1591 -0.0080
    1TMC1    C214127   2.596   3.401   1.642 -0.2179  0.6674  0.1704
    1TMC1    C314128   2.536   3.452   1.751 -0.1596  0.4164 -0.4217
    1TMC1    C414129   2.757   3.291   1.785  0.4716 -0.6407  0.5639
    1TMC1    C514130   2.692   3.343   1.888  0.1590 -0.3065  0.1298
    1TMC1    C614131   2.584   3.425   1.880  0.3005  0.7057 -0.2395
    1TMC1     C14132   2.811   3.312   1.557  0.4070 -0.1322  0.0865
    1TMC1     O14133   2.909   3.240   1.582  1.5726 -0.4046 -0.5923
    1TMC1     H14134   2.561   3.421   1.541  0.6945  0.2400 -0.2222
    1TMC1    H114135   2.842   3.226   1.799  1.1578 -0.3604 -2.3021
    1TMC1    H214136   2.527   3.466   1.963 -0.2801  1.5186 -1.0302
    1TMC1    C714137   2.735   3.297   2.019 -0.5325 -0.2354  0.0902
    1TMC1    C814138   2.417   3.530   1.733 -0.1250  0.5405  0.7909
    1TMC1    O114139   2.772   3.179   2.033  0.5222  0.0789 -0.0504
    1TMC1    O214140   2.328   3.544   1.818 -0.2450  0.1972 -0.4573
    1TMC1    O314141   2.671   3.368   2.115  0.9848  0.2374 -0.2680
    1TMC1    H314142   2.659   3.463   2.094  0.4214  0.2564  0.1491
    1TMC1    O514143   2.440   3.612   1.630  0.1226  0.0515 -0.2146
    1TMC1    H514144   2.536   3.619   1.609  0.4001 -0.1199  1.0289
    2MPD1     C14145   3.016   3.400   1.093 -0.8222  0.3364 -0.2325
    2MPD1    C114146   2.953   3.515   1.135 -0.4736  0.1501  0.5615
    2MPD1    C214147   2.880   3.503   1.255 -0.2143  0.9072  0.2294
    2MPD1    C314148   2.885   3.397   1.337  0.7277 -0.2886  0.2339
    2MPD1    C414149   2.956   3.284   1.304  0.9001 -0.2687  0.5334
    2MPD1    C514150   3.026   3.292   1.182 -0.1778 -0.3400  0.4032
    2MPD1     H14151   2.825   3.587   1.294 -0.0810  0.0678  2.2319
    2MPD1    H114152   2.944   3.191   1.358 -0.4998 -1.6008 -2.0148
    2MPD1    H214153   3.074   3.398   1.001 -2.1636 -0.7409 -1.0408
    2MPD1    H314154   3.077   3.200   1.157 -1.5520 -0.8341 -0.5962
    2MPD1     N14155   2.802   3.403   1.455 -0.0971  0.1314  0.5179
    2MPD1    H514156   2.726   3.471   1.451 -0.1363 -0.0959 -3.2649
    2MPD1    N114157   2.955   3.635   1.071  0.1652  0.6119  1.0026
    2MPD1    H614158   2.930   3.712   1.133 -1.5132  1.6826 -1.0216
    2MPD1    H714159   3.047   3.665   1.039 -0.0075 -0.2887 -0.3243
    1MPD1     C14160   4.694   1.233  12.123 -0.2145  0.0437 -0.4860
    1MPD1    C114161   4.581   1.307  12.152  0.4823 -0.1468 -0.1768
    1MPD1    C214162   4.571   1.440  12.117  1.1353  0.2689  0.4207
    1MPD1    C314163   4.687   1.512  12.081 -0.5612  0.1377  0.2770
    1MPD1    C414164   0.067   1.441  12.078  0.0491 -0.3156 -0.2004
    1MPD1    C514165   0.060   1.303  12.089  0.5707  0.4278 -0.2197
    1MPD1     H14166   4.482   1.499  12.138 -0.4221 -1.8800 -0.0663
    1MPD1    H114167   0.151   1.465  12.013 -0.5160  0.9083 -0.4672
    1MPD1    H214168   4.699   1.125  12.115 -2.3010 -0.2529  2.1744
    1MPD1    H314169   0.141   1.241  12.051 -0.2113 -0.7559  0.0356
    1MPD1     N14170   4.672   1.651  12.059 -0.2971 -0.1217 -0.2105
    1MPD1    H514171   4.577   1.681  12.075  0.2060  0.1184  2.3402
    1MPD1    N114172   4.472   1.236  12.195 -0.1655 -0.4320 -0.0197
    1MPD1    H614173   4.491   1.145  12.235 -1.2765 -0.5949  0.1388
    1MPD1    H714174   4.393   1.286  12.236  0.9155  0.2293  1.2204
    2MPD1     C14175   3.857   2.159  11.894 -0.2650 -0.1423  0.3430
    2MPD1    C114176   3.791   2.094  11.789 -0.6870 -0.6202 -0.2674
    2MPD1    C214177   3.856   1.995  11.714  0.1746  0.3627  0.0955
    2MPD1    C314178   3.982   1.955  11.749  0.6102 -0.3647  0.2096
    2MPD1    C414179   4.039   2.009  11.861  0.0722  0.3110  0.5400
    2MPD1    C514180   3.976   2.113  11.928 -0.3214 -0.4798 -0.3394
    2MPD1     H14181   3.811   1.959  11.622  0.2729 -1.2646  0.6728
    2MPD1    H114182   4.137   1.980  11.899 -0.7985 -0.5184  2.1405
    2MPD1    H214183   3.813   2.245  11.943  0.3182  0.1720  0.3026
    2MPD1    H314184   4.018   2.167  12.012  0.4708 -0.6742 -0.6072
    2MPD1     N14185   4.054   1.865  11.666  0.5188  0.8678  0.0395
    2MPD1    H514186   4.143   1.833  11.703 -0.2974 -0.2059  1.0479
    2MPD1    N114187   3.668   2.145  11.742  0.2852 -0.7159  0.5059
    2MPD1    H614188   3.613   2.182  11.819 -0.9003  0.0289 -0.6852
    2MPD1    H714189   3.613   2.070  11.700 -1.6668  0.9666  0.0430
    3MPD1     C14190   3.739   1.181  10.964  0.4383  0.1576 -0.1269
    3MPD1    C114191   3.676   1.291  11.022  0.2119  0.0634 -0.0196
    3MPD1    C214192   3.753   1.393  11.081  0.6356 -0.0603  0.2276
    3MPD1    C314193   3.891   1.365  11.100 -0.0189 -0.6173 -0.6174
    3MPD1    C414194   3.949   1.248  11.052  0.6074 -0.4318  0.3208
    3MPD1    C514195   3.873   1.158  10.981 -0.3109  0.4146 -0.1689
    3MPD1     H14196   3.713   1.481  11.131 -1.2195 -1.1600  0.6838
    3MPD1    H114197   4.057   1.235  11.054  0.4774 -1.7646 -1.0731
    3MPD1    H214198   3.693   1.100  10.909 -0.6901  1.4807 -1.1156
    3MPD1    H314199   3.918   1.067  10.945  2.3682  2.3648 -1.7646
    3MPD1     N14200   3.960   1.461  11.179  0.2313 -0.8815  0.0948
    3MPD1    H514201   3.897   1.539  11.193  0.8028 -0.2381 -0.9281
    3MPD1    N114202   3.542   1.316  11.011 -0.6881 -0.0569 -0.5234
    3MPD1    H614203   3.481   1.235  11.007  0.4867 -1.0872  2.9922
    3MPD1    H714204   3.512   1.371  11.092 -1.8335  0.3235 -1.1992
    4MPD2     C14205   4.469   2.064  11.516 -0.3268  0.2165  0.3837
    4MPD2    C114206   4.594   2.105  11.560 -0.3585 -0.1003  0.0235
    4MPD2    C214207   4.692   2.145  11.472  0.4917  0.0332 -0.6887
    4MPD2    C314208   4.671   2.136  11.338  0.1427  0.5305 -0.1398
    4MPD2    C414209   4.550   2.103  11.292 -0.5607 -0.9983 -0.0809
    4MPD2    C514210   4.453   2.068  11.382 -0.1814  0.1285  0.2545
    4MPD2     H14211   0.045   2.170  11.519 -0.3032  1.8450 -0.0502
    4MPD2    H114212   4.527   2.092  11.187  1.4832 -2.7772 -0.3398
    4MPD2    H214213   4.389   2.030  11.582  0.4314  1.0350  1.7205
    4MPD2    H314214   4.361   2.031  11.338  1.8696 -2.6915 -1.6470
    4MPD2     N14215   0.040   2.169  11.256  0.0824  0.4428 -0.4561
    4MPD2    H514216   0.128   2.185  11.303  0.1356 -1.7459  0.2111
    4MPD2    N114217   4.622   2.105  11.699 -0.6881 -0.3155 -0.9348
    4MPD2    H714218   4.718   2.128  11.726  0.3502 -0.8478 -4.2055
    5TMC3    C114219   4.614   2.043  11.922  0.1686  0.0170  0.3413
    5TMC3    C214220   4.626   1.915  11.965  0.2724 -0.2734 -0.1471
    5TMC3    C314221   0.005   1.875  12.025  0.1174 -0.7025 -0.0171
    5TMC3    C414222   4.717   2.130  11.938 -0.1480 -0.7239  0.3564
    5TMC3    C514223   0.095   2.082  11.985 -1.1541 -0.1712 -0.7313
    5TMC3    C614224   0.114   1.958  12.042 -0.4499  0.2694 -0.1140
    5TMC3     C14225   4.547   2.045  11.793 -0.4043 -0.0917  0.4373
    5TMC3     O14226   4.452   1.966  11.787  0.4639 -0.3885  0.0899
    5TMC3     H14227   4.561   1.835  11.934 -0.1087 -1.3584  3.3679
    5TMC3    H114228   4.710   2.233  11.905 -1.4204 -0.4712  1.4366
    5TMC3    H214229   0.212   1.916  12.061 -1.2105 -1.6577 -0.4443
    5TMC3    C714230   0.194   2.101  11.881 -0.2038 -0.0716  0.2213
    5TMC3    C814231   0.034   1.733  12.027  0.0217  0.1069  0.1781
    5TMC3    O114232   0.157   2.163  11.781  0.2162  0.3467 -0.3016
    5TMC3    O214233   0.149   1.713  11.987  0.2038 -0.5162 -0.8849
    6TMC3    C114234   4.111   1.717  11.482  0.2393 -0.0299 -0.3771
    6TMC3    C214235   4.063   1.629  11.383  0.1100  0.2776  0.1765
    6TMC3    C314236   4.143   1.565  11.298 -0.6930  0.2828  0.3394
    6TMC3    C414237   4.250   1.732  11.504 -0.4375 -0.4360  0.1268
    6TMC3    C514238   4.326   1.660  11.416  0.0159  0.2167 -0.4498
    6TMC3    C614239   4.280   1.582  11.311  0.3043 -0.4846  0.5836
    6TMC3     C14240   4.011   1.807  11.546 -0.0322 -0.3613 -0.4833
    6TMC3     O14241   3.914   1.828  11.476  0.8974 -0.1783  0.3677
    6TMC3     H14242   3.958   1.606  11.373  0.0190  1.4387 -1.5357
    6TMC3    H114243   4.292   1.811  11.565  1.0898 -0.0440 -1.4113
    6TMC3    H214244   4.351   1.526  11.250  0.7820  0.7407 -0.0019
    6TMC3    C714245   4.466   1.689  11.398 -0.4796 -0.1974  0.3430
    6TMC3    C814246   4.093   1.466  11.204  0.3310  0.5833  0.1979
    6TMC3    O114247   4.518   1.672  11.289  0.1651  0.7538 -0.2273
    6TMC3    O214248   4.182   1.417  11.133  0.0101  0.0539 -0.5852
    7MPD2     C14249   0.593   1.943  11.600  0.1750  0.1097  0.4112
    7MPD2    C114250   0.492   2.027  11.567 -0.2585  0.1053  0.8067
    7MPD2    C214251   0.395   2.065  11.656 -0.0421  0.4384  0.4771
    7MPD2    C314252   0.402   2.005  11.787  0.2070 -0.2025 -0.6185
    7MPD2    C414253   0.507   1.919  11.815  0.5520 -0.0346 -0.0553
    7MPD2    C514254   0.590   1.882  11.721 -0.1885 -0.0213 -0.1014
    7MPD2     H14255   0.314   2.128  11.620  2.1078  2.0467 -1.5176
    7MPD2    H114256   0.504   1.864  11.909  1.1531 -0.4857 -0.3046
    7MPD2    H214257   0.663   1.902  11.529  0.7859  0.9299  0.5309
    7MPD2    H314258   0.657   1.800  11.744 -0.3783  0.3298  1.7042
    7MPD2     N14259   0.311   2.028  11.892 -0.1547 -0.4053  0.1452
    7MPD2    H514260   0.335   2.002  11.987 -1.5979  1.2171  0.9369
    7MPD2    N114261   0.478   2.049  11.427  0.2963 -0.0460 -0.2176
    7MPD2    H714262   0.546   2.005  11.367  1.8352  0.9936  0.7586
    8TMC3    C114263   0.371   2.104  11.218  0.5850 -0.2882 -0.2097
    8TMC3    C214264   0.372   1.967  11.201 -0.3454 -0.4598 -0.2081
    8TMC3    C314265   0.286   1.908  11.113 -0.6100  0.5324 -0.0710
    8TMC3    C414266   0.279   2.185  11.164  0.5291 -0.1508  0.3440
    8TMC3    C514267   0.194   2.127  11.073  0.3597  0.5211  1.1292
    8TMC3    C614268   0.212   1.996  11.039  0.6345  0.4825  0.9524
    8TMC3     C14269   0.378   2.124  11.360 -0.2107 -0.2279  0.3780
    8TMC3     O14270   0.292   2.188  11.408  0.2579  0.2921 -0.0234
    8TMC3     H14271   0.450   1.901  11.239  1.8080  1.1293 -1.8508
    8TMC3    H114272   0.272   2.287  11.201 -0.4541 -0.4722  1.0245
    8TMC3    H214273   0.139   1.947  10.975 -0.9529  0.2523  2.9234
    8TMC3    C714274   0.051   2.138  11.120 -0.8986 -1.1037  0.3487
    8TMC3    C814275   0.198   1.811  11.189  0.0739  0.0722  0.7098
    8TMC3    O114276   4.706   2.089  11.053 -0.0540 -0.5010 -0.1156
    8TMC3    O214277   0.086   1.779  11.143  0.8383 -0.6588  0.0420
    9MPD2     C14278   0.201   1.787  11.558  0.3081  0.1021 -0.9288
    9MPD2    C114279   0.154   1.785  11.435 -0.0364  0.7869  0.1886
    9MPD2    C214280   0.013   1.768  11.416 -0.2962  0.3617 -0.7260
    9MPD2    C314281   4.671   1.735  11.522 -0.0946  0.6420  0.6362
    9MPD2    C414282   4.720   1.758  11.649 -0.3238  0.7841 -0.2843
    9MPD2    C514283   0.109   1.793  11.663 -0.2867  0.5197  0.6645
    9MPD2     H14284   4.699   1.778  11.323 -0.7162 -2.5343 -0.7889
    9MPD2    H114285   4.651   1.750  11.732  1.4615 -1.7180  0.9581
    9MPD2    H214286   0.308   1.800  11.572  0.6787 -1.4713 -2.3289
    9MPD2    H314287   0.151   1.799  11.762 -2.0751 -0.2611  1.4862
    9MPD2     N14288   4.531   1.710  11.514 -0.2313  0.0934  0.1453
    9MPD2    H514289   4.486   1.708  11.605  2.0676 -2.8419  1.2052
    9MPD2    N114290   0.240   1.815  11.325  0.0574  0.0031 -0.2897
    9MPD2    H714291   0.335   1.836  11.353 -0.0585 -0.0724  0.1598
    1MPD1     C14292   0.366   0.387  17.566 -0.0495 -1.1399  1.3059
    1MPD1    C114293   0.269   0.472  17.509 -0.9245  0.4087  0.2466
    1MPD1    C214294   0.221   0.438  17.381 -0.4656  0.2097  0.0134
    1MPD1    C314295   0.269   0.323  17.322  0.2425 -0.8792 -0.2674
    1MPD1    C414296   0.343   0.230  17.390  0.0055 -0.1885 -0.0248
    1MPD1    C514297   0.390   0.268  17.512  0.5448 -0.8933  0.4969
    1MPD1     H14298   0.149   0.507  17.338 -0.0304 -0.3634 -1.6533
    1MPD1    H114299   0.365   0.132  17.350 -2.8911 -0.0825 -1.8552
    1MPD1    H214300   0.410   0.412  17.662 -0.2950  0.7646  0.9215
    1MPD1    H314301   0.437   0.192  17.573 -0.3244 -1.3135  0.6439
    1MPD1     N14302   0.229   0.282  17.192 -0.5309  0.1430 -0.5034
    1MPD1    H514303   0.262   0.188  17.169  0.0145 -0.0337  0.9980
    1MPD1    N114304   0.258   0.590  17.571 -0.6796 -0.2440  0.1296
    1MPD1    H614305   0.194   0.658  17.531 -0.9081 -0.1931  0.5882
    1MPD1    H714306   0.253   0.595  17.672  1.0014 -0.5789  0.2314
    2TMC2    C114307   0.109   0.077  16.894  0.0862 -0.1390 -0.6283
    2TMC2    C214308   0.180   0.115  16.781  0.2237 -0.4819  0.8587
    2TMC2    C314309   0.231   0.237  16.769 -0.0012 -0.3929  0.0298
    2TMC2    C414310   0.097   0.162  16.995 -0.2241  0.4545 -0.5101
    2TMC2    C514311   0.139   0.290  16.974  0.1473 -0.2766 -0.4928
    2TMC2    C614312   0.205   0.325  16.864  0.4876  0.7467 -0.2885
    2TMC2     C14313   0.071   4.680  16.902  0.3725 -0.0449 -0.5024
    2TMC2     O14314   0.094   4.621  17.005 -0.1305  0.0112  0.1264
    2TMC2     H14315   0.193   0.043  16.700  0.1440  1.0692 -0.5241
    2TMC2    H114316   0.056   0.128  17.090  0.3785  1.8628  0.2652
    2TMC2    H214317   0.240   0.427  16.855  1.7321  0.3844  0.4663
    2TMC2    C714318   0.172   0.367  17.100  0.3122  0.8760 -0.1420
    2TMC2    C814319   0.289   0.287  16.646 -0.8850  0.0724  0.0893
    2TMC2    O114320   0.173   0.489  17.103 -0.9179 -0.0197  0.2558
    2TMC2    O214321   0.274   0.233  16.538  0.0688 -0.5813  0.5102
    2TMC2    O514322   0.393   0.363  16.683 -0.4851 -0.4140 -0.1933
    2TMC2    H514323   0.413   0.342  16.777 -0.8514 -2.1662 -0.5081
    3MPD1     C14324   4.623   4.252  16.691  0.3647  0.5704 -0.0857
    3MPD1    C114325   4.600   4.357  16.611  0.1561  0.5259 -0.0678
    3MPD1    C214326   4.655   4.480  16.646 -0.3982  0.4976 -0.0758
    3MPD1    C314327   4.715   4.505  16.762 -0.7655 -0.1500 -0.2476
    3MPD1    C414328   4.734   4.398  16.847 -0.2212  0.5528  0.6794
    3MPD1    C514329   4.691   4.273  16.805  0.4997 -0.2311  0.1212
    3MPD1     H14330   4.634   4.563  16.580  0.2895 -0.3114 -1.3356
    3MPD1    H114331   0.047   4.405  16.941  0.6293 -1.0660  0.3062
    3MPD1    H214332   4.595   4.149  16.671  0.2569  0.7132 -0.6620
    3MPD1    H314333   4.710   4.190  16.871  0.3876 -0.9766 -0.7798
    3MPD1     N14334   0.010   4.636  16.788  0.4581  0.5061 -0.1160
    3MPD1    H514335   4.711   4.707  16.728  1.3639  2.1539  1.2175
    3MPD1    N114336   4.538   4.344  16.486  0.5532  0.2216  0.7008
    3MPD1    H614337   4.498   4.430  16.451 -0.5772  0.2589  2.0970
    3MPD1    H714338   4.461   4.278  16.495  0.6435  0.1068  0.6397
    1TMC1    C114339   3.329   4.467  13.530 -0.0440  0.4173 -0.4801
    1TMC1    C214340   3.394   4.537  13.433 -0.1379 -0.3345  0.3214
    1TMC1    C314341   3.346   4.660  13.409  0.8078 -0.4465  0.2814
    1TMC1    C414342   3.199   4.495  13.552  0.1843  0.1714  0.1580
    1TMC1    C514343   3.139   4.603  13.497  0.3927  0.6663 -0.1034
    1TMC1    C614344   3.215   4.689  13.431 -0.3395 -0.4840 -0.7308
    1TMC1     C14345   3.377   4.331  13.545  0.0263  0.5169 -0.3535
    1TMC1     O14346   3.474   4.287  13.486  0.0806 -0.0713  0.0528
    1TMC1     H14347   3.493   4.504  13.404  1.4111  1.9166  3.0838
    1TMC1    H114348   3.140   4.438  13.622  0.1981  0.4152  0.3692
    1TMC1    H214349   3.174   0.042  13.397  1.0818  1.1639  2.1171
    1TMC1    C714350   3.011   4.645  13.559  0.0284  0.0535  0.5559
    1TMC1    C814351   3.410   0.007  13.302 -1.2617 -0.1014 -0.2894
    1TMC1    O114352   3.009   0.015  13.609 -0.6617 -0.0660 -0.2486
    1TMC1    O214353   3.351   0.095  13.247  0.0869 -0.5984  0.3182
    1TMC1    O314354   2.948   4.536  13.608  0.3806 -0.3492 -0.2504
    1TMC1    H314355   2.947   4.462  13.543  0.6056  0.7976 -1.5604
    1TMC1    O514356   3.492   4.659  13.242 -0.3280  0.3272  0.7220
    1TMC1    H514357   3.562   4.624  13.301 -1.4204 -0.5774  1.4885
    2MPD2     C14358   3.417   4.029  13.637  0.0588 -0.3697 -0.2703
    2MPD2    C114359   3.310   4.118  13.663  0.4210  0.1624  0.3435
    2MPD2    C214360   3.197   4.062  13.722 -0.3641  0.5507  0.0384
    2MPD2    C314361   3.181   3.928  13.745 -0.8041  1.2113  0.8231
    2MPD2    C414362   3.281   3.847  13.707 -0.7862 -0.3238 -0.1963
    2MPD2    C514363   3.399   3.895  13.660 -0.0768 -0.1460  0.1786
    2MPD2     H14364   3.112   4.127  13.739 -0.5747  0.1162  0.6610
    2MPD2    H114365   3.271   3.739  13.720  2.5371 -0.6917 -0.6575
    2MPD2    H214366   3.501   4.061  13.576  0.5000 -0.8333  0.0886
    2MPD2    H314367   3.482   3.830  13.638  1.2214  1.3828  0.5818
    2MPD2     N14368   3.050   3.891  13.796 -0.9354 -0.3558 -0.3119
    2MPD2    H514369   2.981   3.964  13.805  1.1394  1.3513  1.8040
    2MPD2    N114370   3.301   4.257  13.631 -0.3640  0.0998 -0.8959
    2MPD2    H714371   3.221   4.309  13.667 -1.1429 -1.8242  0.1641
    3TCq1    O114372   2.552   3.926  14.114  0.0585 -0.3725  0.0856
    3TCq1    C114373   2.608   3.945  13.992  0.4231  0.2975 -0.2212
    3TCq1    O214374   2.621   4.049  13.932 -0.3291  0.0732  0.2244
    3TCq1    C214375   2.703   3.828  13.984  0.8495 -0.6233  0.2349
    3TCq1    C314376   2.641   3.712  13.970 -0.8447  0.9007  0.0588
    3TCq1    C414377   2.703   3.606  13.925 -1.2571  0.0401 -0.1097
    3TCq1    C514378   2.825   3.619  13.867  0.4429  0.3893 -0.2666
    3TCq1    C614379   2.885   3.748  13.875  0.8121  0.0720 -0.1152
    3TCq1    C714380   2.827   3.851  13.941  0.0167 -0.5849 -1.0085
    3TCq1    C814381   3.017   3.762  13.815  0.1710  0.3280  0.1235
    3TCq1    O414382   3.053   3.660  13.757 -0.2029 -0.0096  0.3919
    3TCq1    C914383   2.649   3.470  13.960 -0.6231 -0.0687  0.4343
    3TCq1    O514384   2.729   3.391  14.009 -1.3293  0.3797 -0.0719
    3TCq1    O614385   2.525   3.461  13.965 -0.1727 -0.2202 -0.2731
    3TCq1    H114386   2.539   3.834  14.144  0.8684 -0.0391  1.4410
    3TCq1    H214387   2.541   3.695  14.007 -0.2541 -0.5635  0.9700
    3TCq1    H314388   2.879   3.534  13.827  0.2261  0.2682 -0.3013
    3TCq1    H414389   2.887   3.935  13.974  0.3325 -0.2591 -2.4076
    1MPD2     C14390   2.178   0.185  14.688  0.3198  0.1616  0.8121
    1MPD2    C114391   2.059   0.138  14.745  0.1148 -0.6981 -0.0017
    1MPD2    C214392   1.987   0.042  14.678 -0.0873  0.0866 -0.3793
    1MPD2    C314393   2.041   4.723  14.563 -0.9083  0.0423 -0.2598
    1MPD2    C414394   2.167   0.018  14.515  0.3442  0.3211  0.7192
    1MPD2    C514395   2.231   0.125  14.577 -0.7546 -0.6024 -0.3394
    1MPD2     H14396   1.886   0.015  14.707  0.0742 -0.1991 -0.0797
    1MPD2    H114397   2.217   4.711  14.432 -2.9453  0.6422 -1.4439
    1MPD2    H214398   2.230   0.264  14.742  0.3875 -1.7815  3.5642
    1MPD2    H314399   2.312   0.177  14.527  0.4725 -2.7066 -0.5530
    1MPD2     N14400   1.964   4.618  14.503  0.2576  0.1643 -0.2197
    1MPD2    H514401   1.878   4.591  14.550  1.8283 -0.0385  2.5379
    1MPD2    N114402   2.015   0.204  14.860  0.1582  0.0267 -0.2812
    1MPD2    H714403   2.061   0.289  14.890 -3.6722  1.3356  1.9167
    2TMC3    C114404   1.868   0.253  15.041 -0.2937  0.4893  0.4782
    2TMC3    C214405   1.765   0.202  15.115  0.6399 -0.4717 -0.7044
    2TMC3    C314406   1.637   0.250  15.103 -0.5498 -0.4002  0.1492
    2TMC3    C414407   1.850   0.376  14.981 -0.1338 -0.0996  0.2552
    2TMC3    C514408   1.726   0.431  14.983 -0.0382  0.0337 -0.2096
    2TMC3    C614409   1.620   0.360  15.031  0.1283  1.0909 -0.9061
    2TMC3     C14410   1.910   0.165  14.941  0.1526  0.5688 -0.6585
    2TMC3     O14411   1.849   0.058  14.937 -0.4033 -0.8439  0.5981
    2TMC3     H14412   1.785   0.106  15.163 -0.0540  0.8677  2.2315
    2TMC3    H114413   1.927   0.416  14.916 -0.0487 -0.0477  0.3893
    2TMC3    H214414   1.520   0.402  15.028 -0.3872 -0.2171 -2.0425
    2TMC3    C714415   1.700   0.536  14.887 -0.0078 -0.4270  0.8466
    2TMC3    C814416   1.537   0.156  15.104  0.5448 -0.7019  0.1767
    2TMC3    O114417   1.583   0.553  14.851 -0.0892  0.4941 -0.5533
    2TMC3    O214418   1.426   0.192  15.148  0.0642  0.4079  0.5608
    3TCq1    O114419   2.347   1.472  14.558  0.3592  0.1706 -0.1884
    3TCq1    C114420   2.442   1.417  14.629  0.3826 -1.2445 -0.2869
    3TCq1    O214421   2.546   1.472  14.666  0.4422  0.4423  0.3781
    3TCq1    C214422   2.391   1.292  14.681  0.3871  0.3127 -0.2223
    3TCq1    C314423   2.458   1.236  14.787 -0.0165 -0.1720  0.9774
    3TCq1    C414424   2.404   1.130  14.843 -0.1078 -0.2550 -0.0954
    3TCq1    C514425   2.317   1.056  14.771  0.6315  0.2956  0.0367
    3TCq1    C614426   2.267   1.094  14.647 -0.0259 -0.1890  0.1674
    3TCq1    C714427   2.297   1.220  14.605 -0.0089  0.6850 -0.4108
    3TCq1    C814428   2.140   1.036  14.595  0.2257 -1.4443  0.1470
    3TCq1    O414429   2.088   1.093  14.503 -0.0374 -0.1326  0.2538
    3TCq1    C914430   2.462   1.069  14.960 -0.2590  0.6943 -0.1444
    3TCq1    O514431   2.397   0.978  15.019 -0.0048 -0.0559  0.2287
    3TCq1    O614432   2.565   1.121  15.009 -0.1157  0.8549  0.4597
    3TCq1    H114433   2.260   1.428  14.567  0.3227 -0.2275 -2.4701
    3TCq1    H214434   2.543   1.293  14.824  1.6760 -1.0541 -1.5171
    3TCq1    H314435   2.280   0.964  14.817 -1.1942  0.5260 -0.9530
    3TCq1    H414436   2.263   1.248  14.506  0.9412  1.0591 -0.6290
    4MPD2     C14437   1.886   0.892  14.564  0.1792  0.6170  0.2030
    4MPD2    C114438   1.971   0.867  14.671  0.1623  0.2754 -0.6491
    4MPD2    C214439   1.950   0.769  14.763 -0.1685 -0.1273  0.0789
    4MPD2    C314440   1.830   0.705  14.762 -0.2230 -0.9345 -0.4139
    4MPD2    C414441   1.734   0.733  14.661 -0.8363  0.0046 -0.7704
    4MPD2    C514442   1.764   0.823  14.557  0.3816  0.6094  0.5160
    4MPD2     H14443   2.017   0.745  14.846  1.1956  2.1610 -0.3861
    4MPD2    H114444   1.636   0.688  14.657 -1.2914  0.9963 -0.8033
    4MPD2    H214445   1.914   0.961  14.486  2.3595 -1.3877 -0.7598
    4MPD2    H314446   1.695   0.843  14.476  1.7145 -1.2263 -1.0757
    4MPD2     N14447   1.813   0.610  14.861 -0.2980 -0.0608 -0.2425
    4MPD2    H514448   1.890   0.594  14.926  1.2302 -1.7636 -2.4851
    4MPD2    N114449   2.095   0.939  14.674  0.8244  0.0761  0.4748
    4MPD2    H714450   2.155   0.904  14.747  2.5311  2.4227  0.2007
    5TMC2    C114451   1.714   4.393  14.524  1.1903 -0.1088 -0.1278
    5TMC2    C214452   1.760   4.274  14.579 -0.2397 -0.5197  0.6137
    5TMC2    C314453   1.886   4.235  14.548 -0.5436 -0.3107 -0.7259
    5TMC2    C414454   1.801   4.462  14.437  0.5220 -0.4275  0.2820
    5TMC2    C514455   1.925   4.422  14.411  0.1872  0.1915  0.3830
    5TMC2    C614456   1.975   4.303  14.472  1.1780  1.2576  0.2757
    5TMC2     C14457   1.668   4.486  14.623  0.9176  0.3942 -0.7879
    5TMC2     O14458   1.707   4.601  14.612  0.9033 -0.8241 -0.3018
    5TMC2     H14459   1.692   4.218  14.642 -0.5817  0.3362  1.0052
    5TMC2    H114460   1.758   4.550  14.390  0.5024 -0.9470 -0.6655
    5TMC2    H214461   2.073   4.266  14.445  0.0430 -0.6630 -1.2399
    5TMC2    C714462   2.010   4.533  14.408  0.3971  0.2903  0.3354
    5TMC2    C814463   1.909   4.094  14.571  0.2231  0.0317 -0.2696
    5TMC2    O114464   2.122   4.508  14.366 -0.0171  0.1539  1.0313
    5TMC2    O214465   1.880   4.010  14.491  0.1730 -0.4562  0.3998
    5TMC2    O514466   2.020   4.091  14.642  0.2615  0.1810 -0.1475
    5TMC2    H514467   2.018   4.175  14.692  0.3181  0.8161 -1.2059
    6MPD2     C14468   1.387   4.643  15.014 -0.0728  0.4289  1.1864
    6MPD2    C114469   1.509   4.685  14.964  0.4042 -0.6167 -0.1783
    6MPD2    C214470   1.561   4.620  14.854 -0.5723  0.1524  0.0116
    6MPD2    C314471   1.502   4.509  14.799  0.3154  0.9440  0.1711
    6MPD2    C414472   1.383   4.459  14.858 -0.7094  0.4142 -0.2620
    6MPD2    C514473   1.325   4.532  14.960 -0.0272 -0.4019  0.6857
    6MPD2     H14474   1.655   4.659  14.819  0.2007 -0.8491  0.9736
    6MPD2    H114475   1.328   4.376  14.815  0.8926  0.9290 -3.2795
    6MPD2    H214476   1.347   4.698  15.099 -0.5674  0.7263  0.7575
    6MPD2    H314477   1.235   4.504  15.014 -0.3228  0.6412  0.7228
    6MPD2     N14478   1.560   4.440  14.693 -0.0536  0.1860  0.1291
    6MPD2    H514479   1.512   4.354  14.667 -2.5124  1.5026  0.2690
    6MPD2    N114480   1.577   0.061  15.010  0.3187 -0.3149  0.7523
    6MPD2    H714481   1.670   0.078  14.974  0.6387 -0.1887  1.6551
  945NH3     N114482   0.573   3.172  17.568 -0.3185 -0.3972  0.0706
  945NH3     H214483   0.535   3.078  17.562  0.0134 -0.5498  0.3764
  945NH3     H314484   0.664   3.168  17.523  1.0673  0.3947  2.7954
  945NH3     H414485   0.567   3.197  17.666 -2.5842 -0.0907 -0.1347
  946SOD     NA14486   4.133   1.315  14.528 -0.3539  0.4532 -0.0468
  947SOD     NA14487   3.065   0.159  11.214 -0.3733  0.6167 -0.4689
  948SOD     NA14488   2.275   1.264   0.566 -0.0715 -0.0284  0.3666
  949SOD     NA14489   3.478   1.966  11.064 -0.2195  0.5488 -0.0032
  950SOD     NA14490   3.269   4.501   5.772 -0.0187 -0.0308 -0.2440
  951SOD     NA14491   0.309   4.037   8.610 -0.1425  0.6860 -0.0544
  952SOD     NA14492   2.173   4.146  15.108  0.1721 -0.0735  0.5178
  953SOD     NA14493   3.678   2.519  17.309 -0.0302 -0.3470  0.4926
  954SOL     OW14494   2.150   4.156  12.810 -0.4015  0.1952 -0.4540
  954SOL    HW114495   2.098   4.105  12.748 -0.5630 -0.7148  0.4172
  954SOL    HW214496   2.231   4.156  12.760  0.8710 -1.9064  1.6053
  955SOL     OW14497   1.940   2.718   8.191 -0.3367  0.8680 -0.2348
  955SOL    HW114498   1.928   2.697   8.284  2.3625 -1.3512 -0.3553
  955SOL    HW214499   1.877   2.788   8.178 -0.3140  0.7040 -1.2016
  956SOL     OW14500   2.992   3.734   4.013  0.0491  0.0955  0.2100
  956SOL    HW114501   2.900   3.723   3.992  0.0427 -1.0524  0.8530
  956SOL    HW214502   3.010   3.690   4.096 -1.6493 -0.0445  0.4899
  957SOL     OW14503   2.333   3.898   7.959  0.5903 -0.1712 -0.2576
  957SOL    HW114504   2.406   3.953   7.988  1.0510 -2.3987  2.8450
  957SOL    HW214505   2.385   3.840   7.903  0.4662  0.0419 -0.5923
  958SOL     OW14506   3.792   0.742  13.562 -0.4500  0.3397  0.1566
  958SOL    HW114507   3.775   0.652  13.534 -1.4383 -0.2337  2.5767
  958SOL    HW214508   3.733   0.786  13.501  0.9349  1.0102 -0.6778
  959SOL     OW14509   3.048   4.172  12.162  0.2285 -0.1828  0.8520
  959SOL    HW114510   3.064   4.104  12.097 -0.2166  0.0816  0.4609
  959SOL    HW214511   2.958   4.176  12.196 -1.7037 -1.1810 -3.9817
  960SOL     OW14512   0.599   3.353   8.461 -0.5126  0.6522 -0.5284
  960SOL    HW114513   0.540   3.304   8.518  2.5514 -0.9484  1.2819
  960SOL    HW214514   0.558   3.379   8.379 -0.5592 -1.2885 -1.1207
  961SOL     OW14515   2.571   0.573  15.484  0.2104 -0.0446  0.5877
  961SOL    HW114516   2.662   0.592  15.458  0.1060 -1.3836 -0.8147
  961SOL    HW214517   2.548   0.662  15.510  0.3030  0.8437 -2.3123
  962SOL     OW14518   4.253   4.298   5.043 -0.4517  0.3216  0.3431
  962SOL    HW114519   4.179   4.251   5.005 -0.7732  2.3065 -1.4316
  962SOL    HW214520   4.318   4.232   5.016 -0.2544  0.4591  0.4844
  963SOL     OW14521   2.918   2.484   2.614 -0.7176  0.7728  0.3279
  963SOL    HW114522   2.986   2.421   2.636 -0.2633  0.4718 -1.8484
  963SOL    HW214523   2.878   2.431   2.545 -0.5839  0.9230  0.1310
  964SOL     OW14524   2.370   0.179   0.661 -0.4725 -0.0651 -0.4093
  964SOL    HW114525   2.385   0.242   0.590  3.2544 -0.5336 -0.0346
  964SOL    HW214526   2.456   0.172   0.703 -0.3658 -1.3191 -0.8238
  965SOL     OW14527   3.235   3.376  12.727 -0.0763 -0.4199 -0.7178
  965SOL    HW114528   3.230   3.401  12.819  1.2959 -1.5456 -0.3565
  965SOL    HW214529   3.284   3.294  12.731  0.3299 -0.1013  0.9705
  966SOL     OW14530   3.005   0.184   8.819 -0.2591  0.0361  0.0070
  966SOL    HW114531   3.100   0.178   8.810 -0.1731 -0.0703  0.9139
  966SOL    HW214532   2.992   0.091   8.842  1.5656 -0.6364 -1.6819
  967SOL     OW14533   2.688   3.154  14.077  0.5377  0.0884  0.0849
  967SOL    HW114534   2.716   3.239  14.042 -1.2440 -0.2725 -2.2627
  967SOL    HW214535   2.632   3.193  14.144 -0.3933 -2.4977  0.7959
  968SOL     OW14536   4.051   3.048  11.994 -0.1993  0.4523 -0.8144
  968SOL    HW114537   4.033   3.095  12.076 -2.8332  0.1280 -1.2231
  968SOL    HW214538   3.969   3.001  11.986  0.3546 -0.5402 -0.6644
  969SOL     OW14539   3.488   0.513   4.527 -0.2255  0.1569  0.3571
  969SOL    HW114540   3.425   0.441   4.527  0.3281 -0.3214 -0.3676
  969SOL    HW214541   3.572   0.472   4.547  0.1893  0.2428 -1.1789
  970SOL     OW14542   0.551   3.586   3.535  0.8032 -0.1590  0.3800
  970SOL    HW114543   0.557   3.681   3.533 -0.5765 -0.1018 -2.5457
  970SOL    HW214544   0.467   3.569   3.579 -0.5229  2.0772 -1.3126
  971SOL     OW14545   4.708   2.052   8.904 -0.3212 -0.0253  0.0699
  971SOL    HW114546   4.711   2.002   8.822  2.2868 -1.4000  1.0342
  971SOL    HW214547   0.061   2.060   8.913  0.0102 -1.3990 -2.1312
  972SOL     OW14548   0.649   1.400   2.952  0.2288 -0.0520  0.7483
  972SOL    HW114549   0.713   1.344   2.909  1.5978  1.8677  0.2667
  972SOL    HW214550   0.574   1.341   2.944  1.2490 -1.4007  1.0844
  973SOL     OW14551   1.322   1.925   2.211  0.0404 -0.4747  0.7085
  973SOL    HW114552   1.276   2.009   2.210  0.7668 -0.0851  0.3690
  973SOL    HW214553   1.400   1.963   2.171 -0.3819 -0.2506  0.1038
  974SOL     OW14554   2.373   1.699   1.551  0.0099  0.4261 -0.3909
  974SOL    HW114555   2.286   1.721   1.586  0.1376 -1.3319  1.0236
  974SOL    HW214556   2.431   1.732   1.620 -2.0003  1.0109  1.0217
  975SOL     OW14557   2.857   1.177   7.460 -0.0391 -0.0178  0.3090
  975SOL    HW114558   2.937   1.228   7.454  0.8139 -1.3770  0.1341
  975SOL    HW214559   2.897   1.090   7.466  0.0520  0.1259  1.8658
  976SOL     OW14560   3.008   2.385   9.091 -0.2952 -0.2367  0.2076
  976SOL    HW114561   2.940   2.323   9.116  0.6369 -1.3290  0.0197
  976SOL    HW214562   2.987   2.396   8.998  0.5322 -0.8813 -0.0514
  977SOL     OW14563   2.909   1.026   4.110  0.0187 -0.1541 -0.7662
  977SOL    HW114564   2.991   1.069   4.133 -0.3783  0.5919 -0.7515
  977SOL    HW214565   2.944   0.960   4.051 -1.1073 -0.5746 -0.9639
  978SOL     OW14566   0.453   0.495   3.976  0.1761  0.3104 -0.7486
  978SOL    HW114567   0.477   0.445   4.055 -0.2910  0.0379 -0.7799
  978SOL    HW214568   0.490   0.580   4.000  0.8198 -0.1118 -0.2148
  979SOL     OW14569   3.551   4.548   7.398 -0.3375 -0.5866 -0.0561
  979SOL    HW114570   3.600   4.626   7.424  1.8624 -1.8628 -0.3399
  979SOL    HW214571   3.569   4.495   7.475 -1.4081  1.3610  1.5072
  980SOL     OW14572   2.827   0.922   6.471  0.2327  0.5385  0.0027
  980SOL    HW114573   2.813   0.909   6.564 -0.1845 -1.2515 -0.3176
  980SOL    HW214574   2.740   0.923   6.431  1.6195 -0.0524 -3.0546
  981SOL     OW14575   0.457   3.756   9.040  0.5501  0.5610  0.3104
  981SOL    HW114576   0.516   3.745   9.115  0.8140 -0.6094 -0.0726
  981SOL    HW214577   0.371   3.762   9.080  1.0048  0.4058  1.3085
  982SOL     OW14578   2.660   0.792   3.266  0.0417 -0.0779 -0.3777
  982SOL    HW114579   2.735   0.749   3.307  0.5551 -0.8169 -2.0647
  982SOL    HW214580   2.584   0.736   3.282 -1.1432  1.3916 -0.8686
  983SOL     OW14581   1.009   3.024  11.408  0.2801 -0.5301 -0.0889
  983SOL    HW114582   1.052   3.018  11.323  1.9700 -1.1487  0.8028
  983SOL    HW214583   1.065   2.972  11.465  0.4648 -0.1814  0.0448
  984SOL     OW14584   2.246   2.385  17.261 -0.5082 -0.3755  0.1547
  984SOL    HW114585   2.297   2.305  17.255 -0.7799 -0.5343 -0.0407
  984SOL    HW214586   2.201   2.384  17.176 -0.9392 -0.1648  0.3849
  985SOL     OW14587   1.320   3.582   3.207 -0.2527  0.2496  0.1219
  985SOL    HW114588   1.272   3.650   3.160  0.9441  0.2606 -1.0814
  985SOL    HW214589   1.393   3.558   3.150  0.8580  0.4462  1.4297
  986SOL     OW14590   4.648   1.653   6.441  0.4168  0.0498  0.2436
  986SOL    HW114591   4.644   1.734   6.390  1.1296 -0.1536 -0.1297
  986SOL    HW214592   4.733   1.662   6.485  0.7999 -0.4099 -0.3990
  987SOL     OW14593   0.570   4.682   5.480  0.1870  0.2640  0.7941
  987SOL    HW114594   0.543   4.615   5.417  0.0829  2.4328 -1.4734
  987SOL    HW214595   0.492   4.737   5.481 -0.7752 -1.0971  0.1324
  988SOL     OW14596   3.323   4.141   4.763  0.3420  0.3385  0.1915
  988SOL    HW114597   3.335   4.072   4.699 -0.9888  0.7787 -0.5286
  988SOL    HW214598   3.346   4.220   4.714  0.5992  1.0542  1.4597
  989SOL     OW14599   4.594   0.599   6.212 -0.2146 -0.2681 -0.2126
  989SOL    HW114600   4.554   0.599   6.125 -0.3416 -0.9885 -0.1544
  989SOL    HW214601   4.685   0.591   6.184 -0.0179 -0.1114  0.3817
  990SOL     OW14602   0.528   0.960  12.719 -0.1169  0.3185 -0.4308
  990SOL    HW114603   0.519   1.053  12.695 -0.8784 -0.2639 -2.3903
  990SOL    HW214604   0.491   0.964  12.807  2.2702  1.1529  0.5434
  991SOL     OW14605   0.049   1.789  16.658  0.0025  0.0669  0.8874
  991SOL    HW114606   0.126   1.805  16.712  1.5756 -0.9454 -1.0837
  991SOL    HW214607   0.080   1.711  16.612 -0.0870 -0.7672  2.2367
  992SOL     OW14608   0.210   4.255   2.895  0.3516 -0.4592 -0.0306
  992SOL    HW114609   0.139   4.253   2.832 -0.1105 -2.7108  0.5722
  992SOL    HW214610   0.174   4.202   2.966 -0.2922  0.9484  0.6867
  993SOL     OW14611   2.305   1.995  14.164 -0.4001  0.0606 -0.3956
  993SOL    HW114612   2.305   1.965  14.073  0.7531 -1.6114  0.1640
  993SOL    HW214613   2.375   1.938  14.194  1.1631  2.5705  0.6565
  994SOL     OW14614   1.964   2.569   4.446 -0.1762  0.6326 -0.5128
  994SOL    HW114615   1.950   2.647   4.500  0.2899 -0.0652  0.5998
  994SOL    HW214616   2.052   2.544   4.473 -0.5150  0.5871  0.5244
  995SOL     OW14617   4.594   4.239   9.211 -0.0661 -0.1109 -0.1606
  995SOL    HW114618   4.627   4.211   9.125 -0.6906 -0.4934 -0.2747
  995SOL    HW214619   4.552   4.325   9.202 -2.4324 -1.0238  2.3436
  996SOL     OW14620   1.643   4.457   2.044  0.1497 -0.2675  0.3504
  996SOL    HW114621   1.573   4.392   2.055 -0.6797  0.4919 -0.4002
  996SOL    HW214622   1.676   4.444   1.955  1.7382 -0.3055  0.9445
  997SOL     OW14623   0.647   4.403   2.092 -0.0720 -1.0681  0.1777
  997SOL    HW114624   0.630   4.426   2.184  0.2960 -0.6298  0.1346
  997SOL    HW214625   0.741   4.415   2.081 -0.3205  0.2270 -0.4639
  998SOL     OW14626   2.879   4.269  10.022 -0.2677  0.2537  0.0136
  998SOL    HW114627   2.930   4.338  10.064 -2.1603  1.8641 -0.3365
  998SOL    HW214628   2.934   4.249   9.947 -1.6563 -0.3205 -0.8573
  999SOL     OW14629   4.407   4.707  13.515 -0.2205  0.1563  0.0465
  999SOL    HW114630   4.491   4.700  13.470  0.3622  1.7933  0.8659
  999SOL    HW214631   4.408   4.630  13.572 -0.3780  0.9657  1.1486
 1000SOL     OW14632   3.580   4.269   4.595 -0.6891  0.1032 -0.3547
 1000SOL    HW114633   3.637   4.331   4.549 -0.4211 -0.4550 -0.7790
 1000SOL    HW214634   3.506   4.328   4.606 -1.2985 -0.4972 -1.1973
 1001SOL     OW14635   1.271   1.034   8.253 -0.5563 -0.3571  0.2600
 1001SOL    HW114636   1.320   1.016   8.173  0.6270 -0.4321  1.0007
 1001SOL    HW214637   1.344   1.024   8.314 -0.3996  0.5559  0.2268
 1002SOL     OW14638   1.435   4.010   7.131  0.1530  0.6835  0.4503
 1002SOL    HW114639   1.467   3.922   7.149 -1.1630  0.1917  0.4088
 1002SOL    HW214640   1.467   4.014   7.041 -0.3287  0.0869  0.2495
 1003SOL     OW14641   1.135   2.229  15.008  0.3483 -0.2225 -0.4154
 1003SOL    HW114642   1.072   2.186  14.951  0.8077 -0.4191 -0.7724
 1003SOL    HW214643   1.167   2.147  15.048 -0.9414  0.6290  2.3898
 1004SOL     OW14644   2.119   0.536   6.236 -0.1938 -0.3691  0.2620
 1004SOL    HW114645   2.081   0.607   6.184  1.3379 -1.7491 -2.7938
 1004SOL    HW214646   2.126   0.576   6.322  0.3746  1.0913 -0.4625
 1005SOL     OW14647   1.974   2.880  13.970 -0.3740  0.1928 -0.0716
 1005SOL    HW114648   1.978   2.886  14.066  0.9319 -0.8325 -0.0546
 1005SOL    HW214649   2.024   2.798  13.960  0.1387  0.4106  0.7386
 1006SOL     OW14650   0.034   0.405   7.141 -0.0461 -0.3928 -0.0543
 1006SOL    HW114651   4.684   0.394   7.114  0.4070  0.2216 -1.7865
 1006SOL    HW214652   0.022   0.473   7.207 -0.4251  0.7522 -1.3113
 1007SOL     OW14653   4.185   3.699   4.074  0.0071  0.3299  0.7969
 1007SOL    HW114654   4.231   3.616   4.061 -5.7025 -2.6997  0.0442
 1007SOL    HW214655   4.208   3.747   3.995 -1.4639 -0.8787 -0.3516
 1008SOL     OW14656   1.060   0.034   2.080  0.3322  0.1488 -0.0708
 1008SOL    HW114657   0.975   0.030   2.125 -1.2755  0.0033 -3.0513
 1008SOL    HW214658   1.090   4.685   2.082  0.1578  0.1376  1.5213
 1009SOL     OW14659   2.390   0.836   1.084  0.9529 -0.6296 -0.4967
 1009SOL    HW114660   2.305   0.817   1.045 -0.0630 -0.1774  1.5248
 1009SOL    HW214661   2.422   0.906   1.026 -0.9574  0.3955 -0.3110
 1010SOL     OW14662   1.510   0.456   9.658 -0.4743  0.1767 -0.2629
 1010SOL    HW114663   1.454   0.411   9.594  0.1106  4.0191 -3.4780
 1010SOL    HW214664   1.477   0.409   9.734  0.1647  0.1971  0.0269
 1011SOL     OW14665   2.843   1.755   8.847  0.1959  0.2965 -0.0914
 1011SOL    HW114666   2.882   1.842   8.846  1.1765 -0.1126  1.8324
 1011SOL    HW214667   2.888   1.705   8.779  2.2239  0.0764  1.4127
 1012SOL     OW14668   2.495   0.828  14.534  0.0207  0.3544 -0.5940
 1012SOL    HW114669   2.572   0.830  14.590 -0.0071 -1.4006 -0.4797
 1012SOL    HW214670   2.495   0.914  14.493  0.5780  0.1583 -1.0006
 1013SOL     OW14671   1.357   3.050   8.249 -0.3932  0.1184  0.0593
 1013SOL    HW114672   1.269   3.052   8.211 -0.0942 -0.4565 -0.6541
 1013SOL    HW214673   1.385   3.130   8.204  2.0648 -0.5079  0.4945
 1014SOL     OW14674   1.138   2.864  11.583 -0.1582 -0.4162  0.0469
 1014SOL    HW114675   1.203   2.816  11.634  0.0199  0.0644  0.2693
 1014SOL    HW214676   1.060   2.814  11.609 -0.1932  0.9488  2.6003
 1015SOL     OW14677   4.416   2.292   5.335  0.4186  0.1793 -0.0523
 1015SOL    HW114678   4.374   2.242   5.265  0.3628  0.1168  0.0259
 1015SOL    HW214679   4.461   2.221   5.381 -1.2637 -1.3426 -0.7697
 1016SOL     OW14680   2.711   2.583   6.359 -0.4698  0.6818 -0.3196
 1016SOL    HW114681   2.656   2.659   6.339 -0.6013  0.6916  0.0978
 1016SOL    HW214682   2.695   2.525   6.284  1.0225 -0.0210 -0.1072
 1017SOL     OW14683   4.729   0.570  16.665  0.3858  0.5816 -0.2666
 1017SOL    HW114684   0.029   0.536  16.586  0.8837 -0.8394  0.5991
 1017SOL    HW214685   4.665   0.501  16.679  1.2310  0.0665  1.0375
 1018SOL     OW14686   3.574   0.274   9.683  0.6852  0.5678  0.1608
 1018SOL    HW114687   3.517   0.236   9.750  1.3259  0.0055  0.3771
 1018SOL    HW214688   3.617   0.194   9.653  2.4427  1.4785  0.2701
 1019SOL     OW14689   3.863   2.972  12.275 -0.4946  0.2766  0.4661
 1019SOL    HW114690   3.955   2.992  12.258 -0.5730  0.6335  0.4655
 1019SOL    HW214691   3.881   2.920  12.354 -2.8910 -2.7999 -1.0196
 1020SOL     OW14692   2.241   2.122   7.450 -0.1032  0.2063 -0.2521
 1020SOL    HW114693   2.222   2.204   7.405  2.9831  0.1705 -1.6232
 1020SOL    HW214694   2.201   2.050   7.400 -0.7248  1.9383 -2.2664
 1021SOL     OW14695   4.562   1.871   7.569 -0.5810  0.3216 -0.4825
 1021SOL    HW114696   4.629   1.912   7.623  0.9981 -1.0670 -1.3911
 1021SOL    HW214697   4.524   1.799   7.620  2.0971  0.5055  1.8034
 1022SOL     OW14698   3.930   2.249   4.871 -0.3913  0.0080 -0.0746
 1022SOL    HW114699   3.917   2.226   4.779 -0.0698  0.7731 -0.3081
 1022SOL    HW214700   4.025   2.237   4.873 -0.6289 -2.0510 -1.1563
 1023SOL     OW14701   3.835   2.160   8.487 -0.4531 -0.1122  0.6758
 1023SOL    HW114702   3.780   2.224   8.442  1.2035  0.6072 -0.3311
 1023SOL    HW214703   3.912   2.155   8.430 -0.0677  0.3252  1.1648
 1024SOL     OW14704   2.268   1.855   0.487 -0.3909 -0.0614  0.2334
 1024SOL    HW114705   2.188   1.802   0.494 -1.9654  2.3281  0.4724
 1024SOL    HW214706   2.238   1.938   0.452 -0.9100 -0.0133  0.7838
 1025SOL     OW14707   0.427   3.551   8.235 -0.0047  0.7012 -0.2068
 1025SOL    HW114708   0.473   3.634   8.232  0.5757  0.4184  1.0047
 1025SOL    HW214709   0.339   3.586   8.251  0.3421  0.4176  2.2497
 1026SOL     OW14710   4.583   0.828   2.469 -0.7214  0.5009 -0.2346
 1026SOL    HW114711   4.659   0.829   2.528 -1.2323 -0.1254  0.4322
 1026SOL    HW214712   4.517   0.782   2.520 -1.9528  1.9569 -0.5214
 1027SOL     OW14713   1.323   1.738   1.956  0.5117  0.2364  0.1878
 1027SOL    HW114714   1.355   1.812   2.008  0.9659 -0.4644  0.9050
 1027SOL    HW214715   1.258   1.774   1.896  1.6420  3.3867  0.8386
 1028SOL     OW14716   3.510   2.223  10.671 -0.4256  0.2902 -0.1345
 1028SOL    HW114717   3.580   2.287  10.666 -0.8642  0.8302  0.7054
 1028SOL    HW214718   3.463   2.244  10.752  1.1003 -0.3003  0.9116
 1029SOL     OW14719   2.755   0.982  12.019  0.4992  0.4642  0.6825
 1029SOL    HW114720   2.745   1.023  12.105  2.1869 -0.5595  1.3662
 1029SOL    HW214721   2.787   0.897  12.050  2.1249  0.9955  0.4360
 1030SOL     OW14722   0.547   1.504  15.514  0.2186  0.3308 -0.5717
 1030SOL    HW114723   0.526   1.591  15.548 -0.9568 -0.2296  0.0960
 1030SOL    HW214724   0.637   1.498  15.548 -0.4178 -0.8494  0.8780
 1031SOL     OW14725   2.561   1.991  15.987  0.1221  0.1341  0.4197
 1031SOL    HW114726   2.509   2.071  15.986 -1.0071 -0.6474 -2.1301
 1031SOL    HW214727   2.533   1.945  15.908  1.5564  0.6491 -0.3812
 1032SOL     OW14728   1.728   2.416   6.589 -0.3842  0.4982 -0.5894
 1032SOL    HW114729   1.805   2.410   6.532 -0.0447  0.1226 -0.0913
 1032SOL    HW214730   1.660   2.429   6.522 -2.8306  0.6082  1.9286
 1033SOL     OW14731   0.547   0.895   7.451  0.2977 -0.2929 -0.3972
 1033SOL    HW114732   0.591   0.938   7.523 -0.9803 -2.2929  1.6045
 1033SOL    HW214733   0.611   0.912   7.383  0.9188  1.4264  0.6439
 1034SOL     OW14734   0.112   0.071  14.682 -0.2749  0.6389  0.2720
 1034SOL    HW114735   0.175   0.143  14.674  0.8541  0.0373  4.0558
 1034SOL    HW214736   0.174   0.008  14.719 -0.1463 -0.5797 -2.0259
 1035SOL     OW14737   4.103   0.756  11.765 -0.3244  0.9499 -0.6253
 1035SOL    HW114738   4.081   0.679  11.817  2.2014  0.2658 -0.5389
 1035SOL    HW214739   4.164   0.715  11.704 -0.4595  2.5793 -1.8439
 1036SOL     OW14740   3.375   0.262   3.931  0.4039  0.7404  0.1438
 1036SOL    HW114741   3.357   0.336   3.873  1.2490  2.3612  1.9418
 1036SOL    HW214742   3.437   0.212   3.877 -0.5840 -0.8542  0.4752
 1037SOL     OW14743   3.427   2.662   6.300 -0.1033  0.0658  0.5537
 1037SOL    HW114744   3.368   2.630   6.368 -1.7844  0.9353 -0.4910
 1037SOL    HW214745   3.496   2.714   6.341 -0.4231  0.5805  0.4373
 1038SOL     OW14746   1.784   0.709   5.794  0.8605  0.4435  0.1471
 1038SOL    HW114747   1.813   0.627   5.833  1.9970  0.7755  0.0085
 1038SOL    HW214748   1.810   0.706   5.702 -0.1036 -3.4888  0.0232
 1039SOL     OW14749   3.972   1.318   8.558 -0.0312  0.5034  0.1829
 1039SOL    HW114750   3.917   1.249   8.595  1.0671  0.4303  1.6773
 1039SOL    HW214751   4.012   1.277   8.482 -2.9458  1.9398 -2.1307
 1040SOL     OW14752   2.258   2.015  17.533 -0.2065  0.3515 -0.3499
 1040SOL    HW114753   2.208   2.016  17.451 -0.4398 -1.1918 -0.2245
 1040SOL    HW214754   2.237   1.927  17.563  1.8946  0.2628  0.8444
 1041SOL     OW14755   3.893   0.256   6.348  0.6166  0.6301  0.1425
 1041SOL    HW114756   3.852   0.178   6.385 -1.2470  0.0184 -3.1710
 1041SOL    HW214757   3.823   0.302   6.302 -0.0277 -1.6791 -1.1844
 1042SOL     OW14758   4.678   4.666   6.671 -0.0322  0.0938  0.4617
 1042SOL    HW114759   4.610   4.631   6.729  2.7107  0.1898  3.7064
 1042SOL    HW214760   4.638   4.735   6.618 -0.3960 -0.0863  0.5006
 1043SOL     OW14761   1.037   2.846   7.328  0.7284  0.1917 -0.5609
 1043SOL    HW114762   0.945   2.871   7.318  1.1657  1.0033 -2.6315
 1043SOL    HW214763   1.031   2.779   7.396  1.9876  0.0595 -0.5678
 1044SOL     OW14764   3.912   2.428   6.661  0.2323  0.5825  0.6382
 1044SOL    HW114765   3.858   2.349   6.659 -0.3480  0.9570  1.3078
 1044SOL    HW214766   3.979   2.408   6.597 -0.3778 -0.1030  0.2235
 1045SOL     OW14767   2.951   2.648   9.138  0.2639 -0.5741  0.4194
 1045SOL    HW114768   2.985   2.558   9.145  0.6181 -0.6325 -2.1067
 1045SOL    HW214769   3.019   2.697   9.185  0.4782 -0.1761 -0.3156
 1046SOL     OW14770   0.426   2.439   1.376  0.1555 -0.7334 -0.0838
 1046SOL    HW114771   0.435   2.411   1.467 -0.1901 -2.1244 -0.4846
 1046SOL    HW214772   0.516   2.442   1.343 -0.0918  0.7783 -0.6325
 1047SOL     OW14773   2.529   4.151   8.970  0.5090  0.4872  0.2037
 1047SOL    HW114774   2.515   4.226   8.912  1.6489  2.0424  1.9602
 1047SOL    HW214775   2.550   4.078   8.912 -2.6752  0.5260 -1.0137
 1048SOL     OW14776   0.580   3.963   9.896  0.0393  0.3488  0.1318
 1048SOL    HW114777   0.598   4.056   9.882 -0.5687  0.4151 -0.2409
 1048SOL    HW214778   0.540   3.972   9.983 -0.5262  3.3836 -0.4413
 1049SOL     OW14779   0.777   2.157  10.353  0.2360 -0.5917  0.0216
 1049SOL    HW114780   0.809   2.230  10.406 -0.5030 -0.9039  0.9088
 1049SOL    HW214781   0.703   2.124  10.405 -1.2976  1.2081 -1.0490
 1050SOL     OW14782   3.355   2.484   9.226 -0.2650 -0.4577  0.2237
 1050SOL    HW114783   3.295   2.543   9.180  1.4648  1.5919  0.6171
 1050SOL    HW214784   3.313   2.480   9.312 -0.5883 -0.6565  0.0586
 1051SOL     OW14785   4.066   1.663   2.934  0.2322  0.0976 -0.5396
 1051SOL    HW114786   4.129   1.593   2.952 -0.5067 -0.4232  0.0312
 1051SOL    HW214787   4.052   1.698   3.021 -2.7271  1.3424 -1.4985
 1052SOL     OW14788   3.419   3.036   3.172 -0.0821 -0.5779  0.5498
 1052SOL    HW114789   3.488   3.080   3.122 -2.2679  1.3315 -0.7931
 1052SOL    HW214790   3.356   2.997   3.112  1.3382  0.7210 -1.7908
 1053SOL     OW14791   0.644   3.939   8.900  0.7489 -0.5043 -0.2144
 1053SOL    HW114792   0.677   3.950   8.990  0.7684  3.1798 -0.6742
 1053SOL    HW214793   0.585   3.864   8.911  1.1733 -0.5969  1.4453
 1054SOL     OW14794   0.530   3.423  13.058 -0.1795 -0.4447  0.5425
 1054SOL    HW114795   0.616   3.464  13.066 -0.5680  0.2531  1.1472
 1054SOL    HW214796   0.533   3.395  12.967  0.2597  0.6390  0.2354
 1055SOL     OW14797   3.706   1.057   2.702  0.2464 -0.5262  0.4705
 1055SOL    HW114798   3.703   1.019   2.614  2.4663  0.4086 -0.0179
 1055SOL    HW214799   3.639   1.125   2.703 -1.4459 -2.2036  1.6485
 1056SOL     OW14800   3.677   0.228   8.850 -0.2293  0.1710 -0.5220
 1056SOL    HW114801   3.688   0.197   8.940 -0.5912 -1.5673 -1.0720
 1056SOL    HW214802   3.654   0.320   8.861 -1.6372 -0.2210 -0.1829
 1057SOL     OW14803   2.694   3.835   3.381  0.7956  0.3630 -0.0991
 1057SOL    HW114804   2.678   3.820   3.474  0.0442  0.3376 -0.2363
 1057SOL    HW214805   2.676   3.747   3.349  0.3548  0.1678  0.6664
 1058SOL     OW14806   2.821   0.634   0.158 -0.0376 -0.6021 -0.3201
 1058SOL    HW114807   2.795   0.597   0.242 -2.1888 -1.4589 -1.3568
 1058SOL    HW214808   2.912   0.663   0.165 -0.1647 -0.2627 -0.0512
 1059SOL     OW14809   2.321   2.422   8.527 -0.3417  0.2125  0.1734
 1059SOL    HW114810   2.304   2.329   8.515  0.3222  0.1434 -0.2322
 1059SOL    HW214811   2.252   2.464   8.476 -0.7359  0.1407  0.6477
 1060SOL     OW14812   2.765   0.700   2.372 -0.5577 -0.3618  0.1211
 1060SOL    HW114813   2.845   0.723   2.325 -0.7736  0.9959  0.4067
 1060SOL    HW214814   2.814   0.651   2.438  0.3257  1.2567  0.6797
 1061SOL     OW14815   2.669   4.620   6.059  0.3505 -0.0074 -0.4950
 1061SOL    HW114816   2.615   4.563   6.113  0.8525 -0.1428 -0.1343
 1061SOL    HW214817   2.666   4.703   6.107  2.9924  0.5730 -1.3227
 1062SOL     OW14818   0.194   3.932   6.572 -0.4535  0.3552 -0.0389
 1062SOL    HW114819   0.149   3.848   6.577  0.8674 -0.1515  3.4806
 1062SOL    HW214820   0.127   3.995   6.546 -2.6266 -1.8300  0.2654
 1063SOL     OW14821   3.218   0.508   1.409  0.1496  0.2148  0.2090
 1063SOL    HW114822   3.297   0.480   1.363  0.0923  0.0120  0.2351
 1063SOL    HW214823   3.216   0.448   1.483 -3.7480 -1.8917 -1.6086
 1064SOL     OW14824   3.171   3.205   7.733  0.1703  0.3360  0.4412
 1064SOL    HW114825   3.186   3.279   7.792  0.9936  1.1879 -0.8258
 1064SOL    HW214826   3.259   3.175   7.712  0.0764  1.0624 -1.0724
 1065SOL     OW14827   4.196   2.359   3.273  0.1547  0.0768 -0.0240
 1065SOL    HW114828   4.108   2.360   3.234  0.6416  0.2843 -1.1271
 1065SOL    HW214829   4.179   2.416   3.348  3.6065  1.9213 -0.6844
 1066SOL     OW14830   2.338   0.052   3.436  0.0476  0.5141  0.4299
 1066SOL    HW114831   2.372   4.739   3.507 -0.1114 -0.3540 -0.1677
 1066SOL    HW214832   2.253   0.071   3.475 -0.5523  0.0210 -0.6312
 1067SOL     OW14833   1.068   2.756  12.713 -0.0957  0.1001  0.0180
 1067SOL    HW114834   0.995   2.723  12.765  0.1743  0.6607  0.7394
 1067SOL    HW214835   1.093   2.676  12.665 -2.6276 -0.4254 -0.4161
 1068SOL     OW14836   1.397   1.263   0.443 -0.2055 -0.3730 -0.1137
 1068SOL    HW114837   1.345   1.342   0.446 -0.1342 -0.3827  1.1058
 1068SOL    HW214838   1.337   1.193   0.415 -0.4774 -1.2169  2.6001
 1069SOL     OW14839   0.771   0.883   7.199  0.1394  0.3890 -0.1086
 1069SOL    HW114840   0.777   0.801   7.151  1.2410 -0.1508  0.9331
 1069SOL    HW214841   0.823   0.937   7.139  2.6351  1.2422  2.8011
 1070SOL     OW14842   4.632   3.140  15.540 -0.1831  0.2269 -0.1997
 1070SOL    HW114843   4.576   3.176  15.609  0.0297 -2.3670  1.3321
 1070SOL    HW214844   4.705   3.098  15.585 -1.2243 -0.6383  0.6873
 1071SOL     OW14845   0.479   4.615   8.317  1.2724 -0.1900 -0.1601
 1071SOL    HW114846   0.562   4.583   8.350  1.7111 -0.4052 -1.4706
 1071SOL    HW214847   0.434   4.644   8.397  4.0504  2.1574  0.5437
 1072SOL     OW14848   1.181   1.142   1.822  0.3997  0.4850 -0.1268
 1072SOL    HW114849   1.107   1.186   1.864 -1.2390 -2.4937  0.1029
 1072SOL    HW214850   1.177   1.180   1.734 -1.6604  0.4210 -0.0741
 1073SOL     OW14851   0.942   0.437   2.120 -0.3071 -0.2806 -0.7264
 1073SOL    HW114852   1.000   0.501   2.078  1.7025 -1.1724  0.7419
 1073SOL    HW214853   0.930   0.475   2.206 -0.4830  1.1855 -1.3918
 1074SOL     OW14854   2.603   0.272   3.462 -0.0538  0.1474  0.7945
 1074SOL    HW114855   2.569   0.258   3.374  1.2492 -1.5752  0.5647
 1074SOL    HW214856   2.570   0.360   3.480  0.1279 -0.0572  2.1260
 1075SOL     OW14857   2.285   1.079   0.699  0.1330 -0.1681  0.0840
 1075SOL    HW114858   2.273   0.987   0.719  1.6588 -0.0697  1.3919
 1075SOL    HW214859   2.322   1.114   0.780 -0.2263 -0.8280  0.5287
 1076SOL     OW14860   0.708   0.745   8.409  0.0611 -0.0926  0.1536
 1076SOL    HW114861   0.669   0.665   8.373  1.4732  0.0921 -1.8213
 1076SOL    HW214862   0.797   0.742   8.372  0.2409 -2.6761  0.7402
 1077SOL     OW14863   1.547   3.126   7.731 -0.6400  0.0619  0.0088
 1077SOL    HW114864   1.605   3.159   7.800 -3.0413  0.5043  1.8027
 1077SOL    HW214865   1.473   3.101   7.786  0.0070 -2.7232 -0.4177
 1078SOL     OW14866   1.825   4.414   6.705 -0.6119 -0.0439 -0.6306
 1078SOL    HW114867   1.809   4.507   6.722 -0.4729 -0.1949  0.3335
 1078SOL    HW214868   1.793   4.404   6.616 -1.8044  0.3937 -0.2385
 1079SOL     OW14869   0.812   2.607   4.247  0.5301  0.2696 -0.1117
 1079SOL    HW114870   0.890   2.551   4.244 -0.7171 -1.4576 -0.3196
 1079SOL    HW214871   0.845   2.696   4.237  1.0953  0.0039 -0.6284
 1080SOL     OW14872   0.012   3.246   4.857  0.2618  0.1281  0.3434
 1080SOL    HW114873   0.092   3.209   4.893  0.6883 -0.1243 -0.8418
 1080SOL    HW214874   4.690   3.179   4.881 -0.7146  0.2772 -1.7917
 1081SOL     OW14875   0.304   1.639  16.977 -0.0241  0.0397  0.2623
 1081SOL    HW114876   0.338   1.685  17.053  0.0148  2.1763 -1.0513
 1081SOL    HW214877   0.291   1.551  17.013  1.3540 -0.4256 -0.3705
 1082SOL     OW14878   3.453   3.064   5.959  0.3753  0.3126 -0.6259
 1082SOL    HW114879   3.383   3.025   5.907 -1.0743  0.7345  1.0020
 1082SOL    HW214880   3.447   3.008   6.036  3.5892 -1.6242 -1.7878
 1083SOL     OW14881   0.108   1.177   4.732  0.0505 -0.0028  0.0556
 1083SOL    HW114882   0.107   1.129   4.815  1.9475  0.3659  0.2904
 1083SOL    HW214883   0.016   1.200   4.724 -0.3166 -0.7712  1.8951
 1084SOL     OW14884   3.579   0.148   2.524 -0.0718 -0.4701 -0.1531
 1084SOL    HW114885   3.571   0.069   2.471 -0.5421 -2.3547  2.6865
 1084SOL    HW214886   3.506   0.198   2.488 -0.8464 -1.4939 -0.0062
 1085SOL     OW14887   0.883   3.101   6.257 -0.5499 -0.1309  0.0714
 1085SOL    HW114888   0.932   3.184   6.254 -0.1032 -0.3234  1.7360
 1085SOL    HW214889   0.836   3.124   6.338 -1.9483 -0.2770 -0.7062
 1086SOL     OW14890   1.904   1.780   3.351 -0.2685 -0.1107  0.0471
 1086SOL    HW114891   1.987   1.734   3.340 -1.2875 -2.5587  2.5659
 1086SOL    HW214892   1.851   1.738   3.283 -1.7317  0.0246  1.1075
 1087SOL     OW14893   2.901   2.126  12.730  0.2980  0.0134 -0.1034
 1087SOL    HW114894   2.880   2.146  12.822 -1.5204 -3.0947  0.1333
 1087SOL    HW214895   2.979   2.070  12.734  0.0702 -0.3958 -1.5254
 1088SOL     OW14896   4.461   2.684  10.058 -0.0797  0.4446  0.1464
 1088SOL    HW114897   4.374   2.724  10.056 -0.2954 -0.0797 -0.8137
 1088SOL    HW214898   4.477   2.698  10.152  0.5478 -1.6238  0.3471
 1089SOL     OW14899   2.008   1.303   8.351  0.1290  0.1584  0.2418
 1089SOL    HW114900   1.977   1.334   8.266  0.1082 -1.3525 -0.2899
 1089SOL    HW214901   1.986   1.211   8.340 -2.4369  0.7247  0.7390
 1090SOL     OW14902   1.461   0.836   8.370  0.1202 -0.1660 -0.4370
 1090SOL    HW114903   1.500   0.749   8.359 -0.2862 -0.8840  3.6796
 1090SOL    HW214904   1.395   0.801   8.431  1.2295  1.3498  1.6114
 1091SOL     OW14905   1.435   3.295   8.175 -0.8091  0.2074  0.7071
 1091SOL    HW114906   1.432   3.366   8.111 -0.8418 -0.6436 -0.2285
 1091SOL    HW214907   1.466   3.352   8.246 -0.5584 -1.5750  2.0155
 1092SOL     OW14908   4.162   0.483  17.619  0.0521 -0.8519  0.0411
 1092SOL    HW114909   4.094   0.433  17.665 -2.5822  1.1867 -1.6458
 1092SOL    HW214910   4.157   0.565  17.667  0.4114 -0.6082 -0.3320
 1093SOL     OW14911   4.620   0.764   4.291 -0.3099 -0.4525 -0.1839
 1093SOL    HW114912   4.541   0.817   4.300 -0.0443 -0.0013 -0.5280
 1093SOL    HW214913   4.653   0.753   4.380 -1.5455 -1.2665  0.1722
 1094SOL     OW14914   1.686   3.442  12.550  0.3200  0.4848 -0.0858
 1094SOL    HW114915   1.601   3.485  12.551 -0.5095 -1.1594 -0.3106
 1094SOL    HW214916   1.690   3.407  12.639 -0.7701 -2.3984 -1.1736
 1095SOL     OW14917   0.486   4.104   7.883  0.2075 -0.3118 -0.3643
 1095SOL    HW114918   0.538   4.057   7.817  0.8482  0.4296 -0.3791
 1095SOL    HW214919   0.556   4.104   7.947  0.5016 -1.2678 -0.6738
 1096SOL     OW14920   2.709   3.514  14.525  0.5911 -0.1780  0.0762
 1096SOL    HW114921   2.693   3.497  14.433 -0.5674 -0.1273  0.2695
 1096SOL    HW214922   2.689   3.607  14.530  1.0068 -0.1540  1.5141
 1097SOL     OW14923   0.101   3.174  13.741  0.1938  0.1236  0.2296
 1097SOL    HW114924   0.106   3.133  13.827  1.5286 -2.4827 -1.1053
 1097SOL    HW214925   0.071   3.097  13.693  0.2783  0.8743 -1.0422
 1098SOL     OW14926   0.422   1.452   5.577  0.5448  0.4473 -0.2981
 1098SOL    HW114927   0.426   1.542   5.609  0.5150  0.6633 -0.8970
 1098SOL    HW214928   0.510   1.426   5.604 -0.6680 -0.7689  2.4221
 1099SOL     OW14929   2.698   4.083   9.622 -0.4089 -0.1830  0.0546
 1099SOL    HW114930   2.744   4.028   9.559  2.2175 -2.0945  3.6823
 1099SOL    HW214931   2.710   4.035   9.703  1.9970 -2.8268 -1.8855
 1100SOL     OW14932   1.984   1.418  10.591  0.5361 -0.0449  0.1781
 1100SOL    HW114933   1.955   1.469  10.667  0.4570  0.5912 -0.2715
 1100SOL    HW214934   2.035   1.357  10.643 -1.7961  0.2092  2.7565
 1101SOL     OW14935   4.619   0.895  16.065  0.7772 -0.3084  0.2859
 1101SOL    HW114936   4.614   0.912  15.971  1.9972 -2.8845 -0.2376
 1101SOL    HW214937   4.681   0.960  16.099  0.2495  0.8811 -1.0303
 1102SOL     OW14938   4.258   4.545   2.369 -0.1044 -0.2595  0.1175
 1102SOL    HW114939   4.252   4.508   2.282 -2.1093 -0.2157  0.2381
 1102SOL    HW214940   4.171   4.520   2.401 -0.8031  0.4893 -1.2002
 1103SOL     OW14941   1.799   4.210   7.781  0.0708  0.0400  0.2639
 1103SOL    HW114942   1.827   4.186   7.693 -0.4618  2.1276 -0.4640
 1103SOL    HW214943   1.876   4.256   7.815  0.5981 -0.3784 -0.3488
 1104SOL     OW14944   3.043   3.260   8.094  0.0891 -0.1039  0.5633
 1104SOL    HW114945   3.015   3.331   8.036  0.1459  1.1400  2.0519
 1104SOL    HW214946   2.994   3.192   8.048 -0.5042  0.3748  0.4970
 1105SOL     OW14947   3.221   0.359  15.487  0.1969  0.1452  0.0319
 1105SOL    HW114948   3.140   0.314  15.464  1.6344 -1.2838 -2.1908
 1105SOL    HW214949   3.265   0.291  15.538 -0.2000  0.0804  0.2890
 1106SOL     OW14950   0.582   4.397  17.271  0.5666  0.0572 -0.0902
 1106SOL    HW114951   0.586   4.473  17.328 -0.8964  1.3563 -1.7031
 1106SOL    HW214952   0.669   4.359  17.284  0.4289 -0.8168 -1.6429
 1107SOL     OW14953   0.071   3.879   3.121  0.2877 -0.2181  0.1338
 1107SOL    HW114954   0.161   3.860   3.092  0.3819  0.4623 -0.0329
 1107SOL    HW214955   0.048   3.942   3.052 -1.1298 -0.9760 -0.0765
 1108SOL     OW14956   3.181   3.547  11.924  0.0777 -0.0871 -0.2129
 1108SOL    HW114957   3.243   3.587  11.986 -0.6920 -0.4979  0.8248
 1108SOL    HW214958   3.149   3.473  11.976 -0.8165  1.3464  1.2737
 1109SOL     OW14959   1.177   4.470   4.907 -0.0067 -0.2726 -0.2185
 1109SOL    HW114960   1.249   4.413   4.881  1.5933  1.0983  1.3116
 1109SOL    HW214961   1.221   4.533   4.963 -2.5643  0.4997  0.9169
 1110SOL     OW14962   1.990   2.083   0.354 -0.0004  0.4758  0.0603
 1110SOL    HW114963   1.993   2.156   0.293 -0.3183  0.9750  0.6413
 1110SOL    HW214964   2.081   2.057   0.347 -0.1682  0.2130 -1.0868
 1111SOL     OW14965   3.952   0.547   2.515 -0.2455 -0.3817 -0.2413
 1111SOL    HW114966   3.918   0.502   2.438 -2.7310  1.1694 -0.0443
 1111SOL    HW214967   3.964   0.467   2.567 -0.8843 -0.8489 -0.8022
 1112SOL     OW14968   2.960   4.688   6.676 -0.3794  0.4351  0.0590
 1112SOL    HW114969   3.051   4.670   6.699 -0.8974 -0.8942  1.0881
 1112SOL    HW214970   2.965   4.724   6.588 -0.1542 -0.8363 -0.4483
 1113SOL     OW14971   1.717   4.439  14.130  0.1794  0.2389 -0.4199
 1113SOL    HW114972   1.682   4.524  14.102 -0.7138  0.6699  1.9926
 1113SOL    HW214973   1.641   4.403  14.176  0.4899  0.6594  0.4173
 1114SOL     OW14974   4.619   0.520   1.070  0.1102 -0.2653 -0.0675
 1114SOL    HW114975   4.571   0.555   0.995  0.6544  0.4415 -0.0831
 1114SOL    HW214976   4.576   0.434   1.072 -1.1757  0.3590 -1.1900
 1115SOL     OW14977   1.658   3.606   6.439 -0.0152  0.0894  0.2220
 1115SOL    HW114978   1.652   3.636   6.530  2.2297  0.8497  0.1186
 1115SOL    HW214979   1.589   3.649   6.388  1.2529  0.3003 -1.3230
 1116SOL     OW14980   3.409   2.182   1.876  0.6136  0.6336  0.0202
 1116SOL    HW114981   3.372   2.158   1.791  0.5334  1.9590 -0.3116
 1116SOL    HW214982   3.396   2.104   1.930  1.1259  1.2255  0.9945
 1117SOL     OW14983   0.369   0.853   1.804 -0.0858 -0.0940  0.5354
 1117SOL    HW114984   0.443   0.830   1.748 -0.1087 -0.3422  0.6093
 1117SOL    HW214985   0.415   0.907   1.868 -0.9710 -0.3722  1.4048
 1118SOL     OW14986   1.141   0.367  14.192  0.1826  0.2104 -0.1115
 1118SOL    HW114987   1.092   0.445  14.217 -0.9088 -0.1842 -1.0164
 1118SOL    HW214988   1.104   0.307  14.257  0.6379  0.1054  0.0542
 1119SOL     OW14989   3.310   0.275   5.903 -0.2261 -0.2113  0.3917
 1119SOL    HW114990   3.259   0.222   5.842 -1.3051 -0.0550  1.1504
 1119SOL    HW214991   3.353   0.334   5.842 -0.3151  0.7021  1.2193
 1120SOL     OW14992   1.666   2.946   3.100 -0.0704  0.1788 -0.1022
 1120SOL    HW114993   1.621   3.012   3.153  0.4516 -0.5638  1.2612
 1120SOL    HW214994   1.739   3.003   3.074  0.0088 -0.1382 -0.5840
 1121SOL     OW14995   3.146   2.143   3.358 -0.2365  0.2871  0.0401
 1121SOL    HW114996   3.096   2.075   3.313  1.3692  0.1635 -1.5784
 1121SOL    HW214997   3.073   2.189   3.400 -0.4134  0.6673 -0.6798
 1122SOL     OW14998   2.916   0.061   3.229 -0.1925  0.5814 -0.1136
 1122SOL    HW114999   2.965   0.001   3.284  0.2139  0.6026 -0.4536
 1122SOL    HW215000   2.885   4.741   3.162 -1.6521 -1.0808  2.0851
 1123SOL     OW15001   2.063   2.360   3.486  0.4065  0.7539 -0.1286
 1123SOL    HW115002   2.129   2.300   3.522  0.3428  1.5936  1.4165
 1123SOL    HW215003   2.103   2.388   3.404  1.1217 -1.8318 -0.6636
 1124SOL     OW15004   4.389   4.667   1.955  0.3725  0.1318 -0.5459
 1124SOL    HW115005   4.450   4.647   1.884  1.5836  0.4216  0.4298
 1124SOL    HW215006   4.449   4.653   2.028 -1.2526 -1.3212  0.5060
 1125SOL     OW15007   1.616   2.784  13.929  0.0581  0.2574  0.1804
 1125SOL    HW115008   1.553   2.721  13.963  0.8205 -0.4177  0.3233
 1125SOL    HW215009   1.695   2.731  13.940  0.1644  0.7172  1.6302
 1126SOL     OW15010   1.304   3.263   9.570  0.2876 -0.2989 -0.1062
 1126SOL    HW115011   1.338   3.351   9.584 -1.1084  0.3704 -0.9114
 1126SOL    HW215012   1.376   3.201   9.575  0.5544  0.1578  1.7171
 1127SOL     OW15013   0.623   1.879  13.124 -0.0164 -0.9693 -0.2158
 1127SOL    HW115014   0.706   1.897  13.168 -0.4026 -1.0386  0.5253
 1127SOL    HW215015   0.652   1.800  13.077 -0.4158  0.2928 -2.6064
 1128SOL     OW15016   4.390   3.601   8.876  0.2744 -0.5186 -0.3879
 1128SOL    HW115017   4.436   3.660   8.936 -2.1163  0.3648  0.5615
 1128SOL    HW215018   4.445   3.623   8.800  0.3797 -2.7069 -0.9312
 1129SOL     OW15019   2.068   3.622  10.834 -0.0716  0.3532 -0.0403
 1129SOL    HW115020   2.146   3.676  10.847 -1.5531  2.9426 -1.9267
 1129SOL    HW215021   2.027   3.654  10.754  0.5527 -0.9086 -0.8635
 1130SOL     OW15022   3.073   3.184   6.659 -0.0677 -0.0635 -0.1740
 1130SOL    HW115023   3.019   3.134   6.598  0.4571 -0.9647  0.1009
 1130SOL    HW215024   3.009   3.174   6.730 -2.4393  1.0967 -2.1523
 1131SOL     OW15025   1.830   1.283   1.733  0.4265 -0.3025 -0.3173
 1131SOL    HW115026   1.873   1.225   1.797 -0.6790 -0.4683  0.2759
 1131SOL    HW215027   1.739   1.252   1.733 -0.4677  2.2961  0.0402
 1132SOL     OW15028   1.244   3.179   3.567 -0.1347 -0.6477 -0.0566
 1132SOL    HW115029   1.219   3.218   3.483  0.2744  0.2712  0.2457
 1132SOL    HW215030   1.236   3.087   3.543  1.3202 -0.9570  0.6926
 1133SOL     OW15031   2.436   0.420  17.450 -0.4310 -0.3435 -0.0061
 1133SOL    HW115032   2.397   0.397  17.365  2.9646 -0.4311 -1.5608
 1133SOL    HW215033   2.528   0.443  17.437 -0.5189  0.7277  1.3640
 1134SOL     OW15034   2.215   1.497   0.520  0.4679 -0.4967 -0.1784
 1134SOL    HW115035   2.213   1.529   0.429  0.5670 -0.4514 -0.1646
 1134SOL    HW215036   2.173   1.578   0.547  3.3839 -0.2087  3.4973
 1135SOL     OW15037   0.206   0.777  13.066  0.3101  0.2094 -0.6622
 1135SOL    HW115038   0.195   0.800  13.159 -1.2358  1.2024 -1.0805
 1135SOL    HW215039   0.137   0.712  13.053 -1.9465  2.4249  0.3134
 1136SOL     OW15040   4.716   0.685   7.605  0.6907  0.3052  0.3471
 1136SOL    HW115041   4.731   0.675   7.699 -0.5278  0.2510  0.5407
 1136SOL    HW215042   4.672   0.770   7.611 -0.1575 -0.0846 -0.2444
 1137SOL     OW15043   1.313   2.918   6.067  0.5515 -0.1186  0.5632
 1137SOL    HW115044   1.261   2.892   6.143 -0.1887 -1.5383 -0.4247
 1137SOL    HW215045   1.316   3.013   6.075 -0.0372 -0.2497  2.4705
 1138SOL     OW15046   0.571   3.819  13.841  0.3133  0.1397  0.1872
 1138SOL    HW115047   0.599   3.783  13.757 -0.0117 -1.6839  0.8787
 1138SOL    HW215048   0.648   3.848  13.890 -0.1005 -0.4149  1.1593
 1139SOL     OW15049   0.243   2.946   1.105 -0.8971  0.4348 -0.1205
 1139SOL    HW115050   0.292   3.024   1.078  1.8580 -0.9871  0.8153
 1139SOL    HW215051   0.191   2.974   1.181 -0.1155 -0.8913  0.9014
 1140SOL     OW15052   3.314   1.242   0.002 -0.0611 -0.1698 -0.0201
 1140SOL    HW115053   3.372   1.244   0.079 -2.1360  0.3642  1.5209
 1140SOL    HW215054   3.340   1.322  17.721 -3.6194  1.0690  0.1810
 1141SOL     OW15055   1.463   1.947   9.304 -0.4441  0.8587 -0.0471
 1141SOL    HW115056   1.529   1.903   9.250 -0.4670  0.6620  0.0874
 1141SOL    HW215057   1.410   1.868   9.316  0.2634  0.4055  0.1333
 1142SOL     OW15058   3.170   0.483   0.203 -0.4111 -0.0841  0.1712
 1142SOL    HW115059   3.150   0.576   0.192  0.8614  0.1388 -0.2440
 1142SOL    HW215060   3.137   0.444   0.122  1.4687 -1.2777 -0.0249
 1143SOL     OW15061   0.482   1.868   0.664 -0.6025  0.3059  0.7267
 1143SOL    HW115062   0.431   1.929   0.610  0.4090 -1.5393 -2.2969
 1143SOL    HW215063   0.504   1.796   0.605  0.4175  2.0733 -1.0504
 1144SOL     OW15064   4.129   0.476   6.843  0.4126  0.8749 -0.7307
 1144SOL    HW115065   4.146   0.498   6.752 -1.8400  0.9402 -1.1506
 1144SOL    HW215066   4.153   0.566   6.869  1.8918  0.0062  0.9100
 1145SOL     OW15067   3.213   1.670   3.886 -0.7829  0.2912 -0.3841
 1145SOL    HW115068   3.172   1.635   3.807 -1.2906 -1.7378  0.7784
 1145SOL    HW215069   3.152   1.738   3.914 -1.8063 -0.3164 -1.1538
 1146SOL     OW15070   3.327   2.620   5.346  0.2313 -0.5305 -0.0850
 1146SOL    HW115071   3.355   2.529   5.336 -0.2388 -0.6884  0.0133
 1146SOL    HW215072   3.360   2.660   5.265  1.9223 -4.3504 -1.2817
 1147SOL     OW15073   2.552   2.824  16.432 -0.9107  0.2536  0.5905
 1147SOL    HW115074   2.459   2.832  16.454 -0.7658  1.7962  0.6900
 1147SOL    HW215075   2.565   2.732  16.408  0.6209  0.7142 -0.3270
 1148SOL     OW15076   3.197   3.676   3.841  0.0075  0.4991 -0.0973
 1148SOL    HW115077   3.158   3.701   3.757  2.9181  1.4544 -1.1623
 1148SOL    HW215078   3.124   3.700   3.898 -0.7287  0.6603 -1.0934
 1149SOL     OW15079   1.497   1.955  17.636 -0.1894 -0.0761 -0.5533
 1149SOL    HW115080   1.524   2.042  17.606 -1.2358  0.1774 -0.7838
 1149SOL    HW215081   1.421   1.988  17.684 -1.0915  0.0244 -2.0407
 1150SOL     OW15082   4.536   1.896  13.676  0.0311 -0.0451  0.3200
 1150SOL    HW115083   4.504   1.807  13.661  1.0812  0.0297 -2.3943
 1150SOL    HW215084   4.625   1.889  13.641 -0.4694 -1.1374 -0.7232
 1151SOL     OW15085   2.060   1.953   5.515  0.4748 -0.4056  0.7121
 1151SOL    HW115086   2.103   1.932   5.432  0.7046  0.9851  0.4673
 1151SOL    HW215087   1.986   1.893   5.510  1.1453 -1.1763 -0.1047
 1152SOL     OW15088   0.036   2.194   3.958  0.3351  0.6883  0.3906
 1152SOL    HW115089   0.006   2.283   3.942  1.3382  0.8038 -0.8898
 1152SOL    HW215090   0.092   2.200   4.035 -0.6378  0.9709  1.0666
 1153SOL     OW15091   0.273   0.116   1.703  1.1618 -0.0425 -0.1965
 1153SOL    HW115092   0.351   0.160   1.669  0.1056  1.8451 -0.1742
 1153SOL    HW215093   0.212   0.178   1.744 -3.2296 -2.6443 -2.7895
 1154SOL     OW15094   3.224   4.235   2.971  0.5506  0.0992  0.4121
 1154SOL    HW115095   3.196   4.173   3.038  0.9181 -0.9663 -0.3946
 1154SOL    HW215096   3.146   4.228   2.916  1.2964 -0.2707 -0.6286
 1155SOL     OW15097   2.981   0.664   6.749 -0.3367  0.1720  0.3060
 1155SOL    HW115098   2.922   0.629   6.816 -0.0274 -1.3694 -0.2375
 1155SOL    HW215099   2.926   0.738   6.724 -2.2331 -0.7341  1.8138
 1156SOL     OW15100   2.081   3.271   6.064 -0.0057  0.4076  0.5617
 1156SOL    HW115101   2.148   3.205   6.044  0.0825  0.3473  1.0488
 1156SOL    HW215102   2.116   3.325   6.135 -0.0370  0.3686  0.6069
 1157SOL     OW15103   3.044   2.623   6.194  0.6513 -0.3158  0.1383
 1157SOL    HW115104   3.069   2.534   6.169  1.4279  0.4955 -2.0455
 1157SOL    HW215105   2.974   2.635   6.130  1.0792  0.6316 -0.1565
 1158SOL     OW15106   0.865   0.854   4.468  0.2722  0.4037  0.3118
 1158SOL    HW115107   0.833   0.895   4.387  0.2513 -0.2271  0.0045
 1158SOL    HW215108   0.850   0.762   4.444 -2.1982  0.9042 -0.1022
 1159SOL     OW15109   1.589   2.401  11.483  0.0920 -0.6240  0.1260
 1159SOL    HW115110   1.676   2.368  11.460  0.2111 -1.1449  1.3318
 1159SOL    HW215111   1.543   2.317  11.485  1.7167 -1.4976  1.2156
 1160SOL     OW15112   2.304   4.676   6.678 -0.4084 -0.4847 -0.2547
 1160SOL    HW115113   2.348   4.704   6.598 -0.6969 -2.2861 -1.0327
 1160SOL    HW215114   2.356   4.726   6.742 -1.5247 -0.3020  0.5022
 1161SOL     OW15115   3.799   0.799   5.570  0.1113  1.1588  0.3163
 1161SOL    HW115116   3.845   0.862   5.626  0.2047  1.7383 -0.4162
 1161SOL    HW215117   3.727   0.847   5.528 -0.7947 -2.7113 -2.4879
 1162SOL     OW15118   2.746   1.112   1.150 -0.6133 -0.5044  0.1188
 1162SOL    HW115119   2.762   1.186   1.091  1.5456 -1.4118 -0.4195
 1162SOL    HW215120   2.687   1.163   1.205 -1.5389  0.6111 -1.8721
 1163SOL     OW15121   2.386   0.749   8.467 -0.4119  0.6565  0.1046
 1163SOL    HW115122   2.399   0.702   8.384  1.5672  1.0330  0.1909
 1163SOL    HW215123   2.294   0.728   8.481 -0.2725  0.4609  0.7277
 1164SOL     OW15124   4.561   0.072   9.679  0.8919  0.1164 -0.0205
 1164SOL    HW115125   4.502   0.030   9.742  0.1662 -1.1656 -1.5840
 1164SOL    HW215126   4.604   0.125   9.747 -0.1700 -1.2444  1.7223
 1165SOL     OW15127   3.393   4.315   9.494  0.1912 -0.0253 -0.2432
 1165SOL    HW115128   3.441   4.277   9.420  1.3834 -2.2975  1.6927
 1165SOL    HW215129   3.301   4.318   9.467 -0.2692 -0.7719  1.2002
 1166SOL     OW15130   4.167   3.283   4.574  0.0870  0.4776 -0.0472
 1166SOL    HW115131   4.159   3.360   4.631  1.1238  0.3631  0.2600
 1166SOL    HW215132   4.133   3.220   4.637  1.7220  3.7427  4.1063
 1167SOL     OW15133   1.371   0.657  11.000  0.0592 -0.0263  0.6505
 1167SOL    HW115134   1.309   0.666  11.073 -1.0763 -0.3295 -0.2748
 1167SOL    HW215135   1.441   0.717  11.027 -0.5353  0.4768  1.0914
 1168SOL     OW15136   0.282   4.738   4.366 -0.1081 -0.5209 -0.1278
 1168SOL    HW115137   0.188   0.009   4.375 -0.0287  0.2578 -0.3272
 1168SOL    HW215138   0.278   4.689   4.285 -0.5381  0.4457 -0.6908
 1169SOL     OW15139   3.825   0.562   8.017 -0.4344  0.0271  0.0468
 1169SOL    HW115140   3.898   0.602   7.971 -1.3780 -1.1721 -2.4752
 1169SOL    HW215141   3.851   0.584   8.107  2.6406 -0.5326 -0.6934
 1170SOL     OW15142   0.592   3.758  11.928 -0.6656  0.0662 -0.1362
 1170SOL    HW115143   0.668   3.707  11.902 -1.5991 -1.3995  0.0409
 1170SOL    HW215144   0.555   3.783  11.843  0.8912  0.8100 -0.6100
 1171SOL     OW15145   1.296   4.619  14.389  0.1005  0.9640  0.5051
 1171SOL    HW115146   1.283   4.629  14.484  3.0293  3.2408  0.6673
 1171SOL    HW215147   1.228   4.680  14.362 -1.9776 -1.4351  0.3031
 1172SOL     OW15148   2.261   4.512   8.621  0.0290  0.4635 -0.1777
 1172SOL    HW115149   2.195   4.576   8.596  1.1660  0.8691 -2.1157
 1172SOL    HW215150   2.339   4.546   8.576 -1.2473  4.0610  0.3468
 1173SOL     OW15151   3.330   0.785  14.666 -0.1406  0.0547  0.5476
 1173SOL    HW115152   3.263   0.737  14.716  0.9791 -0.7859  1.2233
 1173SOL    HW215153   3.300   0.784  14.575 -0.4977  1.8517  0.6377
 1174SOL     OW15154   1.963   3.996   5.745 -0.0829 -0.5506 -0.3679
 1174SOL    HW115155   1.876   4.035   5.736  0.3401  0.3919 -0.3361
 1174SOL    HW215156   1.982   3.962   5.657  0.6354 -0.1529 -0.3645
 1175SOL     OW15157   2.079   2.908   7.336  0.0989 -0.4136 -0.0656
 1175SOL    HW115158   1.992   2.869   7.347 -0.1482  0.2969  0.4747
 1175SOL    HW215159   2.083   2.906   7.240  1.2633 -0.8019 -0.0086
 1176SOL     OW15160   3.258   0.041   7.010  0.0626  0.7044 -0.0731
 1176SOL    HW115161   3.167   0.010   7.011  0.0530  0.6891 -1.0070
 1176SOL    HW215162   3.286   0.004   6.926 -0.4136  2.1036 -0.8512
 1177SOL     OW15163   3.765   2.844   1.494 -0.2595  0.3090 -0.1629
 1177SOL    HW115164   3.764   2.797   1.411  0.2739  1.0929 -0.6179
 1177SOL    HW215165   3.743   2.777   1.558 -2.6203  0.4085 -0.8867
 1178SOL     OW15166   4.010   4.049   1.622  0.0898  0.2681  0.1549
 1178SOL    HW115167   4.027   4.012   1.709 -0.7259 -3.3472 -1.2142
 1178SOL    HW215168   3.925   4.092   1.628  0.4378  0.8558  0.8603
 1179SOL     OW15169   1.743   0.708   7.459 -0.3896  0.4606 -0.5398
 1179SOL    HW115170   1.762   0.716   7.552  0.2339  0.9458 -0.7119
 1179SOL    HW215171   1.657   0.666   7.465  0.0981 -0.5827 -0.7777
 1180SOL     OW15172   2.492   0.172   3.705 -0.0184 -0.0928  0.7467
 1180SOL    HW115173   2.491   0.079   3.684 -0.1361 -0.3987  2.1240
 1180SOL    HW215174   2.501   0.207   3.616 -0.1286 -1.2996  0.2601
 1181SOL     OW15175   1.178   4.270   6.909  0.1274 -0.0730 -0.5291
 1181SOL    HW115176   1.166   4.177   6.892 -0.1360  0.2228 -2.0109
 1181SOL    HW215177   1.111   4.305   6.850  1.9429  0.2854 -2.3757
 1182SOL     OW15178   0.873   3.435  17.260  0.4602 -0.4931 -0.0520
 1182SOL    HW115179   0.921   3.509  17.222  1.5521 -1.9353 -1.4866
 1182SOL    HW215180   0.793   3.482  17.283 -0.2720 -2.1120  0.6657
 1183SOL     OW15181   0.983   3.165  14.255  0.6579  0.6393  0.4187
 1183SOL    HW115182   0.985   3.215  14.337  0.4124 -0.1085  0.8826
 1183SOL    HW215183   1.076   3.161  14.234 -0.2989 -1.9192 -3.2311
 1184SOL     OW15184   0.120   2.834   1.934  0.4335 -0.0488  0.2363
 1184SOL    HW115185   0.129   2.928   1.949 -1.1695  0.0797  0.4544
 1184SOL    HW215186   0.065   2.803   2.006  0.3717 -1.6478 -0.4960
 1185SOL     OW15187   2.718   1.313   2.840  0.0652 -0.2964  0.2363
 1185SOL    HW115188   2.767   1.231   2.830  0.9815  0.4952 -1.6286
 1185SOL    HW215189   2.780   1.385   2.830  2.5905 -2.3441  1.0656
 1186SOL     OW15190   1.583   0.847  14.208  0.2406  0.2967  0.0408
 1186SOL    HW115191   1.529   0.791  14.263  1.7063 -0.8950  0.2599
 1186SOL    HW215192   1.639   0.777  14.175  1.0843 -0.3683  2.9485
 1187SOL     OW15193   3.632   3.815   4.817 -0.1245 -0.8480  0.2907
 1187SOL    HW115194   3.613   3.908   4.811 -0.7452 -0.9931  0.0401
 1187SOL    HW215195   3.592   3.780   4.737 -0.5544 -0.1965  0.2236
 1188SOL     OW15196   3.304   3.705   2.041 -0.5032 -0.5706  0.0813
 1188SOL    HW115197   3.318   3.620   2.083 -1.6963 -0.5932  0.4323
 1188SOL    HW215198   3.367   3.753   2.095 -2.1004  0.2265  1.2199
 1189SOL     OW15199   3.414   1.979  10.844 -0.1351  0.7909  0.3468
 1189SOL    HW115200   3.482   1.963  10.778 -0.3948 -0.2582  0.3368
 1189SOL    HW215201   3.336   1.989  10.789  0.7591  0.9154 -0.9015
 1190SOL     OW15202   3.251   0.247   0.928  0.1675 -0.2149  0.2886
 1190SOL    HW115203   3.320   0.211   0.984  0.5034 -0.5135 -0.3141
 1190SOL    HW215204   3.282   0.217   0.842  1.7993  2.7973 -0.1489
 1191SOL     OW15205   2.605   4.057   7.125  0.0343 -0.1297 -0.4788
 1191SOL    HW115206   2.592   4.111   7.047  1.1313 -0.2590 -0.7470
 1191SOL    HW215207   2.551   3.982   7.100  0.9052 -1.2526  0.9977
 1192SOL     OW15208   2.701   4.127  10.204  0.0978 -0.6505  0.0471
 1192SOL    HW115209   2.751   4.190  10.153  0.0366  1.0030  2.0107
 1192SOL    HW215210   2.698   4.175  10.287 -2.4968 -0.3400 -0.2231
 1193SOL     OW15211   0.875   2.245  12.467  0.4799 -0.3623 -0.4891
 1193SOL    HW115212   0.785   2.214  12.477  0.2760 -0.2374 -2.0659
 1193SOL    HW215213   0.930   2.168  12.453 -0.7384 -1.2444 -0.4582
 1194SOL     OW15214   1.624   0.390  10.212  0.0370 -0.1028 -0.0534
 1194SOL    HW115215   1.617   0.463  10.273  0.4699  0.9338 -1.2540
 1194SOL    HW215216   1.574   0.316  10.248  2.4384 -2.6745 -1.9797
 1195SOL     OW15217   1.043   2.120   0.018 -0.2192  0.1918  0.2642
 1195SOL    HW115218   0.959   2.145  17.742  1.0749  2.5876 -0.9599
 1195SOL    HW215219   1.096   2.187  17.739 -1.8862  0.3574 -1.5385
 1196SOL     OW15220   0.410   2.240   0.447  0.3161  0.0643  0.2669
 1196SOL    HW115221   0.379   2.330   0.460  0.4978  0.0559  0.7391
 1196SOL    HW215222   0.451   2.242   0.361  0.2258 -1.4463  0.1898
 1197SOL     OW15223   1.143   2.293   4.410  0.2640 -0.1142 -0.1927
 1197SOL    HW115224   1.189   2.217   4.375  0.5866 -0.0480  0.0940
 1197SOL    HW215225   1.196   2.330   4.480  0.2148  2.0287 -1.2877
 1198SOL     OW15226   3.235   0.216  17.636 -0.8135 -0.1083 -0.1500
 1198SOL    HW115227   3.183   0.186  17.562 -1.5593  0.7163  0.0372
 1198SOL    HW215228   3.236   0.137  17.690 -0.9232  0.1227  0.1925
 1199SOL     OW15229   1.856   2.862   2.478  0.0876  0.1968  0.1808
 1199SOL    HW115230   1.807   2.849   2.396 -0.1275 -0.8139  0.4742
 1199SOL    HW215231   1.931   2.917   2.457 -0.0262 -0.3616 -1.6477
 1200SOL     OW15232   2.285   1.379  15.398 -0.6015 -0.2271 -0.4935
 1200SOL    HW115233   2.345   1.305  15.393  0.0631  0.2700  0.2347
 1200SOL    HW215234   2.311   1.416  15.314  2.0330 -1.6713 -0.3047
 1201SOL     OW15235   0.189   0.993   6.091  0.4437 -0.0942 -0.5236
 1201SOL    HW115236   0.277   0.983   6.127  1.4349 -0.5305 -3.0528
 1201SOL    HW215237   0.145   0.933   6.151 -0.5534  1.5616  0.4048
 1202SOL     OW15238   1.493   1.313  15.076 -0.8283  0.2508 -1.1697
 1202SOL    HW115239   1.434   1.252  15.032 -0.9536  0.3142 -1.0871
 1202SOL    HW215240   1.526   1.357  14.997 -1.6253  0.7032 -1.2491
 1203SOL     OW15241   1.288   0.135   1.035  0.5376  0.2585  0.1186
 1203SOL    HW115242   1.309   0.071   1.103 -3.3137 -1.2001 -0.0529
 1203SOL    HW215243   1.353   0.123   0.966 -0.5270 -1.9591 -0.4834
 1204SOL     OW15244   0.524   0.052   3.788 -0.3648 -0.5943 -0.1299
 1204SOL    HW115245   0.612   0.065   3.823 -0.4504 -0.2850 -0.0338
 1204SOL    HW215246   0.478   0.111   3.847 -0.1123 -1.0664  0.5405
 1205SOL     OW15247   2.073   3.071  17.269 -0.8292  0.4132  0.5511
 1205SOL    HW115248   1.989   3.032  17.293 -0.1286 -0.1426  2.1049
 1205SOL    HW215249   2.077   3.051  17.175 -1.3906 -0.2229  0.6613
 1206SOL     OW15250   2.068   2.026   9.773  0.5155 -0.5197  0.0547
 1206SOL    HW115251   2.135   1.958   9.770 -0.2855 -1.3223  0.3568
 1206SOL    HW215252   2.101   2.091   9.712  1.4935 -1.4853 -0.4438
 1207SOL     OW15253   4.466   2.556   0.968  0.0106 -0.2962 -0.6564
 1207SOL    HW115254   4.376   2.550   1.001  0.8098 -0.3014  1.5759
 1207SOL    HW215255   4.519   2.566   1.047 -2.6612 -1.1456  1.2474
 1208SOL     OW15256   3.714   0.810   7.934 -0.0691  0.1843  0.7755
 1208SOL    HW115257   3.762   0.736   7.972  2.1785  0.5034 -1.5023
 1208SOL    HW215258   3.656   0.768   7.870  2.2522 -0.9814 -0.5622
 1209SOL     OW15259   1.320   4.019   3.768  0.8016 -0.0159 -0.9974
 1209SOL    HW115260   1.350   4.101   3.728  1.4497  0.0270 -0.4154
 1209SOL    HW215261   1.232   4.003   3.734 -1.3486  0.9155  4.1085
 1210SOL     OW15262   1.219   2.345  13.603  0.2544 -0.0689 -0.0552
 1210SOL    HW115263   1.196   2.344  13.510  0.8085 -0.6381 -0.1832
 1210SOL    HW215264   1.232   2.252  13.620  1.5630  0.2829  0.9308
 1211SOL     OW15265   1.988   2.579   2.571 -0.3678 -0.0379 -0.0371
 1211SOL    HW115266   1.989   2.672   2.593  0.3012 -0.0596  0.0132
 1211SOL    HW215267   1.902   2.570   2.530 -0.4301 -0.6143  0.2202
 1212SOL     OW15268   3.514   3.592   7.158 -0.0837 -0.5901 -0.2905
 1212SOL    HW115269   3.581   3.532   7.190  1.3244  1.2450  0.2292
 1212SOL    HW215270   3.458   3.531   7.111 -0.3668 -0.6094  0.0762
 1213SOL     OW15271   1.072   1.323  17.287 -0.4301  0.7955  0.2172
 1213SOL    HW115272   1.121   1.378  17.348  2.0192 -0.5761 -0.4663
 1213SOL    HW215273   1.082   1.239  17.332 -0.1245  1.4573  1.3794
 1214SOL     OW15274   2.663   2.292   9.295 -0.1943  0.2766  0.2587
 1214SOL    HW115275   2.625   2.213   9.333 -0.4782 -0.7474 -2.1625
 1214SOL    HW215276   2.742   2.261   9.250 -0.2330  1.4434 -0.6318
 1215SOL     OW15277   0.901   2.049   9.208  0.4856  0.1071  0.0840
 1215SOL    HW115278   0.828   2.018   9.155  0.9829 -0.8249 -0.0511
 1215SOL    HW215279   0.851   2.095   9.276 -0.2913 -1.0484  0.2814
 1216SOL     OW15280   1.849   0.451   5.225 -0.3570 -0.1826 -0.3244
 1216SOL    HW115281   1.930   0.491   5.192 -1.1995  1.6154 -0.2411
 1216SOL    HW215282   1.783   0.490   5.168  0.0562 -1.1582 -1.4769
 1217SOL     OW15283   1.548   1.475   8.037  0.1796 -0.4173 -0.0563
 1217SOL    HW115284   1.610   1.534   7.996 -1.0651  0.6360 -0.4420
 1217SOL    HW215285   1.533   1.531   8.114 -1.4084  1.5821 -1.8300
 1218SOL     OW15286   2.169   0.166   6.995 -0.0471 -0.5757  0.2903
 1218SOL    HW115287   2.139   0.252   7.023  1.8009 -0.3062  1.4031
 1218SOL    HW215288   2.181   0.129   7.082  2.9399 -1.5859 -0.5687
 1219SOL     OW15289   1.096   4.240   8.156 -0.2823 -0.2390 -0.3149
 1219SOL    HW115290   1.082   4.174   8.087 -0.4774 -1.8028  1.2246
 1219SOL    HW215291   1.049   4.185   8.217  0.0663 -0.4326 -0.2184
 1220SOL     OW15292   3.832   3.963   7.791 -0.3554 -0.1097 -0.0934
 1220SOL    HW115293   3.785   3.953   7.874 -1.5743  2.6440 -0.4526
 1220SOL    HW215294   3.761   3.972   7.728  0.0495  2.5111 -0.1632
 1221SOL     OW15295   0.120   4.290   1.475 -0.0975  0.3377  0.5497
 1221SOL    HW115296   0.162   4.352   1.415  1.1295 -0.0309  1.0274
 1221SOL    HW215297   0.047   4.253   1.427 -0.4834  0.5847  0.9484
 1222SOL     OW15298   3.541   2.675   7.115  0.2185  0.4282  0.1213
 1222SOL    HW115299   3.625   2.633   7.135  1.2018  2.7176  0.7465
 1222SOL    HW215300   3.490   2.607   7.072 -0.1663  0.3377  0.7166
 1223SOL     OW15301   2.384   4.346   9.577 -0.1155  0.2616  0.7310
 1223SOL    HW115302   2.349   4.279   9.636  0.6706 -1.2299 -0.4909
 1223SOL    HW215303   2.474   4.354   9.609  0.0424 -1.4109  0.6968
 1224SOL     OW15304   3.710   4.178  14.285 -0.1944  1.0625 -0.3825
 1224SOL    HW115305   3.636   4.155  14.340  1.9972  0.5195  2.3250
 1224SOL    HW215306   3.773   4.110  14.305 -1.6578  0.0107  0.5805
 1225SOL     OW15307   1.693   4.343  10.692  0.0424 -0.0094 -0.1035
 1225SOL    HW115308   1.788   4.331  10.695  0.0663  0.1476 -0.2633
 1225SOL    HW215309   1.683   4.418  10.751 -0.0771 -0.1664  0.0770
 1226SOL     OW15310   1.165   0.304  11.295  0.3567  0.1227  0.3334
 1226SOL    HW115311   1.102   0.350  11.351  1.1653  1.9650 -0.2557
 1226SOL    HW215312   1.164   0.222  11.343 -1.8649 -0.2105 -0.2914
 1227SOL     OW15313   2.073   1.863   2.747  0.9192 -0.3696  0.0659
 1227SOL    HW115314   2.016   1.836   2.819  0.5481 -1.1711 -0.5249
 1227SOL    HW215315   2.141   1.912   2.792 -0.3827  2.7533 -1.3277
 1228SOL     OW15316   4.160   2.394   7.271 -0.1705 -0.3437  0.3244
 1228SOL    HW115317   4.169   2.438   7.187 -1.0186  1.4758  1.1820
 1228SOL    HW215318   4.176   2.303   7.246 -2.8936 -0.0526 -2.4830
 1229SOL     OW15319   2.850   0.841   7.753 -0.0915  0.1289  0.6671
 1229SOL    HW115320   2.792   0.785   7.701 -1.6505  2.4559 -0.0760
 1229SOL    HW215321   2.931   0.789   7.752 -0.5676 -0.5665 -1.0856
 1230SOL     OW15322   3.540   2.322   9.122 -0.1217 -0.3444  0.3345
 1230SOL    HW115323   3.465   2.376   9.146 -2.2946 -1.7683 -3.2674
 1230SOL    HW215324   3.513   2.294   9.035  3.1753  0.3242 -0.8968
 1231SOL     OW15325   3.018   2.819   7.923 -0.3199  0.4762 -0.2498
 1231SOL    HW115326   3.068   2.799   7.844 -0.3478 -2.0168  0.3566
 1231SOL    HW215327   2.961   2.741   7.926 -0.7458  0.8469  1.3411
 1232SOL     OW15328   4.594   1.000   4.515 -0.5202 -0.3794 -0.0798
 1232SOL    HW115329   4.609   1.078   4.569  0.1778 -1.0691  0.7269
 1232SOL    HW215330   4.499   0.990   4.519 -0.5294  0.1163  0.8946
 1233SOL     OW15331   4.120   0.729   6.967  0.0116 -0.5171  0.0247
 1233SOL    HW115332   4.117   0.712   7.062  2.1017 -0.8889  0.0101
 1233SOL    HW215333   4.057   0.800   6.959  0.2358 -0.2582  0.5525
 1234SOL     OW15334   1.093   1.135   1.082  0.2330  0.0395  0.4145
 1234SOL    HW115335   1.124   1.088   1.005 -1.2492  0.9823 -0.7481
 1234SOL    HW215336   1.111   1.226   1.059  1.1536  0.2466  1.9229
 1235SOL     OW15337   2.002   1.888  10.161  0.1173 -0.3379 -0.0634
 1235SOL    HW115338   1.970   1.861  10.075  0.0147  0.0838 -0.1602
 1235SOL    HW215339   1.923   1.938  10.179 -0.4275 -0.4914 -2.1080
 1236SOL     OW15340   2.413   4.430   9.199  0.6689 -0.3600 -0.1661
 1236SOL    HW115341   2.434   4.363   9.264  0.6191 -3.4214 -3.3140
 1236SOL    HW215342   2.331   4.471   9.226  0.7636 -0.3615  0.1212
 1237SOL     OW15343   4.215   3.395   6.415 -0.1432 -0.5505 -0.3136
 1237SOL    HW115344   4.294   3.430   6.373  0.2767 -2.0958 -0.8177
 1237SOL    HW215345   4.249   3.316   6.458 -3.7653 -0.8712  1.9165
 1238SOL     OW15346   3.339   2.653   4.753  0.4383 -0.2094  0.2640
 1238SOL    HW115347   3.310   2.741   4.775 -0.9028 -0.6679  0.3610
 1238SOL    HW215348   3.397   2.664   4.677  0.6482 -0.1322  0.4374
 1239SOL     OW15349   0.622   2.856   8.048  0.4667 -0.3623 -0.4061
 1239SOL    HW115350   0.591   2.916   7.980  1.7175  0.3844 -0.3129
 1239SOL    HW215351   0.679   2.799   7.998 -0.2461  0.0867 -1.7388
 1240SOL     OW15352   4.208   3.440  11.043  0.2517 -0.2368  0.0019
 1240SOL    HW115353   4.220   3.359  11.091 -1.1138 -1.5176 -1.8310
 1240SOL    HW215354   4.287   3.494  11.049  0.6370 -0.9406  1.1667
 1241SOL     OW15355   4.343   2.765   8.933  0.4200 -0.6919  0.0330
 1241SOL    HW115356   4.364   2.676   8.904  3.5176  0.0212  0.1205
 1241SOL    HW215357   4.407   2.812   8.879  0.9617 -0.0638  1.2164
 1242SOL     OW15358   0.626   3.859   3.486  0.3940  0.4247 -0.5584
 1242SOL    HW115359   0.673   3.939   3.512 -0.3906  0.7870 -0.2498
 1242SOL    HW215360   0.537   3.891   3.477 -0.2953 -1.4176 -0.2973
 1243SOL     OW15361   0.086   4.066   3.327  0.6918  0.2850 -0.0713
 1243SOL    HW115362   0.093   4.013   3.247 -1.5851  2.2697 -1.5448
 1243SOL    HW215363   4.738   4.042   3.350  0.8634 -1.2070 -0.9245
 1244SOL     OW15364   2.751   0.777   4.190 -0.0469  0.3801  0.1586
 1244SOL    HW115365   2.809   0.704   4.169  0.5121  0.8674  0.0087
 1244SOL    HW215366   2.809   0.853   4.180 -2.6524  2.0829 -1.9974
 1245SOL     OW15367   4.461   4.005   9.212 -0.1522  0.1228  0.0122
 1245SOL    HW115368   4.509   4.085   9.231 -0.0476 -0.3444  1.6720
 1245SOL    HW215369   4.459   3.955   9.293  1.9473 -1.4944 -0.9368
 1246SOL     OW15370   3.903   4.323   2.837  0.8303  0.2248 -0.8364
 1246SOL    HW115371   3.902   4.380   2.760  2.1868  2.7277  1.0126
 1246SOL    HW215372   3.987   4.356   2.869  0.3243  1.4487 -0.7710
 1247SOL     OW15373   2.998   0.812  13.948  0.2175 -0.3860 -0.2630
 1247SOL    HW115374   2.904   0.799  13.939  0.1327  2.8075 -3.7403
 1247SOL    HW215375   3.021   0.722  13.973  2.6974  0.4933  0.6154
 1248SOL     OW15376   0.041   0.346   4.087  0.3673  0.5153 -0.4864
 1248SOL    HW115377   4.694   0.311   4.090  0.1469  1.3208  2.2135
 1248SOL    HW215378   0.030   0.438   4.066 -1.2075  0.8299  1.6998
 1249SOL     OW15379   3.122   2.394   7.165 -0.0145  0.4063  0.2300
 1249SOL    HW115380   3.210   2.356   7.160  0.0211  0.5014  0.1475
 1249SOL    HW215381   3.137   2.486   7.185 -0.1804  0.6253 -0.6995
 1250SOL     OW15382   4.478   3.538   4.669 -0.1446  0.5092 -0.4059
 1250SOL    HW115383   4.393   3.568   4.635 -0.4965 -0.1588 -0.1077
 1250SOL    HW215384   4.509   3.603   4.732 -0.6316  0.5850 -0.2459
 1251SOL     OW15385   0.377   1.339   3.739 -0.0921 -0.2887 -0.1559
 1251SOL    HW115386   0.337   1.424   3.757 -0.9601 -0.3905 -1.5254
 1251SOL    HW215387   0.310   1.293   3.688  0.1549 -0.5509 -0.2366
 1252SOL     OW15388   2.578   1.087   2.627  0.1658  0.0774 -0.4915
 1252SOL    HW115389   2.546   1.177   2.634 -0.5401  0.0462 -3.3006
 1252SOL    HW215390   2.510   1.050   2.571 -0.1113  2.3190 -1.6253
 1253SOL     OW15391   3.002   0.111   0.181  0.1280 -0.3712  0.1456
 1253SOL    HW115392   3.000   0.031   0.234 -1.3983 -0.3438  0.1146
 1253SOL    HW215393   3.082   0.091   0.132 -0.9017  0.7357 -1.9761
 1254SOL     OW15394   4.739   1.480   9.446 -0.3437  0.3512  0.4011
 1254SOL    HW115395   4.731   1.419   9.373  0.4231  2.0203 -1.0533
 1254SOL    HW215396   4.683   1.445   9.516 -1.5799 -0.1871 -0.8776
 1255SOL     OW15397   3.695   4.626   9.860  0.2579  0.8340  0.0328
 1255SOL    HW115398   3.616   4.579   9.888  0.2389  0.8774  0.0512
 1255SOL    HW215399   3.696   4.697   9.924  1.2355 -0.3391  1.3078
 1256SOL     OW15400   0.363   1.233   6.621  0.1566 -0.1386 -0.0716
 1256SOL    HW115401   0.339   1.204   6.710 -1.2313  1.2037 -0.0200
 1256SOL    HW215402   0.457   1.217   6.627  0.5928  2.6023  0.1856
 1257SOL     OW15403   2.470   2.995   9.053 -0.4116 -0.1103 -0.3325
 1257SOL    HW115404   2.546   2.952   9.014  0.0707 -1.7107  2.4228
 1257SOL    HW215405   2.440   2.934   9.120 -1.3161  0.2538 -0.3963
 1258SOL     OW15406   1.058   1.295   6.085  0.6557  0.4208  0.1403
 1258SOL    HW115407   1.070   1.216   6.031 -0.1284  0.2650  0.2038
 1258SOL    HW215408   0.988   1.331   6.030  1.9379  1.5490 -0.7647
 1259SOL     OW15409   1.704   3.106   8.973 -0.3301  0.2142 -0.0110
 1259SOL    HW115410   1.692   3.029   8.916 -1.4445 -0.4123  1.0800
 1259SOL    HW215411   1.717   3.178   8.911 -0.2062 -0.0401 -0.2861
 1260SOL     OW15412   3.996   0.623  12.260 -0.0072 -0.2243 -0.1070
 1260SOL    HW115413   4.038   0.585  12.337  0.5368 -0.9242 -0.7410
 1260SOL    HW215414   4.070   0.657  12.210  0.2415 -1.3234 -0.4786
 1261SOL     OW15415   0.251   3.325   5.263  0.1265 -0.0615  0.2469
 1261SOL    HW115416   0.335   3.311   5.308  1.5162  1.8897 -1.7716
 1261SOL    HW215417   0.231   3.417   5.282  2.1040  0.1031  1.5841
 1262SOL     OW15418   3.807   1.817   5.292  0.0450 -0.1366  0.5183
 1262SOL    HW115419   3.832   1.780   5.207 -0.9167  2.5948 -0.9899
 1262SOL    HW215420   3.717   1.790   5.308 -0.5545  1.5107 -0.0360
 1263SOL     OW15421   3.987   2.128   7.327 -0.3506 -0.0928  0.3623
 1263SOL    HW115422   3.961   2.181   7.251 -3.1703 -1.8234  0.1131
 1263SOL    HW215423   4.069   2.084   7.305  0.0499  0.8350 -0.0242
 1264SOL     OW15424   0.251   2.044   4.325  0.6758  0.3014  0.5110
 1264SOL    HW115425   0.304   2.073   4.400 -2.2937  0.9645  2.3817
 1264SOL    HW215426   0.273   2.102   4.252  0.2615  0.6551  0.6657
 1265SOL     OW15427   2.298   0.600   8.008 -0.6227 -0.3521  0.0178
 1265SOL    HW115428   2.262   0.626   8.093  0.6927 -1.0255  0.7760
 1265SOL    HW215429   2.274   0.509   7.995  1.0298 -0.5423 -1.6408
 1266SOL     OW15430   4.213   2.738   7.735 -0.4465 -0.1058 -0.2273
 1266SOL    HW115431   4.131   2.698   7.766 -0.2081  1.5038  2.4553
 1266SOL    HW215432   4.233   2.665   7.676 -0.0762 -0.3589  0.2128
 1267SOL     OW15433   3.479   1.643   3.825  0.2755 -0.6802  0.1058
 1267SOL    HW115434   3.391   1.641   3.862  0.0897 -2.7572 -0.4507
 1267SOL    HW215435   3.533   1.604   3.894  0.1483  1.6726  1.5334
 1268SOL     OW15436   0.952   2.114   6.690 -0.0036 -0.6209  0.1465
 1268SOL    HW115437   1.001   2.087   6.768 -2.0753 -0.7795  1.3665
 1268SOL    HW215438   0.878   2.055   6.692  1.6647 -2.7880 -2.1648
 1269SOL     OW15439   0.823   1.058  12.688  0.3411  0.3446 -0.1387
 1269SOL    HW115440   0.759   1.087  12.623  0.4229  2.0755  0.5566
 1269SOL    HW215441   0.887   1.039  12.619  0.9817 -2.0617  1.1518
 1270SOL     OW15442   3.491   3.333   3.069 -0.0874 -0.5069 -0.1761
 1270SOL    HW115443   3.414   3.279   3.053 -0.5764  0.3660 -0.7094
 1270SOL    HW215444   3.526   3.354   2.982 -0.3769 -1.5460 -0.5451
 1271SOL     OW15445   0.167   1.230   3.601 -0.2443 -0.0564 -0.1331
 1271SOL    HW115446   0.091   1.255   3.654  0.0641  0.6829 -0.0483
 1271SOL    HW215447   0.120   1.164   3.550 -0.9507  0.1537  0.2437
 1272SOL     OW15448   1.066   0.295   2.316  0.0568  0.7936 -0.0779
 1272SOL    HW115449   1.151   0.263   2.286 -0.1807  1.1399 -1.1344
 1272SOL    HW215450   1.015   0.314   2.237  1.9622 -2.8602 -2.1788
 1273SOL     OW15451   2.460   2.203  17.225  0.0452 -0.1667  0.2146
 1273SOL    HW115452   2.488   2.132  17.167 -0.7156  0.6474 -1.1360
 1273SOL    HW215453   2.521   2.275  17.205  2.6800 -1.9464  1.8421
 1274SOL     OW15454   0.132   4.054  15.466  0.8494  0.2057 -0.0033
 1274SOL    HW115455   0.103   3.988  15.402  2.1238 -1.2877  0.9517
 1274SOL    HW215456   0.066   4.030  15.531  1.1560  2.2710  1.0574
 1275SOL     OW15457   1.581   2.141   7.621  0.6561  0.5275 -0.2765
 1275SOL    HW115458   1.655   2.135   7.681  1.6646  1.1130 -1.4567
 1275SOL    HW215459   1.627   2.197   7.558 -0.2671  0.2720 -1.1702
 1276SOL     OW15460   2.957   4.200   8.008  0.3912  0.0893  0.0172
 1276SOL    HW115461   2.899   4.248   7.948  0.4091  1.2788  0.9449
 1276SOL    HW215462   2.947   4.113   7.971 -0.4495 -0.0195  0.4901
 1277SOL     OW15463   3.075   4.549   4.960 -0.3022  0.2520  0.2452
 1277SOL    HW115464   3.145   4.548   4.895 -0.1897  1.2847  0.3581
 1277SOL    HW215465   2.996   4.532   4.909  0.2343 -2.1439  0.1997
 1278SOL     OW15466   3.979   2.288   4.613  0.3075  0.6521  0.7893
 1278SOL    HW115467   4.067   2.252   4.605  1.1421  2.5369  1.3622
 1278SOL    HW215468   3.927   2.260   4.538 -1.0032  0.6044  1.7124
 1279SOL     OW15469   2.088   3.419   8.325  0.1618 -0.5532 -0.2182
 1279SOL    HW115470   2.149   3.492   8.315 -0.2848 -0.0704  0.6187
 1279SOL    HW215471   2.155   3.352   8.337 -0.0527 -0.6025  0.6541
 1280SOL     OW15472   0.643   4.267   2.527  0.2436  0.0278  0.4136
 1280SOL    HW115473   0.628   4.309   2.611 -0.2711  0.7022 -0.0101
 1280SOL    HW215474   0.625   4.338   2.465 -2.1085 -1.4770 -0.6471
 1281SOL     OW15475   1.212   3.441  16.251 -0.4114 -0.5434  0.2592
 1281SOL    HW115476   1.259   3.398  16.180  1.6145  1.5530  0.3502
 1281SOL    HW215477   1.148   3.379  16.287 -0.2508 -1.7773 -1.5924
 1282SOL     OW15478   3.932   4.599   6.144  0.2588 -0.5646 -0.1207
 1282SOL    HW115479   4.015   4.555   6.162  0.5744 -0.2134 -0.7037
 1282SOL    HW215480   3.880   4.527   6.180 -0.5324 -1.5074 -3.0878
 1283SOL     OW15481   3.148   1.005   8.479 -0.4279  0.3775  0.2310
 1283SOL    HW115482   3.182   0.916   8.491 -0.6410  0.0055 -2.0482
 1283SOL    HW215483   3.145   1.016   8.384  0.3605 -0.4152  0.1153
 1284SOL     OW15484   0.257   0.202   6.392 -0.0473  0.2412 -0.1089
 1284SOL    HW115485   0.328   0.215   6.329  0.2804  1.4080  0.4978
 1284SOL    HW215486   0.311   0.157   6.457  0.3050 -1.7788 -1.8021
 1285SOL     OW15487   1.466   4.330   5.849 -0.5107  0.3208  0.2425
 1285SOL    HW115488   1.388   4.315   5.903 -1.3485 -0.2353 -1.1277
 1285SOL    HW215489   1.531   4.298   5.912  1.3285  0.3280 -1.6468
 1286SOL     OW15490   2.735   3.226  10.793  0.1125  0.5760  0.0911
 1286SOL    HW115491   2.689   3.155  10.748 -0.4185  0.9466  0.0532
 1286SOL    HW215492   2.824   3.199  10.769  0.2338  0.2522  0.9219
 1287SOL     OW15493   2.608   3.069   5.812 -1.1068 -0.1996  0.2263
 1287SOL    HW115494   2.646   3.146   5.853  2.6711 -1.9133 -0.0128
 1287SOL    HW215495   2.526   3.060   5.861 -1.3673  2.7585  0.3154
 1288SOL     OW15496   3.407   3.171   2.529 -0.5340 -0.5293 -0.1239
 1288SOL    HW115497   3.488   3.193   2.483 -0.1480 -0.3220  0.6596
 1288SOL    HW215498   3.449   3.168   2.615 -0.7423 -0.8461 -0.0329
 1289SOL     OW15499   2.351   1.995   3.318 -0.5142  0.0925 -0.2319
 1289SOL    HW115500   2.365   1.906   3.287  0.8687 -0.2331  1.3734
 1289SOL    HW215501   2.432   2.035   3.287 -0.5694 -0.0352 -0.5418
 1290SOL     OW15502   2.374   2.235   5.205  0.6412 -0.3194 -0.3012
 1290SOL    HW115503   2.395   2.279   5.122 -0.7874 -1.4721 -1.2689
 1290SOL    HW215504   2.366   2.302   5.274  1.9687  1.2157 -1.6212
 1291SOL     OW15505   1.286   1.302   6.281 -0.1150 -0.2612 -0.3334
 1291SOL    HW115506   1.206   1.292   6.229 -0.2767 -3.2103  0.4988
 1291SOL    HW215507   1.328   1.219   6.257 -1.0752 -0.1118 -2.5098
 1292SOL     OW15508   2.327   4.168   9.784 -0.0642 -0.2709 -0.5454
 1292SOL    HW115509   2.392   4.120   9.836  0.6090  0.7157 -0.4681
 1292SOL    HW215510   2.294   4.102   9.724 -1.9383  0.4269 -0.2698
 1293SOL     OW15511   3.951   2.452   3.172 -0.2423  0.3327  0.3757
 1293SOL    HW115512   3.905   2.438   3.089 -2.1275 -1.8661  1.7743
 1293SOL    HW215513   3.872   2.453   3.227 -1.3791  0.0044 -1.2478
 1294SOL     OW15514   3.963   3.734   8.382 -0.3772 -0.2195 -0.0705
 1294SOL    HW115515   4.019   3.691   8.446  0.4595  1.7894  0.5574
 1294SOL    HW215516   4.016   3.810   8.357 -0.7536 -0.3306 -1.2278
 1295SOL     OW15517   1.112   1.784  15.041 -0.0921  0.1636  0.0515
 1295SOL    HW115518   1.154   1.869  15.029  0.1466 -0.1482 -1.2724
 1295SOL    HW215519   1.175   1.723  15.003 -1.2869 -1.1346  0.1549
 1296SOL     OW15520   0.574   0.148  10.821 -0.0431 -0.0470  0.3962
 1296SOL    HW115521   0.621   0.098  10.888 -0.4503 -0.1933  0.5794
 1296SOL    HW215522   0.589   0.092  10.745 -0.1849 -0.8911  0.9915
 1297SOL     OW15523   4.011   1.232  15.640  0.1678  0.2751  0.1200
 1297SOL    HW115524   4.030   1.310  15.588 -2.0909  0.5910 -0.2356
 1297SOL    HW215525   3.916   1.222  15.644  0.2354 -1.0669 -1.5580
 1298SOL     OW15526   0.342   2.016  15.798  0.1108 -0.3720  0.1030
 1298SOL    HW115527   0.347   2.064  15.716  0.3278 -1.0001 -0.2465
 1298SOL    HW215528   0.253   2.039  15.825  0.5774  0.0212  1.3272
 1299SOL     OW15529   1.606   1.368   3.363  0.4667 -0.6249  0.0886
 1299SOL    HW115530   1.660   1.303   3.318  1.0653  0.4007 -0.6662
 1299SOL    HW215531   1.651   1.373   3.448  0.6968 -3.3997  0.1342
 1300SOL     OW15532   3.859   0.717   2.713  0.0933 -0.5481  0.1221
 1300SOL    HW115533   3.903   0.802   2.701 -0.8495 -0.1458 -0.4706
 1300SOL    HW215534   3.911   0.654   2.663  0.9555 -0.4281  0.8738
 1301SOL     OW15535   4.246   2.273  12.693  0.1011 -0.0601  0.1546
 1301SOL    HW115536   4.193   2.251  12.617  0.2031 -1.3692  0.4598
 1301SOL    HW215537   4.191   2.341  12.731  1.2363  0.0381  1.6234
 1302SOL     OW15538   0.016   2.136  15.146  0.3305 -0.3770  0.1926
 1302SOL    HW115539   0.060   2.192  15.082  0.9420 -0.4926  0.5120
 1302SOL    HW215540   4.687   2.192  15.178  1.4089  2.0121 -1.5990
 1303SOL     OW15541   2.108   4.726   0.414  0.2579 -0.0310 -0.1899
 1303SOL    HW115542   2.073   4.649   0.460  1.1166 -0.8844 -0.9658
 1303SOL    HW215543   2.087   4.695   0.326  0.0580 -0.1794 -0.0916
 1304SOL     OW15544   4.434   2.154  13.593  0.4415  0.0673 -1.0734
 1304SOL    HW115545   4.447   2.061  13.608  2.0674 -0.1816 -4.0503
 1304SOL    HW215546   4.517   2.177  13.552  2.7126 -2.0464  2.3039
 1305SOL     OW15547   0.467   0.301   7.078  0.1676  0.1902  0.3912
 1305SOL    HW115548   0.429   0.309   6.991 -0.0649 -0.1416  0.4609
 1305SOL    HW215549   0.407   0.360   7.123  1.1422  2.2893 -1.0855
 1306SOL     OW15550   3.699   0.895   6.602  0.2910  0.7374  0.3188
 1306SOL    HW115551   3.781   0.846   6.595 -0.9898 -1.3967  0.3052
 1306SOL    HW215552   3.639   0.820   6.602  1.9234 -0.5565  3.0806
 1307SOL     OW15553   4.577   1.787   5.051  0.6040  0.2291 -0.2214
 1307SOL    HW115554   4.654   1.731   5.048  1.4199  1.2578  1.5208
 1307SOL    HW215555   4.609   1.849   5.117 -2.0906 -1.9895  3.1901
 1308SOL     OW15556   1.549   3.355   6.909  0.7263 -0.2565 -0.0110
 1308SOL    HW115557   1.609   3.301   6.960 -1.8359 -3.3921 -0.2861
 1308SOL    HW215558   1.539   3.430   6.968  0.9650  0.3127 -0.7025
 1309SOL     OW15559   3.258   0.753  16.019 -0.1978 -0.5755  0.3478
 1309SOL    HW115560   3.175   0.798  16.000  0.7972  1.2452  0.3383
 1309SOL    HW215561   3.271   0.785  16.108  0.1671 -0.0723  0.1101
 1310SOL     OW15562   3.667   1.293   3.625 -0.5311  0.2286  0.2043
 1310SOL    HW115563   3.598   1.309   3.689 -1.0950  0.0305 -0.3589
 1310SOL    HW215564   3.669   1.373   3.573  0.2365 -0.1459 -0.3561
 1311SOL     OW15565   1.107   3.236  11.560  0.4997  0.0634  0.5310
 1311SOL    HW115566   1.152   3.284  11.490 -2.9093  1.0552 -0.9471
 1311SOL    HW215567   1.081   3.161  11.505  3.0125 -2.1058  2.2774
 1312SOL     OW15568   0.711   3.028  10.018  0.2284 -0.2253  0.2538
 1312SOL    HW115569   0.653   3.094   9.980  1.2933  1.0759  0.9071
 1312SOL    HW215570   0.778   3.085  10.055 -1.4267  0.7642  1.6929
 1313SOL     OW15571   3.642   0.234  17.187 -0.2625  0.6598 -0.3186
 1313SOL    HW115572   3.704   0.204  17.120  1.2906  1.9647  0.5333
 1313SOL    HW215573   3.615   0.312  17.138 -1.4829  0.8193  0.6079
 1314SOL     OW15574   2.897   0.519  10.734 -0.1039 -0.8843  0.1959
 1314SOL    HW115575   2.936   0.493  10.651  0.4485 -0.2103  0.2454
 1314SOL    HW215576   2.969   0.558  10.784  0.5828 -0.0827 -1.4305
 1315SOL     OW15577   0.780   3.449   8.711 -0.4916  0.3528 -0.3181
 1315SOL    HW115578   0.866   3.488   8.699 -0.5782  0.2921 -1.1733
 1315SOL    HW215579   0.802   3.393   8.785 -2.7587 -0.0048  0.0822
 1316SOL     OW15580   2.744   4.334   7.161 -0.1724 -0.3861  0.4302
 1316SOL    HW115581   2.720   4.244   7.185 -0.5468 -1.1691 -2.8892
 1316SOL    HW215582   2.814   4.322   7.097  1.5790  3.0729  1.7081
 1317SOL     OW15583   0.178   4.651   5.863  0.2141  0.6048 -0.0295
 1317SOL    HW115584   0.175   4.715   5.792 -1.5366  0.3777 -0.1519
 1317SOL    HW215585   0.138   4.697   5.936 -0.6370 -0.4112  0.1442
 1318SOL     OW15586   0.009   1.338   4.280 -0.5142 -0.1510 -0.3257
 1318SOL    HW115587   0.083   1.397   4.266  0.4843 -0.9553  1.5815
 1318SOL    HW215588   0.050   1.252   4.269  0.6947  0.1511  1.9906
 1319SOL     OW15589   0.400   1.187   5.263 -0.0995  0.2160 -0.2561
 1319SOL    HW115590   0.488   1.154   5.246 -0.1877 -0.2191  0.1343
 1319SOL    HW215591   0.352   1.113   5.301 -0.4368  0.5267 -0.0743
 1320SOL     OW15592   1.609   1.088   4.028  0.4360  0.5193 -0.2307
 1320SOL    HW115593   1.676   1.132   3.976  0.0222 -0.4638 -1.5809
 1320SOL    HW215594   1.660   1.062   4.105  0.1952  0.7390  0.0032
 1321SOL     OW15595   0.481   1.940   2.917 -0.2293  0.1575 -0.2084
 1321SOL    HW115596   0.395   1.962   2.880 -0.2184 -1.9348 -1.4769
 1321SOL    HW215597   0.542   1.942   2.843 -2.2277 -1.6785 -1.8927
 1322SOL     OW15598   0.188   1.652   8.577  0.3048 -0.2053  0.2810
 1322SOL    HW115599   0.256   1.588   8.597 -0.2383 -0.7121  0.5050
 1322SOL    HW215600   0.229   1.732   8.610  0.4886 -0.8276  1.5506
 1323SOL     OW15601   0.278   1.748   0.295  0.2877  0.1802 -0.8008
 1323SOL    HW115602   0.215   1.684   0.328  0.9159 -0.0377 -0.0302
 1323SOL    HW215603   0.354   1.740   0.353  0.0157  1.9926 -0.2075
 1324SOL     OW15604   1.536   4.182  10.547  0.2918 -0.1637 -0.5374
 1324SOL    HW115605   1.583   4.257  10.582 -0.6330 -0.2499  0.8922
 1324SOL    HW215606   1.542   4.117  10.617  0.7412  1.2754  0.7432
 1325SOL     OW15607   4.364   4.179  15.630  0.5596  0.0709 -0.6036
 1325SOL    HW115608   4.444   4.225  15.654 -0.2283  0.6278  0.9138
 1325SOL    HW215609   4.352   4.196  15.536 -3.8994  2.4049  0.4013
 1326SOL     OW15610   2.505   4.436   7.237  0.0210 -0.3027 -0.2124
 1326SOL    HW115611   2.600   4.443   7.240  0.1620 -2.1622 -0.0164
 1326SOL    HW215612   2.512   4.353   7.190 -2.2581  0.9940 -2.8210
 1327SOL     OW15613   1.926   2.719   3.472 -0.2172 -0.5072 -0.2046
 1327SOL    HW115614   1.953   2.672   3.393 -1.3907 -1.2200 -0.1739
 1327SOL    HW215615   1.999   2.703   3.532 -0.1536 -0.8867 -0.3833
 1328SOL     OW15616   1.494   0.014   0.872 -0.2493  0.4208 -0.1956
 1328SOL    HW115617   1.529   0.074   0.806  0.5028  2.7886  2.3655
 1328SOL    HW215618   1.555   0.012   0.945  1.6426  1.0208 -1.7336
 1329SOL     OW15619   4.320   3.103   9.107 -0.2414 -0.3012  1.2050
 1329SOL    HW115620   4.269   3.145   9.177  0.0444  2.1910 -0.0644
 1329SOL    HW215621   4.370   3.041   9.161  3.0306  1.0111 -0.2849
 1330SOL     OW15622   3.819   0.396   2.333 -0.0857  0.1530  0.5135
 1330SOL    HW115623   3.727   0.372   2.335 -0.4413  1.2725 -2.4903
 1330SOL    HW215624   3.844   0.356   2.250 -0.5611 -0.8214  0.8400
 1331SOL     OW15625   1.743   1.967   7.836 -0.5638  0.1432  0.6067
 1331SOL    HW115626   1.823   1.948   7.885  0.5066 -0.0922 -1.2518
 1331SOL    HW215627   1.683   1.963   7.910 -0.6103  0.4727  0.5889
 1332SOL     OW15628   0.201   3.584   5.352 -0.1375  0.3821  0.2818
 1332SOL    HW115629   0.257   3.643   5.301  0.4007 -1.0679 -0.8059
 1332SOL    HW215630   0.224   3.608   5.441  2.2290 -2.8593  0.5327
 1333SOL     OW15631   2.430   3.424  13.123 -0.0092  0.1772 -0.0985
 1333SOL    HW115632   2.345   3.388  13.150 -0.4900 -1.7048 -4.0863
 1333SOL    HW215633   2.442   3.399  13.032 -1.1931 -1.4055  0.1685
 1334SOL     OW15634   4.495   3.495   6.388 -0.1814 -0.3800  0.6477
 1334SOL    HW115635   4.495   3.506   6.293  0.2043 -0.1014  0.6756
 1334SOL    HW215636   4.520   3.581   6.422 -0.0653  0.3611 -1.2894
 1335SOL     OW15637   2.157   4.689   4.293  0.8490 -0.8502  0.9198
 1335SOL    HW115638   2.252   4.698   4.292  0.7102  0.1866 -1.6455
 1335SOL    HW215639   2.158   4.603   4.250  0.6730  0.1217 -1.0272
 1336SOL     OW15640   4.375   3.672  11.792 -0.0838  0.0797  0.0788
 1336SOL    HW115641   4.350   3.649  11.882  1.1134 -2.0296 -0.1368
 1336SOL    HW215642   4.300   3.726  11.767 -0.4434  0.2697  1.5438
 1337SOL     OW15643   2.252   3.172   2.516  0.5971  0.3936 -0.9115
 1337SOL    HW115644   2.268   3.238   2.449  2.3895  2.3734  1.4468
 1337SOL    HW215645   2.335   3.125   2.516  0.3318 -0.0834  1.6223
 1338SOL     OW15646   0.631   3.606  14.846  0.1581  0.2273  0.2942
 1338SOL    HW115647   0.541   3.587  14.872 -0.7533  2.2992 -1.3543
 1338SOL    HW215648   0.660   3.515  14.844  0.7823  0.4229  0.6002
 1339SOL     OW15649   1.431   0.172   4.929  0.1666 -0.1168 -0.6215
 1339SOL    HW115650   1.487   0.165   5.006  0.1395  0.3955 -0.5587
 1339SOL    HW215651   1.371   0.099   4.945 -1.3380  1.0790 -0.7934
 1340SOL     OW15652   4.494   3.249   8.118 -0.1087  0.5497  0.1721
 1340SOL    HW115653   4.465   3.240   8.027 -1.2133  0.1966  0.5659
 1340SOL    HW215654   4.416   3.272   8.167  0.9240  0.2747  1.9632
 1341SOL     OW15655   4.541   0.436   6.873  0.0959 -0.3160 -0.1004
 1341SOL    HW115656   4.500   0.378   6.937 -1.6796 -0.0858 -1.0240
 1341SOL    HW215657   4.490   0.517   6.875 -2.7873 -2.0608 -3.3562
 1342SOL     OW15658   3.090   2.876  12.520 -0.0665  0.4659 -0.3852
 1342SOL    HW115659   3.043   2.821  12.458  0.4583 -1.3577  0.8411
 1342SOL    HW215660   3.021   2.895  12.583 -1.6564  0.3342 -2.0776
 1343SOL     OW15661   0.552   4.675   1.810  0.5428 -0.2794 -0.0384
 1343SOL    HW115662   0.575   0.024   1.792 -0.0297  0.2732  2.0537
 1343SOL    HW215663   0.633   4.659   1.859  0.5939 -0.1483 -0.0800
 1344SOL     OW15664   3.380   4.686   5.182 -0.3150 -0.1201  0.1273
 1344SOL    HW115665   3.415   0.032   5.168  0.4272 -0.6779 -1.5567
 1344SOL    HW215666   3.462   4.637   5.188  0.1435  0.7851  1.2771
 1345SOL     OW15667   2.616   4.069   8.375  0.6529 -0.3986  0.2291
 1345SOL    HW115668   2.557   4.077   8.449  1.1001 -1.9678  0.7469
 1345SOL    HW215669   2.602   4.155   8.335  0.8313 -0.8244 -0.7714
 1346SOL     OW15670   0.398   0.849  16.961 -0.1370 -0.3961  0.5932
 1346SOL    HW115671   0.486   0.826  16.934 -0.2261 -0.1748  0.1243
 1346SOL    HW215672   0.351   0.818  16.884  1.2569  0.6316 -0.6468
 1347SOL     OW15673   3.702   4.305   2.137  0.1283  0.5294  0.3210
 1347SOL    HW115674   3.727   4.284   2.047  0.1407 -1.4845  0.7965
 1347SOL    HW215675   3.767   4.253   2.185 -0.5495 -0.4893  0.1536
 1348SOL     OW15676   0.436   1.466   9.003  0.6995 -0.0831  0.4924
 1348SOL    HW115677   0.367   1.516   9.047  1.9398  0.6284  1.6401
 1348SOL    HW215678   0.420   1.380   9.041 -0.7292  0.8867  2.0701
 1349SOL     OW15679   0.169   1.895   9.133  0.2621 -0.1841  0.2788
 1349SOL    HW115680   0.166   1.979   9.179 -0.7974  1.3524 -2.6175
 1349SOL    HW215681   0.077   1.872   9.146  0.2183 -0.6513 -0.8738
 1350SOL     OW15682   2.101   1.270   5.884 -0.2611 -0.6070 -0.4471
 1350SOL    HW115683   2.096   1.281   5.789 -0.3876 -1.7290 -0.5644
 1350SOL    HW215684   2.028   1.209   5.888 -1.1174  0.5092  1.4094
 1351SOL     OW15685   0.502   3.995   4.255 -0.3320  0.5803 -0.3650
 1351SOL    HW115686   0.478   4.081   4.220  0.7036  1.0347  0.0378
 1351SOL    HW215687   0.443   3.984   4.329 -0.1603 -0.3701 -0.3628
 1352SOL     OW15688   3.415   0.829   5.729  0.0361  0.3280  0.3054
 1352SOL    HW115689   3.461   0.874   5.658  0.1979  2.1501  1.5647
 1352SOL    HW215690   3.342   0.890   5.723 -1.5250 -1.6505 -0.7866
 1353SOL     OW15691   3.912   1.289   7.275  0.5236 -0.2733  0.3070
 1353SOL    HW115692   3.979   1.308   7.209  1.5294 -0.1222  1.3678
 1353SOL    HW215693   3.950   1.348   7.341  2.1745 -2.5335  1.3840
 1354SOL     OW15694   1.666   4.712   8.119 -0.6009  0.2859  0.1480
 1354SOL    HW115695   1.627   0.015   8.043  0.2428  0.7939  0.0186
 1354SOL    HW215696   1.714   0.045   8.154  1.5616 -1.8158  1.6141
 1355SOL     OW15697   1.579   2.564   8.624 -0.2804 -0.7899  0.1495
 1355SOL    HW115698   1.521   2.640   8.632  0.6558 -0.3048  2.5199
 1355SOL    HW215699   1.562   2.545   8.532  1.2058  0.0862 -0.3013
 1356SOL     OW15700   1.302   1.403   7.091 -0.0327 -0.0881  0.5625
 1356SOL    HW115701   1.275   1.383   7.001 -1.3553  2.2760  0.4145
 1356SOL    HW215702   1.387   1.359   7.095 -0.6401 -1.4208 -1.2137
 1357SOL     OW15703   1.022   3.830   4.374  0.0609 -0.2062 -0.3068
 1357SOL    HW115704   0.933   3.855   4.348 -0.6909 -2.1309  0.4353
 1357SOL    HW215705   1.079   3.861   4.304 -0.5552  0.2032 -0.6261
 1358SOL     OW15706   1.966   0.304   9.588 -0.6481 -0.2906 -0.5505
 1358SOL    HW115707   2.005   0.334   9.671  0.6008  2.9417 -2.2727
 1358SOL    HW215708   2.035   0.321   9.524  0.2949  2.4304  1.1493
 1359SOL     OW15709   2.519   3.389   2.851  0.2741 -0.1449  0.1806
 1359SOL    HW115710   2.442   3.334   2.838  0.3212 -0.5943  1.8262
 1359SOL    HW215711   2.575   3.328   2.901 -0.1928 -0.4735  0.2985
 1360SOL     OW15712   3.887   0.469   6.991  0.0124 -0.0977  0.3034
 1360SOL    HW115713   3.919   0.502   7.074  0.6023  1.2770 -0.4680
 1360SOL    HW215714   3.967   0.469   6.939 -1.0428 -0.6740 -1.3161
 1361SOL     OW15715   1.855   3.000   4.799  0.5960  0.1085 -0.3300
 1361SOL    HW115716   1.950   2.985   4.801  0.8359  1.7385  0.8187
 1361SOL    HW215717   1.833   2.933   4.863 -1.3862 -0.1761 -1.3187
 1362SOL     OW15718   4.011   3.105   2.877  0.3672 -0.1872  0.2662
 1362SOL    HW115719   4.005   3.010   2.883 -0.9292 -0.1131  0.0731
 1362SOL    HW215720   4.088   3.127   2.825  0.2039  1.0618  0.5537
 1363SOL     OW15721   1.261   3.749  13.459 -0.3833 -0.7441  0.5898
 1363SOL    HW115722   1.273   3.836  13.497  1.0470 -1.4959  1.8829
 1363SOL    HW215723   1.175   3.722  13.491 -0.6046  1.6938  2.0697
 1364SOL     OW15724   2.350   0.706   3.321  0.3589 -0.6272  0.0360
 1364SOL    HW115725   2.356   0.611   3.308  0.8733 -0.3495 -1.6941
 1364SOL    HW215726   2.282   0.710   3.389  1.9447 -1.8780  1.7283
 1365SOL     OW15727   4.671   0.930   7.727 -0.2162  0.1129  0.1524
 1365SOL    HW115728   4.577   0.929   7.748 -0.4272  0.1815 -0.7912
 1365SOL    HW215729   4.714   0.941   7.811  1.9680 -0.9484 -0.8408
 1366SOL     OW15730   3.311   1.643   0.132 -0.9320 -0.1427  0.1027
 1366SOL    HW115731   3.374   1.712   0.112 -1.1090 -0.4721 -1.6026
 1366SOL    HW215732   3.309   1.584   0.057  0.8510  0.1524 -0.1612
 1367SOL     OW15733   3.432   2.825   0.843 -0.7309 -0.5600 -0.1999
 1367SOL    HW115734   3.414   2.904   0.893  0.5762 -0.0948 -0.4569
 1367SOL    HW215735   3.519   2.800   0.876 -0.2953 -0.2164 -1.0917
 1368SOL     OW15736   4.146   0.395  15.393 -0.3032 -0.2921  0.0985
 1368SOL    HW115737   4.154   0.481  15.350  0.6533 -0.7969 -0.7364
 1368SOL    HW215738   4.236   0.363  15.379 -0.8280 -1.5868 -0.2803
 1369SOL     OW15739   0.382   3.154   3.191  0.1220  0.2064 -0.0685
 1369SOL    HW115740   0.410   3.164   3.100  0.2733 -0.4945 -0.0996
 1369SOL    HW215741   0.462   3.121   3.232  0.8330  1.0228 -0.7654
 1370SOL     OW15742   0.220   4.528  11.760  0.1809 -0.2040  0.4366
 1370SOL    HW115743   0.219   4.475  11.680 -0.2705  1.0310 -0.3795
 1370SOL    HW215744   0.217   4.620  11.736  0.4174 -0.6013 -1.1143
 1371SOL     OW15745   4.537   4.228   3.831 -0.5624  0.5658  0.3055
 1371SOL    HW115746   4.569   4.317   3.821  1.1117 -0.1439 -0.7467
 1371SOL    HW215747   4.599   4.189   3.892 -0.4647 -1.1759 -0.8862
 1372SOL     OW15748   0.130   3.532   4.609 -0.1817 -0.8966 -0.2055
 1372SOL    HW115749   0.122   3.578   4.693  1.3155  1.9556 -1.6095
 1372SOL    HW215750   0.205   3.477   4.631  0.6576  0.6364  0.7909
 1373SOL     OW15751   1.289   4.580   0.830  0.3910 -0.2334 -0.5758
 1373SOL    HW115752   1.368   4.620   0.866  1.2133 -2.5256  0.1326
 1373SOL    HW215753   1.326   4.533   0.755 -0.4201 -3.2747  0.9339
 1374SOL     OW15754   2.227   2.478   5.969 -0.6781  0.0023 -0.2859
 1374SOL    HW115755   2.177   2.396   5.972 -1.3837  0.5020  1.8296
 1374SOL    HW215756   2.164   2.524   6.024 -0.7099 -1.0012  0.5290
 1375SOL     OW15757   4.483   1.965   8.453  0.8515 -0.4916  0.1828
 1375SOL    HW115758   4.472   1.871   8.466 -0.8019 -0.2169  0.7914
 1375SOL    HW215759   4.463   1.976   8.360 -0.2038  3.1176  0.8320
 1376SOL     OW15760   3.775   1.789   0.860 -0.2040 -0.1459  0.1337
 1376SOL    HW115761   3.809   1.835   0.937 -0.0709  1.0554 -0.6386
 1376SOL    HW215762   3.744   1.868   0.815  0.3100 -0.0636 -0.0750
 1377SOL     OW15763   0.389   3.765   5.228  0.0097 -0.0135 -0.0007
 1377SOL    HW115764   0.442   3.687   5.208 -1.5107 -0.8331 -0.8498
 1377SOL    HW215765   0.441   3.799   5.301 -0.5489 -0.3922  0.5790
 1378SOL     OW15766   4.234   4.535   8.611  0.3584  0.1710 -0.0314
 1378SOL    HW115767   4.227   4.459   8.555  0.8253 -0.2421  0.4753
 1378SOL    HW215768   4.281   4.504   8.688 -1.3471 -1.6596  0.2839
 1379SOL     OW15769   1.815   1.612   2.602 -0.5197  0.1356  0.4971
 1379SOL    HW115770   1.807   1.699   2.564 -1.1013  0.1303  0.6067
 1379SOL    HW215771   1.762   1.558   2.543 -0.1746  0.0132  0.2984
 1380SOL     OW15772   0.645   4.688   7.424 -0.1842  0.4835 -0.2372
 1380SOL    HW115773   0.608   4.741   7.495  0.0376  1.3585 -0.7790
 1380SOL    HW215774   0.599   4.726   7.349 -1.4550 -0.1305  0.2367
 1381SOL     OW15775   2.496   3.695   5.189  0.1423  0.1093 -0.5251
 1381SOL    HW115776   2.526   3.779   5.154 -2.5831  0.9371 -0.8433
 1381SOL    HW215777   2.563   3.686   5.257  1.5729  0.4485 -1.8845
 1382SOL     OW15778   3.359   1.137   9.048 -0.1149 -0.1478 -0.0709
 1382SOL    HW115779   3.332   1.101   9.132 -1.4953 -0.2644 -0.5704
 1382SOL    HW215780   3.281   1.175   9.008 -0.7830  0.1546  1.5127
 1383SOL     OW15781   4.614   2.525   2.572  0.0577 -0.2905  0.1598
 1383SOL    HW115782   4.678   2.532   2.502  0.9288  1.2654  1.1030
 1383SOL    HW215783   4.643   2.592   2.634  0.0091  1.0634 -1.2857
 1384SOL     OW15784   1.888   1.109   5.864 -0.1161 -0.3101 -0.0990
 1384SOL    HW115785   1.825   1.178   5.847 -0.2223 -0.4774 -0.3780
 1384SOL    HW215786   1.830   1.034   5.854 -0.5163 -0.0585  0.3077
 1385SOL     OW15787   4.244   0.457   3.138 -0.0620  0.4096  0.3191
 1385SOL    HW115788   4.200   0.376   3.162  0.6087 -0.3888 -1.1382
 1385SOL    HW215789   4.260   0.440   3.045  0.8089  0.9430  0.3751
 1386SOL     OW15790   2.031   1.424   6.399  0.1274 -0.2369  0.2436
 1386SOL    HW115791   1.972   1.412   6.325  1.9385  1.7751 -1.5653
 1386SOL    HW215792   2.010   1.509   6.438  0.2487  0.6889 -1.6705
 1387SOL     OW15793   2.865   4.232  15.890 -0.0693  0.3115  0.4856
 1387SOL    HW115794   2.918   4.243  15.970  1.6087 -0.9491 -0.4496
 1387SOL    HW215795   2.786   4.283  15.911 -0.1354 -0.3704  1.8943
 1388SOL     OW15796   0.151   3.389   8.559  0.1788  0.5387  0.7942
 1388SOL    HW115797   0.102   3.325   8.610 -1.1695  0.7229 -0.2694
 1388SOL    HW215798   0.156   3.464   8.619 -0.9611  0.6514  0.7581
 1389SOL     OW15799   0.111   4.064  13.205  0.1958 -0.2089 -0.3407
 1389SOL    HW115800   0.112   3.970  13.219  1.0210 -0.4672 -2.2265
 1389SOL    HW215801   0.192   4.069  13.155 -0.8596  3.4010 -1.6971
 1390SOL     OW15802   0.642   2.692   9.749 -0.3055  0.1303 -0.0408
 1390SOL    HW115803   0.558   2.646   9.747  0.3108 -0.9811 -0.3695
 1390SOL    HW215804   0.623   2.783   9.723  0.0839 -0.0401 -0.9030
 1391SOL     OW15805   2.845   2.578   0.633 -0.4318  0.4050 -0.3095
 1391SOL    HW115806   2.774   2.549   0.575  0.9355 -3.1747 -0.2319
 1391SOL    HW215807   2.912   2.510   0.624  1.3077  2.1334 -0.2937
 1392SOL     OW15808   0.762   0.737   2.695 -0.2382 -0.3865 -0.1782
 1392SOL    HW115809   0.692   0.710   2.755 -0.1255  3.0677  1.5341
 1392SOL    HW215810   0.782   0.657   2.646 -0.4202 -0.4526 -0.1447
 1393SOL     OW15811   3.056   0.291   0.382 -0.2605 -0.0914  0.0394
 1393SOL    HW115812   3.100   0.358   0.331 -1.5582  0.5841 -0.1876
 1393SOL    HW215813   3.028   0.233   0.310 -0.6153  1.3482 -0.9823
 1394SOL     OW15814   3.823   3.632  11.169  0.4708 -0.0005 -0.1235
 1394SOL    HW115815   3.838   3.596  11.257  0.6630 -0.2261 -0.2485
 1394SOL    HW215816   3.745   3.687  11.170  1.2056  1.0447  0.7349
 1395SOL     OW15817   3.622   1.953  14.963  0.1854 -0.0136  0.3764
 1395SOL    HW115818   3.568   2.008  14.907 -0.3790 -1.0250 -0.0526
 1395SOL    HW215819   3.689   2.015  14.994  1.5171 -1.6590  0.8050
 1396SOL     OW15820   3.856   1.619   4.121 -0.7003  0.2772  0.5373
 1396SOL    HW115821   3.933   1.675   4.126 -0.0467 -0.5573 -0.0339
 1396SOL    HW215822   3.832   1.615   4.213 -0.6098  0.5007  0.5693
 1397SOL     OW15823   1.482   3.049   7.258 -0.1108  0.6250 -0.0950
 1397SOL    HW115824   1.568   3.013   7.236  1.1306  3.0218  0.8081
 1397SOL    HW215825   1.487   3.019   7.348  3.9685  0.2542 -0.4317
 1398SOL     OW15826   3.933   1.679   4.608  0.1133 -0.4017  0.2617
 1398SOL    HW115827   3.987   1.670   4.529 -1.4885 -1.3012 -0.7266
 1398SOL    HW215828   3.960   1.600   4.655 -0.8498 -1.4500 -0.9543
 1399SOL     OW15829   2.832   3.874   5.003  0.3566 -0.9006 -0.4983
 1399SOL    HW115830   2.776   3.897   5.077  1.7522 -0.7320  0.5093
 1399SOL    HW215831   2.901   3.835   5.057 -0.8039  0.6612  2.1089
 1400SOL     OW15832   4.136   3.460  10.771 -0.4196  0.6426 -0.3939
 1400SOL    HW115833   4.161   3.553  10.763  2.7560 -0.1772 -0.0480
 1400SOL    HW215834   4.170   3.435  10.857  0.7541 -0.7717 -1.2731
 1401SOL     OW15835   1.815   3.916   6.805  0.4700  0.4431  0.1830
 1401SOL    HW115836   1.899   3.878   6.776 -0.0039 -1.4833  1.3339
 1401SOL    HW215837   1.850   3.994   6.849 -0.2585  1.4548 -1.0300
 1402SOL     OW15838   1.064   1.121   4.987 -0.1625  0.2296  0.1864
 1402SOL    HW115839   1.082   1.050   4.925  1.8789  0.2385  0.7607
 1402SOL    HW215840   1.074   1.076   5.071 -2.0371 -0.1797  0.1782
 1403SOL     OW15841   1.368   3.994   5.955 -0.0820 -0.1740  0.3518
 1403SOL    HW115842   1.444   3.952   5.916 -0.3840 -0.8079  0.4505
 1403SOL    HW215843   1.297   3.945   5.913  1.3341 -1.7670 -0.1570
 1404SOL     OW15844   4.611   2.715   4.928  0.0456  0.4387 -0.2753
 1404SOL    HW115845   4.560   2.682   4.854 -1.3666  0.6793  0.5975
 1404SOL    HW215846   4.560   2.687   5.004 -0.0080  0.3160 -0.3564
 1405SOL     OW15847   2.709   1.064   3.175 -0.1207 -0.1475 -0.6498
 1405SOL    HW115848   2.687   0.977   3.208 -2.2726  1.5952  2.5173
 1405SOL    HW215849   2.666   1.069   3.090 -1.3355 -1.8145 -0.1302
 1406SOL     OW15850   4.215   2.266   0.003  0.1318 -0.3085 -0.4041
 1406SOL    HW115851   4.288   2.211   0.030 -0.6497  0.2325  2.8295
 1406SOL    HW215852   4.146   2.205  17.741  0.2856 -1.7504  2.6009
 1407SOL     OW15853   3.989   2.593   7.812 -0.0909  0.7209 -0.2076
 1407SOL    HW115854   4.007   2.592   7.907  0.6671 -1.6160 -0.3852
 1407SOL    HW215855   4.036   2.515   7.783 -0.3643  1.0256 -1.4612
 1408SOL     OW15856   3.512   3.588   2.618  0.6165  0.0151  0.4041
 1408SOL    HW115857   3.435   3.558   2.569 -0.3393  1.0772  1.2367
 1408SOL    HW215858   3.518   3.676   2.582  0.5677 -0.7625 -1.4757
 1409SOL     OW15859   1.530   0.639   6.932  0.4795  0.5919  0.0218
 1409SOL    HW115860   1.620   0.609   6.939  0.2322 -0.3302 -0.6733
 1409SOL    HW215861   1.513   0.623   7.025  0.2169 -0.1394 -0.1527
 1410SOL     OW15862   0.010   4.022   2.914 -0.3335  0.0998  0.0450
 1410SOL    HW115863   4.660   4.048   2.922  0.0056  0.7594  1.6779
 1410SOL    HW215864   0.020   4.009   2.819 -0.4944 -1.8971  0.3017
 1411SOL     OW15865   2.218   4.353   3.811  0.3082  0.3847  0.7136
 1411SOL    HW115866   2.171   4.325   3.889 -0.4592  1.4163  0.6196
 1411SOL    HW215867   2.161   4.300   3.754  0.3336  1.3858 -0.2334
 1412SOL     OW15868   3.367   0.481   5.151  0.7575  0.2810  0.1914
 1412SOL    HW115869   3.412   0.501   5.069  2.0559  2.0689  1.3649
 1412SOL    HW215870   3.287   0.530   5.130  1.0785  0.8774  0.3857
 1413SOL     OW15871   0.609   2.689   4.090 -0.3522 -0.5551 -0.1198
 1413SOL    HW115872   0.630   2.667   3.999 -0.8012  2.8707 -1.0471
 1413SOL    HW215873   0.689   2.662   4.135 -1.2765  0.2574  1.9579
 1414SOL     OW15874   1.887   3.633   8.590  0.3198 -0.3925  0.1897
 1414SOL    HW115875   1.899   3.649   8.496  1.0049  1.2690  0.5707
 1414SOL    HW215876   1.793   3.617   8.595  0.2726 -0.7807 -1.7046
 1415SOL     OW15877   0.346   3.470  11.244 -0.1341  0.1591  0.7500
 1415SOL    HW115878   0.391   3.551  11.220 -0.4968  0.1374  0.0095
 1415SOL    HW215879   0.303   3.495  11.326 -0.5705 -1.2769  0.9584
 1416SOL     OW15880   4.220   2.323   2.086  0.1019 -0.1208 -0.3645
 1416SOL    HW115881   4.185   2.345   2.172 -2.4115  2.5572 -2.1241
 1416SOL    HW215882   4.248   2.237   2.118 -1.8678  0.0559  1.8341
 1417SOL     OW15883   3.955   0.157   6.642 -0.3081  0.0679 -0.1493
 1417SOL    HW115884   3.947   0.151   6.547  1.1551 -1.3852 -0.1667
 1417SOL    HW215885   3.864   0.180   6.663 -1.1507 -3.6231  0.1622
 1418SOL     OW15886   3.686   3.117   7.997 -0.0986  0.3717 -0.0621
 1418SOL    HW115887   3.731   3.146   8.076 -0.0221  1.3557 -0.4608
 1418SOL    HW215888   3.593   3.131   8.017 -0.6509 -0.6476 -1.9661
 1419SOL     OW15889   3.722   1.147  11.509  0.3153  0.2508 -0.6730
 1419SOL    HW115890   3.734   1.071  11.566 -1.6643  1.9931  2.0301
 1419SOL    HW215891   3.692   1.206  11.577  1.0186 -0.6310  0.3945
 1420SOL     OW15892   3.978   4.250   4.939 -0.4954 -0.2730 -0.5637
 1420SOL    HW115893   3.941   4.194   4.871  2.1338 -2.5745 -0.1406
 1420SOL    HW215894   3.983   4.187   5.011  0.8594 -0.1318 -0.5229
 1421SOL     OW15895   4.029   1.677  11.970  0.2771 -0.0550 -0.1381
 1421SOL    HW115896   4.080   1.599  11.990 -2.4454 -1.1504  2.6260
 1421SOL    HW215897   4.090   1.750  11.985  0.4805 -0.0917 -0.8011
 1422SOL     OW15898   0.270   4.354   5.532 -1.0576  0.1195  0.4428
 1422SOL    HW115899   0.358   4.365   5.495 -1.4761  0.7281 -0.3497
 1422SOL    HW215900   0.217   4.411   5.477  0.5352  0.8680 -0.3090
 1423SOL     OW15901   3.782   3.618  17.185 -0.1564  0.0079 -0.1953
 1423SOL    HW115902   3.690   3.610  17.210 -0.3266 -2.7113 -1.7186
 1423SOL    HW215903   3.832   3.681  17.238 -0.5381  0.2846 -0.1644
 1424SOL     OW15904   2.190   3.927   8.644 -0.1012 -0.0418  0.4003
 1424SOL    HW115905   2.221   3.861   8.582  0.8393  1.6632 -0.9465
 1424SOL    HW215906   2.160   4.000   8.589 -2.7111 -1.9098 -0.6667
 1425SOL     OW15907   0.685   1.973   9.019 -0.9895  0.0991  0.3548
 1425SOL    HW115908   0.678   1.882   9.047 -0.1011 -0.4366 -1.1437
 1425SOL    HW215909   0.645   1.961   8.933  0.3868  1.3549 -0.4715
 1426SOL     OW15910   0.998   1.895   5.951 -0.2564  0.2251  0.1254
 1426SOL    HW115911   1.090   1.912   5.930 -0.3326 -1.1365 -1.2244
 1426SOL    HW215912   0.958   1.912   5.866 -0.6328  1.1192  0.4780
 1427SOL     OW15913   4.094   3.986   8.359 -0.3440 -0.2668  0.3354
 1427SOL    HW115914   4.073   4.079   8.370  0.4858 -0.0517  0.1025
 1427SOL    HW215915   4.132   3.992   8.272  1.1196  2.9018  1.1987
 1428SOL     OW15916   1.704   0.006   9.873  0.3181  0.0938 -0.1757
 1428SOL    HW115917   1.707   4.652   9.869  0.0504  0.2018 -3.3348
 1428SOL    HW215918   1.623   0.024   9.920  0.6138 -0.9712  0.7312
 1429SOL     OW15919   1.823   1.994   3.498  0.3968  0.3295 -0.0586
 1429SOL    HW115920   1.838   2.061   3.431 -1.2465  0.7025 -0.0485
 1429SOL    HW215921   1.834   1.915   3.445  2.0069  0.8690 -0.5126
 1430SOL     OW15922   2.617   1.012  11.115  0.2905 -0.3384 -0.3561
 1430SOL    HW115923   2.689   1.002  11.176 -1.4869  1.3548  1.9961
 1430SOL    HW215924   2.622   1.103  11.083  1.1703 -0.6850 -1.1948
 1431SOL     OW15925   3.225   3.719  17.441  0.5658 -0.4612 -0.1771
 1431SOL    HW115926   3.295   3.749  17.383 -0.2813 -0.4585 -1.1947
 1431SOL    HW215927   3.260   3.761  17.519 -0.6712 -2.0251  1.2239
 1432SOL     OW15928   0.305   2.140   7.920  0.0977  0.1663 -0.4239
 1432SOL    HW115929   0.213   2.152   7.942  0.0523  0.6954 -0.8815
 1432SOL    HW215930   0.337   2.105   8.003  2.0694  0.3681 -1.1008
 1433SOL     OW15931   0.910   0.966   7.966 -0.0142 -0.1228 -0.2915
 1433SOL    HW115932   0.842   0.949   8.032 -0.7332  2.0329 -0.4558
 1433SOL    HW215933   0.854   1.020   7.910 -0.6211 -0.8569 -0.4002
 1434SOL     OW15934   3.657   0.556   7.623  0.7374 -0.6581 -0.0304
 1434SOL    HW115935   3.745   0.579   7.654 -0.1228 -0.0018  1.9168
 1434SOL    HW215936   3.675   0.598   7.539  0.7498 -1.0063 -0.2014
 1435SOL     OW15937   0.755   3.717  13.623  0.2878 -0.2647  0.3350
 1435SOL    HW115938   0.708   3.701  13.541 -0.6253 -0.9423  0.9936
 1435SOL    HW215939   0.842   3.714  13.583  0.5248  0.3057  0.8140
 1436SOL     OW15940   0.288   2.768  17.742 -0.6075 -0.3782  0.2999
 1436SOL    HW115941   0.376   2.796  17.718 -0.9201  1.3712  1.1996
 1436SOL    HW215942   0.235   2.845  17.719  0.6272 -0.0012 -1.3189
 1437SOL     OW15943   0.001   3.146   3.817  0.3448  0.2063  0.1493
 1437SOL    HW115944   4.683   3.092   3.868  1.4866 -1.8950 -0.7431
 1437SOL    HW215945   0.085   3.141   3.863 -0.7277 -0.6317  1.9989
 1438SOL     OW15946   1.361   1.530   2.123  0.3100 -0.1807  0.2400
 1438SOL    HW115947   1.446   1.491   2.103 -2.1839 -4.7654 -1.4679
 1438SOL    HW215948   1.360   1.600   2.058  2.2543 -0.3116  0.0692
 1439SOL     OW15949   4.015   3.036   7.301  0.1835 -0.7116  0.0519
 1439SOL    HW115950   4.104   3.015   7.273 -0.3547 -2.4089 -0.3545
 1439SOL    HW215951   4.010   3.001   7.389  0.8966  0.0736  0.4105
 1440SOL     OW15952   4.551   4.132   1.946  0.0330 -0.2691 -0.6672
 1440SOL    HW115953   4.597   4.086   1.876  0.6336 -0.0269 -0.4319
 1440SOL    HW215954   4.573   4.074   2.019  1.3709 -1.1066 -1.7367
 1441SOL     OW15955   4.010   1.066  17.545  0.5666 -0.1808  0.7781
 1441SOL    HW115956   4.037   0.976  17.526  0.1756 -0.2408  0.5221
 1441SOL    HW215957   4.092   1.104  17.514  0.1223  0.4893  0.4341
 1442SOL     OW15958   1.875   2.291   5.140  0.1984 -0.1249  0.2191
 1442SOL    HW115959   1.869   2.373   5.090  1.0154  1.1040  2.1614
 1442SOL    HW215960   1.801   2.298   5.200  0.2923  2.6179  0.0308
 1443SOL     OW15961   3.331   3.875   8.376  0.4371 -0.0007  0.6506
 1443SOL    HW115962   3.360   3.848   8.463 -0.1828 -1.5121  0.3745
 1443SOL    HW215963   3.258   3.819   8.349  1.3780  0.3780 -2.6500
 1444SOL     OW15964   1.391   3.842   5.130  0.0303  0.3111 -0.4907
 1444SOL    HW115965   1.327   3.871   5.066 -0.0755  0.6803 -0.2152
 1444SOL    HW215966   1.425   3.926   5.160 -2.3447  1.2886 -0.5791
 1445SOL     OW15967   1.204   3.509   2.622  0.5642  0.2001  0.6676
 1445SOL    HW115968   1.201   3.431   2.678 -1.4701  1.2412  1.9927
 1445SOL    HW215969   1.242   3.574   2.681 -2.0745  1.0716  1.4050
 1446SOL     OW15970   1.742   0.918  11.251 -0.2866 -0.2960  0.3823
 1446SOL    HW115971   1.827   0.954  11.276 -1.1020  0.1301  2.5590
 1446SOL    HW215972   1.763   0.838  11.203 -1.3714 -1.5420  1.9557
 1447SOL     OW15973   3.782   1.762   6.420  0.1182 -0.2234 -0.2071
 1447SOL    HW115974   3.806   1.832   6.361  0.3374  0.1881  0.3689
 1447SOL    HW215975   3.869   1.737   6.454 -0.2056 -0.8005  0.2011
 1448SOL     OW15976   2.977   2.716   5.543 -0.5808  0.1579 -0.1817
 1448SOL    HW115977   2.916   2.774   5.499  0.5941  3.1163  2.1089
 1448SOL    HW215978   3.054   2.771   5.554  0.6098 -1.3546 -0.8776
 1449SOL     OW15979   4.387   0.700   2.621 -0.3052 -0.3720 -0.1004
 1449SOL    HW115980   4.369   0.615   2.580 -1.3360 -0.2677  0.1415
 1449SOL    HW215981   4.299   0.733   2.602  0.1921  1.3469  0.6740
 1450SOL     OW15982   0.791   4.162   2.275  0.2255  0.5290 -0.0765
 1450SOL    HW115983   0.743   4.241   2.300 -1.4281 -0.8100  1.0444
 1450SOL    HW215984   0.753   4.140   2.190 -1.4411 -1.0034  1.0440
 1451SOL     OW15985   1.949   1.325   7.433 -0.1602  0.3753 -0.2479
 1451SOL    HW115986   1.875   1.341   7.374  0.0890 -1.3823 -1.0295
 1451SOL    HW215987   1.895   1.264   7.483 -0.4246  0.3125 -0.6085
 1452SOL     OW15988   3.392   4.183   8.480 -0.8580 -0.2805  0.3608
 1452SOL    HW115989   3.395   4.087   8.478 -0.8043 -0.2913  1.0268
 1452SOL    HW215990   3.466   4.210   8.534 -0.5161 -1.8496  0.6936
 1453SOL     OW15991   2.368   3.607  11.777  0.3690  0.4655  0.2333
 1453SOL    HW115992   2.313   3.589  11.853  0.9980 -1.4856  0.2351
 1453SOL    HW215993   2.342   3.531  11.725 -0.1903  1.2715 -0.6645
 1454SOL     OW15994   1.703   2.925   7.206 -0.0913 -0.8765 -0.3180
 1454SOL    HW115995   1.787   2.916   7.159  0.7119  1.1394  0.7660
 1454SOL    HW215996   1.737   2.892   7.289 -0.6637 -2.4527 -0.7119
 1455SOL     OW15997   4.613   2.201   6.794  0.3364 -0.1356  0.2149
 1455SOL    HW115998   4.549   2.267   6.819  0.2656  0.7758 -2.3955
 1455SOL    HW215999   4.685   2.257   6.765  1.0957 -1.1482  0.1475
 1456SOL     OW16000   4.104   3.052   2.299  0.3695 -0.5011  0.2671
 1456SOL    HW116001   4.073   2.962   2.286  0.3440 -0.7137  1.8277
 1456SOL    HW216002   4.041   3.092   2.239  1.4826  0.7285 -0.0801
 1457SOL     OW16003   4.736   2.704   2.743 -0.2463 -0.3108 -0.0923
 1457SOL    HW116004   0.073   2.746   2.707 -0.6379  0.2979 -0.2278
 1457SOL    HW216005   0.024   2.669   2.828  2.4466  1.5289 -0.2704
 1458SOL     OW16006   3.604   1.694   6.751  0.0810  0.3378  0.2636
 1458SOL    HW116007   3.690   1.693   6.793  0.6491 -1.3452 -0.9649
 1458SOL    HW216008   3.608   1.617   6.696 -0.7141  0.3674  0.1610
 1459SOL     OW16009   4.147   1.881   2.787 -1.1119  0.1603  0.5899
 1459SOL    HW116010   4.197   1.914   2.862  0.1894 -0.9547  0.2144
 1459SOL    HW216011   4.119   1.797   2.824 -1.2191 -0.8490 -1.8261
 1460SOL     OW16012   4.690   3.427   9.340 -0.1810 -0.4534  0.4312
 1460SOL    HW116013   4.649   3.499   9.292 -0.3263 -1.7565 -1.4310
 1460SOL    HW216014   4.616   3.367   9.348  0.2126 -1.0933 -0.6776
 1461SOL     OW16015   2.144   0.002   8.592  0.1993  0.5778 -0.4417
 1461SOL    HW116016   2.217   0.044   8.636 -0.9116  0.4271  1.5458
 1461SOL    HW216017   2.069   0.027   8.647 -0.4615  0.4587 -1.2895
 1462SOL     OW16018   3.561   4.681   3.749 -0.7180  0.2436 -0.8329
 1462SOL    HW116019   3.567   0.024   3.793 -4.8783 -0.0075  0.1902
 1462SOL    HW216020   3.540   4.612   3.813 -1.4298 -1.1471 -2.5414
 1463SOL     OW16021   3.029   0.473   8.301  0.8541 -0.5489  0.0603
 1463SOL    HW116022   2.955   0.524   8.267 -0.2504 -1.0403  1.7563
 1463SOL    HW216023   3.094   0.538   8.274 -1.7970  1.6160 -1.1063
 1464SOL     OW16024   1.761   2.397   8.785 -0.3022 -0.1870 -0.2457
 1464SOL    HW116025   1.700   2.452   8.735  0.6467 -0.0840 -1.2864
 1464SOL    HW216026   1.711   2.381   8.865  1.5174 -2.3968  0.4616
 1465SOL     OW16027   1.776   1.211   3.237  0.0951 -0.0818 -0.6691
 1465SOL    HW116028   1.804   1.127   3.200  1.3156  0.9830 -2.1128
 1465SOL    HW216029   1.851   1.246   3.284  0.7561  0.2159 -1.9480
 1466SOL     OW16030   1.033   3.130  12.026 -0.0323  0.0916 -0.6206
 1466SOL    HW116031   1.061   3.178  11.947 -0.0192 -3.2849 -2.6710
 1466SOL    HW216032   1.080   3.173  12.097  0.1463 -1.6304  0.2912
 1467SOL     OW16033   0.665   1.572  15.262  0.2220  0.5450  0.6920
 1467SOL    HW116034   0.731   1.503  15.271 -0.7581 -0.5631 -0.5262
 1467SOL    HW216035   0.606   1.545  15.333  1.9971  0.1882  2.0182
 1468SOL     OW16036   0.251   2.306   9.569 -0.2498 -0.0063  0.0552
 1468SOL    HW116037   0.300   2.293   9.487 -0.1124 -1.7387  0.4067
 1468SOL    HW216038   0.278   2.227   9.616 -0.9216  0.0598  0.5509
 1469SOL     OW16039   4.613   2.110   5.745 -0.0268  0.2760  0.4377
 1469SOL    HW116040   4.677   2.177   5.770  0.3972 -0.5304  1.5046
 1469SOL    HW216041   4.570   2.089   5.828 -0.8969  2.4703  0.5265
 1470SOL     OW16042   1.022   0.030   0.976  0.1856 -0.5654  0.1382
 1470SOL    HW116043   0.970   0.110   0.986  0.9201 -0.4096  2.8563
 1470SOL    HW216044   1.106   0.071   0.957 -0.0944 -0.3926 -0.7202
 1471SOL     OW16045   4.456   4.042   6.236 -0.1520  0.6823  0.0261
 1471SOL    HW116046   4.519   4.011   6.301 -0.2248  0.5672  0.0426
 1471SOL    HW216047   4.416   3.962   6.200  1.7947 -0.0346 -0.5496
 1472SOL     OW16048   1.779   3.313   6.730 -0.2854  0.4449 -0.6246
 1472SOL    HW116049   1.808   3.400   6.756  0.4696 -0.0659  0.2698
 1472SOL    HW216050   1.690   3.316   6.767 -0.2343 -0.1170 -0.4532
 1473SOL     OW16051   2.018   0.696  11.531  0.0698 -0.7366  0.3221
 1473SOL    HW116052   1.972   0.673  11.612  0.7747 -2.6545  0.1675
 1473SOL    HW216053   2.017   0.608  11.493  2.8720 -0.6373  0.0522
 1474SOL     OW16054   0.944   4.168   6.550 -0.3155 -0.1027 -0.1242
 1474SOL    HW116055   0.926   4.223   6.626 -1.8544 -1.7536  0.6916
 1474SOL    HW216056   0.913   4.232   6.486 -3.0285 -0.2307  1.0923
 1475SOL     OW16057   3.046   0.793   9.805 -0.2786 -0.5883 -0.5300
 1475SOL    HW116058   3.076   0.705   9.826 -0.8069 -0.2221  1.7947
 1475SOL    HW216059   2.969   0.765   9.756  0.0585 -0.7020 -0.9883
 1476SOL     OW16060   2.786   1.863   6.606  0.5785 -0.1043  0.2170
 1476SOL    HW116061   2.708   1.821   6.640  0.4384 -0.8624 -1.0366
 1476SOL    HW216062   2.857   1.810   6.643  0.9826  1.5695  1.8229
 1477SOL     OW16063   2.452   3.058   8.566 -0.2361  0.0709  0.3142
 1477SOL    HW116064   2.448   3.120   8.493  2.6114 -1.0352 -0.8160
 1477SOL    HW216065   2.379   3.082   8.623 -1.4239  3.1525 -2.5064
 1478SOL     OW16066   2.519   3.829   0.707  0.2115  0.1964  0.2540
 1478SOL    HW116067   2.501   3.735   0.712  0.0742  0.3031  1.7811
 1478SOL    HW216068   2.517   3.854   0.614 -1.6344 -2.0764 -0.3161
 1479SOL     OW16069   0.175   3.770   9.967 -0.0929 -0.0703  0.1358
 1479SOL    HW116070   0.122   3.777  10.047  0.6567 -1.4963  0.7611
 1479SOL    HW216071   0.184   3.675   9.976 -3.1187 -0.3075  0.7282
 1480SOL     OW16072   2.384   2.845   4.924 -0.1355 -0.2698  0.0009
 1480SOL    HW116073   2.468   2.810   4.894 -0.1034  1.5034 -1.9617
 1480SOL    HW216074   2.392   2.817   5.015  2.9537 -2.9811 -1.0873
 1481SOL     OW16075   3.030   1.263  17.669 -0.4493  0.4016 -0.1960
 1481SOL    HW116076   3.124   1.270  17.687 -0.0642 -2.3334 -1.0424
 1481SOL    HW216077   3.024   1.348  17.626  0.4394  0.1062 -0.9293
 1482SOL     OW16078   3.415   1.021   1.542  0.2226  0.2156 -0.4256
 1482SOL    HW116079   3.341   0.963   1.558  0.8438 -0.8110 -1.3459
 1482SOL    HW216080   3.482   0.965   1.504 -0.7595 -0.3445 -1.3211
 1483SOL     OW16081   1.453   3.082   8.509  0.0875 -0.0511  0.0274
 1483SOL    HW116082   1.410   3.070   8.424  0.0099  2.1866 -0.2433
 1483SOL    HW216083   1.539   3.043   8.501  0.1831 -0.0782  1.2311
 1484SOL     OW16084   2.408   2.626   8.959  0.1322 -0.1140  0.3236
 1484SOL    HW116085   2.461   2.582   9.025  0.3403  0.6719  0.6717
 1484SOL    HW216086   2.379   2.552   8.905 -0.5246  0.5367 -0.2202
 1485SOL     OW16087   3.231   0.379  10.412 -0.0883 -0.2289  0.0642
 1485SOL    HW116088   3.151   0.406  10.458 -0.0611 -3.2761  1.9041
 1485SOL    HW216089   3.294   0.382  10.484  0.1784  0.0991 -0.1847
 1486SOL     OW16090   4.122   2.843   1.150 -0.6924 -0.1004 -0.8437
 1486SOL    HW116091   4.177   2.880   1.219 -0.9291 -1.2505 -0.0354
 1486SOL    HW216092   4.160   2.755   1.149 -0.1031  0.1199  1.8614
 1487SOL     OW16093   0.619   1.639   2.734  0.2784  0.3198 -0.0443
 1487SOL    HW116094   0.613   1.544   2.742  0.6032  0.3884  1.0085
 1487SOL    HW216095   0.534   1.668   2.768 -0.8309 -0.3283 -2.2952
 1488SOL     OW16096   1.063   1.777   3.400 -0.1425 -0.7017 -0.2161
 1488SOL    HW116097   1.011   1.857   3.395 -0.0768 -0.6345  0.1592
 1488SOL    HW216098   1.068   1.744   3.311  1.1524 -0.2976 -0.2885
 1489SOL     OW16099   0.747   4.658  15.517 -0.0371 -0.1077 -0.3573
 1489SOL    HW116100   0.765   4.741  15.474  3.2652 -0.5115  0.2645
 1489SOL    HW216101   0.819   4.662  15.580 -0.8383  1.1685  0.4691
 1490SOL     OW16102   0.865   3.962  12.067 -0.6058  0.2080  0.4552
 1490SOL    HW116103   0.898   4.052  12.065  2.7693 -1.0301  0.3609
 1490SOL    HW216104   0.863   3.925  11.979  1.0033  2.6427 -0.5746
 1491SOL     OW16105   3.474   2.674   2.411  0.2016  0.2537  0.1955
 1491SOL    HW116106   3.408   2.655   2.477 -0.2779  0.9889 -0.0753
 1491SOL    HW216107   3.432   2.702   2.330  1.4520 -3.3067 -1.6952
 1492SOL     OW16108   0.693   3.373  15.015  0.2758 -0.6278  0.4820
 1492SOL    HW116109   0.788   3.381  15.009  0.4489 -2.2337  1.1682
 1492SOL    HW216110   0.685   3.353  15.108 -0.1452  0.0427  0.5915
 1493SOL     OW16111   0.338   4.173  16.563  0.0349 -0.4409 -0.1280
 1493SOL    HW116112   0.251   4.133  16.556 -1.0569  2.2274 -1.4700
 1493SOL    HW216113   0.366   4.129  16.643  0.5236  0.6762  0.3098
 1494SOL     OW16114   2.886   3.792   6.456 -0.7883 -0.0076 -0.2771
 1494SOL    HW116115   2.904   3.844   6.378 -2.9500  0.5106 -0.4110
 1494SOL    HW216116   2.929   3.845   6.523 -2.1381 -0.3881  0.8881
 1495SOL     OW16117   3.795   3.042   2.643 -0.1446  0.2157  0.3451
 1495SOL    HW116118   3.869   3.097   2.618 -0.5652  1.1018  1.0094
 1495SOL    HW216119   3.744   3.114   2.682 -1.6839 -1.1231  0.7949
 1496SOL     OW16120   3.148   2.846  10.737  0.6060 -0.6159  0.3396
 1496SOL    HW116121   3.095   2.805  10.805 -1.1881  0.7505 -0.2200
 1496SOL    HW216122   3.176   2.926  10.781 -3.9799  0.4735  1.3075
 1497SOL     OW16123   1.543   0.026  10.153 -0.0872 -0.6494  0.1603
 1497SOL    HW116124   1.636   0.040  10.171 -0.8104  2.2589  1.4970
 1497SOL    HW216125   1.507   0.080  10.223 -1.2994 -0.9578 -0.2145
 1498SOL     OW16126   2.737   0.239   5.010 -0.2433  0.0967  0.1932
 1498SOL    HW116127   2.685   0.190   5.074  1.8534 -0.0475  1.7963
 1498SOL    HW216128   2.827   0.241   5.044  0.1730 -0.2942 -0.8829
 1499SOL     OW16129   3.608   3.737   9.302  0.1466  0.3912  0.6166
 1499SOL    HW116130   3.521   3.731   9.262 -0.0477  1.2631  0.9094
 1499SOL    HW216131   3.639   3.651   9.274  0.9619  1.9131 -3.1649
 1500SOL     OW16132   3.430   3.622  12.983  0.2944  0.1194 -0.4705
 1500SOL    HW116133   3.444   3.717  12.985  0.5632  0.0377  1.2049
 1500SOL    HW216134   3.507   3.593  12.934 -0.6827 -0.7919 -1.5025
 1501SOL     OW16135   1.378   0.772   3.672 -0.4235 -0.7060  0.1748
 1501SOL    HW116136   1.410   0.857   3.701 -0.5036  0.2183 -2.4436
 1501SOL    HW216137   1.455   0.720   3.694  0.2433  0.0505 -0.3876
 1502SOL     OW16138   3.319   3.216   8.067 -0.0866  0.0747 -0.1040
 1502SOL    HW116139   3.228   3.240   8.080  0.2583  1.4888 -0.3133
 1502SOL    HW216140   3.304   3.132   8.023  1.3957 -0.1216 -0.2275
 1503SOL     OW16141   4.421   0.711   6.886  0.2597 -0.0234  0.2321
 1503SOL    HW116142   4.399   0.760   6.807  0.7709 -0.9869 -0.5142
 1503SOL    HW216143   4.362   0.750   6.950 -3.4531 -3.0064 -1.3885
 1504SOL     OW16144   1.774   1.989   5.066  0.1107 -0.2191 -0.1773
 1504SOL    HW116145   1.710   2.015   5.000  0.8321  1.9879 -0.0401
 1504SOL    HW216146   1.773   2.073   5.114  0.0683 -0.3584  0.0652
 1505SOL     OW16147   3.595   4.038   4.444  0.2366  0.2566  0.1592
 1505SOL    HW116148   3.689   4.031   4.457  0.3234  0.0982 -0.5560
 1505SOL    HW216149   3.588   4.125   4.482 -2.4121 -0.1817  0.6657
 1506SOL     OW16150   0.451   1.626   7.803 -0.5578 -0.0567 -0.3136
 1506SOL    HW116151   0.460   1.616   7.708  1.0869 -1.3087 -0.0340
 1506SOL    HW216152   0.382   1.693   7.808  0.3064  0.7818  0.2822
 1507SOL     OW16153   0.515   2.501  12.276 -0.4015  0.0613  0.4505
 1507SOL    HW116154   0.511   2.496  12.372 -0.1038  0.6712  0.4927
 1507SOL    HW216155   0.532   2.595  12.272 -1.8377  0.2800 -0.3954
 1508SOL     OW16156   4.347   2.969  15.628  0.0394 -0.3475  0.3488
 1508SOL    HW116157   4.368   3.057  15.597 -3.7597  0.2081 -0.6489
 1508SOL    HW216158   4.376   2.914  15.555  0.9195  1.2771 -0.5058
 1509SOL     OW16159   1.585   0.237  13.369  0.3751 -0.4580 -0.1511
 1509SOL    HW116160   1.658   0.290  13.404 -1.1793  2.2128 -0.9312
 1509SOL    HW216161   1.597   0.260  13.277  0.7353  1.3621  0.3470
 1510SOL     OW16162   0.318   4.385   4.816  0.1021  0.2242  0.2980
 1510SOL    HW116163   0.404   4.349   4.797 -0.1410  0.7319 -1.7565
 1510SOL    HW216164   0.265   4.308   4.795  0.0671  0.2289  0.3665
 1511SOL     OW16165   2.158   3.382  16.984 -0.0514 -0.0121  0.0003
 1511SOL    HW116166   2.069   3.349  16.995 -0.9928  1.7142 -2.5569
 1511SOL    HW216167   2.141   3.473  17.007 -2.2188 -0.1401 -1.1207
 1512SOL     OW16168   0.692   1.980  11.221 -0.1700 -0.4719 -0.1297
 1512SOL    HW116169   0.670   2.029  11.142  0.7636  1.3242  0.7330
 1512SOL    HW216170   0.728   1.899  11.184 -0.2715 -0.8517  0.5847
 1513SOL     OW16171   0.303   0.387   3.253 -0.0974 -0.0917  0.0960
 1513SOL    HW116172   0.311   0.412   3.344  0.7422 -2.9339  0.8257
 1513SOL    HW216173   0.364   0.443   3.204 -0.6977  1.7526  1.4951
 1514SOL     OW16174   1.925   0.376   6.061 -0.2979  0.0182 -0.0192
 1514SOL    HW116175   1.885   0.407   5.980  2.0123  0.7113 -0.9037
 1514SOL    HW216176   1.970   0.457   6.087  1.6133 -0.6118 -1.3742
 1515SOL     OW16177   2.765   3.238   4.475 -0.5125  0.2097 -0.5659
 1515SOL    HW116178   2.675   3.244   4.508 -0.4798  0.7825 -0.5777
 1515SOL    HW216179   2.801   3.316   4.518 -0.1547  1.1881 -2.6275
 1516SOL     OW16180   2.685   3.917   2.625  0.3841 -0.4673  0.3262
 1516SOL    HW116181   2.702   3.924   2.719 -0.2536 -1.1313  0.4881
 1516SOL    HW216182   2.622   3.845   2.620 -1.0964  0.9795 -2.0114
 1517SOL     OW16183   2.798   2.377   4.761  0.1959 -0.1003  0.2472
 1517SOL    HW116184   2.749   2.328   4.695  1.0281 -2.0098  1.0276
 1517SOL    HW216185   2.749   2.459   4.756 -1.7117 -1.3894 -2.4119
 1518SOL     OW16186   1.272   0.324   5.128  0.4431  0.5563  0.3988
 1518SOL    HW116187   1.277   0.314   5.033  1.3917 -1.4488  0.6494
 1518SOL    HW216188   1.329   0.252   5.155  0.6990  0.3467 -0.7244
 1519SOL     OW16189   3.725   4.239   9.083 -0.2265  0.4081  0.3469
 1519SOL    HW116190   3.811   4.196   9.082  0.3408  1.5160  1.0724
 1519SOL    HW216191   3.730   4.292   9.004  2.1894 -2.0574 -1.1365
 1520SOL     OW16192   2.446   2.496  12.272  0.0546 -0.5604 -0.0024
 1520SOL    HW116193   2.424   2.436  12.201  0.6630 -0.3481 -0.3716
 1520SOL    HW216194   2.468   2.576  12.223  0.7253 -1.7078 -1.5783
 1521SOL     OW16195   0.403   2.122   9.701  0.0137 -0.0761 -0.0357
 1521SOL    HW116196   0.483   2.164   9.732 -0.0411  0.8260 -1.1097
 1521SOL    HW216197   0.403   2.036   9.744  1.0039 -0.6803 -1.2373
 1522SOL     OW16198   1.650   1.627   7.782 -0.2111  0.2148 -0.4661
 1522SOL    HW116199   1.745   1.622   7.790 -0.1152  1.3548 -0.8955
 1522SOL    HW216200   1.646   1.720   7.759  0.6757  0.1978 -0.7048
 1523SOL     OW16201   0.945   0.576   6.086  0.2103  0.9706  0.3149
 1523SOL    HW116202   0.862   0.552   6.127  0.1667 -1.1216 -1.0297
 1523SOL    HW216203   0.920   0.646   6.026 -0.2621 -0.5579 -1.2517
 1524SOL     OW16204   0.178   3.290   4.194  0.0195 -0.2458 -0.3049
 1524SOL    HW116205   0.233   3.345   4.251  0.2861 -0.2383 -0.5677
 1524SOL    HW216206   0.228   3.209   4.197  1.6292  0.7940  2.0445
 1525SOL     OW16207   4.650   1.082   2.375  0.5242 -0.1135 -0.6206
 1525SOL    HW116208   4.622   0.990   2.376 -0.8481  0.2924 -1.0936
 1525SOL    HW216209   4.646   1.095   2.469 -0.2864  1.9399 -0.9411
 1526SOL     OW16210   2.107   0.955   6.919 -0.4100  0.2243 -0.1285
 1526SOL    HW116211   2.127   1.031   6.973  0.1000 -0.3029  0.4218
 1526SOL    HW216212   2.156   0.983   6.841 -0.5463  0.7065 -0.0425
 1527SOL     OW16213   0.356   3.630   9.353  0.5289 -0.0769 -0.0821
 1527SOL    HW116214   0.282   3.570   9.343  1.4092 -1.7322  3.1661
 1527SOL    HW216215   0.335   3.655   9.443  1.6808  1.2350 -0.1695
 1528SOL     OW16216   0.878   0.165   1.236 -0.6236  0.1818  0.2158
 1528SOL    HW116217   0.899   0.245   1.283  0.4859  1.1818 -1.9975
 1528SOL    HW216218   0.951   0.109   1.261 -1.6883 -0.2390  2.3768
 1529SOL     OW16219   4.091   2.537   3.521 -0.2038 -0.0177 -0.2383
 1529SOL    HW116220   4.028   2.516   3.590 -0.0855 -0.4681 -0.2725
 1529SOL    HW216221   4.149   2.604   3.560 -0.6626  0.7674 -0.9144
 1530SOL     OW16222   1.096   0.786   5.331 -0.6627 -0.0582  0.6810
 1530SOL    HW116223   1.009   0.751   5.311 -0.1562 -2.4983  2.7732
 1530SOL    HW216224   1.140   0.792   5.246  1.0971  1.3059  1.6983
 1531SOL     OW16225   4.433   0.776   5.942 -0.5315 -0.1656  0.8466
 1531SOL    HW116226   4.396   0.688   5.938 -0.2221 -0.3354  1.6824
 1531SOL    HW216227   4.407   0.813   6.026 -1.4323  0.7053  0.1908
 1532SOL     OW16228   1.094   0.645   2.034  0.2559  0.2468 -0.3161
 1532SOL    HW116229   1.187   0.635   2.056 -0.1302  0.2561  1.3520
 1532SOL    HW216230   1.107   0.685   1.948  1.2364  1.0450  0.1962
 1533SOL     OW16231   2.711   4.267   2.537  0.0155  0.1844 -0.1177
 1533SOL    HW116232   2.686   4.354   2.571 -0.8226 -0.5800  1.2222
 1533SOL    HW216233   2.646   4.236   2.474 -0.2460  0.7311 -0.1220
 1534SOL     OW16234   1.062   1.206   9.506 -0.1144 -0.1169  0.3684
 1534SOL    HW116235   1.057   1.294   9.544  2.3539  0.1902 -0.0179
 1534SOL    HW216236   1.139   1.175   9.553  1.5324  2.3236 -0.6921
 1535SOL     OW16237   2.514   3.153   8.121  0.2001 -0.3281 -0.1288
 1535SOL    HW116238   2.496   3.242   8.154 -0.0167  1.0477 -4.0405
 1535SOL    HW216239   2.592   3.128   8.171  1.2614  3.1728 -0.0486
 1536SOL     OW16240   1.530   4.144   1.152 -0.7974 -0.1642 -0.3035
 1536SOL    HW116241   1.616   4.138   1.110 -0.8567  0.5643 -0.5230
 1536SOL    HW216242   1.494   4.057   1.134 -1.7336 -0.1129  1.2826
 1537SOL     OW16243   2.416   0.277   6.597 -0.1160  0.1475  0.1139
 1537SOL    HW116244   2.402   0.235   6.681  1.6321  2.5007  1.5855
 1537SOL    HW216245   2.411   0.208   6.531 -2.2320 -0.3132  0.7800
 1538SOL     OW16246   2.371   0.929   1.664  0.2185 -0.1161 -0.0388
 1538SOL    HW116247   2.451   0.928   1.717  2.0805 -2.0163 -2.8834
 1538SOL    HW216248   2.418   0.939   1.581  1.9830  1.4226  1.1436
 1539SOL     OW16249   1.326   1.326   9.174  0.0603  0.5999  0.1967
 1539SOL    HW116250   1.397   1.389   9.168  0.5352  0.0891  0.3969
 1539SOL    HW216251   1.255   1.389   9.167  0.1764  0.5777 -1.2000
 1540SOL     OW16252   3.123   1.312   9.818 -0.0971  0.5569 -0.0542
 1540SOL    HW116253   3.160   1.260   9.747 -1.1284 -1.6195  0.9992
 1540SOL    HW216254   3.102   1.241   9.879  2.1978 -0.0247  0.0391
 1541SOL     OW16255   1.185   0.625   4.691  0.0658 -0.0786 -0.5881
 1541SOL    HW116256   1.241   0.558   4.730  1.2752  2.4045  1.9410
 1541SOL    HW216257   1.098   0.601   4.724  0.8675 -0.2596  1.4129
 1542SOL     OW16258   3.596   0.428  15.488  0.0917  0.2617  0.0888
 1542SOL    HW116259   3.575   0.499  15.428  1.6320  1.2745  0.7341
 1542SOL    HW216260   3.579   0.470  15.573 -0.9152  0.4325 -0.1986
 1543SOL     OW16261   3.459   1.586  14.764 -0.5762 -0.5253  0.1614
 1543SOL    HW116262   3.524   1.655  14.758 -0.6921 -0.5571 -1.5982
 1543SOL    HW216263   3.464   1.543  14.679  1.0278 -1.5964  0.8015
 1544SOL     OW16264   0.259   0.977  12.883 -0.3125 -0.8736  0.6979
 1544SOL    HW116265   0.263   0.898  12.936 -1.3057 -0.8426  0.8207
 1544SOL    HW216266   0.175   1.016  12.907  0.9420  1.1809  1.7541
 1545SOL     OW16267   2.993   2.402   5.874  0.8477 -0.4696  0.1532
 1545SOL    HW116268   3.020   2.368   5.959  0.4903  0.9020  0.8226
 1545SOL    HW216269   3.028   2.339   5.812 -1.0227 -0.5207 -0.8777
 1546SOL     OW16270   1.106   2.908   4.221  0.2263  0.3483 -0.7821
 1546SOL    HW116271   1.107   2.852   4.143 -0.3430 -0.7011 -0.0326
 1546SOL    HW216272   1.011   2.917   4.214  0.1261  0.3395  0.6709
 1547SOL     OW16273   1.028   3.916   6.614 -0.2929 -0.1170  0.0660
 1547SOL    HW116274   1.104   3.970   6.635  1.6461 -2.3723 -1.1090
 1547SOL    HW216275   0.972   3.990   6.593  0.0104  0.0730 -0.0640
 1548SOL     OW16276   0.179   2.062   9.410 -0.5079 -0.4175 -0.0339
 1548SOL    HW116277   0.176   2.138   9.352  2.7734  0.1138  0.4942
 1548SOL    HW216278   0.169   2.104   9.496  0.2733 -1.3169  0.4985
 1549SOL     OW16279   3.619   0.629   5.698  0.0134  0.0568 -0.1080
 1549SOL    HW116280   3.538   0.672   5.727  0.1764  0.5413 -0.3670
 1549SOL    HW216281   3.677   0.703   5.679 -0.6799  0.9169  1.0802
 1550SOL     OW16282   3.408   0.241   4.667 -0.3323  0.3849 -0.5961
 1550SOL    HW116283   3.489   0.189   4.676 -1.9227 -2.2546 -1.4693
 1550SOL    HW216284   3.347   0.193   4.611 -0.9140  2.7115 -1.9590
 1551SOL     OW16285   4.558   4.347   1.164  0.0025  0.1941  0.5933
 1551SOL    HW116286   4.602   4.431   1.149 -0.9956  0.6323  0.1242
 1551SOL    HW216287   4.533   4.356   1.256  2.1103 -1.8230  1.3608
 1552SOL     OW16288   4.389   2.531   2.029  0.2328 -0.4152 -0.4816
 1552SOL    HW116289   4.339   2.450   2.023 -1.6720  0.6747  0.5817
 1552SOL    HW216290   4.480   2.507   2.046  0.5235 -0.3170 -1.8770
 1553SOL     OW16291   1.433   0.968   6.522 -0.1767 -0.1582  0.2143
 1553SOL    HW116292   1.487   0.984   6.600  1.4471 -1.6461 -0.6179
 1553SOL    HW216293   1.480   0.895   6.483 -0.0878 -0.7838  1.4770
 1554SOL     OW16294   2.863   0.312   1.282 -0.1296 -0.6953 -0.0261
 1554SOL    HW116295   2.870   0.217   1.291  2.4149 -0.4267  1.0705
 1554SOL    HW216296   2.799   0.319   1.211 -0.0633  2.8845  0.2548
 1555SOL     OW16297   1.088   0.151   5.414 -0.1399  0.4950 -0.3380
 1555SOL    HW116298   1.016   0.133   5.475  0.5148 -1.3345 -0.1170
 1555SOL    HW216299   1.042   0.219   5.364 -0.2819 -0.7315 -1.8659
 1556SOL     OW16300   3.280   2.553   3.755 -0.1903  0.3551  0.6138
 1556SOL    HW116301   3.364   2.584   3.790 -0.9206  1.7488  1.1322
 1556SOL    HW216302   3.275   2.608   3.676 -0.4631  2.4566  2.0965
 1557SOL     OW16303   4.710   3.363  16.247 -0.0805 -0.0304 -0.0774
 1557SOL    HW116304   4.696   3.373  16.153 -1.3104 -0.2774  0.0794
 1557SOL    HW216305   4.628   3.387  16.289 -1.1721 -0.1237 -2.1388
 1558SOL     OW16306   1.743   1.803  11.162  0.0643  1.0834  0.8445
 1558SOL    HW116307   1.723   1.743  11.233  0.0950 -0.2310 -0.2531
 1558SOL    HW216308   1.667   1.779  11.108  0.8497  1.9282 -0.6658
 1559SOL     OW16309   1.459   2.345   2.235  0.2772 -0.1946  0.2200
 1559SOL    HW116310   1.451   2.420   2.295 -0.0680 -0.1921  0.1731
 1559SOL    HW216311   1.543   2.358   2.191 -0.8690 -0.8223 -2.1877
 1560SOL     OW16312   3.511   3.748   6.786  0.1821  0.4352  0.0089
 1560SOL    HW116313   3.430   3.704   6.814  1.5751 -1.1347  1.6547
 1560SOL    HW216314   3.534   3.796   6.865  0.5502  0.1560  0.0745
 1561SOL     OW16315   0.243   3.619   5.029  0.0954  0.1925 -0.5098
 1561SOL    HW116316   0.328   3.648   4.997  0.0724  2.1289  1.1745
 1561SOL    HW216317   0.255   3.629   5.123  2.9862  1.2503 -0.9999
 1562SOL     OW16318   0.611   0.944   3.034 -0.1126  0.4312 -0.3593
 1562SOL    HW116319   0.697   0.945   2.992 -0.4501  0.7094 -1.0453
 1562SOL    HW216320   0.627   0.985   3.119 -0.3815 -0.4677  0.1237
 1563SOL     OW16321   3.566   2.990   1.647 -0.4188 -0.4546 -0.0308
 1563SOL    HW116322   3.626   2.947   1.707 -0.9559  0.7316  1.3632
 1563SOL    HW216323   3.615   2.982   1.565  0.1578  1.3846  0.1312
 1564SOL     OW16324   2.637   1.262   2.131 -0.6973  0.0093  0.1047
 1564SOL    HW116325   2.639   1.343   2.181  0.4408 -2.3590  3.9190
 1564SOL    HW216326   2.656   1.287   2.041  0.0631 -1.1356 -0.0646
 1565SOL     OW16327   1.398   1.667   3.401 -0.5191 -0.0845  0.4259
 1565SOL    HW116328   1.464   1.674   3.332  1.5468 -0.0306  2.4209
 1565SOL    HW216329   1.336   1.737   3.380  0.0034  0.2729  0.1023
 1566SOL     OW16330   2.462   2.882  12.580  0.3182 -1.3227 -0.0514
 1566SOL    HW116331   2.404   2.849  12.650  0.6072  2.3150  1.9162
 1566SOL    HW216332   2.544   2.880  12.628  0.9021  0.6687 -0.9876
 1567SOL     OW16333   1.457   0.118   9.587  0.4168 -0.3679  0.2684
 1567SOL    HW116334   1.549   0.135   9.605  1.0298 -2.8686 -0.5718
 1567SOL    HW216335   1.444   0.034   9.631 -1.0350  0.1493  0.8288
 1568SOL     OW16336   2.438   3.454  13.705 -0.0170  0.1357  0.2627
 1568SOL    HW116337   2.496   3.378  13.693 -2.4576 -2.1406  2.8914
 1568SOL    HW216338   2.464   3.470  13.796  4.2947  2.0213 -1.3001
 1569SOL     OW16339   4.698   3.965   7.537 -0.5164 -0.3852  0.4148
 1569SOL    HW116340   4.700   3.984   7.631 -0.7105 -1.1605  0.5735
 1569SOL    HW216341   4.645   4.040   7.509 -1.5547 -0.2240  2.7665
 1570SOL     OW16342   2.552   2.542   6.927 -0.2000  0.4268  0.1439
 1570SOL    HW116343   2.567   2.487   6.850 -1.6311 -0.3690  0.4326
 1570SOL    HW216344   2.613   2.615   6.917  1.2577 -0.4964  2.2341
 1571SOL     OW16345   0.034   1.375   5.823  0.0431 -0.2372  0.1950
 1571SOL    HW116346   0.049   1.320   5.900  1.6422  0.7183  0.5657
 1571SOL    HW216347   0.032   1.457   5.873 -0.1395 -0.6780  0.9149
 1572SOL     OW16348   2.007   4.292   1.324  0.1837  0.1118 -0.0884
 1572SOL    HW116349   1.964   4.248   1.397 -1.0090 -1.2083 -1.5927
 1572SOL    HW216350   2.053   4.358   1.376  1.5434 -1.1440  0.3149
 1573SOL     OW16351   2.770   2.357   5.357  0.0969 -0.3112  0.0539
 1573SOL    HW116352   2.854   2.393   5.384 -1.1224  2.7766 -0.2621
 1573SOL    HW216353   2.712   2.406   5.415 -0.5431  1.4199 -2.0508
 1574SOL     OW16354   4.192   2.077   7.944 -0.2681 -0.1727 -0.7757
 1574SOL    HW116355   4.197   1.997   7.891 -2.6413 -0.0408 -1.2021
 1574SOL    HW216356   4.147   2.043   8.021  0.0136  0.7910 -0.1881
 1575SOL     OW16357   3.209   0.982   8.215 -0.0212 -0.0467 -0.4770
 1575SOL    HW116358   3.174   0.962   8.128 -1.7930 -0.6200  0.3717
 1575SOL    HW216359   3.288   1.025   8.183 -0.2758 -0.2610 -1.4115
 1576SOL     OW16360   1.369   3.606   5.271  0.3285  0.2927  0.4577
 1576SOL    HW116361   1.370   3.694   5.232  0.0130  0.9852  2.0327
 1576SOL    HW216362   1.319   3.560   5.203 -0.2781 -1.3649  2.0383
 1577SOL     OW16363   2.669   1.882   7.433 -0.0838 -0.2114  0.1452
 1577SOL    HW116364   2.724   1.870   7.510  0.8878 -4.5929 -1.2151
 1577SOL    HW216365   2.587   1.896   7.480 -0.0605 -0.7456  0.3434
 1578SOL     OW16366   3.683   1.061   4.889 -0.2928 -0.5276 -1.1302
 1578SOL    HW116367   3.772   1.090   4.908 -1.6559  2.5198  0.5735
 1578SOL    HW216368   3.702   0.980   4.843  0.7331 -1.4447  0.9294
 1579SOL     OW16369   3.925   3.554   2.877 -0.0128  0.7243  0.1162
 1579SOL    HW116370   3.865   3.596   2.939  0.8864  1.9597  0.1374
 1579SOL    HW216371   3.943   3.472   2.923 -1.4726  0.7063  0.6639
 1580SOL     OW16372   4.486   1.054   6.046  0.5153 -0.0275  0.0829
 1580SOL    HW116373   4.444   0.996   6.109 -0.0099 -0.8894 -1.0577
 1580SOL    HW216374   4.434   1.041   5.967  2.6434 -1.3262 -1.1286
 1581SOL     OW16375   0.205   4.443   1.733 -0.0586 -0.1861  0.0793
 1581SOL    HW116376   0.150   4.403   1.665  0.5809  0.7117 -0.9742
 1581SOL    HW216377   0.293   4.432   1.696 -0.5692 -1.5004 -0.7240
 1582SOL     OW16378   0.345   4.375   7.839 -0.0210  0.4152 -0.0090
 1582SOL    HW116379   0.386   4.294   7.869 -0.6000  0.4958  0.9920
 1582SOL    HW216380   0.422   4.427   7.814  1.6093 -2.3873 -0.7250
 1583SOL     OW16381   3.196   4.492  17.627 -0.0996  0.0406 -0.1258
 1583SOL    HW116382   3.180   4.399  17.648 -1.9163 -0.0678 -1.9186
 1583SOL    HW216383   3.110   4.508  17.589 -0.5958  1.4891  1.6471
 1584SOL     OW16384   0.127   2.671   4.062 -0.3803  0.1335 -0.3942
 1584SOL    HW116385   0.121   2.753   4.111 -0.0556 -0.5436  0.7532
 1584SOL    HW216386   0.215   2.637   4.080 -1.3299 -1.6987  0.7034
 1585SOL     OW16387   4.379   2.597   3.239  0.3382 -0.3034 -0.2468
 1585SOL    HW116388   4.308   2.535   3.253 -0.3641  0.8924  1.4733
 1585SOL    HW216389   4.338   2.655   3.175  0.5466  1.1455  0.9337
 1586SOL     OW16390   0.856   2.034   1.794 -0.0977 -0.1323 -0.0981
 1586SOL    HW116391   0.796   2.080   1.734 -2.0171 -0.6367  1.4407
 1586SOL    HW216392   0.914   1.990   1.732 -1.0629  1.4721 -2.1870
 1587SOL     OW16393   1.937   3.378   5.832 -0.0057  0.3133  0.1059
 1587SOL    HW116394   1.983   3.328   5.900 -0.7468 -0.0684  0.3335
 1587SOL    HW216395   1.905   3.306   5.779  0.0809  0.0540  0.4034
 1588SOL     OW16396   3.172   3.151   8.625 -0.0001 -0.3866 -0.3560
 1588SOL    HW116397   3.185   3.229   8.572 -1.1701 -0.1476 -0.3093
 1588SOL    HW216398   3.150   3.080   8.565 -0.1287 -0.9700  0.3849
 1589SOL     OW16399   2.263   3.066   2.994 -0.5591  0.5755 -0.0686
 1589SOL    HW116400   2.214   3.111   3.062 -2.6939  0.7690 -1.7409
 1589SOL    HW216401   2.276   2.983   3.041  0.6818  0.3264 -0.8342
 1590SOL     OW16402   1.954   1.028   7.998 -0.0359  0.0254  0.5324
 1590SOL    HW116403   1.957   0.933   7.986 -1.2725  0.1604 -0.9687
 1590SOL    HW216404   1.949   1.033   8.093 -3.8904  1.8057  0.2716
 1591SOL     OW16405   2.361   2.828   5.772 -0.2219 -0.2355 -0.2946
 1591SOL    HW116406   2.415   2.749   5.773  0.4189  0.1904 -1.0077
 1591SOL    HW216407   2.289   2.784   5.726 -0.6835 -1.4691  1.6127
 1592SOL     OW16408   3.327   0.585   9.147  0.1877  0.0373 -0.1738
 1592SOL    HW116409   3.320   0.578   9.242 -0.0533 -0.7277 -0.2523
 1592SOL    HW216410   3.240   0.622   9.129 -0.4381 -1.3730 -0.0394
 1593SOL     OW16411   4.471   2.347  15.779 -1.1826 -1.0517  0.0805
 1593SOL    HW116412   4.479   2.410  15.851  1.7549  0.0106 -1.1921
 1593SOL    HW216413   4.540   2.386  15.725 -1.9081 -0.4822 -0.4260
 1594SOL     OW16414   4.261   2.990   7.204  0.1536  0.0948 -0.1059
 1594SOL    HW116415   4.310   3.043   7.141  1.1892 -1.4244 -0.5816
 1594SOL    HW216416   4.318   2.913   7.203  0.2244  0.1596 -1.4609
 1595SOL     OW16417   4.326   1.076  13.223 -0.2533 -0.0131  0.4184
 1595SOL    HW116418   4.238   1.103  13.198 -0.2336  0.4907  0.9190
 1595SOL    HW216419   4.299   0.993  13.262 -1.6736  0.7052  0.9433
 1596SOL     OW16420   1.025   0.125   3.706  0.4137  0.0325  0.6318
 1596SOL    HW116421   1.055   0.211   3.736  0.0316 -0.2470  1.8460
 1596SOL    HW216422   1.023   0.139   3.612 -1.5526 -1.1718  0.4800
 1597SOL     OW16423   2.496   3.197  14.325 -0.0505  0.3052 -0.2617
 1597SOL    HW116424   2.509   3.107  14.355 -2.0437  0.6827  1.6940
 1597SOL    HW216425   2.435   3.234  14.389  1.1041 -0.8348  1.4743
 1598SOL     OW16426   1.980   3.968  10.943  0.0802  0.0659 -0.0876
 1598SOL    HW116427   2.060   3.994  10.988  0.2216 -0.7888  0.1400
 1598SOL    HW216428   1.916   4.022  10.990  1.6120 -0.2415  2.3249
 1599SOL     OW16429   2.482   0.283  14.795 -0.0122  0.0679  0.5712
 1599SOL    HW116430   2.547   0.251  14.733 -0.2302 -0.7554  0.7649
 1599SOL    HW216431   2.505   0.375  14.782 -1.3908  0.2336 -0.7227
 1600SOL     OW16432   1.810   2.040   9.837  0.3150  0.2882 -0.6338
 1600SOL    HW116433   1.802   2.135   9.831 -1.8606  0.3810  3.4179
 1600SOL    HW216434   1.905   2.027   9.832 -0.1260 -2.7558 -1.1055
 1601SOL     OW16435   3.317   4.394   5.572 -0.1270 -0.3102  0.2838
 1601SOL    HW116436   3.393   4.415   5.518 -0.5790  2.6817  0.8298
 1601SOL    HW216437   3.281   4.313   5.536 -0.7083 -0.7192  1.7760
 1602SOL     OW16438   4.396   2.438   6.287  0.6922  0.5782 -0.2044
 1602SOL    HW116439   4.339   2.363   6.269 -0.2486  1.3469 -0.4116
 1602SOL    HW216440   4.347   2.510   6.247  2.3503  1.5234 -0.5180
 1603SOL     OW16441   3.429   4.249   2.818  0.3193 -0.0110 -0.1523
 1603SOL    HW116442   3.354   4.256   2.877 -0.3800  2.2229 -1.3387
 1603SOL    HW216443   3.417   4.158   2.790 -0.0644 -0.4357  1.3723
 1604SOL     OW16444   3.740   0.292  14.288  0.0477 -0.1613  0.6586
 1604SOL    HW116445   3.801   0.344  14.340 -0.6316  1.5056 -0.1821
 1604SOL    HW216446   3.762   0.204  14.318 -0.1931 -0.5243 -0.2319
 1605SOL     OW16447   2.227   0.079   7.247  0.4439 -0.0530 -0.1131
 1605SOL    HW116448   2.175   0.008   7.285 -2.3282  2.6599  1.1913
 1605SOL    HW216449   2.304   0.024   7.233  0.9785  0.2277  1.6665
 1606SOL     OW16450   3.860   4.467   9.692  0.3077  0.0277 -0.5620
 1606SOL    HW116451   3.823   4.518   9.765  2.4065  0.7327  0.0121
 1606SOL    HW216452   3.784   4.421   9.658 -0.2963  0.2371  0.4972
 1607SOL     OW16453   1.208   1.528   2.952 -0.0604  0.3236  0.3791
 1607SOL    HW116454   1.211   1.515   2.857  1.5693 -0.2402  0.5036
 1607SOL    HW216455   1.210   1.443   2.995  2.4957  0.6817  0.9450
 1608SOL     OW16456   1.993   0.607   4.115 -0.2270  0.1695 -0.2053
 1608SOL    HW116457   2.051   0.611   4.039 -1.0176  0.0284 -0.8126
 1608SOL    HW216458   2.019   0.528   4.162 -0.1455  0.2064 -0.1885
 1609SOL     OW16459   4.405   2.364  14.452 -0.5796 -0.0344  0.7078
 1609SOL    HW116460   4.496   2.376  14.477 -0.3070  0.0852 -0.3259
 1609SOL    HW216461   4.369   2.435  14.505 -2.1040  0.8026 -1.4180
 1610SOL     OW16462   0.801   0.432  16.770  0.7932  0.0156  0.1781
 1610SOL    HW116463   0.788   0.338  16.780 -1.1488  0.4824  1.9961
 1610SOL    HW216464   0.733   0.467  16.712  0.6028 -0.6285  0.0141
 1611SOL     OW16465   1.817   0.417   5.804 -0.3896  0.4778  0.1292
 1611SOL    HW116466   1.784   0.349   5.745  0.7523  0.1705 -0.1762
 1611SOL    HW216467   1.911   0.401   5.797 -0.3805  0.8205 -0.4866
 1612SOL     OW16468   0.372   0.915  17.427  0.2678 -0.0297  0.7275
 1612SOL    HW116469   0.276   0.915  17.436  0.3290  2.0723  1.4653
 1612SOL    HW216470   0.376   0.842  17.365 -1.1684  1.1862 -0.8117
 1613SOL     OW16471   0.061   1.136   6.950  0.5891  0.4395 -0.0631
 1613SOL    HW116472   0.137   1.086   6.919  1.2421  0.9008  0.7933
 1613SOL    HW216473   0.108   1.192   7.012  2.3026 -2.5005  1.3102
 1614SOL     OW16474   0.522   0.775   4.325  0.0589 -0.0820 -0.1123
 1614SOL    HW116475   0.602   0.741   4.365  0.3665  0.1388 -0.5464
 1614SOL    HW216476   0.493   0.838   4.391  0.6541 -0.5779  0.6211
 1615SOL     OW16477   1.325   0.468   5.359  0.0295 -1.0655  0.6420
 1615SOL    HW116478   1.313   0.424   5.275  1.2035  1.7729 -1.0182
 1615SOL    HW216479   1.361   0.554   5.338 -0.2341 -0.1282  3.9542
 1616SOL     OW16480   2.583   3.524   9.111  0.9329  0.1171 -0.1233
 1616SOL    HW116481   2.583   3.429   9.123 -1.2480  0.0450 -0.6164
 1616SOL    HW216482   2.557   3.524   9.019  2.5767 -0.1366 -0.5849
 1617SOL     OW16483   2.403   0.180   7.588 -0.2040 -0.0183  0.0936
 1617SOL    HW116484   2.455   0.106   7.554 -0.3383 -0.5603  1.0820
 1617SOL    HW216485   2.428   0.253   7.531  0.3928 -0.5271 -0.3040
 1618SOL     OW16486   0.657   1.628  12.006  0.1230 -0.2068 -0.2303
 1618SOL    HW116487   0.563   1.636  12.023  0.4631 -1.9938  2.4011
 1618SOL    HW216488   0.651   1.588  11.920 -0.2224  1.4470 -0.9705
 1619SOL     OW16489   2.232   0.855   5.094 -0.4972 -0.3971 -0.4400
 1619SOL    HW116490   2.217   0.917   5.166  1.6593 -1.8223  1.2473
 1619SOL    HW216491   2.325   0.837   5.106 -0.5982 -1.3634 -1.1672
 1620SOL     OW16492   2.291   0.199  10.311  0.0735 -0.1705  0.3679
 1620SOL    HW116493   2.363   0.207  10.374  1.0839 -0.0420 -0.8087
 1620SOL    HW216494   2.333   0.246  10.239 -2.2025 -0.1818 -0.9743
 1621SOL     OW16495   1.294   0.255   0.722  0.0864 -0.2969  0.1772
 1621SOL    HW116496   1.230   0.283   0.656 -0.2976  1.4083  1.2753
 1621SOL    HW216497   1.244   0.219   0.795  1.7321  0.5007  1.7062
 1622SOL     OW16498   0.032   3.520   3.284  0.4524 -0.0321  0.3436
 1622SOL    HW116499   0.051   3.546   3.194 -1.9241  1.6825  0.3540
 1622SOL    HW216500   0.008   3.600   3.329 -0.0496  0.2261 -0.3928
 1623SOL     OW16501   3.772   1.583   4.381 -0.3500 -0.7081 -0.5025
 1623SOL    HW116502   3.795   1.507   4.435 -1.1348  0.9078  2.1394
 1623SOL    HW216503   3.712   1.627   4.442  1.2318  1.9287 -0.8443
 1624SOL     OW16504   2.039   4.736   5.598  0.3796  0.7865  0.5398
 1624SOL    HW116505   2.048   0.018   5.691  0.0136  0.2881  0.6997
 1624SOL    HW216506   2.128   0.013   5.569 -0.1562  1.2560 -0.7665
 1625SOL     OW16507   3.686   3.107   4.628  0.2995  0.0173 -1.2834
 1625SOL    HW116508   3.703   3.031   4.684  1.4812 -1.2669 -3.3539
 1625SOL    HW216509   3.632   3.061   4.564  0.1402 -1.3192 -0.1964
 1626SOL     OW16510   0.464   2.850   4.263  0.2496  0.0754  0.0445
 1626SOL    HW116511   0.509   2.795   4.199 -0.6659 -0.5507 -0.0597
 1626SOL    HW216512   0.378   2.809   4.273 -0.4168  1.5371  0.2229
 1627SOL     OW16513   1.645   1.092   9.847  0.0463  0.4286 -0.2472
 1627SOL    HW116514   1.733   1.054   9.838 -0.8037 -0.5093 -4.4272
 1627SOL    HW216515   1.659   1.178   9.807 -0.7612  0.9598  0.6231
 1628SOL     OW16516   4.290   3.740   2.551 -0.5784 -0.2350  0.0772
 1628SOL    HW116517   4.345   3.818   2.560  0.2264 -0.7632 -0.2900
 1628SOL    HW216518   4.288   3.738   2.455  0.8026  0.2569  0.0322
 1629SOL     OW16519   0.968   1.611   5.367 -0.2657 -0.1668  0.1589
 1629SOL    HW116520   0.873   1.615   5.356 -0.1004  2.1449 -0.5816
 1629SOL    HW216521   0.990   1.520   5.385  1.6824  0.0338 -1.1558
 1630SOL     OW16522   0.342   2.490  17.685 -0.4559 -0.1021  0.3776
 1630SOL    HW116523   0.333   2.432  17.760  0.5256 -0.2487  0.3867
 1630SOL    HW216524   0.335   2.576  17.728 -0.2311  0.1616 -0.1096
 1631SOL     OW16525   4.463   2.912   2.021 -0.5042  0.6644 -0.5923
 1631SOL    HW116526   4.408   2.990   2.022  1.6407  2.1605 -0.4723
 1631SOL    HW216527   4.391   2.855   2.048  0.1307 -0.3468 -1.0304
 1632SOL     OW16528   2.079   0.384   9.819  0.1704  0.0591 -0.3962
 1632SOL    HW116529   2.037   0.370   9.904 -2.6544  1.2284 -1.6022
 1632SOL    HW216530   2.167   0.358   9.845  0.1398 -0.2942 -0.6414
 1633SOL     OW16531   2.962   4.591   0.270  0.6594 -0.0114 -0.3745
 1633SOL    HW116532   2.914   4.604   0.189  0.1111  0.1043 -0.0342
 1633SOL    HW216533   3.004   4.506   0.256 -0.0870 -0.8730  2.5298
 1634SOL     OW16534   1.066   0.510  12.218 -0.1137 -0.6433 -0.3010
 1634SOL    HW116535   1.047   0.417  12.218 -5.3154  0.4205 -2.4554
 1634SOL    HW216536   0.982   0.529  12.259 -1.3873 -1.8617 -2.3271
 1635SOL     OW16537   3.176   2.989   3.663 -0.2925  0.0228  0.4315
 1635SOL    HW116538   3.237   3.029   3.725  0.0243 -0.3336  0.3508
 1635SOL    HW216539   3.123   2.933   3.720  0.2608  0.8535  1.7565
 1636SOL     OW16540   2.061   3.610   3.314 -0.6741 -0.3713  0.1812
 1636SOL    HW116541   2.016   3.681   3.268  0.6836 -0.4397 -1.2505
 1636SOL    HW216542   1.993   3.543   3.311 -1.1145  0.1044 -0.4724
 1637SOL     OW16543   1.546   2.308   5.918 -0.3259 -0.1425 -0.2369
 1637SOL    HW116544   1.573   2.398   5.935  2.7913 -0.7842 -1.7912
 1637SOL    HW216545   1.634   2.273   5.908  0.6624  2.3348 -0.2240
 1638SOL     OW16546   3.127   2.788  11.651  0.6679  0.1683 -0.2482
 1638SOL    HW116547   3.128   2.788  11.747 -3.1106 -4.0498 -0.1939
 1638SOL    HW216548   3.212   2.829  11.635  1.3921 -1.3725 -0.3071
 1639SOL     OW16549   0.495   1.035   7.792  0.0812 -0.1700  0.3010
 1639SOL    HW116550   0.448   1.065   7.869  2.7252  3.3491  0.5635
 1639SOL    HW216551   0.480   1.102   7.724  0.5304 -2.7610 -2.3527
 1640SOL     OW16552   1.192   0.617   7.008 -0.2063  0.2534 -0.1285
 1640SOL    HW116553   1.211   0.621   6.914  0.4311 -0.1183 -0.0123
 1640SOL    HW216554   1.156   0.529   7.019  1.5744 -0.4344  0.2973
 1641SOL     OW16555   1.920   0.984   3.153 -0.1931 -0.4829 -0.4065
 1641SOL    HW116556   1.985   0.919   3.125  0.4245  0.3957 -1.0024
 1641SOL    HW216557   1.911   0.969   3.247  3.5339  1.5894  0.2741
 1642SOL     OW16558   4.504   2.868   1.745  0.4053  0.5902  0.0190
 1642SOL    HW116559   4.501   2.866   1.840  0.4718 -1.7486 -0.0288
 1642SOL    HW216560   4.430   2.810   1.728 -0.9961  2.5628 -0.5817
 1643SOL     OW16561   2.896   3.443   7.899  0.7881  0.2776 -0.3203
 1643SOL    HW116562   2.836   3.369   7.894 -3.1541  3.4044  0.1265
 1643SOL    HW216563   2.856   3.502   7.964 -0.7210 -1.9611  0.7827
 1644SOL     OW16564   2.009   4.599   7.130  0.0929  0.2041  0.2453
 1644SOL    HW116565   2.088   4.571   7.084  1.3004  0.3499  2.2429
 1644SOL    HW216566   2.020   4.577   7.222 -0.7997  1.7770  0.7264
 1645SOL     OW16567   3.166   3.518   8.328  0.6796 -0.2538 -0.8762
 1645SOL    HW116568   3.257   3.521   8.299  1.4374 -1.6544  1.3377
 1645SOL    HW216569   3.147   3.609   8.352  0.7389  0.0483 -1.9712
 1646SOL     OW16570   3.429   2.845  10.714 -0.2268  0.1113  0.4653
 1646SOL    HW116571   3.448   2.824  10.805 -1.0934 -0.5272  0.4953
 1646SOL    HW216572   3.336   2.868  10.717 -0.1065  0.5898  0.5124
 1647SOL     OW16573   1.585   2.340   4.679 -0.3945 -0.2235  0.4331
 1647SOL    HW116574   1.576   2.349   4.584  1.8368 -0.3092  0.2130
 1647SOL    HW216575   1.671   2.297   4.675 -1.4630 -2.3127 -0.0351
 1648SOL     OW16576   0.178   4.349   3.399 -0.1493  0.0619  0.7088
 1648SOL    HW116577   0.272   4.362   3.410 -0.2115  2.1551 -1.1036
 1648SOL    HW216578   0.165   4.268   3.350 -0.3838 -0.0222  0.9105
 1649SOL     OW16579   0.580   2.653   5.175 -0.6291  0.0513 -0.7992
 1649SOL    HW116580   0.624   2.646   5.091  0.7898 -0.0198 -0.0387
 1649SOL    HW216581   0.534   2.736   5.162 -1.7430 -0.5140 -0.4991
 1650SOL     OW16582   4.255   1.438   2.953  0.4091 -0.1208  0.1951
 1650SOL    HW116583   4.251   1.348   2.987  1.0994  0.3448  1.4976
 1650SOL    HW216584   4.284   1.421   2.863  1.9600  0.5739  0.5625
 1651SOL     OW16585   1.985   1.926   1.890  0.6642 -0.0566  0.7398
 1651SOL    HW116586   2.022   1.916   1.977 -0.4737 -1.5251  1.0587
 1651SOL    HW216587   1.982   2.022   1.888 -5.2885 -0.2621 -0.0550
 1652SOL     OW16588   3.590   3.341   8.489  0.4718  0.2247 -0.0006
 1652SOL    HW116589   3.607   3.290   8.409 -4.5236 -1.9889  0.3491
 1652SOL    HW216590   3.614   3.278   8.556  1.9125 -1.2788 -1.9156
 1653SOL     OW16591   1.759   2.363   9.517 -0.0753  0.0895 -0.4315
 1653SOL    HW116592   1.790   2.273   9.508  2.8222  1.2772 -2.1090
 1653SOL    HW216593   1.666   2.341   9.507 -0.3807  0.1021  2.3288
 1654SOL     OW16594   2.629   1.453   7.138 -0.4174 -0.8979  0.1691
 1654SOL    HW116595   2.644   1.366   7.176  0.3226 -1.4558 -1.4083
 1654SOL    HW216596   2.535   1.469   7.136  0.0115  1.4362 -0.8107
 1655SOL     OW16597   4.170   3.826   1.251 -0.2841 -0.2998  0.1512
 1655SOL    HW116598   4.171   3.788   1.163 -1.1514  1.2972 -0.5485
 1655SOL    HW216599   4.229   3.770   1.303  1.7084  1.1473 -0.5361
 1656SOL     OW16600   1.740   4.605  12.330  0.3162  0.7260 -0.0300
 1656SOL    HW116601   1.711   4.629  12.242 -3.3032 -3.2642  0.0327
 1656SOL    HW216602   1.788   4.679  12.367  0.0524  1.6318 -1.5276
 1657SOL     OW16603   2.316   0.061   5.553 -0.2609 -0.0869  0.1934
 1657SOL    HW116604   2.391   0.001   5.558 -1.2659 -1.4318 -0.7896
 1657SOL    HW216605   2.358   0.140   5.518 -1.3090  0.6298  0.5410
 1658SOL     OW16606   3.380   1.998   4.882  0.4547 -0.0777 -0.7405
 1658SOL    HW116607   3.294   1.992   4.925  0.9089 -1.9709 -0.0704
 1658SOL    HW216608   3.439   1.982   4.956  1.7314  2.3596 -1.2256
 1659SOL     OW16609   3.630   2.503   6.510  0.0173 -0.0041  0.5938
 1659SOL    HW116610   3.676   2.442   6.453 -2.3257 -1.7274  0.5321
 1659SOL    HW216611   3.619   2.577   6.451 -2.8296 -0.8834  0.0091
 1660SOL     OW16612   2.790   1.521   3.135 -0.6507  0.1665  0.0198
 1660SOL    HW116613   2.722   1.526   3.068  0.0492 -1.0211 -0.7837
 1660SOL    HW216614   2.869   1.508   3.084  0.1932  2.3009  0.7856
 1661SOL     OW16615   4.537   1.589  12.436 -0.1137 -0.4063 -0.3534
 1661SOL    HW116616   4.526   1.679  12.404 -0.3712  0.3035  1.7329
 1661SOL    HW216617   4.595   1.548  12.372  1.2097  0.6724  0.1441
 1662SOL     OW16618   3.153   0.341  14.777 -0.1691 -0.3154 -0.0104
 1662SOL    HW116619   3.152   0.320  14.870 -0.5875  0.4209  0.1504
 1662SOL    HW216620   3.088   0.280  14.741 -0.2129  0.5540 -1.4320
 1663SOL     OW16621   2.499   0.540   1.475 -0.2302 -0.3744  0.0227
 1663SOL    HW116622   2.502   0.585   1.391 -2.9580 -1.2258 -0.5337
 1663SOL    HW216623   2.409   0.552   1.506 -0.2670 -1.6807  0.4296
 1664SOL     OW16624   3.232   4.549  17.366  0.1555  0.1257  0.3851
 1664SOL    HW116625   3.234   4.542  17.462  0.8423 -0.0494  0.3587
 1664SOL    HW216626   3.324   4.568  17.346  0.6144  0.5889  2.9165
 1665SOL     OW16627   4.296   4.109   9.676 -0.3240 -0.2156 -0.2512
 1665SOL    HW116628   4.256   4.156   9.750  2.3674  2.1943 -0.2758
 1665SOL    HW216629   4.215   4.065   9.652 -0.3232 -0.3083 -0.0845
 1666SOL     OW16630   4.200   1.613   0.770 -0.0172 -0.8458  0.5428
 1666SOL    HW116631   4.239   1.699   0.784 -1.4995  0.3684 -2.7356
 1666SOL    HW216632   4.229   1.574   0.852 -1.9234  1.4303  2.3238
 1667SOL     OW16633   1.430   1.378   9.458  0.1842 -0.2094  0.5559
 1667SOL    HW116634   1.406   1.364   9.366 -2.8092 -0.8558  1.4441
 1667SOL    HW216635   1.522   1.397   9.439  0.2909  0.0174  1.3142
 1668SOL     OW16636   1.398   4.272  14.536  0.0751 -0.0959 -0.1551
 1668SOL    HW116637   1.320   4.230  14.571  0.0334 -1.2990 -1.7163
 1668SOL    HW216638   1.447   4.190  14.528 -0.5818 -0.2657 -2.3397
 1669SOL     OW16639   0.469   0.841   3.773 -0.0155  0.3328 -0.1643
 1669SOL    HW116640   0.444   0.887   3.853 -0.2669  1.2607 -0.7707
 1669SOL    HW216641   0.485   0.751   3.800 -0.2776 -0.2275 -1.8328
 1670SOL     OW16642   2.918   1.798  16.808  0.3275 -0.4170 -0.5754
 1670SOL    HW116643   3.003   1.841  16.799  0.7220 -1.1412 -0.2960
 1670SOL    HW216644   2.911   1.733  16.738  2.4051 -0.8266 -0.4043
 1671SOL     OW16645   2.429   3.480   0.766  0.1366 -0.1174 -0.2190
 1671SOL    HW116646   2.412   3.401   0.818  0.9392  1.0523  1.8229
 1671SOL    HW216647   2.360   3.529   0.810  1.7276  0.7746  1.2614
 1672SOL     OW16648   3.825   2.884  12.706  0.2417 -0.3762 -0.3508
 1672SOL    HW116649   3.856   2.793  12.705  0.1339 -0.4462  1.7251
 1672SOL    HW216650   3.777   2.885  12.624  2.0285 -1.9050 -1.4228
 1673SOL     OW16651   3.547   1.058  15.309  0.0562  0.2563 -0.5177
 1673SOL    HW116652   3.512   1.131  15.258  0.3925  0.6683 -0.1593
 1673SOL    HW216653   3.487   1.065  15.384 -0.6136  1.8651 -1.2032
 1674SOL     OW16654   4.003   1.383   4.182 -0.4006  0.4301 -0.1202
 1674SOL    HW116655   3.928   1.442   4.175  0.0884  1.2781  1.8524
 1674SOL    HW216656   4.068   1.446   4.151  0.6145 -1.0684 -1.0307
 1675SOL     OW16657   1.511   3.189  14.101 -0.2586  0.2753 -0.1123
 1675SOL    HW116658   1.451   3.150  14.165  0.0335 -0.7866 -0.4684
 1675SOL    HW216659   1.584   3.128  14.090 -0.2812  0.7185 -2.7139
 1676SOL     OW16660   1.814   0.263   6.651 -0.2076  0.0746 -0.5941
 1676SOL    HW116661   1.903   0.298   6.645  0.4898 -1.7307 -0.8638
 1676SOL    HW216662   1.811   0.242   6.744 -1.3546 -0.4149 -0.7394
 1677SOL     OW16663   4.187   0.333   8.152  0.2218  0.3179 -0.1895
 1677SOL    HW116664   4.229   0.248   8.146  0.1906  0.0675  3.1882
 1677SOL    HW216665   4.095   0.312   8.170  0.5124 -1.4654 -0.7970
 1678SOL     OW16666   4.519   4.420   8.729 -0.6848  0.4533  0.4584
 1678SOL    HW116667   4.608   4.454   8.739 -0.7462  1.2403 -1.7198
 1678SOL    HW216668   4.517   4.406   8.634  0.5850 -0.3568  0.5450
 1679SOL     OW16669   3.784   2.757   5.410 -0.6928  0.6793 -0.1582
 1679SOL    HW116670   3.715   2.788   5.470 -1.1378 -0.3414 -0.1540
 1679SOL    HW216671   3.802   2.836   5.358 -1.3523  0.6578 -0.4150
 1680SOL     OW16672   2.431   3.664   7.713 -0.1257 -0.5261  0.2337
 1680SOL    HW116673   2.402   3.590   7.766 -2.0134  0.8961  1.2021
 1680SOL    HW216674   2.386   3.622   7.640 -0.8271 -0.6563  0.7457
 1681SOL     OW16675   1.378   4.496  16.216 -0.4956 -0.0334 -0.1678
 1681SOL    HW116676   1.422   4.540  16.289 -0.1454 -2.7805  1.2577
 1681SOL    HW216677   1.332   4.422  16.255 -0.6588  0.3822  0.4185
 1682SOL     OW16678   1.694   2.933  11.095 -0.1770  0.0543  0.3413
 1682SOL    HW116679   1.616   2.929  11.150 -0.0380 -2.1628  0.3996
 1682SOL    HW216680   1.709   2.838  11.091 -0.7729 -0.0363  0.3405
 1683SOL     OW16681   1.150   0.516   9.857 -0.0491 -0.0369 -0.4069
 1683SOL    HW116682   1.201   0.579   9.806 -2.6660  2.5705  0.2531
 1683SOL    HW216683   1.067   0.512   9.809 -1.1209  0.4892  1.4146
 1684SOL     OW16684   0.670   1.136   4.407  0.0683 -0.0490 -0.2235
 1684SOL    HW116685   0.675   1.058   4.352  0.3277 -0.3992  0.3004
 1684SOL    HW216686   0.705   1.204   4.350 -1.5961  0.1221 -1.0632
 1685SOL     OW16687   4.487   4.569   6.926 -0.4572  0.5350  0.9012
 1685SOL    HW116688   4.566   4.617   6.950  0.7787 -0.7320 -0.6652
 1685SOL    HW216689   4.439   4.638   6.881 -0.0633  1.2139  1.5023
 1686SOL     OW16690   0.931   2.951   9.284  0.1272  0.0020 -0.2675
 1686SOL    HW116691   0.885   2.877   9.324  0.9034 -1.0134 -1.2759
 1686SOL    HW216692   0.877   2.965   9.206 -0.9148  1.5192  0.7083
 1687SOL     OW16693   0.953   1.166   4.664 -0.4792 -0.2028 -0.3864
 1687SOL    HW116694   0.894   1.162   4.589 -2.1032 -1.6405  0.9677
 1687SOL    HW216695   0.896   1.121   4.726 -0.2014  0.3712  0.2772
 1688SOL     OW16696   2.525   0.877   8.140 -0.3998  0.0154  0.5780
 1688SOL    HW116697   2.577   0.805   8.104  1.4320  0.6973  1.8411
 1688SOL    HW216698   2.535   0.941   8.069  0.2004  0.2749  0.8933
 1689SOL     OW16699   3.906   3.800   6.732  0.0026 -0.4139 -0.2846
 1689SOL    HW116700   3.872   3.718   6.768  0.1364  0.1505  1.1326
 1689SOL    HW216701   3.948   3.764   6.654  0.1138  0.1501 -0.4858
 1690SOL     OW16702   2.198   4.176   5.311 -0.3666 -0.8879 -0.4071
 1690SOL    HW116703   2.256   4.100   5.302 -1.1426 -1.5563  0.2716
 1690SOL    HW216704   2.170   4.162   5.401  0.0726  1.4940  0.0873
 1691SOL     OW16705   0.145   1.390   2.630  0.4937  0.1595 -0.8227
 1691SOL    HW116706   0.192   1.311   2.603  0.6762 -0.0043 -0.0329
 1691SOL    HW216707   0.106   1.423   2.549 -0.3107 -2.7941 -1.6420
 1692SOL     OW16708   4.472   3.982   9.517 -0.2464  0.0070 -0.4604
 1692SOL    HW116709   4.524   4.061   9.506  0.9332 -0.5089  1.3430
 1692SOL    HW216710   4.410   4.010   9.585 -0.1542  0.1165 -0.4225
 1693SOL     OW16711   1.751   2.766   4.912  0.1390  0.2591  0.3500
 1693SOL    HW116712   1.697   2.705   4.862  0.4033 -0.0330  0.4202
 1693SOL    HW216713   1.682   2.810   4.961 -0.5004  2.0340 -2.1730
 1694SOL     OW16714   0.917   2.824   4.634 -0.3861 -0.4893  0.0392
 1694SOL    HW116715   0.857   2.769   4.585  0.7792 -1.7244 -0.0151
 1694SOL    HW216716   1.000   2.776   4.624  0.3158  0.5535  0.7957
 1695SOL     OW16717   4.515   2.950   3.902  0.1104  0.6799 -0.1738
 1695SOL    HW116718   4.455   2.877   3.915  1.7794 -0.7846 -0.6998
 1695SOL    HW216719   4.549   2.980   3.986  0.0713  1.2407 -0.3564
 1696SOL     OW16720   1.918   4.623   6.388 -0.3741 -0.2169  0.2988
 1696SOL    HW116721   1.943   4.624   6.480 -2.6136 -2.6235  0.9317
 1696SOL    HW216722   1.858   4.548   6.385 -0.8959  0.2953 -1.9628
 1697SOL     OW16723   2.787   3.872   8.305 -0.5244 -0.3843 -0.6628
 1697SOL    HW116724   2.780   3.859   8.210  0.9101  0.1456 -0.8456
 1697SOL    HW216725   2.725   3.945   8.313 -0.2815 -0.3768  1.1159
 1698SOL     OW16726   2.998   4.097   1.363  0.1793 -0.2908  0.1027
 1698SOL    HW116727   2.933   4.167   1.373  0.7446  0.1131  0.9198
 1698SOL    HW216728   3.039   4.100   1.450  1.4369  1.0770 -0.5501
 1699SOL     OW16729   0.784   1.523   2.340  0.3552  0.0227 -0.2369
 1699SOL    HW116730   0.810   1.615   2.332 -1.1864  0.2542 -2.4735
 1699SOL    HW216731   0.823   1.521   2.427 -2.2126  1.9534  0.9646
 1700SOL     OW16732   1.348   2.416  13.842 -0.6489  0.2704 -0.0388
 1700SOL    HW116733   1.432   2.386  13.807 -1.2390  0.1283 -1.3130
 1700SOL    HW216734   1.291   2.388  13.771 -2.3396 -2.1296  2.2530
 1701SOL     OW16735   1.457   1.786  17.437 -0.1908  0.2848  0.0318
 1701SOL    HW116736   1.371   1.811  17.405 -0.5326 -1.2278 -0.2362
 1701SOL    HW216737   1.471   1.852  17.505  0.7292  0.7421 -0.5956
 1702SOL     OW16738   0.482   1.010  13.054 -0.2408 -0.0038  0.7025
 1702SOL    HW116739   0.403   1.012  13.000 -0.3106 -0.2453  0.7971
 1702SOL    HW216740   0.447   0.973  13.134 -1.2141  2.7491  1.5531
 1703SOL     OW16741   4.688   4.698   7.378  0.0435  0.3399 -0.8583
 1703SOL    HW116742   0.028   0.001   7.351 -0.1083 -0.2191 -2.2508
 1703SOL    HW216743   4.719   4.663   7.461 -1.7277  1.2450  0.1917
 1704SOL     OW16744   0.739   4.134   2.821  0.0249  0.4511 -0.3634
 1704SOL    HW116745   0.720   4.040   2.825 -1.4877  0.6692 -2.4915
 1704SOL    HW216746   0.823   4.126   2.776  0.0007 -0.5074 -0.2430
 1705SOL     OW16747   4.600   0.571   8.040 -0.5400  0.2021 -0.0160
 1705SOL    HW116748   4.633   0.627   8.110 -0.1337  1.2870 -1.0640
 1705SOL    HW216749   4.661   0.601   7.972  1.8274  0.0254  2.0419
 1706SOL     OW16750   0.228   0.989   5.344  0.0948  0.0003 -0.3797
 1706SOL    HW116751   0.144   1.031   5.363 -0.2586 -0.5462 -0.7320
 1706SOL    HW216752   0.241   0.941   5.426 -2.1227  2.2902  1.3078
 1707SOL     OW16753   1.367   2.685   3.544 -0.0587 -0.1165  0.1544
 1707SOL    HW116754   1.458   2.709   3.564  1.2292 -2.6758 -2.7177
 1707SOL    HW216755   1.337   2.668   3.634 -0.0970 -4.5767 -0.7148
 1708SOL     OW16756   4.601   1.565   8.227  0.0482 -0.9809  0.1675
 1708SOL    HW116757   4.628   1.646   8.183  0.6632  0.0489  2.4642
 1708SOL    HW216758   4.679   1.536   8.274 -0.0742 -0.5943  0.6084
 1709SOL     OW16759   1.541   3.975   7.590 -0.1664 -0.3543 -0.1773
 1709SOL    HW116760   1.617   3.935   7.633 -0.2134  0.0604  0.2961
 1709SOL    HW216761   1.482   3.984   7.665  2.2696  3.3131  1.2912
 1710SOL     OW16762   2.594   0.528   0.639  0.7253  0.0878 -0.7018
 1710SOL    HW116763   2.562   0.596   0.698 -3.2484 -0.9708 -1.6031
 1710SOL    HW216764   2.585   0.441   0.676 -1.0035  0.7942  0.5273
 1711SOL     OW16765   1.202   1.137   9.027  0.0686 -0.2418  0.2306
 1711SOL    HW116766   1.255   1.173   9.099  0.1366 -1.9934  1.0829
 1711SOL    HW216767   1.234   1.179   8.948  0.3276  0.1375  0.5336
 1712SOL     OW16768   3.620   4.344   9.622 -0.2430  0.0229 -0.0217
 1712SOL    HW116769   3.638   4.267   9.568  0.9531 -1.6383  2.7962
 1712SOL    HW216770   3.536   4.374   9.587 -0.6087  2.9478  3.4251
 1713SOL     OW16771   3.430   3.697  15.793 -0.6415  0.3247 -0.2569
 1713SOL    HW116772   3.423   3.657  15.706  0.4074 -0.9883  0.2553
 1713SOL    HW216773   3.500   3.761  15.782  0.1796 -0.2405  1.7066
 1714SOL     OW16774   4.281   1.346   7.329  0.0119  0.1539 -0.2015
 1714SOL    HW116775   4.225   1.379   7.259 -1.5823 -0.3704  0.8138
 1714SOL    HW216776   4.339   1.420   7.346  1.1447 -0.7066 -0.2967
 1715SOL     OW16777   0.195   2.387   3.725  0.3742 -0.4467 -0.4744
 1715SOL    HW116778   0.285   2.403   3.752  0.7199 -0.4761 -1.5918
 1715SOL    HW216779   0.195   2.291   3.718 -1.6949 -0.5148  0.4420
 1716SOL     OW16780   3.422   3.559  15.548  0.1351 -0.3893  0.6556
 1716SOL    HW116781   3.394   3.468  15.557  1.7108 -0.7206  2.2037
 1716SOL    HW216782   3.354   3.600  15.494 -0.5396 -0.7461  1.2164
 1717SOL     OW16783   3.346   4.405   4.595 -0.0523 -0.1176  0.1278
 1717SOL    HW116784   3.320   4.423   4.505 -1.5736 -2.6196  0.0691
 1717SOL    HW216785   3.309   4.485   4.631  0.6207 -0.0916  0.7520
 1718SOL     OW16786   0.479   2.599   5.417 -0.1813  0.1537  0.3552
 1718SOL    HW116787   0.544   2.530   5.410  0.2229  0.5886 -0.1416
 1718SOL    HW216788   0.464   2.609   5.323 -1.7060  0.6537  0.6437
 1719SOL     OW16789   3.429   4.144  16.404  0.4482  0.1594 -0.1093
 1719SOL    HW116790   3.464   4.230  16.427  0.7589  0.3018 -1.1330
 1719SOL    HW216791   3.498   4.082  16.428 -0.7184 -1.9857 -2.3671
 1720SOL     OW16792   1.006   4.001   6.932  0.6592  0.5449 -0.3622
 1720SOL    HW116793   1.078   3.974   6.876 -0.7974 -1.0223 -1.5046
 1720SOL    HW216794   1.044   3.992   7.019  0.6244  0.6500 -0.3357
 1721SOL     OW16795   1.962   2.279   7.924 -0.3766  0.0712  0.1839
 1721SOL    HW116796   2.025   2.326   7.979 -0.4969 -0.7210  1.0155
 1721SOL    HW216797   2.017   2.260   7.849  0.1976  2.1878  0.0829
 1722SOL     OW16798   3.957   0.096   2.350  0.0343  0.1302 -0.8127
 1722SOL    HW116799   3.901   0.097   2.272 -0.1030 -4.6865 -0.8270
 1722SOL    HW216800   3.906   0.043   2.411 -0.1263  1.4075  0.1377
 1723SOL     OW16801   2.849   0.333   3.197 -0.1348  0.4128  0.3084
 1723SOL    HW116802   2.825   0.358   3.108 -0.1370 -0.1949  0.1362
 1723SOL    HW216803   2.881   0.244   3.181  0.0109  0.4538  0.3691
 1724SOL     OW16804   2.812   4.390   7.867 -0.3190 -0.6154  0.0763
 1724SOL    HW116805   2.881   4.454   7.850  0.1383 -1.3717 -0.8668
 1724SOL    HW216806   2.756   4.394   7.790  2.3814  0.6520 -1.8112
 1725SOL     OW16807   3.851   2.940   9.112 -0.3330 -0.0692  0.1917
 1725SOL    HW116808   3.840   3.018   9.166 -0.6764 -1.3953  2.0387
 1725SOL    HW216809   3.942   2.931   9.082 -0.5530  3.0402 -1.4032
 1726SOL     OW16810   1.439   3.415   8.741 -0.5718 -0.5398  0.4187
 1726SOL    HW116811   1.373   3.465   8.788 -1.4006  0.3082 -1.6443
 1726SOL    HW216812   1.379   3.346   8.714 -0.4342  0.3333 -2.1007
 1727SOL     OW16813   1.917   4.345   8.313  0.3930  0.0879  0.4068
 1727SOL    HW116814   1.936   4.411   8.380 -0.2902  1.1204 -0.4081
 1727SOL    HW216815   1.831   4.374   8.281  0.4963  0.5992  0.5888
 1728SOL     OW16816   3.235   3.383   7.386 -0.1113  0.3564 -0.3780
 1728SOL    HW116817   3.308   3.350   7.439 -0.2381 -0.6251 -0.8209
 1728SOL    HW216818   3.247   3.478   7.389  0.5955  0.2864 -1.2694
 1729SOL     OW16819   0.606   1.512  16.549  0.0798 -0.2457 -0.5423
 1729SOL    HW116820   0.579   1.424  16.524 -0.5326 -0.6769  1.5907
 1729SOL    HW216821   0.674   1.530  16.485  0.8381 -1.5335 -0.0914
 1730SOL     OW16822   3.972   2.491   2.080  0.0376  0.2988 -0.2455
 1730SOL    HW116823   3.946   2.543   2.004  1.1117 -0.1324 -0.8950
 1730SOL    HW216824   4.046   2.441   2.047 -1.3010 -1.5979 -0.3365
 1731SOL     OW16825   1.827   0.030   5.918 -0.5310  0.2393  0.5546
 1731SOL    HW116826   1.817   4.678   5.905 -0.0365  0.0440  1.5937
 1731SOL    HW216827   1.742   0.065   5.946  0.0607  1.9977  0.1992
 1732SOL     OW16828   0.071   3.263   8.193 -0.2118  0.1039  0.7141
 1732SOL    HW116829   0.063   3.178   8.149  1.3454  0.3479 -0.0367
 1732SOL    HW216830   4.737   3.245   8.250 -1.4211  1.3539 -0.4954
 1733SOL     OW16831   2.027   3.287   3.721 -0.1365  0.0328 -0.3889
 1733SOL    HW116832   2.007   3.198   3.693 -2.9712  1.1144 -1.8471
 1733SOL    HW216833   2.043   3.333   3.638 -2.0514 -1.7282 -1.7419
 1734SOL     OW16834   3.205   0.021   7.773  0.1874  0.4967  0.5467
 1734SOL    HW116835   3.291   4.729   7.746  0.4724  1.5862  0.0886
 1734SOL    HW216836   3.245   0.048   7.856  0.2933 -3.1255  1.6729
 1735SOL     OW16837   1.635   0.668   3.796  0.0270 -0.1957 -0.1875
 1735SOL    HW116838   1.640   0.573   3.804 -0.3166 -0.2710 -0.8719
 1735SOL    HW216839   1.647   0.692   3.888  1.2986  0.1950 -0.4643
 1736SOL     OW16840   2.101   2.268  14.519  0.0225  0.5140 -0.8082
 1736SOL    HW116841   2.173   2.205  14.527 -1.1548 -1.1983 -3.8159
 1736SOL    HW216842   2.100   2.267  14.423  1.8436 -0.4224 -0.8176
 1737SOL     OW16843   1.210   3.774   8.790  0.1876  0.0164 -0.1746
 1737SOL    HW116844   1.155   3.771   8.711  0.0155 -0.5550 -0.0317
 1737SOL    HW216845   1.227   3.683   8.815 -1.4087  0.4042  2.2923
 1738SOL     OW16846   2.222   2.748  14.289 -0.1031  0.3834  0.4560
 1738SOL    HW116847   2.301   2.735  14.236  0.1208 -1.6997  1.2992
 1738SOL    HW216848   2.169   2.674  14.259  0.0312  0.7309 -0.6474
 1739SOL     OW16849   3.818   3.590   4.298 -0.3651 -0.4090 -0.1754
 1739SOL    HW116850   3.881   3.519   4.308 -1.6276 -1.2166  1.9351
 1739SOL    HW216851   3.783   3.594   4.387 -0.7661 -2.0066 -0.2611
 1740SOL     OW16852   3.872   1.296  17.468  0.7606 -0.3059 -0.5685
 1740SOL    HW116853   3.830   1.255  17.392 -3.1952 -1.9349  2.4782
 1740SOL    HW216854   3.910   1.220  17.511  0.8307  0.7253  1.1873
 1741SOL     OW16855   2.803   0.996   8.059  0.0199 -0.1310  0.1551
 1741SOL    HW116856   2.718   1.038   8.045 -0.5489 -0.5583  2.4065
 1741SOL    HW216857   2.779   0.923   8.116 -2.9836  0.5990 -0.1852
 1742SOL     OW16858   3.858   3.118  14.410 -0.5528 -0.5402  0.2311
 1742SOL    HW116859   3.827   3.083  14.493 -0.0310 -2.1293 -0.2499
 1742SOL    HW216860   3.901   3.202  14.426 -0.9358 -0.5840  1.4356
 1743SOL     OW16861   3.087   0.117  10.067  0.6833  0.5626 -0.1182
 1743SOL    HW116862   2.995   0.134  10.046  0.5704 -0.2416 -0.2652
 1743SOL    HW216863   3.126   0.077   9.989  0.7098  1.6801 -0.6787
 1744SOL     OW16864   2.546   0.515   3.531  0.0301  0.1495 -0.1227
 1744SOL    HW116865   2.559   0.539   3.623  0.5910 -1.5913  0.2643
 1744SOL    HW216866   2.453   0.532   3.516 -0.4098 -0.6743  1.6934
 1745SOL     OW16867   1.121   1.961   7.318 -0.2613 -0.2582  0.1879
 1745SOL    HW116868   1.170   1.928   7.394  1.5088  0.7619 -0.5167
 1745SOL    HW216869   1.114   1.883   7.263  1.9809 -0.2008 -0.1925
 1746SOL     OW16870   0.172   0.251   5.146 -0.4357 -0.4740  0.0066
 1746SOL    HW116871   0.207   0.167   5.118 -0.5015 -0.1479 -1.0310
 1746SOL    HW216872   0.163   0.300   5.064  0.3047  0.0304  0.2266
 1747SOL     OW16873   4.553   3.959   5.574 -0.4447  0.6176 -0.6630
 1747SOL    HW116874   4.559   3.947   5.668  0.0517 -0.2740 -0.8093
 1747SOL    HW216875   4.563   3.867   5.548  2.1935 -0.1881  3.2550
 1748SOL     OW16876   0.129   3.018   4.678 -0.0958 -0.8762 -0.3326
 1748SOL    HW116877   0.219   3.040   4.654  0.2880 -0.5151  1.4652
 1748SOL    HW216878   0.097   3.090   4.732  0.2491 -1.9456  1.3183
 1749SOL     OW16879   0.903   0.677   0.597 -0.4414  0.3756  0.1738
 1749SOL    HW116880   0.984   0.687   0.547 -0.2612  0.9257  0.5732
 1749SOL    HW216881   0.896   0.769   0.624  1.1000  0.1206  1.4614
 1750SOL     OW16882   0.705   2.534  17.277  0.2219 -0.4783  0.2936
 1750SOL    HW116883   0.653   2.607  17.242  1.1160 -0.3690 -0.8380
 1750SOL    HW216884   0.657   2.523  17.359  0.3307  0.0442  0.4270
 1751SOL     OW16885   0.101   0.081   2.242  0.0495 -0.2909 -0.7984
 1751SOL    HW116886   0.115   0.109   2.151  1.9163 -2.3987 -1.1697
 1751SOL    HW216887   0.020   0.118   2.276  1.3797  1.6677  0.2746
 1752SOL     OW16888   2.905   0.657   3.458 -0.3941  0.2374 -0.4468
 1752SOL    HW116889   2.848   0.706   3.517 -0.8623  0.2802 -0.9336
 1752SOL    HW216890   2.966   0.601   3.506 -0.3837  1.8198  1.3473
 1753SOL     OW16891   3.618   0.088  17.420 -0.7650  0.4237 -0.7213
 1753SOL    HW116892   3.632   0.138  17.339 -1.0815  0.7407 -0.5813
 1753SOL    HW216893   3.580   0.162  17.468  1.4340  1.3984 -0.4927
 1754SOL     OW16894   1.098   4.122   3.418  0.2328 -0.7825  0.5794
 1754SOL    HW116895   1.054   4.189   3.366  2.4890  0.5125  0.3335
 1754SOL    HW216896   1.055   4.042   3.389 -0.6021  0.6245 -2.0401
 1755SOL     OW16897   1.317   0.885   0.617  0.4024  0.6184 -0.0649
 1755SOL    HW116898   1.367   0.813   0.655 -1.4223 -1.2700 -1.2012
 1755SOL    HW216899   1.392   0.932   0.583  1.5327 -0.6551  0.6526
 1756SOL     OW16900   1.088   3.015  12.683  0.4841 -0.2609 -0.0529
 1756SOL    HW116901   1.077   2.922  12.662  1.2868 -0.3777  0.0154
 1756SOL    HW216902   1.082   3.056  12.597 -1.3954 -2.1079 -0.7989
 1757SOL     OW16903   0.783   4.334  11.256  0.2051 -0.3136  0.0308
 1757SOL    HW116904   0.825   4.413  11.290 -0.3090 -1.2460  2.8900
 1757SOL    HW216905   0.858   4.276  11.270  0.7237  0.3528 -0.0001
 1758SOL     OW16906   2.429   2.183   4.761 -0.1871  0.2232 -0.3038
 1758SOL    HW116907   2.368   2.235   4.709 -1.1524 -1.5550 -0.9588
 1758SOL    HW216908   2.476   2.129   4.697  0.2667 -1.5841  1.5483
 1759SOL     OW16909   3.210   4.362   5.100  0.9816  0.4472  0.2743
 1759SOL    HW116910   3.173   4.335   5.016  0.1326 -0.2187  0.8555
 1759SOL    HW216911   3.180   4.453   5.097 -0.4441 -0.0220  0.1534
 1760SOL     OW16912   0.798   2.391  12.209  0.0687  0.2385 -0.7085
 1760SOL    HW116913   0.812   2.355  12.296  1.6308 -2.4628 -2.0512
 1760SOL    HW216914   0.713   2.432  12.227  0.9562  0.7889  2.2198
 1761SOL     OW16915   1.955   3.167   7.232  0.5825  0.2531  0.2521
 1761SOL    HW116916   1.962   3.201   7.321 -0.3298 -1.0624  0.8091
 1761SOL    HW216917   1.969   3.073   7.241 -1.8832 -0.2542 -1.3156
 1762SOL     OW16918   4.334   3.156  12.472  0.5895  0.2952 -0.2249
 1762SOL    HW116919   4.405   3.220  12.474  0.3042  0.6363 -1.6222
 1762SOL    HW216920   4.282   3.207  12.411  0.1775  0.2246  0.0706
 1763SOL     OW16921   3.013   4.707   5.381  0.5267  0.0538 -0.3432
 1763SOL    HW116922   3.073   4.732   5.310  1.3959  0.1143  0.4146
 1763SOL    HW216923   2.942   4.661   5.336  0.2288  0.7287 -0.5587
 1764SOL     OW16924   2.037   4.194   3.643  0.1263  0.0841 -0.2902
 1764SOL    HW116925   2.058   4.110   3.602 -0.7149 -0.1064 -0.3283
 1764SOL    HW216926   2.006   4.246   3.569 -0.6499 -0.6918 -0.5055
 1765SOL     OW16927   0.033   3.040   9.122 -0.0545  0.9966  0.0233
 1765SOL    HW116928   4.706   3.098   9.089 -0.2963  1.5254  1.4942
 1765SOL    HW216929   0.005   3.034   9.213 -0.6575 -0.0680 -0.2279
 1766SOL     OW16930   3.980   2.140  10.605  0.4840 -0.2428  0.0947
 1766SOL    HW116931   3.905   2.091  10.641 -0.8403  1.5547 -0.2179
 1766SOL    HW216932   3.950   2.168  10.519 -1.4221 -2.3717  0.0562
 1767SOL     OW16933   3.044   0.755   4.631 -0.4028  0.2938  0.0192
 1767SOL    HW116934   3.081   0.830   4.584  0.8533 -0.8420 -0.8222
 1767SOL    HW216935   2.965   0.789   4.673  0.3983  2.9841 -0.6323
 1768SOL     OW16936   3.057   0.131  10.995  0.8309  0.4734 -0.1843
 1768SOL    HW116937   3.078   0.040  10.975 -0.8320 -0.1913  1.0960
 1768SOL    HW216938   3.142   0.175  10.994  1.0978  0.0108  2.5370
 1769SOL     OW16939   4.412   3.823  14.048  0.2166  0.0284  0.1603
 1769SOL    HW116940   4.357   3.844  14.124  2.0548 -1.1590  1.8268
 1769SOL    HW216941   4.490   3.787  14.090 -0.4347 -1.9130 -0.3099
 1770SOL     OW16942   0.705   0.019   3.106  0.1871  0.0297  0.3253
 1770SOL    HW116943   0.694   0.089   3.042 -0.4974 -1.4158 -1.1110
 1770SOL    HW216944   0.681   0.075   3.180  1.3826  3.5430 -1.9376
 1771SOL     OW16945   1.623   0.592  10.402  0.0466  0.3630  0.3062
 1771SOL    HW116946   1.571   0.586  10.482 -0.2830  1.7563  0.1861
 1771SOL    HW216947   1.605   0.683  10.381 -0.5794 -0.5865 -3.1576
 1772SOL     OW16948   1.372   2.310  11.124 -0.6780  0.5960 -0.5249
 1772SOL    HW116949   1.457   2.317  11.082  0.3118 -1.0231  1.1945
 1772SOL    HW216950   1.406   2.266  11.203  0.5475  1.3843 -0.6163
 1773SOL     OW16951   2.914   1.306   3.880 -0.4733  0.1115  0.1200
 1773SOL    HW116952   2.842   1.258   3.837  0.3913 -1.2839  0.2641
 1773SOL    HW216953   2.976   1.292   3.808  0.4856  1.1153  0.7557
 1774SOL     OW16954   1.272   2.013  15.080 -0.4534 -0.1701 -0.4236
 1774SOL    HW116955   1.302   1.976  15.163 -0.6862 -2.6823 -1.4657
 1774SOL    HW216956   1.356   2.020  15.034 -1.1438 -1.3689 -1.8536
 1775SOL     OW16957   1.821   2.092   4.221 -0.2902 -0.0367  0.9455
 1775SOL    HW116958   1.729   2.111   4.199 -0.5891 -0.9824  1.3390
 1775SOL    HW216959   1.872   2.158   4.175  0.1033 -0.1022  1.2875
 1776SOL     OW16960   3.881   3.950   4.546 -0.2157 -0.4041 -0.1847
 1776SOL    HW116961   3.930   3.871   4.571 -0.0896  0.0436  0.9972
 1776SOL    HW216962   3.933   3.984   4.474 -2.7190  2.1352 -0.8141
 1777SOL     OW16963   0.846   0.957   2.807  0.2899  0.1275  0.0591
 1777SOL    HW116964   0.829   0.865   2.784  2.3592 -0.1376 -0.5024
 1777SOL    HW216965   0.846   0.996   2.720 -1.8450  1.1227  0.5123
 1778SOL     OW16966   2.235   1.799   6.933 -0.5290 -0.2289 -0.1398
 1778SOL    HW116967   2.255   1.874   6.989 -2.3251  0.7537 -0.7923
 1778SOL    HW216968   2.202   1.852   6.860 -0.6931 -0.8642 -0.5228
 1779SOL     OW16969   4.160   1.870  12.177 -0.1822  0.0743 -0.2773
 1779SOL    HW116970   4.196   1.945  12.130 -2.5982  2.3065  1.4530
 1779SOL    HW216971   4.123   1.904  12.258 -2.1158 -0.0251 -1.1059
 1780SOL     OW16972   2.969   0.505   9.705  0.0098 -0.2854 -0.2996
 1780SOL    HW116973   3.022   0.427   9.690 -0.1201 -0.4777  0.2657
 1780SOL    HW216974   2.940   0.488   9.794 -2.8733 -0.7207 -1.3195
 1781SOL     OW16975   0.069   3.106  13.308 -0.1151  0.5882  0.0066
 1781SOL    HW116976   0.141   3.055  13.346 -1.3811 -0.2528  1.2819
 1781SOL    HW216977   0.082   3.189  13.352 -1.2255 -0.2563  1.9352
 1782SOL     OW16978   3.192   1.303  14.796  0.6183  0.6896  0.0698
 1782SOL    HW116979   3.107   1.335  14.766  0.7958 -1.0807 -2.3448
 1782SOL    HW216980   3.254   1.327  14.727 -1.0311 -0.6722 -1.8992
 1783SOL     OW16981   4.370   1.684  12.155  0.1183  0.0075  0.0383
 1783SOL    HW116982   4.357   1.625  12.229  2.3273  0.2906  0.6369
 1783SOL    HW216983   4.285   1.723  12.136  0.0783 -0.6597 -1.1897
 1784SOL     OW16984   0.409   2.839  13.830  0.1586 -0.3904  0.0364
 1784SOL    HW116985   0.321   2.834  13.793 -0.3863  1.8120  1.0391
 1784SOL    HW216986   0.402   2.909  13.894 -0.8463 -0.8762  0.4650
 1785SOL     OW16987   1.332   3.209   6.050  0.4941  0.3759  0.2593
 1785SOL    HW116988   1.367   3.264   6.120  0.4357  2.2179 -1.1871
 1785SOL    HW216989   1.356   3.260   5.974  1.1663 -0.8251 -0.3377
 1786SOL     OW16990   2.731   4.532   8.140  0.0367  0.2222 -0.3231
 1786SOL    HW116991   2.797   4.559   8.203 -2.1940  0.6863  1.8302
 1786SOL    HW216992   2.720   4.612   8.089 -0.9211 -0.2535 -0.8671
 1787SOL     OW16993   3.056   4.700   4.680 -0.4592 -0.0742  0.6832
 1787SOL    HW116994   3.139   4.709   4.632 -1.3416  1.1006 -0.6402
 1787SOL    HW216995   3.009   0.039   4.658  0.7077  0.4282  0.0034
 1788SOL     OW16996   3.923   0.358   3.619  0.1913 -0.5057  0.9178
 1788SOL    HW116997   3.892   0.439   3.579  2.6551  0.2504  0.5339
 1788SOL    HW216998   3.928   0.383   3.711  0.0037  1.5878  0.3519
 1789SOL     OW16999   4.108   2.802   9.463 -0.2541 -0.2810 -0.0460
 1789SOL    HW117000   4.147   2.889   9.456  1.0194 -0.9417 -1.3731
 1789SOL    HW217001   4.178   2.766   9.407 -1.6281 -1.3615 -1.0573
 1790SOL     OW17002   3.595   2.857   8.695  0.5093 -0.4031 -0.5907
 1790SOL    HW117003   3.543   2.810   8.631  3.0564 -3.5315 -0.3334
 1790SOL    HW217004   3.672   2.801   8.688 -0.6174 -1.9335 -0.6260
 1791SOL     OW17005   1.281   2.617  15.827 -0.1447  0.2126 -0.2012
 1791SOL    HW117006   1.337   2.566  15.769 -0.7638 -0.4375 -0.2157
 1791SOL    HW217007   1.262   2.691  15.769 -1.7642  1.5120  2.0048
 1792SOL     OW17008   4.521   0.270   3.804 -0.0552 -0.0223  0.3047
 1792SOL    HW117009   4.591   0.317   3.758 -0.4403  1.1252  0.8888
 1792SOL    HW217010   4.466   0.242   3.731  1.4552 -1.0909 -0.4161
 1793SOL     OW17011   1.843   4.026   9.619  0.3763  0.0484 -0.1027
 1793SOL    HW117012   1.869   3.976   9.697 -0.7440 -0.2375  0.0875
 1793SOL    HW217013   1.924   4.065   9.588  0.7845 -0.7906 -0.0962
 1794SOL     OW17014   3.692   0.530  11.787  0.3163  0.4622 -0.2866
 1794SOL    HW117015   3.705   0.436  11.794  0.5432  0.4650 -0.6973
 1794SOL    HW217016   3.766   0.567  11.836 -0.3955  1.5156 -0.0019
 1795SOL     OW17017   4.407   2.418   9.238  0.4046 -0.0335  0.2906
 1795SOL    HW117018   4.472   2.350   9.257  0.7432  0.0059 -0.7045
 1795SOL    HW217019   4.407   2.417   9.142  0.0994  0.8971  0.2759
 1796SOL     OW17020   2.088   0.475   0.800  0.4608  0.1220 -0.1678
 1796SOL    HW117021   2.079   0.419   0.723 -2.1577  1.1661 -0.6223
 1796SOL    HW217022   2.092   0.407   0.868  1.5314  2.4512  2.0819
 1797SOL     OW17023   2.200   3.464   2.043 -0.1475 -0.2717  0.1125
 1797SOL    HW117024   2.252   3.477   1.964 -0.9484  2.2216  0.0037
 1797SOL    HW217025   2.135   3.533   2.031 -0.2434 -0.5733 -1.1178
 1798SOL     OW17026   0.368   3.585   2.807 -0.1021 -0.0632 -0.2482
 1798SOL    HW117027   0.406   3.596   2.894  1.4750  2.0963 -1.1885
 1798SOL    HW217028   0.307   3.659   2.805 -1.2867 -1.0374  0.5511
 1799SOL     OW17029   1.426   3.367   6.250 -0.0916 -0.3158  0.1323
 1799SOL    HW117030   1.502   3.315   6.279 -0.2595 -0.6085  0.0430
 1799SOL    HW217031   1.400   3.420   6.325  1.2294 -1.0923  1.1593
 1800SOL     OW17032   4.375   3.483   4.381  0.0048 -0.0776 -0.2035
 1800SOL    HW117033   4.420   3.402   4.406 -0.7399 -0.6352 -0.6720
 1800SOL    HW217034   4.302   3.488   4.443  1.4067 -1.2316  1.5307
 1801SOL     OW17035   2.395   3.763   3.360 -0.5397 -0.5291  0.4935
 1801SOL    HW117036   2.436   3.827   3.417 -0.1576 -1.1217  0.8867
 1801SOL    HW217037   2.387   3.797   3.271 -3.7525  2.7359  2.0344
 1802SOL     OW17038   0.360   2.888   8.524  0.0252 -0.0478 -0.2885
 1802SOL    HW117039   0.404   2.819   8.474  0.0673 -1.3083  1.5062
 1802SOL    HW217040   0.378   2.970   8.478 -0.3195  0.2891  0.1794
 1803SOL     OW17041   4.590   0.305   3.276  0.5526 -0.4595  1.1221
 1803SOL    HW117042   4.648   0.381   3.271  0.7478 -0.6709  0.0537
 1803SOL    HW217043   4.633   0.248   3.212 -0.3121  0.0208  0.1031
 1804SOL     OW17044   2.671   1.522   1.628  0.1816  0.1936  0.1410
 1804SOL    HW117045   2.590   1.471   1.623  1.0274 -0.7459 -3.6659
 1804SOL    HW217046   2.671   1.555   1.539  0.6930 -2.7704 -0.9541
 1805SOL     OW17047   1.451   1.386   4.865 -0.1853 -0.2107 -0.1229
 1805SOL    HW117048   1.470   1.448   4.795 -1.1073 -0.2783 -0.4331
 1805SOL    HW217049   1.355   1.392   4.865 -0.1215  0.6803  0.5260
 1806SOL     OW17050   2.875   4.107  13.748  0.1203 -0.1789  0.4176
 1806SOL    HW117051   2.830   4.171  13.803  0.3940 -1.1739  1.8077
 1806SOL    HW217052   2.834   4.111  13.661  2.0289 -1.4476 -0.5445
 1807SOL     OW17053   1.351   4.590   5.638 -0.0847  0.0883 -0.7534
 1807SOL    HW117054   1.367   4.660   5.575  1.3763 -0.0686 -0.5407
 1807SOL    HW217055   1.285   4.631   5.695  0.0838 -0.4983 -0.1380
 1808SOL     OW17056   3.734   0.297  17.631 -0.3910 -0.4223  0.1583
 1808SOL    HW117057   3.784   0.344  17.563  2.0981 -1.7417  1.0858
 1808SOL    HW217058   3.646   0.326  17.608 -0.4411  0.3250  1.2857
 1809SOL     OW17059   2.660   1.544   1.313 -0.4792  0.7045  0.1891
 1809SOL    HW117060   2.590   1.492   1.274  1.8750 -0.2822 -2.7470
 1809SOL    HW217061   2.734   1.534   1.253 -1.6594  2.4958 -1.5120
 1810SOL     OW17062   4.183   0.812   1.569 -0.9944 -0.0951 -0.3883
 1810SOL    HW117063   4.148   0.897   1.595 -3.4395 -0.0619 -3.8765
 1810SOL    HW217064   4.181   0.768   1.654  1.5194  0.9336  0.1862
 1811SOL     OW17065   1.731   3.466   7.937  0.2329  0.1142  0.6099
 1811SOL    HW117066   1.793   3.463   7.864 -1.5696 -1.4672 -0.8853
 1811SOL    HW217067   1.745   3.559   7.955  1.0455 -0.1098  1.1492
 1812SOL     OW17068   0.286   4.521  12.048  0.1115 -0.1275 -0.0041
 1812SOL    HW117069   0.191   4.526  12.063  0.1154 -0.1522  0.0293
 1812SOL    HW217070   0.285   4.483  11.960  0.8267  0.0228 -0.0730
 1813SOL     OW17071   3.029   4.147   8.872  0.1534 -0.1197  0.2409
 1813SOL    HW117072   2.991   4.082   8.931  2.1776 -1.9557 -0.4806
 1813SOL    HW217073   3.040   4.087   8.798 -1.1184  0.0401 -0.0841
 1814SOL     OW17074   3.315   0.980   9.902  0.1493  0.1053  0.0846
 1814SOL    HW117075   3.382   1.038   9.940 -1.7359  2.2575  0.0977
 1814SOL    HW217076   3.369   0.903   9.883 -0.6551 -0.2040 -0.9687
 1815SOL     OW17077   2.283   3.128   4.624 -0.1174  0.0321 -0.3652
 1815SOL    HW117078   2.298   3.181   4.546  0.1782 -3.4115 -2.6633
 1815SOL    HW217079   2.305   3.040   4.591 -0.1656  0.5807 -1.8404
 1816SOL     OW17080   0.899   0.680   2.239 -0.2624 -0.3103  0.7334
 1816SOL    HW117081   0.948   0.701   2.318  0.1053  0.9844  0.1740
 1816SOL    HW217082   0.961   0.683   2.166 -0.2957 -0.1667  0.7101
 1817SOL     OW17083   0.964   0.376   9.205  0.5885  0.2186  0.1544
 1817SOL    HW117084   0.943   0.364   9.297 -0.9355  2.8380  0.1449
 1817SOL    HW217085   0.928   0.465   9.203 -1.3358 -0.5999 -1.1450
 1818SOL     OW17086   3.946   0.775   2.117 -0.0107 -0.0138 -0.0938
 1818SOL    HW117087   3.998   0.809   2.190 -0.8544 -0.6674  0.8079
 1818SOL    HW217088   3.878   0.842   2.113  1.3519  1.2916 -1.3149
 1819SOL     OW17089   3.550   4.457  14.930 -0.2294  0.3276 -0.3941
 1819SOL    HW117090   3.478   4.504  14.887  0.4806  0.8617 -1.0074
 1819SOL    HW217091   3.614   4.442  14.860 -0.0817 -1.1194  0.0478
 1820SOL     OW17092   4.533   4.064  13.988  0.0630  0.2459 -0.6708
 1820SOL    HW117093   4.519   3.971  14.007 -1.4673  0.6301  0.1322
 1820SOL    HW217094   4.622   4.065  13.954 -0.6080  1.0839 -2.4282
 1821SOL     OW17095   0.343   3.236   7.285  0.0769  0.3137  0.1396
 1821SOL    HW117096   0.422   3.197   7.248  0.3803 -0.0437  1.1762
 1821SOL    HW217097   0.320   3.264   7.196 -2.4765 -0.1340  0.6529
 1822SOL     OW17098   2.058   2.676   7.002 -0.3587 -0.3358  0.7476
 1822SOL    HW117099   2.121   2.606   6.987  0.5623  0.5852  0.3180
 1822SOL    HW217100   2.000   2.635   7.066 -3.7073  3.0606 -0.1320
 1823SOL     OW17101   0.744   3.827   2.395  0.2036 -0.2620 -0.0025
 1823SOL    HW117102   0.776   3.819   2.305 -1.0732 -1.1846 -0.3728
 1823SOL    HW217103   0.688   3.904   2.386 -0.3556 -0.6479  0.1867
 1824SOL     OW17104   0.781   0.108   4.856  0.0974  0.2413 -0.0903
 1824SOL    HW117105   0.818   0.112   4.767  1.9664 -1.3673  0.6117
 1824SOL    HW217106   0.698   0.061   4.843  0.1510  0.0107  0.4031
 1825SOL     OW17107   0.064   0.797   3.298 -0.1565  0.3342 -1.0872
 1825SOL    HW117108   0.061   0.892   3.310 -1.7840  0.0176  0.8879
 1825SOL    HW217109   0.157   0.797   3.273  0.3490 -1.6780  0.8434
 1826SOL     OW17110   3.744   0.343   4.530  0.1145  0.1781  0.0178
 1826SOL    HW117111   3.828   0.309   4.500  0.5537  0.0760  1.3775
 1826SOL    HW217112   3.766   0.409   4.595 -1.0206  0.9174 -0.3527
 1827SOL     OW17113   1.482   0.436   2.221  0.5832 -0.5227  0.2651
 1827SOL    HW117114   1.531   0.428   2.302  3.9376 -1.0216 -1.8030
 1827SOL    HW217115   1.533   0.386   2.156  0.9484  0.6727 -0.3688
 1828SOL     OW17116   3.472   4.226   8.214 -0.4169 -0.0499  0.6726
 1828SOL    HW117117   3.490   4.137   8.184 -0.7831 -0.3246  1.2688
 1828SOL    HW217118   3.435   4.200   8.298 -2.6988 -0.4364 -0.4421
 1829SOL     OW17119   2.834   1.008   3.450 -0.5520  0.0107 -0.0322
 1829SOL    HW117120   2.759   0.999   3.509 -0.6969 -3.1395 -0.6770
 1829SOL    HW217121   2.817   1.083   3.394  2.0643  1.1962  0.7967
 1830SOL     OW17122   3.668   3.677  17.436  0.1205 -0.6015 -0.4290
 1830SOL    HW117123   3.682   3.702  17.528 -1.1352  0.8981 -0.6448
 1830SOL    HW217124   3.676   3.765  17.401  2.3531 -0.7663 -0.3246
 1831SOL     OW17125   4.572   2.197   6.123 -0.2042  0.1779  0.0708
 1831SOL    HW117126   4.658   2.174   6.088 -0.9420 -0.3845 -1.3203
 1831SOL    HW217127   4.608   2.256   6.190  1.8357 -1.2326  0.2087
 1832SOL     OW17128   0.701   0.127   0.968  0.4341  0.4570  0.0698
 1832SOL    HW117129   0.742   0.196   0.917  0.4666 -0.7489 -1.5177
 1832SOL    HW217130   0.737   0.139   1.056  1.5403  0.7320 -0.4256
 1833SOL     OW17131   0.450   4.568   3.685 -0.3191  0.9954 -0.7246
 1833SOL    HW117132   0.470   4.659   3.707 -0.2031  0.4719  1.3610
 1833SOL    HW217133   0.357   4.589   3.684 -0.6848 -0.7279 -2.4307
 1834SOL     OW17134   3.095   2.373   3.558 -0.1383  0.2540  0.2809
 1834SOL    HW117135   3.114   2.466   3.557 -0.5661  0.3235 -1.8497
 1834SOL    HW217136   3.179   2.329   3.547 -0.6567 -0.6848  0.0159
 1835SOL     OW17137   3.772   2.894   7.310 -0.5824 -0.3148  0.0897
 1835SOL    HW117138   3.731   2.908   7.224 -1.6603  0.1872  0.6874
 1835SOL    HW217139   3.861   2.929   7.304 -0.9488  0.0725 -3.3511
 1836SOL     OW17140   4.132   2.279   7.570 -0.2832  0.2908  0.5399
 1836SOL    HW117141   4.084   2.234   7.501  1.7647  0.6473 -1.1353
 1836SOL    HW217142   4.168   2.356   7.526  0.7071  1.0962  2.7719
 1837SOL     OW17143   0.560   4.471  16.376 -0.1826  0.5376  0.2363
 1837SOL    HW117144   0.478   4.521  16.374 -0.7321 -0.3630  0.0617
 1837SOL    HW217145   0.540   4.377  16.370 -1.2781  0.8504 -1.0513
 1838SOL     OW17146   2.515   0.371   9.368 -0.4893  0.1802 -0.2293
 1838SOL    HW117147   2.436   0.372   9.315 -0.1992  0.1488 -0.6564
 1838SOL    HW217148   2.571   0.419   9.307  0.4238 -0.8189 -0.1699
 1839SOL     OW17149   3.336   0.227   4.224  0.4308 -0.1993 -0.8022
 1839SOL    HW117150   3.347   0.258   4.134 -1.2147  1.5699 -0.3938
 1839SOL    HW217151   3.421   0.192   4.250  0.2457 -1.3038 -1.6524
 1840SOL     OW17152   3.242   1.676   5.988 -0.0162 -0.2212 -0.4460
 1840SOL    HW117153   3.243   1.634   6.074  2.1467  0.0766 -0.3257
 1840SOL    HW217154   3.146   1.682   5.985 -0.0312  0.3507  0.8240
 1841SOL     OW17155   4.306   1.477  12.341 -0.4161  0.5112 -0.0755
 1841SOL    HW117156   4.374   1.506  12.402  0.4814 -1.2886 -0.2261
 1841SOL    HW217157   4.286   1.390  12.375 -0.8599  0.4792 -0.4198
 1842SOL     OW17158   4.240   0.548  17.325 -0.0121  0.2293  0.4394
 1842SOL    HW117159   4.265   0.549  17.417 -2.8555  0.3186  1.2167
 1842SOL    HW217160   4.279   0.629  17.291 -2.2806  0.9635 -0.3804
 1843SOL     OW17161   1.908   0.723   1.249 -0.1364 -0.4194 -0.3939
 1843SOL    HW117162   1.909   0.662   1.324  2.3656  1.0812  0.7789
 1843SOL    HW217163   1.910   0.663   1.174 -2.4270  3.1221 -3.2780
 1844SOL     OW17164   1.956   2.406  10.991 -0.7818  0.4154  0.4778
 1844SOL    HW117165   2.051   2.394  10.990 -0.5544  2.1887  1.2362
 1844SOL    HW217166   1.937   2.400  10.898  0.1755 -4.3868  0.6282
 1845SOL     OW17167   4.257   0.271  17.469 -0.0664 -0.5180  0.3224
 1845SOL    HW117168   4.225   0.346  17.518  0.5954  0.3403 -0.5726
 1845SOL    HW217169   4.260   0.317  17.385 -0.0188 -1.9409 -0.4631
 1846SOL     OW17170   1.444   1.977   7.274 -0.9203  0.0393 -0.6547
 1846SOL    HW117171   1.425   2.069   7.253 -1.4358  0.1272  0.2464
 1846SOL    HW217172   1.373   1.951   7.332 -3.0677  1.5324 -2.6124
 1847SOL     OW17173   2.505   2.004   3.742  0.0522  0.0685  0.3175
 1847SOL    HW117174   2.497   1.958   3.658 -1.3619  0.1778  0.3992
 1847SOL    HW217175   2.600   2.012   3.743 -0.0809  1.5099  1.0812
 1848SOL     OW17176   1.708   3.381  14.124 -0.1566 -0.5570 -0.2925
 1848SOL    HW117177   1.791   3.340  14.098  0.3961 -0.3678  1.1795
 1848SOL    HW217178   1.644   3.311  14.114 -2.1916  1.5632 -2.0477
 1849SOL     OW17179   2.020   1.992  15.599 -0.6295  0.1014 -0.0825
 1849SOL    HW117180   2.111   2.023  15.603 -0.3127 -0.5517 -2.6887
 1849SOL    HW217181   1.994   2.010  15.509  1.4466 -0.0248 -0.7022
 1850SOL     OW17182   1.710   2.393  12.072 -0.1549  0.5300 -0.0492
 1850SOL    HW117183   1.747   2.306  12.054 -1.6531 -0.7362  3.0413
 1850SOL    HW217184   1.746   2.407  12.159  1.0935  1.2173 -0.6725
 1851SOL     OW17185   4.246   2.214   4.591 -0.6344 -0.2983 -0.0404
 1851SOL    HW117186   4.273   2.249   4.506 -2.1787  2.2048  0.5161
 1851SOL    HW217187   4.319   2.153   4.604 -2.3723 -1.6283  3.5260
 1852SOL     OW17188   1.428   1.541   0.371 -0.3378  0.0343 -0.2135
 1852SOL    HW117189   1.347   1.592   0.383  0.7959  2.0529 -1.1926
 1852SOL    HW217190   1.498   1.585   0.418 -0.8888  2.2649 -1.4533
 1853SOL     OW17191   4.373   2.890  15.898 -0.5172 -0.2176 -0.4881
 1853SOL    HW117192   4.345   2.900  15.807  0.1547 -1.2975 -0.8154
 1853SOL    HW217193   4.467   2.874  15.889 -1.1958 -2.9904 -2.5615
 1854SOL     OW17194   3.935   2.524  13.695 -0.5119 -0.3514  0.1576
 1854SOL    HW117195   3.963   2.465  13.625  1.0790 -1.2698  1.5650
 1854SOL    HW217196   3.846   2.490  13.706 -0.9506  0.3895 -1.0916
 1855SOL     OW17197   2.434   4.089   2.153  0.2815  0.8664  0.2839
 1855SOL    HW117198   2.339   4.101   2.157  0.0113 -1.4638  0.2952
 1855SOL    HW217199   2.455   4.082   2.060 -2.3728  0.0447 -0.2754
 1856SOL     OW17200   3.406   0.363  14.682 -0.3597 -0.2600 -0.1873
 1856SOL    HW117201   3.408   0.441  14.627 -3.1141  0.6917  1.0261
 1856SOL    HW217202   3.323   0.380  14.727 -0.1690  3.6080 -1.3102
 1857SOL     OW17203   2.838   0.206  15.001 -0.1915  0.2889 -0.2687
 1857SOL    HW117204   2.911   0.241  15.052  0.7940  1.9569 -2.8537
 1857SOL    HW217205   2.822   0.269  14.931  0.3467  0.0503 -0.6032
 1858SOL     OW17206   3.981   1.144   4.583  0.6715  0.5047  0.3498
 1858SOL    HW117207   3.911   1.208   4.574 -0.3710 -0.7602 -0.4693
 1858SOL    HW217208   4.004   1.167   4.673 -0.9571  1.4920  0.5039
 1859SOL     OW17209   2.205   4.727   9.495  0.6169 -0.5635  0.7173
 1859SOL    HW117210   2.241   0.039   9.424  1.5945 -0.0838  1.5662
 1859SOL    HW217211   2.113   0.010   9.493  0.4081 -1.4332 -0.1563
 1860SOL     OW17212   2.406   3.796   8.775  0.3152  0.0552 -0.3462
 1860SOL    HW117213   2.329   3.846   8.748  0.7513 -0.3355 -2.3309
 1860SOL    HW217214   2.468   3.862   8.743  1.1314 -0.3094  0.4758
 1861SOL     OW17215   1.007   0.833  17.562  0.0149  0.5164 -0.3240
 1861SOL    HW117216   0.930   0.814  17.508 -0.8840  0.2528  1.0444
 1861SOL    HW217217   0.983   0.923  17.585 -1.6771  0.1313 -0.5362
 1862SOL     OW17218   4.689   2.276   0.150  0.2235  0.3357  0.4548
 1862SOL    HW117219   4.593   2.272   0.152  0.1128  2.5258 -0.6861
 1862SOL    HW217220   4.689   2.238   0.063  1.0607  1.1508  0.0982
 1863SOL     OW17221   2.798   0.236  11.424  0.0735  0.1575 -0.0376
 1863SOL    HW117222   2.881   0.203  11.457 -0.3683 -0.4429  0.4687
 1863SOL    HW217223   2.827   0.290  11.350  3.4066  1.2275  2.0387
 1864SOL     OW17224   0.628   1.371  14.357  0.2356 -0.0990  0.2457
 1864SOL    HW117225   0.699   1.321  14.397 -1.1234 -0.8304  1.7770
 1864SOL    HW217226   0.549   1.318  14.371  0.6213 -1.0849 -1.3820
 1865SOL     OW17227   3.254   2.845   6.607  0.3165 -0.4575  0.2589
 1865SOL    HW117228   3.289   2.880   6.525  2.6925 -0.9581  1.0656
 1865SOL    HW217229   3.166   2.883   6.612  1.2065  1.8259 -1.2743
 1866SOL     OW17230   4.567   3.841   6.679  0.2311 -0.0232  0.0425
 1866SOL    HW117231   4.570   3.922   6.730 -2.2592  0.4097 -0.4815
 1866SOL    HW217232   4.472   3.825   6.680  0.4054 -1.0054  1.2259
 1867SOL     OW17233   1.694   0.881  10.248 -0.3577 -1.0733 -0.3833
 1867SOL    HW117234   1.670   0.959  10.196  0.9540 -0.6180 -0.2996
 1867SOL    HW217235   1.627   0.890  10.316  1.8004 -0.5441  1.6306
 1868SOL     OW17236   0.732   3.435  15.415  0.3098  0.0850 -0.7413
 1868SOL    HW117237   0.663   3.445  15.349  0.0912  1.1199 -0.3472
 1868SOL    HW217238   0.748   3.340  15.408  0.1933 -0.0350  0.6874
 1869SOL     OW17239   4.270   2.655   0.594  0.0229 -0.2576 -0.1160
 1869SOL    HW117240   4.255   2.628   0.503 -0.9645  0.3767 -0.1450
 1869SOL    HW217241   4.182   2.654   0.631  1.1816 -1.1911  2.5851
 1870SOL     OW17242   4.442   3.370   7.653 -0.1969 -0.0931 -0.0675
 1870SOL    HW117243   4.408   3.446   7.604  0.3104  0.6870  0.7959
 1870SOL    HW217244   4.480   3.403   7.734 -2.9315 -0.6220  1.4581
 1871SOL     OW17245   2.758   2.501   9.977  0.2166  0.2951  0.1616
 1871SOL    HW117246   2.801   2.416   9.985  1.9849  1.3063  1.6909
 1871SOL    HW217247   2.825   2.552  10.024  2.5467 -1.6953 -0.9956
 1872SOL     OW17248   2.686   4.097   4.256 -0.1517 -0.0393  0.0713
 1872SOL    HW117249   2.768   4.052   4.236  0.8737  0.9434  2.1034
 1872SOL    HW217250   2.636   4.090   4.174  0.9076 -1.2756 -0.4585
 1873SOL     OW17251   0.407   4.529   2.511 -0.3706  0.1505 -0.1334
 1873SOL    HW117252   0.385   4.607   2.460 -2.6703 -0.1736  0.3766
 1873SOL    HW217253   0.328   4.478   2.495  1.1546 -2.4753  0.6857
 1874SOL     OW17254   0.285   0.244   7.970  0.6996  0.0729 -0.1569
 1874SOL    HW117255   0.346   0.205   8.033  2.4560  1.0645 -1.2381
 1874SOL    HW217256   0.208   0.200   8.004  1.9840 -0.7127  1.7342
 1875SOL     OW17257   3.865   4.188   6.701  0.1721  0.2458 -0.0835
 1875SOL    HW117258   3.895   4.206   6.790  1.1082  1.1046 -0.5745
 1875SOL    HW217259   3.804   4.117   6.720  2.0232 -1.6141 -1.1958
 1876SOL     OW17260   4.297   0.484  12.664  0.0488  0.2892  0.4653
 1876SOL    HW117261   4.392   0.477  12.664 -0.0154 -0.5467  0.1367
 1876SOL    HW217262   4.269   0.407  12.713  0.2930 -0.3244 -0.3746
 1877SOL     OW17263   2.347   2.196   5.993  0.0043 -0.1875  0.2117
 1877SOL    HW117264   2.364   2.167   6.083 -1.2923  0.5455  0.6977
 1877SOL    HW217265   2.271   2.145   5.964 -0.6752  0.7421  0.3302
 1878SOL     OW17266   2.590   0.691  12.261  0.6005  0.2612 -0.8524
 1878SOL    HW117267   2.576   0.778  12.299  0.7614 -0.4814  0.8876
 1878SOL    HW217268   2.679   0.700  12.225  1.0926  0.5416  0.4256
 1879SOL     OW17269   1.074   3.283   8.404 -0.4852 -0.1177  0.0909
 1879SOL    HW117270   1.101   3.352   8.343 -0.9343  0.2554  0.3097
 1879SOL    HW217271   0.990   3.262   8.363 -0.0246  0.8155 -1.3434
 1880SOL     OW17272   2.633   2.029   8.514 -0.4442 -0.0783  0.0731
 1880SOL    HW117273   2.653   2.061   8.426  1.9346  0.1569  0.6905
 1880SOL    HW217274   2.687   1.951   8.507  0.0260  0.0712  2.1270
 1881SOL     OW17275   3.768   2.837   4.480  0.0964 -0.4879 -0.3353
 1881SOL    HW117276   3.839   2.863   4.539  0.6549 -1.1176 -0.7226
 1881SOL    HW217277   3.817   2.758   4.458  0.7195 -0.1208 -0.2618
 1882SOL     OW17278   3.690   4.429  15.149  0.6629  0.0026 -0.1033
 1882SOL    HW117279   3.626   4.407  15.081  0.2515 -0.6228  0.4806
 1882SOL    HW217280   3.686   4.368  15.223  2.0158 -0.5588 -0.4794
 1883SOL     OW17281   1.227   2.903   8.816  0.6660 -0.0312  0.4020
 1883SOL    HW117282   1.203   2.831   8.875 -2.4759  1.1968  0.6420
 1883SOL    HW217283   1.147   2.914   8.764  0.7869  1.7157  0.6023
 1884SOL     OW17284   0.457   2.105   4.141  0.1063 -0.0712  0.1743
 1884SOL    HW117285   0.495   2.143   4.220 -0.2469  0.8849 -0.1063
 1884SOL    HW217286   0.473   2.178   4.081 -1.1839 -0.2906 -0.4488
 1885SOL     OW17287   2.042   2.901   3.184  0.1239 -0.4219 -0.2408
 1885SOL    HW117288   2.038   2.929   3.276 -0.9204 -0.4687 -0.2769
 1885SOL    HW217289   2.132   2.868   3.180  0.2580 -0.1185  0.2311
 1886SOL     OW17290   2.668   0.758  14.769  0.1080 -0.4114 -0.0765
 1886SOL    HW117291   2.708   0.672  14.761  3.0123  0.9691 -0.4238
 1886SOL    HW217292   2.741   0.820  14.773 -1.0293  0.8968  0.6253
 1887SOL     OW17293   4.206   0.722   1.828  0.4681 -0.5500 -0.1243
 1887SOL    HW117294   4.191   0.650   1.889  0.1344  0.3129  0.8084
 1887SOL    HW217295   4.299   0.734   1.844  0.4873 -1.2382  0.3120
 1888SOL     OW17296   1.125   2.110  12.121 -0.1084 -0.0763 -0.0240
 1888SOL    HW117297   1.196   2.142  12.176 -0.9100 -2.3695  2.3289
 1888SOL    HW217298   1.088   2.197  12.103 -0.5046  0.1904  2.1501
 1889SOL     OW17299   2.734   3.036   3.419 -0.7523  0.4531 -0.0903
 1889SOL    HW117300   2.824   3.002   3.415 -1.2411 -0.6522 -1.9101
 1889SOL    HW217301   2.745   3.131   3.428  0.4579  0.6497 -3.6467
 1890SOL     OW17302   0.168   3.288   6.478 -0.4442  0.2144  0.4242
 1890SOL    HW117303   0.259   3.281   6.449 -0.0598 -0.5055  1.7962
 1890SOL    HW217304   0.175   3.359   6.542  0.4676 -0.2966  0.8914
 1891SOL     OW17305   4.038   0.533   1.992 -0.6758 -0.1060 -0.1627
 1891SOL    HW117306   4.005   0.598   2.054 -0.5854  0.3592 -0.6076
 1891SOL    HW217307   3.974   0.465   1.972 -1.5828  0.3518  1.1872
 1892SOL     OW17308   1.022   3.400  13.467 -0.3429  0.2183  0.1555
 1892SOL    HW117309   0.969   3.329  13.504  2.0940 -2.0533 -0.7276
 1892SOL    HW217310   1.110   3.389  13.503 -0.5228  0.8378  0.7918
 1893SOL     OW17311   4.429   1.217   8.282  0.3149  0.3568 -0.2444
 1893SOL    HW117312   4.415   1.213   8.187 -1.8064  2.4028 -0.0160
 1893SOL    HW217313   4.481   1.298   8.288 -0.6375  0.8890  0.6588
 1894SOL     OW17314   4.469   2.710  11.250  0.5251 -0.3394  0.0994
 1894SOL    HW117315   4.467   2.680  11.341  2.9159 -0.6337  0.0382
 1894SOL    HW217316   4.552   2.757  11.252  0.4891 -0.2289 -0.8433
 1895SOL     OW17317   3.686   3.655   6.356  0.5782 -0.2186 -0.0910
 1895SOL    HW117318   3.669   3.576   6.304  1.4711 -0.7126  0.3860
 1895SOL    HW217319   3.629   3.632   6.429  0.2424  0.6165 -0.0832
 1896SOL     OW17320   4.587   3.577   8.434  0.1849 -0.0907  0.3363
 1896SOL    HW117321   4.573   3.507   8.499  2.2662  0.0344  0.9088
 1896SOL    HW217322   4.671   3.609   8.464 -1.5200  0.9469  4.0245
 1897SOL     OW17323   0.512   2.843   5.541  0.1377 -0.2634 -0.3550
 1897SOL    HW117324   0.544   2.822   5.629 -0.9246  1.7358  0.5050
 1897SOL    HW217325   0.508   2.752   5.511  2.3498 -0.8520  1.0972
 1898SOL     OW17326   3.431   4.473   0.439 -0.5168 -0.0801 -0.2262
 1898SOL    HW117327   3.498   4.436   0.381  0.7405  2.1785 -0.1797
 1898SOL    HW217328   3.431   4.567   0.426 -1.3854  0.0709  0.9228
 1899SOL     OW17329   3.820   4.015   5.358 -0.3690 -0.7564  0.0435
 1899SOL    HW117330   3.841   3.966   5.437 -1.3389 -3.2393 -1.2614
 1899SOL    HW217331   3.759   3.957   5.314  0.3569 -1.5823  0.1389
 1900SOL     OW17332   4.422   2.433   9.914 -0.4404 -0.6160 -0.2236
 1900SOL    HW117333   4.437   2.512   9.966  2.5522 -1.9789  1.0018
 1900SOL    HW217334   4.513   2.428   9.885 -0.0913  1.9175  0.3891
 1901SOL     OW17335   4.590   3.117   7.770  0.6485 -0.1714  0.1201
 1901SOL    HW117336   4.549   3.131   7.684  0.7490 -3.4358 -0.4306
 1901SOL    HW217337   4.603   3.210   7.791 -0.7101 -0.4276  2.0715
 1902SOL     OW17338   4.414   0.691   5.294 -0.0714  0.5751  0.1992
 1902SOL    HW117339   4.347   0.743   5.250 -0.3415  2.1020  2.4163
 1902SOL    HW217340   4.446   0.634   5.224  1.0562  0.0463  1.1329
 1903SOL     OW17341   4.244   0.441   4.508 -0.7679  0.2674 -0.1290
 1903SOL    HW117342   4.322   0.469   4.556  0.8756 -1.0723 -2.0726
 1903SOL    HW217343   4.170   0.494   4.538 -0.2048  0.2801  1.2378
 1904SOL     OW17344   0.259   4.091  11.556  0.0954  0.1089 -0.0701
 1904SOL    HW117345   0.305   4.130  11.482  0.7152 -0.8391 -0.1761
 1904SOL    HW217346   0.303   4.120  11.636  1.3756  1.0120 -1.1042
 1905SOL     OW17347   0.871   1.403   1.498 -0.7270 -0.1154 -0.4774
 1905SOL    HW117348   0.954   1.445   1.473 -1.0751 -0.1344 -1.6704
 1905SOL    HW217349   0.824   1.423   1.417  1.0310  2.2474 -0.9320
 1906SOL     OW17350   1.759   0.139   9.649 -0.0472  0.1319  0.0962
 1906SOL    HW117351   1.850   0.166   9.658 -0.4500  0.3501  3.5685
 1906SOL    HW217352   1.749   0.084   9.727 -3.9659  0.7572  0.0582
 1907SOL     OW17353   2.968   0.374   7.981  0.3216  0.1646  0.2917
 1907SOL    HW117354   2.935   0.381   7.891 -0.2675  2.2618  0.6671
 1907SOL    HW217355   2.944   0.463   8.009  0.0245  0.4205 -0.7527
 1908SOL     OW17356   2.711   3.886   1.771  0.0851 -1.0013  0.3747
 1908SOL    HW117357   2.729   3.978   1.750 -1.6608 -0.8763 -0.5741
 1908SOL    HW217358   2.792   3.845   1.800  0.6942 -1.2116 -1.5995
 1909SOL     OW17359   0.009   1.335   9.232 -0.5636  0.2902 -0.2778
 1909SOL    HW117360   0.085   1.289   9.194 -0.8127  0.5180 -1.0458
 1909SOL    HW217361   4.686   1.265   9.222 -1.0676  0.5456  1.3507
 1910SOL     OW17362   1.652   0.090   7.086 -0.7842  0.5148  0.7713
 1910SOL    HW117363   1.714   0.024   7.054  0.5790  0.8371  2.7324
 1910SOL    HW217364   1.573   0.042   7.062 -1.3472  1.8258  0.0222
 1911SOL     OW17365   1.164   4.481  15.293  0.1306  0.4431  0.4699
 1911SOL    HW117366   1.158   4.432  15.375  1.3625 -1.7248 -0.7468
 1911SOL    HW217367   1.216   4.556  15.322  0.1083  1.1629 -1.3223
 1912SOL     OW17368   2.342   1.080   2.483 -0.2681 -0.4812  0.0958
 1912SOL    HW117369   2.312   1.085   2.392 -1.5056 -0.6849  0.4824
 1912SOL    HW217370   2.295   1.153   2.523 -0.3465 -0.9018  0.7672
 1913SOL     OW17371   0.560   0.894   2.487  0.0009  0.3421  0.1487
 1913SOL    HW117372   0.472   0.857   2.479 -0.5393  1.2615  1.9340
 1913SOL    HW217373   0.614   0.815   2.493 -0.0381  0.4327  1.7456
 1914SOL     OW17374   3.406   0.614   1.889 -0.3486 -0.2250  0.0354
 1914SOL    HW117375   3.369   0.573   1.967  1.6519  1.1983  1.7599
 1914SOL    HW217376   3.339   0.599   1.823 -1.7902 -1.1485  1.7188
 1915SOL     OW17377   1.922   3.198  14.052 -0.2969  0.1684 -0.2015
 1915SOL    HW117378   1.995   3.211  14.113 -0.8009  0.9887  0.2330
 1915SOL    HW217379   1.878   3.116  14.074 -3.0793  1.6231 -0.3316
 1916SOL     OW17380   1.297   0.172   2.150 -0.0032 -0.1217 -0.0589
 1916SOL    HW117381   1.361   0.119   2.102 -0.3363 -0.0392 -0.5964
 1916SOL    HW217382   1.228   0.108   2.136  1.8620 -2.4468  1.5030
 1917SOL     OW17383   0.158   3.431  11.050  0.0616 -0.0386  0.1514
 1917SOL    HW117384   0.214   3.440  11.126  0.5145 -0.7421 -0.1011
 1917SOL    HW217385   0.082   3.391  11.093 -1.1476  1.4862 -0.5859
 1918SOL     OW17386   3.536   1.305   3.188  0.5436  0.1784  0.1576
 1918SOL    HW117387   3.561   1.299   3.096  0.5384  2.2714  0.0084
 1918SOL    HW217388   3.619   1.283   3.230 -0.3086  1.2396  2.4476
 1919SOL     OW17389   3.875   0.135   3.347  0.0919 -0.4141 -0.1521
 1919SOL    HW117390   3.958   0.170   3.379  0.1660  0.2288 -1.0699
 1919SOL    HW217391   3.889   0.040   3.353  1.1972 -0.1455  1.7088
 1920SOL     OW17392   2.654   4.001   6.062  0.3704 -0.1079 -0.4002
 1920SOL    HW117393   2.633   4.062   6.133  0.8820  0.1323 -0.4595
 1920SOL    HW217394   2.716   3.943   6.106  0.1609 -0.5535 -0.6959
 1921SOL     OW17395   1.362   0.815  13.536  0.0939  0.9520 -0.4735
 1921SOL    HW117396   1.331   0.851  13.453  0.1877  2.1945  0.0339
 1921SOL    HW217397   1.348   0.888  13.595  2.8316  0.1211  1.1832
 1922SOL     OW17398   0.029   4.091  14.537  0.2285 -0.5093 -0.0946
 1922SOL    HW117399   0.047   4.087  14.443  0.2465  1.2441 -0.1638
 1922SOL    HW217400   4.687   4.137  14.540  1.3842  1.7105 -2.1507
 1923SOL     OW17401   1.963   3.531   9.643  0.5678 -0.1989 -0.9446
 1923SOL    HW117402   2.052   3.522   9.678 -0.0963 -0.7370  0.5751
 1923SOL    HW217403   1.952   3.446   9.601 -2.6148 -1.9455  3.5290
 1924SOL     OW17404   0.652   3.600   7.043  0.3405 -0.6209 -0.0397
 1924SOL    HW117405   0.634   3.692   7.058  0.2810 -0.6782  0.2386
 1924SOL    HW217406   0.744   3.601   7.017  0.5165  3.0103  0.7552
 1925SOL     OW17407   4.080   3.445  13.530 -0.2217 -0.1616 -0.1646
 1925SOL    HW117408   4.008   3.493  13.488  0.3609  0.5706 -0.3173
 1925SOL    HW217409   4.107   3.516  13.589 -1.2092  0.3506 -0.3262
 1926SOL     OW17410   2.648   4.493   2.683 -0.0752 -0.8190 -0.3055
 1926SOL    HW117411   2.632   4.587   2.687 -0.8079 -0.8898 -1.6296
 1926SOL    HW217412   2.694   4.469   2.764 -2.5008 -0.0612  1.2732
 1927SOL     OW17413   0.577   1.150   6.169 -0.2743 -0.0064 -0.2246
 1927SOL    HW117414   0.557   1.070   6.120 -0.3334 -0.4893  0.5812
 1927SOL    HW217415   0.531   1.134   6.252 -0.7081 -0.1710 -0.4958
 1928SOL     OW17416   3.910   2.260   2.638 -0.4785  0.4624  0.0995
 1928SOL    HW117417   3.875   2.345   2.666  3.0564  0.8519  3.2772
 1928SOL    HW217418   3.982   2.254   2.701 -1.2920  2.5220  1.2149
 1929SOL     OW17419   1.554   2.376   4.421 -0.0334 -0.1842  0.1989
 1929SOL    HW117420   1.650   2.373   4.423  0.0493 -0.1593 -3.4026
 1929SOL    HW217421   1.556   2.375   4.325 -1.3605 -0.1321  0.1749
 1930SOL     OW17422   0.070   3.605   3.011  0.0791  0.0885  0.5784
 1930SOL    HW117423   4.724   3.631   2.983  0.9829  4.0039  1.4319
 1930SOL    HW217424   0.119   3.677   2.972  2.8649 -0.6280  2.7428
 1931SOL     OW17425   3.686   1.401   7.790  0.1938  0.5954 -0.3845
 1931SOL    HW117426   3.648   1.432   7.873  0.3615  0.8645 -0.4058
 1931SOL    HW217427   3.686   1.479   7.734 -0.5318 -0.1148 -1.3746
 1932SOL     OW17428   1.510   4.602   5.877  0.7834 -0.2003 -0.8293
 1932SOL    HW117429   1.595   4.562   5.893 -0.1076 -2.9945 -3.0401
 1932SOL    HW217430   1.465   4.536   5.824 -0.3683  1.3127 -1.7560
 1933SOL     OW17431   1.635   2.936  13.163 -0.6188 -0.5153 -0.5700
 1933SOL    HW117432   1.629   3.024  13.202 -0.7479 -0.9890  0.4785
 1933SOL    HW217433   1.614   2.962  13.073 -1.3094 -1.9268 -0.8076
 1934SOL     OW17434   3.115   2.098   3.706 -0.1274  0.5132 -0.1066
 1934SOL    HW117435   3.063   2.167   3.664  1.3771  1.6864 -0.0541
 1934SOL    HW217436   3.201   2.132   3.682  1.7481 -3.3535  1.2209
 1935SOL     OW17437   4.370   3.098   2.356  0.1756  0.4759 -0.0322
 1935SOL    HW117438   4.275   3.103   2.350  0.1460  0.6644  0.5544
 1935SOL    HW217439   4.381   3.008   2.387  0.4190  0.4040 -0.3273
 1936SOL     OW17440   4.506   4.553   4.022 -0.6387 -0.6680  0.0533
 1936SOL    HW117441   4.541   4.500   3.950  1.0621 -0.5476  0.7818
 1936SOL    HW217442   4.573   4.619   4.041 -0.6466 -0.6407 -0.0163
 1937SOL     OW17443   4.504   0.211  10.654 -0.1934 -0.0927  0.3758
 1937SOL    HW117444   4.547   0.126  10.661 -0.3411 -0.3313 -1.4631
 1937SOL    HW217445   4.550   0.254  10.726  0.8926 -0.0370 -0.3573
 1938SOL     OW17446   0.872   0.939   5.200 -0.2571 -0.3728 -0.3694
 1938SOL    HW117447   0.960   0.963   5.229 -0.1069 -1.4037  0.0195
 1938SOL    HW217448   0.891   0.855   5.160 -0.5541  0.8397 -3.0629
 1939SOL     OW17449   1.214   2.702   5.104  0.5453 -0.3590 -0.2286
 1939SOL    HW117450   1.288   2.656   5.064  0.8048  1.0857 -1.4207
 1939SOL    HW217451   1.139   2.645   5.086 -0.7708  1.2247  0.2993
 1940SOL     OW17452   3.236   2.639   7.256  0.3866  0.6595 -0.3543
 1940SOL    HW117453   3.226   2.717   7.310  2.8499  1.3103 -0.8461
 1940SOL    HW217454   3.260   2.574   7.323 -1.9225  1.0962  0.8748
 1941SOL     OW17455   2.615   0.539   1.780 -0.4841  0.0580  0.2525
 1941SOL    HW117456   2.550   0.609   1.780  0.8104  1.2660 -0.0165
 1941SOL    HW217457   2.592   0.484   1.705 -0.7883  0.3206  0.1573
 1942SOL     OW17458   1.411   0.983   1.755 -0.5415  0.2125 -0.7606
 1942SOL    HW117459   1.331   1.035   1.770  0.3670  1.2172  0.6313
 1942SOL    HW217460   1.399   0.947   1.667 -0.0822 -2.3741  0.2257
 1943SOL     OW17461   1.026   3.998   2.377 -0.2199 -0.6136  0.0151
 1943SOL    HW117462   0.937   4.032   2.386 -0.4093 -0.8860 -0.8157
 1943SOL    HW217463   1.008   3.909   2.345  1.5724 -1.6867  1.9858
 1944SOL     OW17464   0.132   3.355   7.661 -0.1698 -0.2491 -0.2779
 1944SOL    HW117465   0.172   3.442   7.666  0.4075 -0.4949 -0.6062
 1944SOL    HW217466   0.058   3.381   7.606 -1.1161  1.6502  1.9145
 1945SOL     OW17467   0.755   0.239  12.164 -0.4267 -0.2339  0.0470
 1945SOL    HW117468   0.767   0.310  12.227 -0.1220 -1.4025  1.3095
 1945SOL    HW217469   0.664   0.251  12.137 -0.5550  1.4586  1.2486
 1946SOL     OW17470   4.267   0.664   2.280  0.7270  0.3385  0.0569
 1946SOL    HW117471   4.273   0.606   2.357  0.4402  0.6165  0.2900
 1946SOL    HW217472   4.179   0.696   2.298  0.0401 -1.1442 -0.6750
 1947SOL     OW17473   0.445   0.058   6.538  1.0907  0.4001  0.2695
 1947SOL    HW117474   0.528   0.033   6.499  0.9473 -0.3599  0.4647
 1947SOL    HW217475   0.428   4.719   6.586  0.9989 -0.4670 -1.1965
 1948SOL     OW17476   2.475   2.523   6.529 -0.6337 -0.2293 -0.2932
 1948SOL    HW117477   2.523   2.462   6.585 -0.8272  0.0115  0.1387
 1948SOL    HW217478   2.542   2.547   6.465 -2.0054 -2.7057 -2.6338
 1949SOL     OW17479   3.272   2.446   6.759 -0.3817  0.1957  0.4698
 1949SOL    HW117480   3.245   2.365   6.802  1.3317 -1.4372 -1.5553
 1949SOL    HW217481   3.366   2.432   6.749 -0.8319 -2.0778 -0.5087
 1950SOL     OW17482   2.556   2.084   7.088 -0.4697  0.2300 -0.2706
 1950SOL    HW117483   2.592   2.167   7.056  2.1741 -0.1397  1.7765
 1950SOL    HW217484   2.625   2.049   7.144 -0.7254 -1.0364 -0.7487
 1951SOL     OW17485   4.492   3.583   6.939 -0.1987 -0.1716 -0.2173
 1951SOL    HW117486   4.431   3.643   6.983  0.1783 -0.2849  0.4556
 1951SOL    HW217487   4.520   3.528   7.013 -1.3760  0.2321  0.5412
 1952SOL     OW17488   1.030   4.247   7.542  0.0623  0.6200  0.2917
 1952SOL    HW117489   0.965   4.295   7.593 -1.4334  0.2156 -1.2420
 1952SOL    HW217490   1.105   4.283   7.590  0.1910  0.5731  0.1240
 1953SOL     OW17491   0.612   3.629   8.572 -0.9356  0.5478  0.0532
 1953SOL    HW117492   0.554   3.607   8.645 -0.6255 -0.4949 -0.0195
 1953SOL    HW217493   0.668   3.553   8.580 -2.8385 -1.0915 -2.0406
 1954SOL     OW17494   1.768   2.746   2.017 -0.1615  0.0006 -1.1510
 1954SOL    HW117495   1.773   2.792   1.933  0.6238  2.6699  0.3539
 1954SOL    HW217496   1.674   2.728   2.018 -0.0379 -0.6430 -1.2573
 1955SOL     OW17497   1.014   0.843  13.246 -0.0257 -0.1084  0.2483
 1955SOL    HW117498   1.040   0.758  13.283 -0.0293  0.1520  0.8573
 1955SOL    HW217499   0.947   0.821  13.181 -0.0058  2.0673 -0.5119
 1956SOL     OW17500   2.942   3.540   8.154  0.4744  0.0869  0.0697
 1956SOL    HW117501   3.022   3.523   8.205 -0.2824 -0.9765  0.8991
 1956SOL    HW217502   2.975   3.618   8.110  1.0949 -0.1977  0.0235
 1957SOL     OW17503   2.295   0.171   2.516 -0.0628  0.3447  0.2808
 1957SOL    HW117504   2.206   0.138   2.503 -0.4611  1.5891 -0.1097
 1957SOL    HW217505   2.296   0.176   2.612 -0.3543  0.6702  0.2650
 1958SOL     OW17506   1.590   3.348   3.621  0.4581 -0.1485  0.7295
 1958SOL    HW117507   1.538   3.270   3.639  3.0386 -1.9053  0.4905
 1958SOL    HW217508   1.533   3.418   3.652  1.3319  0.2720  1.3862
 1959SOL     OW17509   4.416   4.705   7.179 -0.1280 -0.4083  0.7294
 1959SOL    HW117510   4.398   0.033   7.242 -4.1553  1.4563 -2.4685
 1959SOL    HW217511   4.506   4.719   7.149 -0.6480 -2.0734 -1.6613
 1960SOL     OW17512   4.458   2.802  17.122 -0.6702  0.1573 -0.3825
 1960SOL    HW117513   4.496   2.824  17.207 -1.1813 -2.8624  0.6239
 1960SOL    HW217514   4.376   2.851  17.125 -0.4939  0.5230 -1.5618
 1961SOL     OW17515   2.313   3.002   9.455  0.4889  0.3250  0.1292
 1961SOL    HW117516   2.400   2.975   9.426  0.7972  1.2625  0.1683
 1961SOL    HW217517   2.300   2.947   9.532 -1.5625 -0.3471 -0.7030
 1962SOL     OW17518   0.040   3.316  14.790  0.3794  0.2693  0.0192
 1962SOL    HW117519   4.691   3.301  14.764 -0.0145 -0.8487  1.9938
 1962SOL    HW217520   0.032   3.336  14.884  1.7554 -0.8122  0.3662
 1963SOL     OW17521   1.717   2.382   2.166 -0.7439  0.1139 -0.0282
 1963SOL    HW117522   1.761   2.302   2.138  0.3724 -0.4701  3.4321
 1963SOL    HW217523   1.762   2.396   2.249  1.0880 -1.2450 -0.8043
 1964SOL     OW17524   0.153   3.658   5.746  0.0514 -0.1455  0.1782
 1964SOL    HW117525   0.166   3.739   5.697 -0.2746 -0.4105 -0.3404
 1964SOL    HW217526   0.218   3.664   5.817  1.7565 -0.0322 -1.3982
 1965SOL     OW17527   4.645   2.077  13.000  0.5261  0.7657  0.0350
 1965SOL    HW117528   4.617   2.119  12.919  0.2272  1.5415  0.5432
 1965SOL    HW217529   4.583   2.113  13.063  1.8688  2.4665  0.3999
 1966SOL     OW17530   2.940   3.040  15.935  0.6638 -0.7468  0.1388
 1966SOL    HW117531   3.036   3.038  15.932  0.7003  0.9673  0.1467
 1966SOL    HW217532   2.934   3.111  15.998 -1.0413 -1.0300  0.2935
 1967SOL     OW17533   2.821   1.551   6.992  0.4492  0.2540  0.7877
 1967SOL    HW117534   2.809   1.638   7.032  0.1666  0.7700 -0.4212
 1967SOL    HW217535   2.747   1.503   7.029 -0.2708  0.2841 -0.6371
 1968SOL     OW17536   1.580   0.071   0.134  0.7576 -0.2194 -0.0697
 1968SOL    HW117537   1.596   0.156   0.093  2.5012 -0.8408 -0.6763
 1968SOL    HW217538   1.522   0.023   0.075 -0.1859 -0.1347  0.7792
 1969SOL     OW17539   2.575   2.803   3.416 -0.0303 -0.0860  0.1495
 1969SOL    HW117540   2.630   2.797   3.338 -0.0586  0.4762  0.0798
 1969SOL    HW217541   2.609   2.888   3.445 -1.0698  0.6018 -0.6248
 1970SOL     OW17542   3.879   1.438  16.400  0.0304 -0.0047 -0.2545
 1970SOL    HW117543   3.803   1.383  16.419  0.0349 -0.5349 -1.7301
 1970SOL    HW217544   3.831   1.516  16.425 -0.1416 -0.6263  1.3770
 1971SOL     OW17545   4.130   3.852   8.854 -0.2318 -0.1639  0.2191
 1971SOL    HW117546   4.126   3.769   8.903  0.2704 -0.8752 -0.9358
 1971SOL    HW217547   4.161   3.905   8.928 -0.1495  1.0184 -0.6662
 1972SOL     OW17548   1.501   1.281   5.105  0.0128 -0.2255  0.3065
 1972SOL    HW117549   1.584   1.315   5.139  0.6219 -0.6037 -0.8215
 1972SOL    HW217550   1.500   1.318   5.017 -1.6805 -2.1032 -0.4711
 1973SOL     OW17551   0.900   3.537   4.835  0.1388  0.1476 -0.6018
 1973SOL    HW117552   0.908   3.478   4.911  0.2311  0.6451 -0.2287
 1973SOL    HW217553   0.964   3.603   4.860 -0.6383  0.8204 -0.3945
 1974SOL     OW17554   1.476   0.426  11.308 -0.3059  0.4225  0.4921
 1974SOL    HW117555   1.383   0.443  11.325 -0.2685 -0.5002  1.6484
 1974SOL    HW217556   1.486   0.405  11.216  0.8266  2.7573  0.0747
 1975SOL     OW17557   2.342   4.700   5.173  0.0497  0.7397 -0.3471
 1975SOL    HW117558   2.281   4.635   5.206  1.5795 -0.1609  0.7404
 1975SOL    HW217559   2.323   4.696   5.079 -1.3494  1.3810 -0.0831
 1976SOL     OW17560   2.293   0.332   4.869 -0.0105 -0.8413 -0.7208
 1976SOL    HW117561   2.351   0.273   4.918  0.7102  0.5533  0.1186
 1976SOL    HW217562   2.279   0.280   4.790 -2.4386 -2.3648  0.7279
 1977SOL     OW17563   3.866   0.020  15.492 -0.1655  0.3435 -0.4054
 1977SOL    HW117564   3.851   0.095  15.434  0.5370 -0.6852 -1.8982
 1977SOL    HW217565   3.931   0.069  15.542 -1.5130  2.1907 -0.4596
 1978SOL     OW17566   0.100   2.617   5.102 -0.3975  0.1139 -0.0963
 1978SOL    HW117567   0.069   2.704   5.124 -1.1319  0.2308 -1.6288
 1978SOL    HW217568   0.029   2.566   5.142 -0.7785 -0.2262 -1.2045
 1979SOL     OW17569   0.482   4.467   7.058  0.0387 -0.5060  0.2418
 1979SOL    HW117570   0.437   4.459   7.142 -1.3329  0.0323 -0.4483
 1979SOL    HW217571   0.514   4.379   7.036  1.0421  0.4140 -1.9837
 1980SOL     OW17572   2.126   3.456   0.662  0.6204 -0.2746 -0.7501
 1980SOL    HW117573   2.216   3.475   0.633  0.3605  0.9919 -0.7218
 1980SOL    HW217574   2.081   3.533   0.626  0.5514  0.0400  0.0021
 1981SOL     OW17575   4.372   3.893   7.934  0.0015 -0.2853  0.5131
 1981SOL    HW117576   4.371   3.955   7.861  0.7979  0.9083  1.5285
 1981SOL    HW217577   4.454   3.847   7.919  0.3372  1.0933 -1.8195
 1982SOL     OW17578   1.591   4.514   6.323 -0.0092 -0.4022  0.1785
 1982SOL    HW117579   1.605   4.603   6.291  0.4921 -0.3122  0.6472
 1982SOL    HW217580   1.574   4.524   6.417  0.2868  1.3871  0.0412
 1983SOL     OW17581   3.640   3.790  12.322  0.2384  0.6578  0.7486
 1983SOL    HW117582   3.575   3.789  12.392  0.9746 -0.1518  1.4227
 1983SOL    HW217583   3.602   3.863  12.274  1.4950  2.0306  1.8484
 1984SOL     OW17584   2.961   0.755   5.496 -0.4254  0.1429  0.0750
 1984SOL    HW117585   2.984   0.754   5.403 -0.9848  2.3726 -0.0828
 1984SOL    HW217586   2.889   0.818   5.498 -0.5427  0.0014  0.3615
 1985SOL     OW17587   4.181   0.365  10.304 -0.2397  0.5783  0.2689
 1985SOL    HW117588   4.177   0.384  10.397  1.0968  1.2639  0.1837
 1985SOL    HW217589   4.249   0.298  10.294  0.1212  1.1534 -1.1787
 1986SOL     OW17590   2.292   1.415   1.970  0.7386  0.1187  0.0341
 1986SOL    HW117591   2.302   1.340   1.912  0.2212  0.3622 -0.3716
 1986SOL    HW217592   2.244   1.372   2.040  0.6196  1.4463  0.7709
 1987SOL     OW17593   2.867   0.119   8.074  0.3290 -0.0355 -0.2593
 1987SOL    HW117594   2.866   0.136   8.169  0.3423 -1.6145  0.0235
 1987SOL    HW217595   2.881   0.203   8.031  1.1823  0.1331  0.3393
 1988SOL     OW17596   1.593   4.529   0.276  0.2170 -0.1343  0.1307
 1988SOL    HW117597   1.629   4.586   0.208 -2.3357  2.4423  0.9511
 1988SOL    HW217598   1.511   4.575   0.291 -1.0325 -2.3846  0.1215
 1989SOL     OW17599   2.249   0.664   5.618 -0.2650 -0.1092 -0.0510
 1989SOL    HW117600   2.310   0.730   5.586 -0.6693 -0.6142 -1.8732
 1989SOL    HW217601   2.163   0.700   5.597 -0.3184 -0.2526 -0.0829
 1990SOL     OW17602   4.252   2.744  11.088  0.4392  0.9578 -0.3140
 1990SOL    HW117603   4.215   2.810  11.147  2.0348 -0.7057  2.5976
 1990SOL    HW217604   4.323   2.708  11.143  0.1346  1.6798  0.5481
 1991SOL     OW17605   1.606   1.169   8.627  0.0977  0.6808  0.2403
 1991SOL    HW117606   1.685   1.218   8.649  1.8404 -1.5528 -0.9993
 1991SOL    HW217607   1.595   1.111   8.702  0.4746 -1.1086 -1.0839
 1992SOL     OW17608   0.332   0.204  14.818 -0.5489  0.3891 -0.8559
 1992SOL    HW117609   0.356   0.295  14.798  3.7325  0.0003  2.3964
 1992SOL    HW217610   0.306   0.210  14.910  0.2440  2.5755 -0.7689
 1993SOL     OW17611   1.931   4.706   4.442  0.0436 -0.3922 -0.6170
 1993SOL    HW117612   1.922   4.611   4.438  1.7706 -0.7073  3.4641
 1993SOL    HW217613   2.014   4.712   4.395 -0.2532  0.0459 -1.0915
 1994SOL     OW17614   2.988   1.487   7.221  0.2772  0.4939 -0.0837
 1994SOL    HW117615   2.942   1.499   7.137  3.0196  2.0286 -1.3627
 1994SOL    HW217616   2.995   1.577   7.253  0.5374 -0.3320  2.1462
 1995SOL     OW17617   0.107   3.461  14.218 -0.5539  0.4174  0.6561
 1995SOL    HW117618   0.042   3.422  14.161  0.0940  0.0334  0.1758
 1995SOL    HW217619   0.182   3.419  14.176  1.0483  3.1043  0.8333
 1996SOL     OW17620   2.036   4.281   9.652  0.3949 -0.1884  0.4356
 1996SOL    HW117621   2.077   4.197   9.632 -1.6647 -0.9769 -0.4848
 1996SOL    HW217622   2.099   4.324   9.710 -0.1768  2.0815 -0.6398
 1997SOL     OW17623   2.513   3.622   3.779 -0.3031  0.1254 -0.0177
 1997SOL    HW117624   2.478   3.536   3.753 -0.6184  0.9424 -2.2321
 1997SOL    HW217625   2.439   3.680   3.762 -0.3908 -0.4421 -1.5258
 1998SOL     OW17626   2.891   1.862   7.653 -0.2180  0.4957  1.0137
 1998SOL    HW117627   2.958   1.906   7.601 -0.4919 -0.8634 -0.5188
 1998SOL    HW217628   2.943   1.796   7.699 -0.1373 -1.2658 -1.5800
 1999SOL     OW17629   2.844   4.023  16.301 -0.0490  0.4562  0.4863
 1999SOL    HW117630   2.765   3.975  16.325 -0.1656 -1.0780 -2.9802
 1999SOL    HW217631   2.910   3.956  16.285  1.1296  1.4855  1.1228
 2000SOL     OW17632   0.142   3.051  14.770  0.1435 -0.0223  0.5366
 2000SOL    HW117633   0.127   3.145  14.781  0.3622  0.2640 -1.7331
 2000SOL    HW217634   0.220   3.052  14.715 -0.5460 -0.3711 -0.4303
 2001SOL     OW17635   3.634   0.400   6.960 -0.0422 -0.2076  0.6598
 2001SOL    HW117636   3.617   0.379   7.052 -0.3444 -0.7255  0.4875
 2001SOL    HW217637   3.718   0.445   6.972  0.1733 -0.1459 -1.1366
 2002SOL     OW17638   1.248   2.167   2.165 -0.4360 -0.0196 -0.0376
 2002SOL    HW117639   1.182   2.237   2.166 -0.3497  0.0701 -0.4373
 2002SOL    HW217640   1.321   2.226   2.182  0.0779 -0.4651 -0.7109
 2003SOL     OW17641   1.818   1.831   4.691  0.2526 -0.1221 -0.1636
 2003SOL    HW117642   1.851   1.774   4.621 -1.5342 -2.5363  0.9740
 2003SOL    HW217643   1.727   1.834   4.664  0.0481  2.8496  0.9048
 2004SOL     OW17644   4.683   1.449   2.313  0.0131 -0.2233  0.0478
 2004SOL    HW117645   4.667   1.417   2.402 -1.1071 -2.0032 -0.7938
 2004SOL    HW217646   4.629   1.528   2.311  0.8049  0.3073 -1.0823
 2005SOL     OW17647   4.223   1.103  13.548 -0.1736  0.4520 -0.1140
 2005SOL    HW117648   4.316   1.086  13.563 -0.6055 -1.6767  0.1803
 2005SOL    HW217649   4.194   1.013  13.530  0.1754  0.2844  0.1544
 2006SOL     OW17650   1.859   3.548   4.786 -0.1974  0.2906  0.2213
 2006SOL    HW117651   1.889   3.462   4.815 -0.4218  0.1774  0.1134
 2006SOL    HW217652   1.767   3.530   4.808 -0.0040  1.4450  2.0312
 2007SOL     OW17653   3.846   2.456   8.666 -0.0386  0.0454 -0.3565
 2007SOL    HW117654   3.879   2.544   8.650 -0.6092  0.8608  2.8435
 2007SOL    HW217655   3.887   2.433   8.749  1.1368  2.3787 -0.3013
 2008SOL     OW17656   0.789   0.357   1.524 -0.1413  0.3516 -0.6637
 2008SOL    HW117657   0.819   0.272   1.556 -0.9117  0.5977  0.7112
 2008SOL    HW217658   0.846   0.373   1.449  0.4091 -1.1861 -0.5867
 2009SOL     OW17659   0.564   4.580   4.333  0.7082  0.0565  0.3518
 2009SOL    HW117660   0.556   4.675   4.327  0.3344  0.0338  0.4737
 2009SOL    HW217661   0.529   4.568   4.421 -0.2314  1.1203  0.1238
 2010SOL     OW17662   2.428   2.127   9.263  0.0185  0.3146  0.2969
 2010SOL    HW117663   2.482   2.128   9.184 -3.3758 -0.9285 -1.9915
 2010SOL    HW217664   2.360   2.190   9.244 -0.1813 -0.8190 -2.6594
 2011SOL     OW17665   0.673   3.109   4.078  0.4580  0.6976 -0.2569
 2011SOL    HW117666   0.637   3.072   3.997 -0.6905  1.2668 -0.0149
 2011SOL    HW217667   0.761   3.141   4.058  2.2994 -4.2839 -0.1390
 2012SOL     OW17668   3.675   4.082   6.307 -0.5095 -0.1772 -0.1137
 2012SOL    HW117669   3.684   4.173   6.280 -0.8793 -0.2395 -0.4554
 2012SOL    HW217670   3.675   4.040   6.221 -0.5597 -2.2273  0.8803
 2013SOL     OW17671   0.616   0.262   8.109 -0.4849  0.2454 -0.0038
 2013SOL    HW117672   0.551   0.193   8.129 -0.8660  0.0126 -2.0244
 2013SOL    HW217673   0.617   0.271   8.014 -0.3857 -0.9735 -0.1223
 2014SOL     OW17674   1.825   4.475  10.927 -0.0163  0.1445  0.4316
 2014SOL    HW117675   1.919   4.468  10.941  0.0999  1.4006  0.2662
 2014SOL    HW217676   1.810   4.547  10.988 -1.2225 -0.9127  1.3868
 2015SOL     OW17677   4.266   0.495   2.520  0.3756  0.3377  0.0046
 2015SOL    HW117678   4.290   0.407   2.549  3.0218  0.6016 -1.3786
 2015SOL    HW217679   4.172   0.483   2.526  0.6210 -0.6014  2.0774
 2016SOL     OW17680   0.444   1.947  16.658 -0.0826 -0.0184  0.1192
 2016SOL    HW117681   0.538   1.929  16.652 -0.2373  0.0600 -2.7022
 2016SOL    HW217682   0.412   1.875  16.604 -0.4181 -2.0668  3.0888
 2017SOL     OW17683   1.788   2.028   5.979 -0.3803  0.2120 -0.0894
 2017SOL    HW117684   1.739   2.078   6.044  1.3269 -1.1566  2.2497
 2017SOL    HW217685   1.872   2.016   6.025 -1.5314  2.3808  2.5896
 2018SOL     OW17686   1.039   2.218   8.028  0.0843 -0.1150  0.0054
 2018SOL    HW117687   0.946   2.197   8.042 -0.0868 -0.6928 -1.9360
 2018SOL    HW217688   1.085   2.138   8.055  1.1762  0.8102  0.8427
 2019SOL     OW17689   2.474   1.540   5.004 -0.2965  0.6097  0.3205
 2019SOL    HW117690   2.423   1.586   5.071  1.7530 -0.4912  2.6517
 2019SOL    HW217691   2.546   1.521   5.065  0.6749  1.6570 -0.5176
 2020SOL     OW17692   1.189   0.701  15.867  0.3135  0.8822  0.5688
 2020SOL    HW117693   1.127   0.764  15.831 -1.1162 -0.9399 -0.1836
 2020SOL    HW217694   1.272   0.739  15.838  0.8325 -1.4485 -1.0177
 2021SOL     OW17695   0.507   1.509   6.370 -0.0041  0.5804  0.1689
 2021SOL    HW117696   0.577   1.463   6.324  0.7312  1.3758  0.4991
 2021SOL    HW217697   0.482   1.582   6.313 -1.4914  2.0436  2.6882
 2022SOL     OW17698   1.081   1.124   1.367  0.2513 -0.6186  0.4157
 2022SOL    HW117699   1.098   1.105   1.275  0.5610  0.6219  0.2129
 2022SOL    HW217700   0.990   1.152   1.357 -0.2701 -1.9218  1.5816
 2023SOL     OW17701   2.726   1.191   8.779 -0.3147 -0.2104 -0.0584
 2023SOL    HW117702   2.655   1.250   8.805 -0.9665 -0.2731 -1.7371
 2023SOL    HW217703   2.721   1.127   8.850 -0.1401  0.5704  0.6692
 2024SOL     OW17704   0.272   3.616  13.969 -0.2154 -0.1997  0.6833
 2024SOL    HW117705   0.271   3.553  13.897  1.6635  2.0792 -1.3302
 2024SOL    HW217706   0.190   3.658  13.943 -0.2889 -0.0303  1.1726
 2025SOL     OW17707   3.981   2.625   5.146  0.1533 -0.2152  0.2088
 2025SOL    HW117708   3.912   2.687   5.166 -0.7930 -0.9809 -0.7063
 2025SOL    HW217709   3.983   2.620   5.051  0.0782 -0.1885  0.2058
 2026SOL     OW17710   0.750   3.825  16.439 -0.0119  0.4075  0.2010
 2026SOL    HW117711   0.682   3.778  16.391  0.9809 -0.5660 -0.2151
 2026SOL    HW217712   0.777   3.877  16.363 -2.3643  0.4354 -0.6157
 2027SOL     OW17713   1.043   3.318   9.026 -1.1829 -0.0318 -0.1733
 2027SOL    HW117714   1.044   3.267   9.106  0.4734 -0.4500 -0.4475
 2027SOL    HW217715   1.091   3.259   8.967 -1.7363 -1.1674  0.5170
 2028SOL     OW17716   3.491   0.379   8.066 -0.1063  0.4033  0.1858
 2028SOL    HW117717   3.517   0.297   8.108  3.7956  0.5529 -1.9604
 2028SOL    HW217718   3.396   0.377   8.050  0.0573  1.6709 -0.9835
 2029SOL     OW17719   0.338   4.089   5.544  0.6107 -0.2766  0.3520
 2029SOL    HW117720   0.274   4.159   5.556  0.2715 -0.2194 -1.7355
 2029SOL    HW217721   0.424   4.125   5.564  0.0989  2.8206 -2.9365
 2030SOL     OW17722   0.387   2.131   3.567 -0.1360  0.4578 -0.0070
 2030SOL    HW117723   0.340   2.061   3.611  1.1603 -0.1831  0.3743
 2030SOL    HW217724   0.337   2.135   3.486  0.0992  2.2307 -0.0666
 2031SOL     OW17725   2.113   4.235   6.449  0.0258  0.6363 -0.3675
 2031SOL    HW117726   2.133   4.163   6.389 -1.5287 -0.6668  0.6939
 2031SOL    HW217727   2.031   4.265   6.410 -0.5300 -0.4860 -0.0594
 2032SOL     OW17728   4.627   0.339   8.198  0.1872 -0.2139 -0.2389
 2032SOL    HW117729   4.640   0.424   8.158 -2.3201  0.1422 -0.2771
 2032SOL    HW217730   4.596   0.372   8.282  1.8496 -1.3487  0.8329
 2033SOL     OW17731   4.607   1.704   5.505 -0.1677 -0.0340 -0.5497
 2033SOL    HW117732   4.676   1.752   5.552  0.1535 -1.1786  0.1780
 2033SOL    HW217733   4.607   1.759   5.427  2.1251 -2.2211 -2.1065
 2034SOL     OW17734   2.642   1.902   2.829  0.2808 -0.6436 -0.2685
 2034SOL    HW117735   2.577   1.858   2.883 -1.2535  2.6379  0.5927
 2034SOL    HW217736   2.630   1.857   2.745  1.3787 -0.7219 -0.3794
 2035SOL     OW17737   2.616   3.883  16.420  0.0601  0.0921 -0.0761
 2035SOL    HW117738   2.628   3.819  16.349 -0.4673  0.8732 -0.8640
 2035SOL    HW217739   2.605   3.823  16.494  0.1095 -1.5087 -1.3769
 2036SOL     OW17740   1.778   1.762   8.698  0.0035 -0.3343  0.0960
 2036SOL    HW117741   1.741   1.700   8.762 -0.7060 -1.7246 -1.6715
 2036SOL    HW217742   1.864   1.721   8.687 -0.7005 -2.0169  0.7730
 2037SOL     OW17743   0.767   1.875   7.601 -0.0710 -0.0861  0.0004
 2037SOL    HW117744   0.793   1.855   7.511 -1.7167  0.7202 -0.6426
 2037SOL    HW217745   0.854   1.906   7.628  0.7859  0.5754 -3.4959
 2038SOL     OW17746   0.604   2.342   9.566  0.4079  0.4452 -0.0265
 2038SOL    HW117747   0.586   2.323   9.658  0.2534 -3.0333 -0.7832
 2038SOL    HW217748   0.515   2.359   9.533  0.8748  0.0740 -1.4449
 2039SOL     OW17749   4.000   2.827   1.947 -0.1628  0.0650 -0.0711
 2039SOL    HW117750   4.082   2.826   1.998  1.6489  1.7179 -2.9170
 2039SOL    HW217751   4.007   2.754   1.886 -2.3000 -0.1621 -0.0260
 2040SOL     OW17752   0.157   4.532   6.534 -0.6518 -0.2103 -0.3159
 2040SOL    HW117753   0.108   4.573   6.605  0.8148  0.9474  0.0345
 2040SOL    HW217754   0.121   4.582   6.461 -2.0045 -0.2900  0.2996
 2041SOL     OW17755   3.115   3.975   6.802 -0.2204 -0.0874 -0.3379
 2041SOL    HW117756   3.171   3.979   6.879 -1.1460 -1.0718  0.3853
 2041SOL    HW217757   3.091   4.068   6.794  0.8575  0.2659  0.7442
 2042SOL     OW17758   1.798   1.269   4.147  0.2185  0.2734  0.1717
 2042SOL    HW117759   1.813   1.177   4.170 -1.5236  0.0827  0.5583
 2042SOL    HW217760   1.844   1.307   4.222 -0.0712 -0.1375  0.5605
 2043SOL     OW17761   0.821   1.431   1.760 -0.4436 -0.2672  0.0588
 2043SOL    HW117762   0.797   1.427   1.668  1.1542  1.6741 -0.4397
 2043SOL    HW217763   0.740   1.464   1.800 -2.0735 -1.5824 -2.1554
 2044SOL     OW17764   3.688   0.686   2.940 -0.3790 -0.3125  0.5804
 2044SOL    HW117765   3.669   0.631   3.017 -0.8145 -0.5436  0.3071
 2044SOL    HW217766   3.765   0.641   2.906  0.1522 -0.1137  1.5072
 2045SOL     OW17767   3.943   4.057  14.738 -0.4558  0.0768  0.1989
 2045SOL    HW117768   4.034   4.026  14.739 -0.2711  0.5418 -2.3791
 2045SOL    HW217769   3.943   4.110  14.817 -3.2852 -2.1512  1.7100
 2046SOL     OW17770   2.970   2.680   4.949  0.5224  0.1386 -0.4382
 2046SOL    HW117771   3.000   2.589   4.957  1.5173  0.4519 -0.6134
 2046SOL    HW217772   3.019   2.720   5.021  0.4829 -0.6656  0.0354
 2047SOL     OW17773   3.596   0.611  17.715 -0.4065  0.0997  0.0834
 2047SOL    HW117774   3.525   0.593  17.654 -0.2351 -1.5468  0.3733
 2047SOL    HW217775   3.664   0.643  17.655  1.7136 -1.9175  1.3929
 2048SOL     OW17776   0.375   2.790  14.524  0.6212 -0.1507  0.4667
 2048SOL    HW117777   0.307   2.792  14.456  0.0275 -0.9194  1.0416
 2048SOL    HW217778   0.371   2.883  14.546 -0.7119 -0.1817  0.3653
 2049SOL     OW17779   4.363   1.709  16.823  0.2234  0.0700  0.1807
 2049SOL    HW117780   4.438   1.769  16.829 -0.1282  0.5112  0.1750
 2049SOL    HW217781   4.336   1.727  16.733 -0.9398 -2.0852  0.1147
 2050SOL     OW17782   0.022   4.623   8.485 -0.6549 -0.0751 -0.4054
 2050SOL    HW117783   0.037   4.609   8.392 -1.5614 -0.0704 -0.5544
 2050SOL    HW217784   4.668   4.627   8.481 -0.6595 -0.8657 -0.9787
 2051SOL     OW17785   4.401   2.648   5.083  1.2927  0.6394 -0.7977
 2051SOL    HW117786   4.362   2.735   5.095  0.8441  0.4536 -0.9023
 2051SOL    HW217787   4.359   2.593   5.148  2.2259  1.1475  0.2242
 2052SOL     OW17788   2.464   0.942   9.362  0.1319  0.2895  0.4745
 2052SOL    HW117789   2.408   0.962   9.287 -0.2871 -1.7046  0.2592
 2052SOL    HW217790   2.399   0.959   9.430 -2.6063  0.0974 -2.1039
 2053SOL     OW17791   1.329   0.601   9.143  0.3381 -0.6739  0.4280
 2053SOL    HW117792   1.234   0.610   9.149  0.1198 -2.0063 -1.2286
 2053SOL    HW217793   1.337   0.506   9.144  0.1381 -0.6961 -0.6577
 2054SOL     OW17794   1.263   2.690   9.611 -0.1682 -0.1432  0.9588
 2054SOL    HW117795   1.279   2.762   9.549  0.5700 -0.4358  0.8077
 2054SOL    HW217796   1.196   2.648   9.557 -0.4019 -1.3680  2.2336
 2055SOL     OW17797   0.512   3.451   8.991 -0.1158 -0.1612  0.6761
 2055SOL    HW117798   0.604   3.428   9.000  0.3499  1.4210  0.0891
 2055SOL    HW217799   0.502   3.533   9.040  1.0111 -0.5559  1.5572
 2056SOL     OW17800   0.974   1.402   5.687 -0.4954  0.6348  0.1689
 2056SOL    HW117801   1.025   1.398   5.606  0.8624 -1.7363  1.1051
 2056SOL    HW217802   1.013   1.483   5.720  0.7721  0.2169 -0.2818
 2057SOL     OW17803   4.326   3.750  17.763 -0.1254 -0.0670  0.2921
 2057SOL    HW117804   4.343   3.656  17.759 -0.2139 -0.0570 -0.3672
 2057SOL    HW217805   4.322   3.757  17.667 -0.3098  1.3768  0.4121
 2058SOL     OW17806   0.216   1.548   3.545  0.4274 -0.3294  0.1189
 2058SOL    HW117807   0.301   1.590   3.559  1.4100 -2.1586 -0.2833
 2058SOL    HW217808   0.252   1.485   3.482  1.9325  2.2964 -1.6305
 2059SOL     OW17809   3.214   0.585   1.073 -0.0835  0.6427 -0.3785
 2059SOL    HW117810   3.236   0.499   1.109 -0.9677  0.4666 -0.2414
 2059SOL    HW217811   3.130   0.595   1.118  0.4511 -2.0431  1.2453
 2060SOL     OW17812   4.192   1.331   5.675  0.0025  0.3806  0.5871
 2060SOL    HW117813   4.254   1.380   5.621 -1.3862  1.2745 -0.1851
 2060SOL    HW217814   4.118   1.342   5.616  1.1927 -0.1521 -1.0095
 2061SOL     OW17815   4.679   2.316   4.688 -0.1921 -0.0923 -0.1029
 2061SOL    HW117816   0.008   2.252   4.681  0.4745  0.6064  0.2087
 2061SOL    HW217817   4.694   2.337   4.780  0.1661  0.1943 -0.2258
 2062SOL     OW17818   1.780   2.017   8.789 -0.2174  0.1307  0.2778
 2062SOL    HW117819   1.855   2.056   8.743 -2.1971  1.2842 -2.0201
 2062SOL    HW217820   1.772   1.935   8.740  1.6321  0.4860 -0.6499
 2063SOL     OW17821   2.837   3.317   2.856  0.2029  0.1016 -0.0717
 2063SOL    HW117822   2.766   3.380   2.871 -0.4367  0.3118 -4.0266
 2063SOL    HW217823   2.905   3.372   2.817 -1.0089 -0.2216 -2.6604
 2064SOL     OW17824   3.944   2.695  13.215 -0.1317  1.1102 -0.1675
 2064SOL    HW117825   3.868   2.638  13.221  2.1443 -2.1413 -2.1703
 2064SOL    HW217826   3.924   2.764  13.278 -0.2350  1.6228 -0.7695
 2065SOL     OW17827   3.264   0.109   8.709  0.7920 -0.2816  0.1318
 2065SOL    HW117828   3.301   0.093   8.795  2.2610 -3.0804 -1.0238
 2065SOL    HW217829   3.286   0.202   8.700 -1.2010  0.1734 -0.0334
 2066SOL     OW17830   0.588   4.542   3.219  0.4224 -0.4339 -0.2904
 2066SOL    HW117831   0.635   4.605   3.165  1.3630  0.7738  1.9372
 2066SOL    HW217832   0.501   4.538   3.180  0.2852 -1.7979  0.1712
 2067SOL     OW17833   2.922   2.233   5.610 -0.5016 -0.0655  0.0737
 2067SOL    HW117834   2.888   2.320   5.589  0.5442  0.8705  2.2829
 2067SOL    HW217835   2.895   2.205   5.697 -0.0747 -0.9668 -0.0783
 2068SOL     OW17836   2.966   2.195   6.950  0.2195 -0.2147  0.1402
 2068SOL    HW117837   2.876   2.220   6.970  0.5725  1.3211 -0.1895
 2068SOL    HW217838   3.014   2.270   6.985  2.1530  0.0297 -3.0732
 2069SOL     OW17839   0.208   4.509   5.267  0.0366 -0.2004 -0.4699
 2069SOL    HW117840   0.115   4.530   5.278 -0.3343 -1.9909 -0.3124
 2069SOL    HW217841   0.195   4.415   5.260  1.8135 -0.4297 -0.7673
 2070SOL     OW17842   3.275   2.844  10.012 -0.6197  0.2761 -0.1125
 2070SOL    HW117843   3.257   2.757  10.047 -1.1361  0.5809  0.3650
 2070SOL    HW217844   3.369   2.829  10.001 -0.4172  2.1839 -1.0144
 2071SOL     OW17845   1.487   3.781   3.423  0.1231  0.1351  0.4226
 2071SOL    HW117846   1.453   3.778   3.512 -0.6152  1.4924  0.1855
 2071SOL    HW217847   1.422   3.727   3.377  1.2603  0.7880 -1.9804
 2072SOL     OW17848   3.068   2.722   3.058  0.6303 -0.4277 -0.2483
 2072SOL    HW117849   3.068   2.687   3.147  0.3080 -0.8334 -0.4047
 2072SOL    HW217850   3.090   2.638   3.016 -1.0767 -1.9179  1.8322
 2073SOL     OW17851   4.168   1.542   8.524 -0.1161  0.3451 -0.0675
 2073SOL    HW117852   4.134   1.453   8.535  0.3630  0.1180 -0.4824
 2073SOL    HW217853   4.180   1.562   8.617 -2.9386 -1.1016  0.6096
 2074SOL     OW17854   2.211   1.541  12.790 -0.4860 -0.4053  0.1117
 2074SOL    HW117855   2.204   1.543  12.885  2.3876 -0.8456  0.3446
 2074SOL    HW217856   2.204   1.634  12.767  1.0629 -0.3459 -0.1715
 2075SOL     OW17857   4.021   4.031   4.323 -0.1213  0.5353 -0.3023
 2075SOL    HW117858   3.952   4.043   4.258 -0.7557  0.0649  0.2758
 2075SOL    HW217859   4.095   3.999   4.271  0.8807  0.3345  1.2110
 2076SOL     OW17860   1.281   3.713  13.192 -0.3526 -0.2035 -0.7565
 2076SOL    HW117861   1.190   3.687  13.209 -0.1996 -1.2773 -1.6068
 2076SOL    HW217862   1.308   3.738  13.281 -3.0979 -2.6063  0.7577
 2077SOL     OW17863   2.821   1.216  14.062 -0.1711 -0.0304  0.0187
 2077SOL    HW117864   2.793   1.129  14.088 -0.0018  0.1678  0.8780
 2077SOL    HW217865   2.750   1.232  14.000 -0.5001 -1.5842 -0.0032
 2078SOL     OW17866   4.374   0.879   6.225 -0.7964  0.3336  0.0802
 2078SOL    HW117867   4.346   0.956   6.275 -1.6067  0.1102 -0.0366
 2078SOL    HW217868   4.364   0.810   6.291 -3.9763 -0.8477 -1.6371
 2079SOL     OW17869   3.422   1.178   4.890 -0.3214 -0.4315 -0.0352
 2079SOL    HW117870   3.501   1.124   4.890 -0.4906 -0.6885  0.8797
 2079SOL    HW217871   3.467   1.262   4.898  0.2182 -0.8946  1.9159
 2080SOL     OW17872   3.098   1.762   6.411  0.0260 -0.0036 -0.1889
 2080SOL    HW117873   3.120   1.721   6.328 -1.0801 -0.3711 -0.2971
 2080SOL    HW217874   3.178   1.812   6.429  0.6506 -1.0537 -0.0242
 2081SOL     OW17875   0.497   3.494   7.940 -0.4271 -0.1037 -0.3885
 2081SOL    HW117876   0.454   3.473   8.023  0.9877  0.4896  0.4876
 2081SOL    HW217877   0.481   3.588   7.935 -2.9552 -0.4965  0.3076
 2082SOL     OW17878   2.227   3.980   7.128 -0.0045  0.2333  0.6784
 2082SOL    HW117879   2.148   3.987   7.182 -1.3973  1.5047 -1.5380
 2082SOL    HW217880   2.198   3.994   7.037 -0.3868 -0.9989  0.6123
 2083SOL     OW17881   0.763   3.532   5.180 -0.6361  0.0514 -0.1281
 2083SOL    HW117882   0.806   3.615   5.159  0.8292 -0.2137  1.8518
 2083SOL    HW217883   0.806   3.469   5.122 -4.0723 -1.3999 -1.1486
 2084SOL     OW17884   0.157   1.347  11.768  0.6244 -0.6739  0.4338
 2084SOL    HW117885   0.127   1.263  11.733  0.5871  0.6265 -2.6037
 2084SOL    HW217886   0.074   1.375  11.807  0.3070 -0.8115 -0.1399
 2085SOL     OW17887   2.235   4.682   7.728 -0.3381 -0.0940 -0.0527
 2085SOL    HW117888   2.295   4.668   7.801 -0.5223 -1.2547 -0.1278
 2085SOL    HW217889   2.304   4.674   7.662  0.1299  3.2718  0.0253
 2086SOL     OW17890   0.622   4.278  10.189  0.5924 -1.0210  0.0171
 2086SOL    HW117891   0.714   4.283  10.165  0.2094 -3.6834 -2.0814
 2086SOL    HW217892   0.623   4.191  10.229 -1.4392 -1.1372 -0.1809
 2087SOL     OW17893   3.523   1.443  11.363  0.3628  0.3844 -0.5773
 2087SOL    HW117894   3.544   1.351  11.349 -1.4216 -0.4070  2.0541
 2087SOL    HW217895   3.579   1.464  11.437  1.1947 -3.9329 -0.0041
 2088SOL     OW17896   3.166   3.952   0.128 -0.0328 -0.3075 -0.1540
 2088SOL    HW117897   3.104   3.883   0.106  0.7504 -0.4751 -1.7825
 2088SOL    HW217898   3.133   3.979   0.214  0.5398  1.8271 -0.5862
 2089SOL     OW17899   4.325   3.543   5.452 -0.0669 -0.0118 -0.7441
 2089SOL    HW117900   4.330   3.635   5.476  2.6834 -0.9315  2.1642
 2089SOL    HW217901   4.355   3.509   5.536 -1.4000  0.7519  0.0387
 2090SOL     OW17902   0.539   0.263   8.571  0.0733  0.2081 -0.4277
 2090SOL    HW117903   0.585   0.180   8.582  0.1999  0.4684  1.0292
 2090SOL    HW217904   0.525   0.298   8.659 -0.2168 -1.9503  0.3850
 2091SOL     OW17905   2.674   4.312   3.998  0.2799 -0.0743  0.4826
 2091SOL    HW117906   2.596   4.367   3.990  2.0122  2.0232 -2.0016
 2091SOL    HW217907   2.740   4.353   3.942  1.1639 -0.1382  1.4713
 2092SOL     OW17908   2.511   0.561  12.502 -0.5622  0.6942  0.2195
 2092SOL    HW117909   2.505   0.583  12.409 -0.3769  1.4148  0.3738
 2092SOL    HW217910   2.567   0.635  12.526 -1.3836  1.6966 -0.9693
 2093SOL     OW17911   1.201   4.110   9.612 -0.0034  0.2701 -0.3595
 2093SOL    HW117912   1.267   4.044   9.591 -1.5367 -1.8022  1.3105
 2093SOL    HW217913   1.114   4.072   9.600 -0.4050  0.7020  1.2744
 2094SOL     OW17914   0.028   4.335  11.785  0.1231 -0.2626  0.0152
 2094SOL    HW117915   0.086   4.273  11.741 -0.2555 -0.4616 -0.2024
 2094SOL    HW217916   0.088   4.410  11.784 -0.0088 -0.1309  1.8771
 2095SOL     OW17917   0.896   3.591   5.813 -0.0068 -0.4235  0.5575
 2095SOL    HW117918   0.952   3.656   5.770 -0.1532 -0.0834  0.8785
 2095SOL    HW217919   0.904   3.624   5.903 -0.4420 -2.9341  1.4954
 2096SOL     OW17920   3.948   0.240  10.220  0.2351 -0.9589  0.4868
 2096SOL    HW117921   4.035   0.265  10.251 -0.1834 -1.2458  1.8811
 2096SOL    HW217922   3.908   0.318  10.257  0.6405 -0.9564  0.9256
 2097SOL     OW17923   1.896   3.093  11.329  0.0872  0.4089 -0.1338
 2097SOL    HW117924   1.814   3.135  11.304 -1.6992 -0.9461  3.5430
 2097SOL    HW217925   1.955   3.111  11.255 -2.8398  0.7913 -2.3853
 2098SOL     OW17926   0.627   1.483  11.748 -0.3202  0.1491 -0.2564
 2098SOL    HW117927   0.542   1.526  11.755 -1.0271 -1.2111 -0.4079
 2098SOL    HW217928   0.611   1.412  11.686  2.9693 -0.4660 -0.4163
 2099SOL     OW17929   2.313   3.032   7.464  0.2193 -0.3618  0.6398
 2099SOL    HW117930   2.240   2.996   7.413  0.0654  1.2558 -0.2872
 2099SOL    HW217931   2.264   3.040   7.546  0.2457  0.0402  0.6171
 2100SOL     OW17932   1.763   0.911   2.950  0.2120  0.2998 -0.6161
 2100SOL    HW117933   1.803   0.944   3.030  0.0649  0.1518 -0.4808
 2100SOL    HW217934   1.832   0.862   2.906 -0.9317 -1.7944 -0.0625
 2101SOL     OW17935   3.821   4.098   3.774 -0.0099 -0.2652  0.0569
 2101SOL    HW117936   3.914   4.109   3.753  0.0602 -1.1106 -0.0636
 2101SOL    HW217937   3.816   4.003   3.775  1.6266 -0.3591  0.4788
 2102SOL     OW17938   2.314   3.146   4.947 -0.3003 -0.2975 -0.5608
 2102SOL    HW117939   2.396   3.156   4.898 -0.3707 -0.8454 -0.7857
 2102SOL    HW217940   2.315   3.052   4.963  0.3793 -0.0367  1.0023
 2103SOL     OW17941   0.319   1.577   8.174 -0.3964  0.0844 -0.0803
 2103SOL    HW117942   0.305   1.549   8.084 -1.6257 -0.4833  0.2842
 2103SOL    HW217943   0.364   1.500   8.210  1.3193  1.0223 -0.2097
 2104SOL     OW17944   3.465   1.959   9.660  0.2291 -0.0686 -0.4201
 2104SOL    HW117945   3.521   1.923   9.729  0.1093 -0.7344 -0.6748
 2104SOL    HW217946   3.428   1.885   9.613 -0.9434  0.2592 -0.0280
 2105SOL     OW17947   4.433   3.955  14.678 -0.1219 -0.5826 -0.6814
 2105SOL    HW117948   4.453   3.906  14.598 -0.1232 -1.8021  0.0620
 2105SOL    HW217949   4.474   4.041  14.668  1.1995 -1.0448  0.8159
 2106SOL     OW17950   2.593   3.264  11.028 -0.1921 -0.4738 -0.5900
 2106SOL    HW117951   2.647   3.341  11.044 -1.5228  0.2066  0.6389
 2106SOL    HW217952   2.617   3.234  10.940  0.3931 -1.0116 -0.2387
 2107SOL     OW17953   1.179   2.403   8.840  0.3583  0.0511 -0.0812
 2107SOL    HW117954   1.126   2.379   8.764  0.0833  0.2207  0.0572
 2107SOL    HW217955   1.156   2.492   8.868  2.0680  0.6607 -0.6195
 2108SOL     OW17956   0.944   0.244  16.366  0.1579  0.2112  0.0235
 2108SOL    HW117957   0.990   0.211  16.443  0.9191 -0.7130 -0.8351
 2108SOL    HW217958   0.993   0.325  16.351 -1.9432  1.7043  1.2225
 2109SOL     OW17959   2.004   4.589   9.792  0.8047  0.5490  0.1540
 2109SOL    HW117960   2.087   4.543   9.803  0.3279 -0.3718 -0.0862
 2109SOL    HW217961   2.004   4.637   9.875 -2.2429 -0.5413  0.7876
 2110SOL     OW17962   2.319   3.773   7.336  0.2613 -0.1674  0.2596
 2110SOL    HW117963   2.398   3.788   7.388  0.7417 -1.3011 -0.1402
 2110SOL    HW217964   2.271   3.857   7.336  0.3443 -0.1250 -0.8583
 2111SOL     OW17965   4.277   4.650   7.696  0.1500  0.1260  0.3139
 2111SOL    HW117966   4.350   4.705   7.668  0.1172 -0.1082 -0.2382
 2111SOL    HW217967   4.269   4.681   7.786 -0.9946  1.0556 -0.1133
 2112SOL     OW17968   3.187   2.766   8.699 -0.1682 -0.3397 -0.7164
 2112SOL    HW117969   3.145   2.804   8.777 -1.5284 -1.2720 -0.9873
 2112SOL    HW217970   3.165   2.832   8.633 -3.8412 -1.3088 -0.4726
 2113SOL     OW17971   2.800   3.987   7.731  0.5698 -0.3411 -0.1432
 2113SOL    HW117972   2.714   4.027   7.719  0.1186 -1.8136 -1.9192
 2113SOL    HW217973   2.787   3.919   7.664 -2.1865  0.6991 -0.6634
 2114SOL     OW17974   0.568   4.218   8.982  0.4170  0.3762  0.4030
 2114SOL    HW117975   0.643   4.276   8.973  0.9348 -0.0508  2.1063
 2114SOL    HW217976   0.591   4.133   8.945 -1.6029  1.0862 -2.5204
 2115SOL     OW17977   0.085   0.709   5.003 -0.3259 -0.5737 -0.2494
 2115SOL    HW117978   0.078   0.698   4.908 -0.5841 -0.5038 -0.2380
 2115SOL    HW217979   0.176   0.680   5.016 -0.0794  0.8050  1.1386
 2116SOL     OW17980   2.730   2.412   3.934  0.0830  0.6419  0.3846
 2116SOL    HW117981   2.675   2.456   3.869 -1.4224  0.1967  1.3494
 2116SOL    HW217982   2.807   2.468   3.933  0.5805 -0.0752 -0.9821
 2117SOL     OW17983   3.227   2.046   6.494 -0.5338 -0.1995 -0.6345
 2117SOL    HW117984   3.273   2.086   6.568 -2.9946  1.2339  0.1094
 2117SOL    HW217985   3.140   2.045   6.534  0.2775  0.7762  1.1724
 2118SOL     OW17986   0.611   0.506  16.324  0.4925  0.1558  0.3112
 2118SOL    HW117987   0.636   0.484  16.234  0.8436  1.8748 -0.0198
 2118SOL    HW217988   0.597   0.418  16.360 -3.3114  1.4102  1.8630
 2119SOL     OW17989   4.502   4.390   2.768  0.7167 -0.0187 -0.2399
 2119SOL    HW117990   4.503   4.437   2.851  0.3333 -0.8657  0.2498
 2119SOL    HW217991   4.406   4.395   2.767  0.8495  2.2167 -0.5515
 2120SOL     OW17992   1.817   2.048   6.447  0.6263 -0.4534 -0.4042
 2120SOL    HW117993   1.782   2.121   6.396 -0.5689  0.6213  1.9952
 2120SOL    HW217994   1.894   2.088   6.488  0.8363 -0.4723 -0.7742
 2121SOL     OW17995   3.445   1.224  16.957  0.0573 -0.0125  0.0065
 2121SOL    HW117996   3.423   1.137  16.925 -1.1294  0.5936 -0.8361
 2121SOL    HW217997   3.438   1.280  16.880 -0.1012  1.7938  1.3176
 2122SOL     OW17998   4.333   1.792   2.577  0.2235 -0.6520 -0.4803
 2122SOL    HW117999   4.384   1.716   2.605 -1.3470 -1.7192 -0.4999
 2122SOL    HW218000   4.284   1.818   2.655  0.2422  1.1672 -1.0776
 2123SOL     OW18001   3.037   0.174   7.637  0.3348  0.4201 -0.5810
 2123SOL    HW118002   3.093   0.125   7.697  1.6939  1.1312 -1.2730
 2123SOL    HW218003   3.055   0.260   7.673 -0.2732 -0.9305  2.9231
 2124SOL     OW18004   4.060   2.809   1.571 -0.0548 -0.0790  0.0744
 2124SOL    HW118005   4.110   2.889   1.554 -2.7030  1.5177 -0.1685
 2124SOL    HW218006   3.969   2.831   1.553 -0.7212 -2.6208  0.2492
 2125SOL     OW18007   0.050   0.360   6.251  0.6273 -0.1891  0.4241
 2125SOL    HW118008   0.046   0.301   6.176  1.4544  0.7709 -0.3747
 2125SOL    HW218009   0.107   0.299   6.296  0.1744  0.9017  2.4799
 2126SOL     OW18010   3.489   3.348   4.686  0.0288 -0.6774 -0.2283
 2126SOL    HW118011   3.432   3.356   4.762  0.1653  1.2731 -0.3372
 2126SOL    HW218012   3.553   3.285   4.720 -0.6116 -0.0084  2.1540
 2127SOL     OW18013   3.250   2.626   1.806  0.2209 -0.1971  0.2166
 2127SOL    HW118014   3.238   2.655   1.716  0.4771  0.4408  0.3936
 2127SOL    HW218015   3.309   2.686   1.850  0.2787 -0.1263  0.0412
 2128SOL     OW18016   3.913   2.028   2.832  0.0463 -0.0121  0.7182
 2128SOL    HW118017   3.868   2.018   2.749 -2.1746  0.3017  1.8924
 2128SOL    HW218018   3.993   1.976   2.819  0.4630  0.8525 -0.1542
 2129SOL     OW18019   2.841   1.076   7.102 -0.0599 -0.0663 -0.0266
 2129SOL    HW118020   2.874   0.992   7.134  1.0331  0.6375  0.7261
 2129SOL    HW218021   2.903   1.091   7.030  0.8333 -1.7798  0.3875
 2130SOL     OW18022   0.650   2.803   1.406 -0.1137  0.2122 -0.0100
 2130SOL    HW118023   0.704   2.809   1.485 -1.4852  1.2943  0.8594
 2130SOL    HW218024   0.565   2.783   1.446  0.7994 -1.9653  0.8361
 2131SOL     OW18025   3.043   3.795   6.179  0.2507  0.1759 -0.2024
 2131SOL    HW118026   2.994   3.873   6.204 -1.9677 -0.8722 -1.2850
 2131SOL    HW218027   3.135   3.813   6.199 -0.1890  0.7047  1.3838
 2132SOL     OW18028   0.324   0.648   1.337 -0.0425 -0.2626 -0.2064
 2132SOL    HW118029   0.298   0.689   1.420 -0.1591  0.1318 -0.4360
 2132SOL    HW218030   0.237   0.631   1.301 -0.8138 -0.6670  1.8653
 2133SOL     OW18031   0.735   2.145   0.697 -0.0537 -0.2212  0.0640
 2133SOL    HW118032   0.645   2.161   0.668  0.1820  0.9613 -0.0330
 2133SOL    HW218033   0.762   2.237   0.701 -1.1841  0.1913 -1.8626
 2134SOL     OW18034   0.163   2.744   2.462  0.4277  0.0251  0.0002
 2134SOL    HW118035   0.241   2.752   2.408  0.5930 -0.2946  0.1858
 2134SOL    HW218036   0.164   2.812   2.528 -2.0077 -1.0748  1.1982
 2135SOL     OW18037   2.337   4.380  10.781  0.3479  0.1255 -0.4096
 2135SOL    HW118038   2.243   4.362  10.789 -0.0808  2.5440  0.0820
 2135SOL    HW218039   2.349   4.346  10.693 -3.0265 -0.0731 -0.8172
 2136SOL     OW18040   1.481   0.908  10.420  0.3424 -0.0519 -0.0076
 2136SOL    HW118041   1.395   0.921  10.379 -0.0756 -1.1106  0.5285
 2136SOL    HW218042   1.479   0.973  10.491 -1.1853  1.2288 -1.2425
 2137SOL     OW18043   1.069   0.666   9.124 -1.0846  0.0464  0.7482
 2137SOL    HW118044   0.974   0.664   9.139 -1.0425  1.7401  1.2826
 2137SOL    HW218045   1.070   0.725   9.049 -0.1346  0.9511  1.4759
 2138SOL     OW18046   0.125   0.505   6.899  0.1341 -0.3918  0.2140
 2138SOL    HW118047   0.204   0.459   6.872  0.9083  2.2724 -2.0769
 2138SOL    HW218048   0.108   0.467   6.985 -1.2338 -1.1085 -0.3728
 2139SOL     OW18049   1.037   3.259   6.016 -0.0829  0.2979  0.2292
 2139SOL    HW118050   1.034   3.166   5.996 -0.0962  0.2273  0.5654
 2139SOL    HW218051   1.129   3.271   6.039  0.0135  0.7238 -0.3830
 2140SOL     OW18052   1.058   3.297   9.424 -0.5034 -0.3525  0.0466
 2140SOL    HW118053   1.048   3.383   9.382  0.8127 -0.0347  0.3731
 2140SOL    HW218054   1.142   3.310   9.469  0.0696  1.2602 -1.4833
 2141SOL     OW18055   4.363   1.231   6.584  0.4426  0.2545 -0.1668
 2141SOL    HW118056   4.451   1.245   6.621  1.6476 -0.6575 -2.6910
 2141SOL    HW218057   4.346   1.323   6.560  1.7869  0.2693 -1.0724
 2142SOL     OW18058   3.959   3.969   8.691 -0.1672  0.0794  0.1060
 2142SOL    HW118059   3.957   3.945   8.598 -1.6334 -1.9190  0.6808
 2142SOL    HW218060   4.036   3.918   8.713  1.2572  1.5354 -1.4315
 2143SOL     OW18061   0.128   3.033  13.963  0.2370  0.5980  0.0730
 2143SOL    HW118062   0.102   2.958  13.910  1.3723  0.1303  0.1937
 2143SOL    HW218063   0.096   3.005  14.049  0.3781  0.2010 -0.0062
 2144SOL     OW18064   0.074   0.611   1.214 -0.3096 -0.1650 -0.0119
 2144SOL    HW118065   0.050   0.552   1.286  1.9187 -0.9669  0.0959
 2144SOL    HW218066   4.738   0.582   1.167 -1.0655 -0.0282  1.1339
 2145SOL     OW18067   1.158   1.367   0.836  0.1050  0.0426  0.2998
 2145SOL    HW118068   1.171   1.286   0.787 -2.1594 -0.6501  0.8376
 2145SOL    HW218069   1.162   1.424   0.760 -1.1075 -0.3594 -0.0667
 2146SOL     OW18070   1.312   2.072  13.964 -0.1304  0.0169 -0.5084
 2146SOL    HW118071   1.299   2.101  14.054  1.6675  0.8282 -0.5225
 2146SOL    HW218072   1.366   1.995  13.978 -0.0579 -0.3377 -2.6550
 2147SOL     OW18073   0.866   3.328   5.032  0.4038  0.1871 -0.3059
 2147SOL    HW118074   0.864   3.274   5.112  3.0935 -0.3396 -0.6198
 2147SOL    HW218075   0.877   3.259   4.967  2.3466 -0.7064  0.9932
 2148SOL     OW18076   2.487   2.978   4.304  0.6098  0.1099 -0.0952
 2148SOL    HW118077   2.506   3.014   4.217 -0.7202 -1.9205 -1.2155
 2148SOL    HW218078   2.575   2.964   4.338  0.3001 -1.0048  0.2245
 2149SOL     OW18079   1.023   1.060   9.279 -0.5382 -0.2529 -0.1668
 2149SOL    HW118080   1.047   1.102   9.362 -2.6065  0.7056 -0.0586
 2149SOL    HW218081   1.102   1.008   9.266 -0.2582 -0.3011  1.6407
 2150SOL     OW18082   2.500   1.044   7.110 -0.0617 -0.0803  0.0140
 2150SOL    HW118083   2.562   1.097   7.159  1.5801  0.5051 -2.7228
 2150SOL    HW218084   2.438   1.003   7.170 -0.1088 -0.3995 -0.2529
 2151SOL     OW18085   4.442   2.581   7.847 -0.5239  0.0339  0.2629
 2151SOL    HW118086   4.448   2.664   7.800 -1.2539  0.0180  0.1514
 2151SOL    HW218087   4.353   2.585   7.880 -0.5642 -2.2705  0.3750
 2152SOL     OW18088   4.058   3.109   6.662 -0.1098  0.4251  0.7311
 2152SOL    HW118089   4.091   3.101   6.751 -0.6701 -0.5717  0.8438
 2152SOL    HW218090   4.143   3.126   6.620 -0.5571  2.7719  0.7347
 2153SOL     OW18091   0.568   0.773   4.938  0.3722 -0.4131  0.4181
 2153SOL    HW118092   0.515   0.846   4.908  0.8885  0.3685  1.4028
 2153SOL    HW218093   0.649   0.791   4.891  0.8264  1.8940  2.1152
 2154SOL     OW18094   0.421   2.554   3.355 -0.4457  0.4064 -0.4222
 2154SOL    HW118095   0.439   2.639   3.315  1.1411 -0.4115 -1.4420
 2154SOL    HW218096   0.421   2.577   3.448  3.0806  1.4397 -0.6779
 2155SOL     OW18097   0.855   4.115  12.563 -0.1209 -0.4887 -0.0706
 2155SOL    HW118098   0.924   4.172  12.530 -0.7375  0.8915  1.0757
 2155SOL    HW218099   0.818   4.083  12.480  0.6005  0.4451 -0.7441
 2156SOL     OW18100   3.723   4.364   8.269  0.3261 -0.1380 -0.3952
 2156SOL    HW118101   3.708   4.391   8.360  2.3038 -3.0583  0.8093
 2156SOL    HW218102   3.650   4.309   8.242  1.0908 -1.9174  1.1106
 2157SOL     OW18103   3.396   1.545   3.282 -0.2382 -0.1193 -0.2221
 2157SOL    HW118104   3.468   1.604   3.259 -0.4680  0.2634  0.0488
 2157SOL    HW218105   3.429   1.464   3.242  1.9922  0.1515  1.0444
 2158SOL     OW18106   3.372   1.752  15.487  0.2502  0.0143  0.5861
 2158SOL    HW118107   3.402   1.795  15.567  0.6937  2.1128 -0.7260
 2158SOL    HW218108   3.453   1.724  15.445 -0.7112 -3.2731  0.9326
 2159SOL     OW18109   1.296   3.135   9.962  0.9187  0.2733 -0.2328
 2159SOL    HW118110   1.357   3.063   9.978  2.7372  1.9595  0.4390
 2159SOL    HW218111   1.218   3.087   9.933  0.9112  0.7193 -0.9532
 2160SOL     OW18112   3.194   1.400   5.562  1.1205  0.5490 -0.5036
 2160SOL    HW118113   3.145   1.478   5.536 -0.2346  0.1905  0.9671
 2160SOL    HW218114   3.259   1.438   5.621 -0.0124 -0.8411  1.6450
 2161SOL     OW18115   0.193   3.503   7.249 -0.1803 -0.0916 -0.6187
 2161SOL    HW118116   0.267   3.512   7.188 -0.7564  2.3261 -0.9512
 2161SOL    HW218117   0.241   3.500   7.332  0.4501  0.3840 -0.9633
 2162SOL     OW18118   3.589   2.501   8.105 -0.1710  0.1650 -0.3772
 2162SOL    HW118119   3.585   2.424   8.162  1.7363  1.4290  1.4619
 2162SOL    HW218120   3.507   2.546   8.127 -0.3587  0.2747 -1.3153
 2163SOL     OW18121   4.681   2.395   9.758 -0.0519 -0.0742  0.5490
 2163SOL    HW118122   4.658   2.376   9.667  1.2867 -0.4557  0.2914
 2163SOL    HW218123   4.713   2.484   9.750  2.7479 -1.1814 -0.5568
 2164SOL     OW18124   1.612   3.451  15.960  0.2413  0.6466 -0.2467
 2164SOL    HW118125   1.518   3.465  15.965  0.3073  1.0421 -0.1138
 2164SOL    HW218126   1.616   3.359  15.934 -1.6120  0.1273  1.3369
 2165SOL     OW18127   3.645   0.221   5.595 -0.4181  0.1451  0.1583
 2165SOL    HW118128   3.583   0.254   5.661  1.1050  1.2470  1.0378
 2165SOL    HW218129   3.673   0.299   5.547  1.5443 -0.7988 -0.1923
 2166SOL     OW18130   3.654   3.937   7.995 -0.0446 -0.7763  0.2153
 2166SOL    HW118131   3.606   3.947   8.077 -0.1906 -0.3699  0.0815
 2166SOL    HW218132   3.592   3.988   7.943  0.5695  1.3476  1.5521
 2167SOL     OW18133   3.511   4.670   6.259  0.1247 -0.5526  0.2884
 2167SOL    HW118134   3.445   4.601   6.262 -0.1764 -0.2248  1.0796
 2167SOL    HW218135   3.541   4.669   6.168  0.4731 -0.5305  0.4019
 2168SOL     OW18136   3.238   4.300  15.062 -0.1756  0.3048 -0.0910
 2168SOL    HW118137   3.247   4.312  15.157 -0.1825 -1.0622  0.0809
 2168SOL    HW218138   3.199   4.213  15.068  0.2585 -0.0974 -3.2652
 2169SOL     OW18139   2.156   4.017   1.013 -0.3023  0.1073  0.0830
 2169SOL    HW118140   2.124   4.075   0.943 -0.2720  2.0728  1.7221
 2169SOL    HW218141   2.090   4.029   1.082 -0.3105 -1.7306  0.3829
 2170SOL     OW18142   1.991   3.020   3.645  0.0058  0.0082 -0.0056
 2170SOL    HW118143   2.011   2.933   3.610  2.2982  0.9231 -0.9677
 2170SOL    HW218144   1.898   3.013   3.627 -0.2483 -0.1101  1.2983
 2171SOL     OW18145   4.282   3.876  15.976  0.4192  0.4939  0.3354
 2171SOL    HW118146   4.232   3.954  15.952 -0.4449  0.3346  1.6404
 2171SOL    HW218147   4.308   3.886  16.068 -0.1684  1.5910  0.3806
 2172SOL     OW18148   3.180   0.838   7.128 -0.0004  0.5331 -0.1072
 2172SOL    HW118149   3.209   0.789   7.050 -0.3370 -0.7798  0.5891
 2172SOL    HW218150   3.087   0.856   7.113  0.0986  1.2784  0.2226
 2173SOL     OW18151   1.896   0.162  11.262  0.0151  0.5460 -0.4477
 2173SOL    HW118152   1.821   0.109  11.289 -1.0350  1.3672 -1.7394
 2173SOL    HW218153   1.863   0.200  11.180 -3.0475  0.5156  0.7499
 2174SOL     OW18154   2.848   0.179  17.129 -0.3548  0.2349  0.3832
 2174SOL    HW118155   2.882   0.089  17.136 -1.4311 -0.3443 -1.6113
 2174SOL    HW218156   2.859   0.207  17.038  0.7479 -0.8368  0.1718
 2175SOL     OW18157   1.067   1.683   3.149  0.0808  0.3258  0.5804
 2175SOL    HW118158   1.121   1.633   3.087  0.4860  0.1703  1.0575
 2175SOL    HW218159   1.058   1.758   3.091  2.6807 -0.1483 -0.4416
 2176SOL     OW18160   1.394   3.518   9.370  0.7609 -0.2879 -0.1356
 2176SOL    HW118161   1.446   3.507   9.450  2.9816  1.7679 -1.2899
 2176SOL    HW218162   1.427   3.446   9.317 -0.5869 -1.2365  0.3207
 2177SOL     OW18163   1.875   0.066   3.896  0.3150  0.1421  0.3687
 2177SOL    HW118164   1.911   4.727   3.858 -2.0186  0.0042 -1.5341
 2177SOL    HW218165   1.941   0.085   3.963 -0.3884 -1.0808  1.4272
 2178SOL     OW18166   3.403   2.685   5.061 -0.5504 -0.8582  0.3100
 2178SOL    HW118167   3.455   2.606   5.046  2.6613  1.0852  1.2113
 2178SOL    HW218168   3.386   2.709   4.969 -0.6708 -2.5182 -0.1053
 2179SOL     OW18169   1.863   0.888   9.102  0.6908  0.0922 -0.4098
 2179SOL    HW118170   1.883   0.982   9.106 -0.7832  0.4780 -2.3075
 2179SOL    HW218171   1.916   0.853   9.174 -0.4477 -0.2359  0.2714
 2180SOL     OW18172   1.176   2.830   3.201  0.8324  0.6984 -0.1573
 2180SOL    HW118173   1.218   2.763   3.255 -1.1632 -0.0431  0.4675
 2180SOL    HW218174   1.164   2.783   3.118  1.3350 -1.8032  1.1687
 2181SOL     OW18175   2.247   1.546  13.079  0.2250 -0.3848 -0.0541
 2181SOL    HW118176   2.169   1.528  13.132 -2.5183 -0.2233 -4.0566
 2181SOL    HW218177   2.301   1.605  13.131  1.2343 -1.5800  0.2666
 2182SOL     OW18178   1.306   3.963   7.450 -0.3603 -0.0623 -0.1152
 2182SOL    HW118179   1.305   4.040   7.395  1.5046 -0.7409 -1.0943
 2182SOL    HW218180   1.394   3.968   7.486 -0.7670 -2.2700  1.2376
 2183SOL     OW18181   3.990   3.321   7.235 -0.4369 -0.0012 -0.6690
 2183SOL    HW118182   4.049   3.352   7.304  1.9774 -1.2253 -2.1979
 2183SOL    HW218183   4.003   3.227   7.231  1.1300  0.1583  0.5517
 2184SOL     OW18184   4.484   0.183   4.436 -0.4774 -0.5497  0.4398
 2184SOL    HW118185   4.522   0.263   4.401 -1.6931 -0.6530 -1.1119
 2184SOL    HW218186   4.419   0.208   4.502 -0.6358  0.3112 -0.0360
 2185SOL     OW18187   4.269   2.614   6.100  0.1201 -0.0539  0.2543
 2185SOL    HW118188   4.247   2.680   6.034  3.0760  0.5456 -0.1371
 2185SOL    HW218189   4.349   2.653   6.137  0.6966 -0.4288 -0.6100
 2186SOL     OW18190   0.929   1.628   5.030  0.0584  0.2064  0.1790
 2186SOL    HW118191   0.858   1.571   5.060 -0.8006  0.3834 -1.5734
 2186SOL    HW218192   0.958   1.662   5.115 -0.9653 -1.3173  1.1478
 2187SOL     OW18193   4.178   3.140   6.922  0.2941  0.0133 -0.5176
 2187SOL    HW118194   4.250   3.123   6.983 -0.5208  0.0089  0.4485
 2187SOL    HW218195   4.209   3.228   6.900  0.7982  0.5090  2.0581
 2188SOL     OW18196   2.340   0.889   2.032  0.1053  0.0949  0.4285
 2188SOL    HW118197   2.298   0.833   2.097  0.9006 -1.7810 -0.6915
 2188SOL    HW218198   2.349   0.970   2.082 -5.3587  0.2527  1.2496
 2189SOL     OW18199   1.902   3.128   5.388  0.3987  0.3962 -0.0538
 2189SOL    HW118200   1.857   3.203   5.349  0.3192  0.3068 -0.1348
 2189SOL    HW218201   1.904   3.074   5.309  2.3540  0.7162 -0.2182
 2190SOL     OW18202   0.391   4.028   6.419  0.0856  0.0921  0.1341
 2190SOL    HW118203   0.334   3.972   6.472 -1.3011 -0.9732 -2.4972
 2190SOL    HW218204   0.336   4.105   6.429 -0.5030 -0.6500  2.6105
 2191SOL     OW18205   0.456   4.201   9.215  0.2803  0.5174  0.0991
 2191SOL    HW118206   0.498   4.190   9.130 -0.7630 -2.7791  0.0243
 2191SOL    HW218207   0.509   4.263   9.265  1.6734  1.1779 -2.1736
 2192SOL     OW18208   3.033   3.367   4.230 -0.2402 -0.0322  0.2954
 2192SOL    HW118209   3.013   3.461   4.235  0.6027  0.1322  0.7241
 2192SOL    HW218210   3.004   3.360   4.140  0.7690 -1.3034  0.0665
 2193SOL     OW18211   1.613   4.000   7.887  0.1264  0.1686  0.3441
 2193SOL    HW118212   1.667   4.062   7.837 -1.8114  0.5155 -1.2922
 2193SOL    HW218213   1.643   4.012   7.977  0.8748 -0.8610  0.2264
 2194SOL     OW18214   0.613   2.686   5.744 -0.1382 -0.1254 -0.0860
 2194SOL    HW118215   0.593   2.684   5.837 -2.1205  0.3726 -0.5096
 2194SOL    HW218216   0.700   2.646   5.743  0.0218  0.1969  1.6569
 2195SOL     OW18217   4.155   2.670   2.739 -0.4261  0.1872 -0.5629
 2195SOL    HW118218   4.114   2.669   2.653  1.0989  1.3627 -1.2947
 2195SOL    HW218219   4.088   2.721   2.784  0.5229 -0.1929  1.3036
 2196SOL     OW18220   0.986   1.382  14.194 -0.1586  0.3056 -0.2414
 2196SOL    HW118221   1.050   1.353  14.129  0.1193 -1.8675  1.0000
 2196SOL    HW218222   0.917   1.420  14.139  0.3272  4.0427  1.7516
 2197SOL     OW18223   0.526   3.104   3.829 -0.1243  0.2635  0.0623
 2197SOL    HW118224   0.489   3.188   3.855  0.0707  0.4236 -0.1888
 2197SOL    HW218225   0.565   3.109   3.742  0.4274  0.9145  0.3559
 2198SOL     OW18226   2.478   4.541  16.119 -0.2369 -0.5506 -0.5475
 2198SOL    HW118227   2.491   4.634  16.138  1.1699 -1.0600  0.9507
 2198SOL    HW218228   2.426   4.502  16.189 -0.4839 -0.2005 -0.5321
 2199SOL     OW18229   3.506   3.649   3.273 -0.7002 -0.1047  0.2681
 2199SOL    HW118230   3.547   3.585   3.331  0.2206 -1.3928 -1.7749
 2199SOL    HW218231   3.520   3.602   3.190  0.3929  0.4619  0.1199
 2200SOL     OW18232   3.119   1.443  16.496  0.3583  0.3073 -0.3968
 2200SOL    HW118233   3.071   1.360  16.492  2.3580 -0.7485 -2.4219
 2200SOL    HW218234   3.111   1.474  16.586  1.4619  1.2113 -0.6164
 2201SOL     OW18235   4.658   2.934   3.011 -0.1075 -0.1443  0.3693
 2201SOL    HW118236   0.011   2.929   2.995 -0.3525  0.2392 -1.1718
 2201SOL    HW218237   4.641   3.028   3.015  2.7964  0.3687  0.7264
 2202SOL     OW18238   0.372   4.420   3.052 -0.9096 -0.2374  0.2146
 2202SOL    HW118239   0.349   4.502   3.008  1.3909  0.3574  0.1193
 2202SOL    HW218240   0.326   4.367   2.986  1.1644 -1.2739 -0.4094
 2203SOL     OW18241   2.078   3.968   1.662  0.1590  0.0725 -0.1164
 2203SOL    HW118242   2.139   4.037   1.686  1.5779 -1.3627  0.4147
 2203SOL    HW218243   2.141   3.903   1.630  0.0934 -0.2189  0.3454
 2204SOL     OW18244   0.090   1.547   0.372  0.3397 -0.0502 -0.0001
 2204SOL    HW118245   0.131   1.501   0.446 -0.5872 -0.2215  0.4064
 2204SOL    HW218246   0.015   1.489   0.358 -0.9905  2.1984 -2.1874
 2205SOL     OW18247   2.583   2.460   4.160  0.1607  0.5519  0.5673
 2205SOL    HW118248   2.542   2.374   4.169 -0.3027  0.3920 -2.9702
 2205SOL    HW218249   2.632   2.439   4.080 -2.5776 -0.5930 -0.8342
 2206SOL     OW18250   1.773   4.156   3.684  0.3712 -0.2310 -0.1059
 2206SOL    HW118251   1.865   4.183   3.689  0.0321  0.9959 -0.5680
 2206SOL    HW218252   1.752   4.118   3.600  1.7153 -1.8331  0.2770
 2207SOL     OW18253   2.657   2.990  16.235  0.6649 -0.1780  0.7232
 2207SOL    HW118254   2.692   2.944  16.159 -0.8238 -1.8100  1.0077
 2207SOL    HW218255   2.629   2.924  16.299 -1.1199 -0.6753 -0.5857
 2208SOL     OW18256   2.973   4.289  11.750 -0.6530  0.3007 -0.2996
 2208SOL    HW118257   3.031   4.213  11.755  0.5791  1.1801 -0.9705
 2208SOL    HW218258   2.886   4.257  11.772 -0.2525  0.6857  1.8635
 2209SOL     OW18259   3.562   3.986   6.559 -0.6962  0.6610  0.4907
 2209SOL    HW118260   3.613   4.019   6.486  1.8713 -0.7526  1.6543
 2209SOL    HW218261   3.596   3.897   6.554 -0.5935  0.7431 -0.2811
 2210SOL     OW18262   0.382   3.459  17.256 -0.3098  0.3741 -0.1937
 2210SOL    HW118263   0.319   3.403  17.211 -1.6866  0.6950  1.3815
 2210SOL    HW218264   0.426   3.490  17.176  0.2919 -1.8794 -0.7287
 2211SOL     OW18265   1.516   4.051  10.803 -0.3388  0.4106 -0.1201
 2211SOL    HW118266   1.571   4.116  10.845 -1.5210  1.3685 -0.0467
 2211SOL    HW218267   1.574   3.985  10.765 -1.3661 -0.7420  0.3126
 2212SOL     OW18268   3.660   4.204  15.327  0.5094  0.6655  0.5372
 2212SOL    HW118269   3.575   4.210  15.370 -0.0287  0.2375 -0.4678
 2212SOL    HW218270   3.716   4.174  15.399  0.2007  1.5379  1.1339
 2213SOL     OW18271   4.438   2.936   7.480 -0.2680  1.0757 -0.3143
 2213SOL    HW118272   4.384   2.999   7.528  1.1193  1.4567  0.7206
 2213SOL    HW218273   4.510   2.992   7.454  0.1382  0.0035 -1.5305
 2214SOL     OW18274   1.347   3.479   6.488 -0.0850 -0.2157  0.0809
 2214SOL    HW118275   1.344   3.564   6.531  2.4674 -0.2984  0.4205
 2214SOL    HW218276   1.395   3.426   6.551 -0.8096  0.0077  0.8192
 2215SOL     OW18277   3.133   2.756   5.154  0.1955  0.1503 -0.1032
 2215SOL    HW118278   3.136   2.819   5.226  0.6230  2.3301 -2.0163
 2215SOL    HW218279   3.226   2.741   5.138  0.4117  0.5909  0.7427
 2216SOL     OW18280   1.330   3.020  13.286  0.3037  0.1307  0.4097
 2216SOL    HW118281   1.410   3.058  13.248  0.5093  2.3037  3.0022
 2216SOL    HW218282   1.339   3.047  13.377 -0.5406  0.2932  0.4456
 2217SOL     OW18283   1.204   1.298   1.577  0.5059 -0.4148 -0.0551
 2217SOL    HW118284   1.297   1.283   1.560  0.3700 -0.5797 -0.6570
 2217SOL    HW218285   1.161   1.254   1.504  1.0311  1.3368 -1.4198
 2218SOL     OW18286   3.381   1.905   5.938  0.6585  0.0584  0.4080
 2218SOL    HW118287   3.328   1.963   5.992  0.2343  0.1817 -0.1399
 2218SOL    HW218288   3.337   1.820   5.950 -0.0161  0.6307  1.9158
 2219SOL     OW18289   0.182   0.668   4.290  0.2562  0.2102  0.9584
 2219SOL    HW118290   0.168   0.733   4.359 -1.6355 -0.5135  1.2653
 2219SOL    HW218291   0.092   0.649   4.263  0.7362  0.8896 -1.1273
 2220SOL     OW18292   1.090   3.986   7.984  0.0612  0.1322  0.6038
 2220SOL    HW118293   1.063   3.939   7.905 -2.6973  1.9826  0.4066
 2220SOL    HW218294   1.159   4.041   7.948  1.6137 -1.6531  0.8485
 2221SOL     OW18295   0.575   2.959   6.202  0.0112 -0.5087 -0.3230
 2221SOL    HW118296   0.670   2.968   6.210 -0.3079  2.4484 -0.0732
 2221SOL    HW218297   0.566   2.901   6.126  1.1617 -3.0048  1.4574
 2222SOL     OW18298   0.301   1.563  17.357  0.3726  0.0762  0.3239
 2222SOL    HW118299   0.324   1.472  17.371 -2.1038 -0.6896 -0.4915
 2222SOL    HW218300   0.372   1.604  17.307  0.2941  0.9368  0.9235
 2223SOL     OW18301   4.599   4.072   0.783  0.5194 -0.4328  0.1093
 2223SOL    HW118302   4.525   4.057   0.843 -1.1990 -0.9395 -2.1333
 2223SOL    HW218303   4.645   4.134   0.839  1.7931 -0.7508 -0.6030
 2224SOL     OW18304   3.339   2.877   4.121  0.0783 -0.6978  0.2221
 2224SOL    HW118305   3.294   2.805   4.075  1.9074 -0.8415 -1.3378
 2224SOL    HW218306   3.271   2.914   4.177 -0.7864 -2.6151  0.4432
 2225SOL     OW18307   2.015   2.714  14.568  0.2096  0.3415 -0.5746
 2225SOL    HW118308   2.048   2.800  14.542  1.5913  0.1728  0.6722
 2225SOL    HW218309   2.090   2.672  14.608 -0.5644  0.5072  1.0616
 2226SOL     OW18310   3.345   3.724   2.871 -0.4752  0.3209  0.6999
 2226SOL    HW118311   3.438   3.710   2.888 -0.1843  1.1307 -0.1837
 2226SOL    HW218312   3.323   3.798   2.928  0.2811  0.7389  0.4448
 2227SOL     OW18313   2.951   1.654   6.753 -0.3161 -0.1047  0.1190
 2227SOL    HW118314   2.900   1.625   6.829  1.0095 -0.0813  1.0324
 2227SOL    HW218315   3.035   1.631   6.795 -1.3203 -2.4182  0.8778
 2228SOL     OW18316   3.718   0.574   3.556 -0.4877  0.2674 -0.3697
 2228SOL    HW118317   3.709   0.521   3.477 -0.6014  0.1190 -0.2578
 2228SOL    HW218318   3.630   0.569   3.593  0.7069  0.5427  2.5268
 2229SOL     OW18319   1.271   2.491   2.780 -0.1559  0.6805  0.1468
 2229SOL    HW118320   1.329   2.439   2.725 -2.4115 -0.3452 -1.2884
 2229SOL    HW218321   1.268   2.571   2.728 -0.3032  0.5783 -0.0011
 2230SOL     OW18322   2.664   0.558   5.568  0.2789 -0.0269  0.2369
 2230SOL    HW118323   2.628   0.486   5.619 -0.6689  0.1324 -0.2140
 2230SOL    HW218324   2.686   0.616   5.641 -1.1850  1.0620 -0.1871
 2231SOL     OW18325   3.278   4.484   7.182 -0.0543 -0.3198 -0.0779
 2231SOL    HW118326   3.190   4.463   7.151 -0.7358  2.0255  0.2880
 2231SOL    HW218327   3.252   4.505   7.272 -1.8754  2.7219 -1.3324
 2232SOL     OW18328   1.361   2.755   2.669 -0.1633 -0.2586  0.6843
 2232SOL    HW118329   1.301   2.812   2.717 -0.1735 -0.8595  1.3745
 2232SOL    HW218330   1.444   2.762   2.716 -2.1249 -2.4536  4.4497
 2233SOL     OW18331   0.804   2.034   3.761 -0.1277  0.0078  0.2575
 2233SOL    HW118332   0.743   2.046   3.689  0.4887  0.5101 -0.1843
 2233SOL    HW218333   0.876   2.003   3.706 -1.1084 -1.5197 -0.1508
 2234SOL     OW18334   0.224   3.358   9.344 -0.1190  0.6030  0.1521
 2234SOL    HW118335   0.246   3.335   9.254  1.5254  1.1565  0.3982
 2234SOL    HW218336   0.129   3.367   9.339 -0.1756 -0.5603 -0.7522
 2235SOL     OW18337   2.875   3.936   6.691 -0.5398 -0.8199  0.3658
 2235SOL    HW118338   2.942   3.966   6.753 -1.2126 -0.7685  1.0787
 2235SOL    HW218339   2.860   4.020   6.647  0.8122 -0.9932 -0.4220
 2236SOL     OW18340   0.858   4.351   9.510 -0.0787 -0.3924 -0.0211
 2236SOL    HW118341   0.904   4.435   9.508 -0.5403 -0.1622 -0.9364
 2236SOL    HW218342   0.935   4.297   9.489  0.6978  0.7100 -0.0411
 2237SOL     OW18343   3.675   3.950   2.562  0.6172  0.0554  0.3363
 2237SOL    HW118344   3.747   3.935   2.500 -1.5905  1.2067 -2.5084
 2237SOL    HW218345   3.726   3.946   2.642  0.6406  0.9099  0.3651
 2238SOL     OW18346   3.318   0.763   1.395  0.0473 -0.0281 -0.1790
 2238SOL    HW118347   3.268   0.820   1.337  0.5713  0.8270  0.2077
 2238SOL    HW218348   3.272   0.680   1.387  0.2880 -0.3545  1.6966
 2239SOL     OW18349   3.780   1.947   3.963  0.1397  0.0947 -0.9620
 2239SOL    HW118350   3.847   1.908   3.906  1.9000  1.9184 -0.1389
 2239SOL    HW218351   3.838   1.972   4.034 -0.3226 -0.9853 -0.2144
 2240SOL     OW18352   1.770   3.501   7.382 -0.4199  0.3539  0.4230
 2240SOL    HW118353   1.723   3.423   7.353  0.9840 -0.3527  0.0484
 2240SOL    HW218354   1.790   3.540   7.297 -0.6050  0.1547  0.2879
 2241SOL     OW18355   2.905   3.673   9.350 -0.0211 -0.4028 -0.0606
 2241SOL    HW118356   2.834   3.608   9.352  0.7728 -1.2956 -1.0253
 2241SOL    HW218357   2.932   3.664   9.259  2.5119 -0.8667  0.7497
 2242SOL     OW18358   3.191   0.364   7.026 -0.4481 -0.0703 -0.0660
 2242SOL    HW118359   3.170   0.297   7.091  2.0455 -0.7111  0.1005
 2242SOL    HW218360   3.226   0.305   6.959 -0.5845  0.4599 -0.5991
 2243SOL     OW18361   2.524   3.510   2.358  0.2001 -0.5953  0.0584
 2243SOL    HW118362   2.556   3.439   2.414  3.5455 -0.0752 -1.2194
 2243SOL    HW218363   2.602   3.529   2.306 -0.0877  0.7423  0.1095
 2244SOL     OW18364   1.665   0.582   4.260  0.0242 -0.3709 -0.2671
 2244SOL    HW118365   1.749   0.625   4.278 -0.3564  0.7198 -1.0925
 2244SOL    HW218366   1.605   0.635   4.313 -0.1861 -1.9159  1.0384
 2245SOL     OW18367   2.096   2.710   3.928 -0.1275  0.1817  0.1457
 2245SOL    HW118368   2.064   2.674   4.011  1.5492 -2.6299 -0.4416
 2245SOL    HW218369   2.157   2.771   3.969  1.9341 -2.6132  1.2464
 2246SOL     OW18370   1.091   4.587   4.180 -0.3693  0.0761  0.0557
 2246SOL    HW118371   0.998   4.575   4.198 -0.7534 -0.5845 -2.3679
 2246SOL    HW218372   1.091   4.643   4.102 -1.2700  1.0466  0.7485
 2247SOL     OW18373   3.894   3.843   6.344 -0.2910  0.0308 -0.6230
 2247SOL    HW118374   3.824   3.905   6.365  0.4653  0.5696  0.3034
 2247SOL    HW218375   3.841   3.763   6.341 -0.5204  0.1989 -1.0214
 2248SOL     OW18376   1.771   2.123   8.126  0.4953 -1.0680  0.5533
 2248SOL    HW118377   1.834   2.169   8.070 -0.2496 -1.7668 -0.8568
 2248SOL    HW218378   1.822   2.066   8.184  1.4017 -0.0872  0.7331
 2249SOL     OW18379   4.440   0.131   8.121 -0.1099  0.0584  0.3395
 2249SOL    HW118380   4.487   0.210   8.095 -0.7090  1.2207  2.7904
 2249SOL    HW218381   4.425   0.132   8.216  0.9114 -1.8345  0.5278
 2250SOL     OW18382   0.830   2.941   4.262 -0.3351  0.0814 -0.0687
 2250SOL    HW118383   0.785   2.934   4.346  1.9266  0.0381  1.1331
 2250SOL    HW218384   0.758   2.978   4.211  0.6486 -1.4725 -2.5951
 2251SOL     OW18385   3.951   1.248   3.727  0.0385  0.1391 -0.3255
 2251SOL    HW118386   3.987   1.184   3.666  1.5469  1.5284 -0.8914
 2251SOL    HW218387   3.861   1.256   3.694  1.2397  0.2040 -3.5423
 2252SOL     OW18388   0.255   2.673   4.363 -0.3237 -0.0743 -0.1469
 2252SOL    HW118389   0.192   2.602   4.375 -0.3110 -0.2075 -0.8457
 2252SOL    HW218390   0.312   2.661   4.439 -1.4106 -1.5028  0.4440
 2253SOL     OW18391   0.290   2.257   2.512  0.4198  0.4685  0.0193
 2253SOL    HW118392   0.236   2.332   2.538 -2.6275 -1.2132 -1.5873
 2253SOL    HW218393   0.257   2.233   2.426  3.5439 -0.5041 -0.9284
 2254SOL     OW18394   4.476   2.080  15.731 -0.3737  0.6507 -0.7096
 2254SOL    HW118395   4.463   2.033  15.814  0.0850  0.4329 -0.7632
 2254SOL    HW218396   4.461   2.167  15.769 -0.7265 -0.2576  1.2623
 2255SOL     OW18397   2.608   2.726   5.829  0.2736  0.3354 -0.3568
 2255SOL    HW118398   2.655   2.809   5.832  0.1685  0.4300 -1.3861
 2255SOL    HW218399   2.676   2.673   5.785  2.5475  2.5514  0.4798
 2256SOL     OW18400   3.121   1.718   5.037 -0.1271 -1.0450  0.2956
 2256SOL    HW118401   3.116   1.780   4.965 -1.0826 -1.2781  0.1580
 2256SOL    HW218402   3.053   1.745   5.099 -1.4827 -1.3899 -1.0524
 2257SOL     OW18403   2.153   3.522   5.551  0.0515  0.4907 -0.0400
 2257SOL    HW118404   2.172   3.464   5.625  0.4717  0.4913 -0.1482
 2257SOL    HW218405   2.163   3.461   5.478  1.7205  0.2451  0.3913
 2258SOL     OW18406   3.752   2.777   5.106  0.6332 -0.2439  0.1284
 2258SOL    HW118407   3.725   2.865   5.130  0.5290 -0.1779 -0.2264
 2258SOL    HW218408   3.668   2.731   5.101  0.4421  0.1609 -0.4196
 2259SOL     OW18409   3.947   2.751   0.452  0.3684 -0.3135  0.2556
 2259SOL    HW118410   3.941   2.656   0.443 -0.0535 -0.3216  0.5877
 2259SOL    HW218411   4.012   2.773   0.386  0.3225 -0.5758  0.1221
 2260SOL     OW18412   3.602   3.446  16.430 -0.1526  0.4008  0.6826
 2260SOL    HW118413   3.555   3.385  16.488  1.9291 -1.2777  0.6265
 2260SOL    HW218414   3.687   3.402  16.438 -0.7895 -1.1976 -1.4787
 2261SOL     OW18415   0.336   1.511   6.594  0.0091  0.4521  0.2514
 2261SOL    HW118416   0.340   1.430   6.645 -2.0847 -1.1858 -2.2370
 2261SOL    HW218417   0.394   1.499   6.518  0.0769 -1.3480  0.5787
 2262SOL     OW18418   2.125   2.605   8.413  0.2247 -0.3241 -0.4901
 2262SOL    HW118419   2.054   2.640   8.466  0.8838 -1.4528  1.1576
 2262SOL    HW218420   2.199   2.640   8.462  0.8734  1.1764 -2.5465
 2263SOL     OW18421   2.714   4.305   3.006  0.5737 -0.4173  0.5718
 2263SOL    HW118422   2.747   4.249   2.936 -0.5123  0.6396 -0.7982
 2263SOL    HW218423   2.792   4.328   3.056  1.4862 -0.2495 -0.9646
 2264SOL     OW18424   2.043   2.720   6.465 -0.3629  0.1631 -0.2807
 2264SOL    HW118425   1.993   2.800   6.448 -0.9562 -0.4839 -1.6131
 2264SOL    HW218426   2.037   2.727   6.560  1.6713 -0.2971 -0.1274
 2265SOL     OW18427   1.418   3.486   9.659 -0.4665  0.7116 -0.2555
 2265SOL    HW118428   1.382   3.571   9.680 -1.6518  0.4584 -1.2438
 2265SOL    HW218429   1.507   3.520   9.667 -0.8461  1.1073  1.9746
 2266SOL     OW18430   2.582   2.143   5.383 -0.1709 -0.5079  0.1976
 2266SOL    HW118431   2.648   2.213   5.379 -0.1863 -0.3984  1.6711
 2266SOL    HW218432   2.542   2.160   5.298  2.5383 -2.9593 -1.5648
 2267SOL     OW18433   2.600   2.239  16.391  0.4490 -0.0872 -0.0794
 2267SOL    HW118434   2.594   2.298  16.317 -0.7128 -0.2330 -0.1053
 2267SOL    HW218435   2.527   2.259  16.450  1.9091 -0.5769  1.9155
 2268SOL     OW18436   2.713   0.610   8.981 -0.6820 -0.2994 -0.2894
 2268SOL    HW118437   2.766   0.679   8.941  0.0325 -0.1382  0.9212
 2268SOL    HW218438   2.652   0.589   8.911  0.0621 -0.4607 -0.8864
 2269SOL     OW18439   3.408   2.435   0.246  0.2462 -0.5408  0.1467
 2269SOL    HW118440   3.387   2.445   0.339 -0.0819 -0.5414  0.0729
 2269SOL    HW218441   3.503   2.447   0.248  0.1184  0.9093 -1.8313
 2270SOL     OW18442   3.778   3.415   1.902 -0.6309  1.0758  0.0968
 2270SOL    HW118443   3.778   3.378   1.814 -0.7983  0.9610  0.1457
 2270SOL    HW218444   3.704   3.476   1.895 -0.6615  0.6090 -3.6155
 2271SOL     OW18445   3.108   1.950  12.734 -0.6856  0.0091 -0.2749
 2271SOL    HW118446   3.071   1.884  12.794  1.2383 -0.5638  0.2796
 2271SOL    HW218447   3.055   1.933  12.656 -1.7027  1.8143  0.0395
 2272SOL     OW18448   3.255   2.782  17.089 -0.1925 -0.1571  0.7002
 2272SOL    HW118449   3.174   2.731  17.088 -0.6892  0.6768 -0.4836
 2272SOL    HW218450   3.243   2.834  17.169 -1.6704  0.1365  0.2731
 2273SOL     OW18451   2.884   2.946   6.500 -0.1276  0.5619 -0.6792
 2273SOL    HW118452   2.791   2.923   6.503  0.1240 -0.2699  1.1126
 2273SOL    HW218453   2.927   2.860   6.498 -1.0017  0.1625 -2.5048
 2274SOL     OW18454   3.830   3.212   7.772 -0.1892 -0.0147 -0.3641
 2274SOL    HW118455   3.798   3.194   7.861 -2.0471  4.0875 -0.1708
 2274SOL    HW218456   3.790   3.136   7.730 -1.6403  0.7248 -0.3481
 2275SOL     OW18457   2.727   2.446   7.464  0.9114 -0.7426 -0.4303
 2275SOL    HW118458   2.776   2.473   7.386  0.6768 -1.8509 -0.9665
 2275SOL    HW218459   2.791   2.478   7.528  1.4507 -2.7156  0.0056
 2276SOL     OW18460   1.720   3.891  12.654 -0.1409  0.0628 -0.2514
 2276SOL    HW118461   1.726   3.857  12.743 -0.9102 -1.9881 -1.0001
 2276SOL    HW218462   1.663   3.966  12.667  3.3863  2.3160  2.4917
 2277SOL     OW18463   3.438   3.133   7.428  0.2995 -0.1256  0.3396
 2277SOL    HW118464   3.371   3.119   7.362  1.0665 -0.6876 -0.3134
 2277SOL    HW218465   3.519   3.163   7.386 -0.4324  1.3917  0.0257
 2278SOL     OW18466   3.843   2.480   2.811  0.2159 -0.0785 -0.2596
 2278SOL    HW118467   3.781   2.547   2.838  1.5235  0.7208  0.7175
 2278SOL    HW218468   3.831   2.409   2.874 -1.5910  0.5274  0.0847
 2279SOL     OW18469   3.264   3.991   6.581 -0.5010  0.0583 -0.2592
 2279SOL    HW118470   3.226   3.950   6.658  0.6711 -0.0331  0.2695
 2279SOL    HW218471   3.320   4.064   6.607  1.1572 -1.1925 -0.3448
 2280SOL     OW18472   4.491   4.298   8.415 -0.5785 -0.4349 -0.7792
 2280SOL    HW118473   4.421   4.291   8.351 -0.7662  0.4999 -0.6884
 2280SOL    HW218474   4.534   4.216   8.394  0.2497 -0.0812 -0.4604
 2281SOL     OW18475   1.032   2.371  12.085  0.5155 -0.3820  0.4566
 2281SOL    HW118476   1.051   2.458  12.048  1.9152 -1.0710 -0.4648
 2281SOL    HW218477   0.950   2.378  12.134 -0.1948  0.5174 -0.8470
 2282SOL     OW18478   2.276   0.656   2.176  0.1660  0.2993  0.3921
 2282SOL    HW118479   2.289   0.675   2.269  1.3896  0.1983  0.2442
 2282SOL    HW218480   2.218   0.582   2.191  0.2232  0.7176  2.7035
 2283SOL     OW18481   3.237   2.923   9.754 -0.2121  0.1341 -0.5293
 2283SOL    HW118482   3.256   2.874   9.834  0.5580 -1.4265 -1.6760
 2283SOL    HW218483   3.261   2.864   9.682  0.6463  0.5116 -0.5424
 2284SOL     OW18484   3.999   2.535   5.984  0.3518 -0.6964  0.2371
 2284SOL    HW118485   4.094   2.522   5.983  0.4589  0.2104 -2.2135
 2284SOL    HW218486   3.980   2.492   5.901 -2.8046  0.6515  0.2569
 2285SOL     OW18487   1.493   4.560   6.560 -0.5471 -0.7079 -0.2034
 2285SOL    HW118488   1.474   4.648   6.594  0.4014 -0.8042  0.5834
 2285SOL    HW218489   1.482   4.507   6.639  2.3356  0.5088  0.9993
 2286SOL     OW18490   0.424   2.833   3.866 -0.1856  0.1401  0.4242
 2286SOL    HW118491   0.499   2.787   3.905 -0.0147 -0.4523 -0.5857
 2286SOL    HW218492   0.468   2.905   3.820 -1.7173 -1.2913 -3.2526
 2287SOL     OW18493   2.649   2.386   6.200 -0.0368 -0.1135  0.0784
 2287SOL    HW118494   2.672   2.396   6.108  1.3148  0.6833  0.5085
 2287SOL    HW218495   2.580   2.320   6.206 -0.6126  0.3018 -2.0686
 2288SOL     OW18496   2.498   0.072   0.964 -0.5239 -0.4368 -0.1009
 2288SOL    HW118497   2.485   4.725   0.997 -0.6921 -0.7962 -1.1246
 2288SOL    HW218498   2.469   0.062   0.873 -0.0934  1.0943 -0.4132
 2289SOL     OW18499   0.170   0.690  16.844 -0.0728  0.2546  0.0103
 2289SOL    HW118500   0.142   0.653  16.927 -1.8248  0.2415 -0.5778
 2289SOL    HW218501   0.104   0.660  16.781  0.4744 -1.0189  0.0429
 2290SOL     OW18502   4.681   0.414   2.006 -0.7966 -0.0457  0.2859
 2290SOL    HW118503   4.697   0.502   1.972  0.8799 -1.0081 -1.4493
 2290SOL    HW218504   4.589   0.415   2.032 -1.1728 -0.3156 -1.0572
 2291SOL     OW18505   0.958   0.821   6.565  0.0459  0.0605 -0.2900
 2291SOL    HW118506   0.971   0.774   6.483 -1.1852 -1.1400  0.1919
 2291SOL    HW218507   1.040   0.869   6.574  0.0233 -0.1699  1.1601
 2292SOL     OW18508   4.643   0.182  16.353  0.0780  0.0366  0.2866
 2292SOL    HW118509   4.551   0.159  16.360  0.5625 -1.8799  0.1398
 2292SOL    HW218510   4.646   0.256  16.292  0.4683 -0.9928 -0.9396
 2293SOL     OW18511   4.155   3.324   5.861 -0.4295 -0.0531  0.4505
 2293SOL    HW118512   4.114   3.258   5.805  2.2178  0.3337 -1.9752
 2293SOL    HW218513   4.156   3.284   5.948 -0.7008  0.6648  0.7816
 2294SOL     OW18514   2.047   4.034   7.350 -0.1733  0.4098  0.2619
 2294SOL    HW118515   2.057   4.128   7.334  4.3043 -0.0948  0.1782
 2294SOL    HW218516   2.066   4.023   7.443 -1.0029  1.1941  0.5309
 2295SOL     OW18517   1.991   1.374  16.771  0.1029  0.0736  0.1241
 2295SOL    HW118518   2.029   1.441  16.828  2.3444  0.6954 -2.1125
 2295SOL    HW218519   1.918   1.423  16.733 -0.8699  2.0622  4.4786
 2296SOL     OW18520   2.909   2.422   8.846 -0.2795 -0.0586 -0.2527
 2296SOL    HW118521   2.914   2.387   8.757  1.4744  2.3380 -1.1105
 2296SOL    HW218522   2.862   2.505   8.838  0.0666  0.3521  2.0598
 2297SOL     OW18523   1.166   1.666   4.897  0.1411  0.2751  0.1060
 2297SOL    HW118524   1.088   1.676   4.951  0.1691  1.4236 -0.0616
 2297SOL    HW218525   1.151   1.573   4.882  1.4273 -0.0541  0.8327
 2298SOL     OW18526   2.597   0.214   2.094  0.4365  0.2425 -0.1623
 2298SOL    HW118527   2.523   0.229   2.153  0.7892 -1.9425  0.8430
 2298SOL    HW218528   2.634   0.132   2.127  0.4075  0.4265  0.3388
 2299SOL     OW18529   3.321   0.833   5.145  0.0895  0.1111 -0.2907
 2299SOL    HW118530   3.286   0.751   5.110  1.8146  0.0614 -1.8834
 2299SOL    HW218531   3.406   0.812   5.182  0.3178  0.3701 -0.6719
 2300SOL     OW18532   1.667   1.216   4.651 -0.4524  0.7918 -0.4741
 2300SOL    HW118533   1.715   1.291   4.618 -1.7852  0.9027 -2.1982
 2300SOL    HW218534   1.576   1.245   4.655 -1.0457 -1.1766  0.6100
 2301SOL     OW18535   3.961   1.967  17.172 -0.3038  0.2115  0.2498
 2301SOL    HW118536   4.042   1.919  17.158 -0.4694 -0.1633  0.5604
 2301SOL    HW218537   3.903   1.897  17.141  1.1184 -0.0793 -1.6982
 2302SOL     OW18538   4.649   2.431  13.082  0.2409  0.5508 -0.8478
 2302SOL    HW118539   4.624   2.461  13.169 -0.3149  0.7345 -1.0631
 2302SOL    HW218540   4.570   2.378  13.071  0.0387  0.2484  2.2072
 2303SOL     OW18541   1.475   2.855   5.870  0.0749  0.0813 -0.2471
 2303SOL    HW118542   1.421   2.896   5.937  0.6218 -0.0818  0.2954
 2303SOL    HW218543   1.404   2.807   5.827  1.4632 -0.9936 -1.3522
 2304SOL     OW18544   4.254   3.729   6.337  0.2475  0.0871  0.1138
 2304SOL    HW118545   4.343   3.729   6.371 -0.0034 -2.5016  0.7799
 2304SOL    HW218546   4.268   3.688   6.252  0.7644  3.8535 -1.6216
 2305SOL     OW18547   1.076   2.438   9.661  0.1357  0.6774 -0.2019
 2305SOL    HW118548   1.020   2.402   9.730 -0.8487  1.7425 -0.4458
 2305SOL    HW218549   1.018   2.496   9.612 -3.0945 -1.6030  0.9293
 2306SOL     OW18550   2.323   0.461  15.458  0.2188 -0.1175  0.2417
 2306SOL    HW118551   2.412   0.494  15.472 -0.1602  1.3644 -0.7951
 2306SOL    HW218552   2.308   0.430  15.547  0.9510  0.3074  0.5119
 2307SOL     OW18553   3.635   1.180  17.136 -0.1044  0.0118  0.2270
 2307SOL    HW118554   3.655   1.272  17.116  0.8025 -0.5429 -1.4359
 2307SOL    HW218555   3.560   1.183  17.077  0.5045 -3.0272 -0.7244
 2308SOL     OW18556   4.558   3.927   5.833  1.2475 -0.0418  0.0134
 2308SOL    HW118557   4.495   3.930   5.905  0.1217 -0.0034 -0.9884
 2308SOL    HW218558   4.635   3.929   5.890  0.1572  0.7907  1.4686
 2309SOL     OW18559   1.239   4.046   6.769  0.4058  0.7481 -0.3467
 2309SOL    HW118560   1.326   4.034   6.807  0.3127  0.7710 -0.1258
 2309SOL    HW218561   1.262   4.069   6.679 -0.1216  2.0739 -0.1353
 2310SOL     OW18562   3.262   2.870   3.329  0.8390  0.4310 -0.0216
 2310SOL    HW118563   3.307   2.922   3.262  0.8072  1.2491  0.5873
 2310SOL    HW218564   3.182   2.922   3.333 -0.4957 -1.5900 -0.8867
 2311SOL     OW18565   0.968   3.946   9.650 -0.0904  0.4705  0.3037
 2311SOL    HW118566   0.890   3.890   9.651  1.5702 -1.8407 -0.1609
 2311SOL    HW218567   0.972   3.980   9.739 -2.5954  1.0141  0.2190
 2312SOL     OW18568   2.015   2.014   4.769 -0.3726  0.2645 -0.3316
 2312SOL    HW118569   1.943   1.951   4.768  0.7819 -1.0217 -0.6616
 2312SOL    HW218570   2.060   1.998   4.852  0.5621  0.1713 -0.8699
 2313SOL     OW18571   4.127   2.597   8.989 -0.0377 -0.0340  0.6998
 2313SOL    HW118572   4.115   2.689   8.965 -1.3361 -0.4351 -0.2102
 2313SOL    HW218573   4.200   2.568   8.936  0.4297 -0.4446  1.5746
 2314SOL     OW18574   4.087   1.785  14.496 -0.5587 -0.2896 -0.5014
 2314SOL    HW118575   4.049   1.826  14.418 -3.8636 -3.0025 -0.2859
 2314SOL    HW218576   4.030   1.708  14.499 -1.2103  0.1844 -0.7200
 2315SOL     OW18577   2.184   2.013   2.970 -0.1244 -0.5013 -0.0041
 2315SOL    HW118578   2.180   2.055   3.055 -3.1335  0.5814 -0.7088
 2315SOL    HW218579   2.207   2.086   2.912  0.6993  0.6019  1.7067
 2316SOL     OW18580   3.051   0.271   4.225 -0.1789  0.0278  0.3302
 2316SOL    HW118581   3.143   0.254   4.206 -0.8899 -1.2075 -1.9827
 2316SOL    HW218582   3.066   0.310   4.311  1.6176 -0.5763  0.2860
 2317SOL     OW18583   2.961   4.602   1.357  0.2456  0.3982  0.3951
 2317SOL    HW118584   2.922   4.669   1.413 -0.1187 -1.1465  1.9863
 2317SOL    HW218585   2.952   4.637   1.268  0.2309 -1.9193 -0.4984
 2318SOL     OW18586   1.518   2.467  10.704  0.1695 -0.7868 -0.4294
 2318SOL    HW118587   1.424   2.464  10.686  0.0925 -0.2525 -0.1140
 2318SOL    HW218588   1.519   2.490  10.797  1.8825 -0.9498 -0.4215
 2319SOL     OW18589   1.923   4.527   9.021 -0.2123 -0.5138  0.1278
 2319SOL    HW118590   1.894   4.445   8.981  1.6008 -1.0283 -0.1609
 2319SOL    HW218591   1.872   4.584   8.963  0.1775  0.0659  0.3533
 2320SOL     OW18592   3.376   2.214   9.563 -0.3383  0.1038 -0.0589
 2320SOL    HW118593   3.418   2.145   9.615  0.4351 -0.9443 -2.0552
 2320SOL    HW218594   3.411   2.191   9.477 -0.3544  2.3256 -0.6436
 2321SOL     OW18595   2.909   1.755   1.259  0.0608  0.4192 -0.2426
 2321SOL    HW118596   2.861   1.789   1.335 -2.7574 -0.0794 -1.7902
 2321SOL    HW218597   2.880   1.828   1.204 -1.5207  0.1656  0.2283
 2322SOL     OW18598   4.212   3.577   7.741  0.5831  0.2643 -0.4142
 2322SOL    HW118599   4.167   3.632   7.806 -0.9053 -1.3617 -0.0808
 2322SOL    HW218600   4.140   3.521   7.713  0.2870 -0.5087  1.9187
 2323SOL     OW18601   4.287   1.749   4.666  0.4828 -0.1526  0.3004
 2323SOL    HW118602   4.280   1.844   4.658 -1.7408 -0.4561 -1.3167
 2323SOL    HW218603   4.234   1.725   4.590 -0.9678 -1.2452  1.6575
 2324SOL     OW18604   2.370   1.652   2.482 -0.9452 -0.3855 -0.3931
 2324SOL    HW118605   2.358   1.746   2.499 -0.7514 -0.1297 -1.6437
 2324SOL    HW218606   2.283   1.631   2.446 -0.2057 -1.5063 -1.5167
 2325SOL     OW18607   2.827   4.638   0.056  0.0122 -0.7255  0.3391
 2325SOL    HW118608   2.773   4.699   0.107 -0.1823 -0.6701  0.0701
 2325SOL    HW218609   2.840   4.676  17.733  1.7449 -0.0241  0.9054
 2326SOL     OW18610   0.842   2.894   4.976  0.2539 -0.1486 -0.4651
 2326SOL    HW118611   0.811   2.804   4.978 -1.3365  0.4317  0.7059
 2326SOL    HW218612   0.927   2.885   4.932  0.9530  2.3867  0.3878
 2327SOL     OW18613   4.386   3.480   5.693 -0.8294 -0.0213 -0.2052
 2327SOL    HW118614   4.366   3.430   5.772 -1.2932 -0.8766 -0.8681
 2327SOL    HW218615   4.441   3.548   5.732  0.8219 -0.9379 -0.9528
 2328SOL     OW18616   3.448   4.629   9.358 -0.3429 -0.3953  0.1325
 2328SOL    HW118617   3.392   4.587   9.293 -1.1921  0.7703  0.0975
 2328SOL    HW218618   3.531   4.582   9.360  0.2081  0.5691 -0.0176
 2329SOL     OW18619   1.840   2.807   3.915  0.0262 -0.1637  0.6111
 2329SOL    HW118620   1.846   2.877   3.980 -0.1568 -0.1552  0.6189
 2329SOL    HW218621   1.933   2.793   3.894 -0.6771 -1.9117 -1.3311
 2330SOL     OW18622   0.507   1.470  12.558  0.2005  0.3902 -0.2672
 2330SOL    HW118623   0.498   1.420  12.477  0.5685 -2.4600  1.4313
 2330SOL    HW218624   0.459   1.407  12.613  1.3456  0.4815  0.8412
 2331SOL     OW18625   0.095   0.182   8.123 -0.1803  0.9969  0.4435
 2331SOL    HW118626   0.122   0.183   8.215 -1.4682 -0.0226  0.8166
 2331SOL    HW218627   0.014   0.231   8.138 -2.5360 -2.7426 -0.0861
 2332SOL     OW18628   3.816   2.586  12.633  0.1294 -0.0809 -0.4943
 2332SOL    HW118629   3.860   2.638  12.566  3.8019 -1.0750  1.1475
 2332SOL    HW218630   3.858   2.501  12.621  0.1036 -0.3324  1.2476
 2333SOL     OW18631   1.722   4.009   3.458 -0.4101  0.6005 -0.1714
 2333SOL    HW118632   1.740   4.068   3.385  0.7337  1.5073  0.8237
 2333SOL    HW218633   1.637   3.970   3.439 -0.1401  1.1632 -2.5162
 2334SOL     OW18634   4.362   4.441  16.062 -0.4016  0.0546 -0.1614
 2334SOL    HW118635   4.378   4.447  15.968 -0.2965  3.5367  0.0775
 2334SOL    HW218636   4.451   4.452  16.097  0.4366 -1.5244 -1.7812
 2335SOL     OW18637   1.981   1.038   2.358 -0.3839  0.1026  0.5810
 2335SOL    HW118638   1.962   0.950   2.325 -1.5084  0.3770  0.4981
 2335SOL    HW218639   1.924   1.041   2.434 -1.8228  1.2288 -0.5387
 2336SOL     OW18640   3.859   4.721  10.890 -0.4262 -0.1474 -0.4915
 2336SOL    HW118641   3.899   4.672  10.962 -0.0876 -0.9362 -1.2149
 2336SOL    HW218642   3.774   4.677  10.885 -0.7387  0.2711  1.4246
 2337SOL     OW18643   3.343   0.815   3.568 -0.6832 -0.3544  0.0668
 2337SOL    HW118644   3.263   0.865   3.550 -1.4919 -0.5818  3.0485
 2337SOL    HW218645   3.397   0.850   3.496  2.1015 -1.8303  1.4672
 2338SOL     OW18646   1.373   1.158   6.848  0.2546  0.6082 -0.2142
 2338SOL    HW118647   1.446   1.189   6.902  0.2610  0.9319 -0.4033
 2338SOL    HW218648   1.323   1.104   6.909 -0.4521 -0.3150 -1.6116
 2339SOL     OW18649   3.526   2.746   3.328  0.0812 -0.4958 -0.5924
 2339SOL    HW118650   3.438   2.783   3.320  0.3438 -0.4968 -3.7823
 2339SOL    HW218651   3.575   2.793   3.259  0.7937  1.0607  0.9806
 2340SOL     OW18652   2.055   1.267   4.542 -0.1113 -0.0553 -0.2412
 2340SOL    HW118653   2.095   1.302   4.462  1.0213  0.9349  0.7767
 2340SOL    HW218654   2.025   1.351   4.577 -0.4848  0.0515 -0.8197
 2341SOL     OW18655   2.035   0.078   6.218  0.3601  0.0213  0.2885
 2341SOL    HW118656   2.004   0.016   6.284 -1.6021 -0.3068 -0.9762
 2341SOL    HW218657   1.957   0.127   6.194  0.0197 -0.8699 -0.3912
 2342SOL     OW18658   3.806   2.229   5.824 -0.3536 -0.4865 -0.4197
 2342SOL    HW118659   3.827   2.163   5.758  1.5073 -0.3191  0.0316
 2342SOL    HW218660   3.853   2.305   5.790 -0.2274  0.0876  1.0288
 2343SOL     OW18661   0.366   1.165   2.555  0.2104  0.0355 -0.1311
 2343SOL    HW118662   0.432   1.155   2.486  1.0087 -2.7983  1.0639
 2343SOL    HW218663   0.340   1.075   2.573 -0.4784  0.8001  2.7738
 2344SOL     OW18664   2.922   0.509   5.870 -0.2230 -0.6144  0.3295
 2344SOL    HW118665   2.973   0.455   5.810  0.7239  0.1324  0.4582
 2344SOL    HW218666   2.875   0.558   5.802 -2.9724 -2.7644  0.6685
 2345SOL     OW18667   2.624   0.266   0.761 -0.6744 -0.1881 -0.5801
 2345SOL    HW118668   2.651   0.281   0.851 -1.0962  0.0366 -0.4898
 2345SOL    HW218669   2.700   0.215   0.733 -1.8136 -2.2639  0.1556
 2346SOL     OW18670   4.160   3.503   3.422 -0.0227 -0.0329 -0.1418
 2346SOL    HW118671   4.166   3.443   3.348 -2.7935 -0.8469  0.2982
 2346SOL    HW218672   4.250   3.504   3.455 -0.3950 -2.2972  0.9249
 2347SOL     OW18673   1.273   3.079   7.081  0.5811  0.2379  0.6274
 2347SOL    HW118674   1.314   3.077   6.994  1.3634  0.7355  0.9872
 2347SOL    HW218675   1.339   3.068   7.149  2.3225  1.3864 -0.8740
 2348SOL     OW18676   0.220   1.363   7.941  0.1138 -0.1650 -0.3464
 2348SOL    HW118677   0.202   1.375   7.847  4.1647 -0.9833 -1.2129
 2348SOL    HW218678   0.303   1.316   7.934 -0.3862 -0.8373 -1.7971
 2349SOL     OW18679   3.803   0.102   3.680 -0.7924  0.3606  0.7812
 2349SOL    HW118680   3.834   0.189   3.653  0.9046 -0.3497  0.4721
 2349SOL    HW218681   3.790   0.041   3.607  1.2041  1.5512 -0.5590
 2350SOL     OW18682   0.861   4.549   7.314 -0.2477 -0.0228  0.0661
 2350SOL    HW118683   0.786   4.579   7.365 -0.7044 -1.9366  0.5499
 2350SOL    HW218684   0.869   4.601   7.234  2.5766  0.5203  0.7047
 2351SOL     OW18685   3.285   1.562   7.807  0.2974 -0.1017  0.8788
 2351SOL    HW118686   3.266   1.468   7.800 -0.5629  0.0967  0.5472
 2351SOL    HW218687   3.341   1.571   7.884 -0.9335 -0.3971  1.8097
 2352SOL     OW18688   4.478   2.339   4.242  0.0949  0.1854 -0.1977
 2352SOL    HW118689   4.541   2.267   4.237 -2.1379 -1.8093  0.6909
 2352SOL    HW218690   4.523   2.404   4.187  1.3640 -0.8038 -0.3354
 2353SOL     OW18691   4.180   0.477   4.978 -0.3706  0.4644 -0.5376
 2353SOL    HW118692   4.239   0.440   5.044 -0.1045 -1.7143 -2.0204
 2353SOL    HW218693   4.244   0.464   4.907 -0.6859  2.6762 -1.2480
 2354SOL     OW18694   0.729   4.251   5.868  0.1595 -0.0940  0.4859
 2354SOL    HW118695   0.722   4.337   5.911 -0.9009 -0.2230  0.5829
 2354SOL    HW218696   0.822   4.241   5.848 -0.4974 -1.4316 -1.8799
 2355SOL     OW18697   2.816   2.002   4.618 -0.2968  0.0728  0.5458
 2355SOL    HW118698   2.792   1.928   4.674 -0.2015 -2.0871 -2.2468
 2355SOL    HW218699   2.863   1.950   4.553 -0.4364  1.1728 -0.4162
 2356SOL     OW18700   1.010   1.233   7.736  0.0108  0.0978  0.0215
 2356SOL    HW118701   1.011   1.299   7.805  2.2013  2.3921 -2.1973
 2356SOL    HW218702   0.918   1.209   7.735 -0.1632  0.8658 -1.6426
 2357SOL     OW18703   1.323   3.304   3.916  0.4874  0.1936  0.0791
 2357SOL    HW118704   1.309   3.366   3.988  0.1503 -1.0646  1.1051
 2357SOL    HW218705   1.333   3.372   3.850 -1.5136  0.2505 -0.1488
 2358SOL     OW18706   0.551   0.706   2.871 -0.5600  1.0627 -0.2134
 2358SOL    HW118707   0.530   0.787   2.919 -1.8810  0.5477  0.0768
 2358SOL    HW218708   0.500   0.638   2.915 -0.9371  0.7018 -1.2304
 2359SOL     OW18709   3.804   4.119   7.172 -0.3634  0.2765  0.4986
 2359SOL    HW118710   3.872   4.097   7.236 -0.3036 -1.1186 -0.0483
 2359SOL    HW218711   3.790   4.214   7.168  0.4904  0.3322 -1.0290
 2360SOL     OW18712   0.480   0.198   5.260 -0.2667 -0.1999 -0.3844
 2360SOL    HW118713   0.516   0.160   5.180 -0.1372  0.1239 -0.4797
 2360SOL    HW218714   0.392   0.226   5.235  0.4242  1.2746 -1.1286
 2361SOL     OW18715   0.185   0.100   4.729 -0.0301  0.1694 -0.1138
 2361SOL    HW118716   0.138   0.094   4.645  0.6647  0.0983 -0.4993
 2361SOL    HW218717   0.140   0.034   4.782 -0.6416  1.8217  1.3832
 2362SOL     OW18718   2.919   1.910   2.802  0.0054 -0.3364  0.2627
 2362SOL    HW118719   2.940   1.836   2.859  0.0077 -0.9682 -0.5675
 2362SOL    HW218720   2.824   1.900   2.795  0.1913 -0.5045 -2.1804
 2363SOL     OW18721   0.816   3.484   8.126 -0.1209 -0.2774 -0.2260
 2363SOL    HW118722   0.817   3.394   8.095 -1.0488 -0.4527  0.2528
 2363SOL    HW218723   0.723   3.509   8.118 -0.2271 -0.0032  1.7936
 2364SOL     OW18724   1.570   0.200   0.680 -0.1059  0.1537  0.0549
 2364SOL    HW118725   1.567   0.119   0.629  1.0845 -0.4624  0.9639
 2364SOL    HW218726   1.481   0.214   0.712  0.0473  1.0138  0.1222
 2365SOL     OW18727   1.607   4.606   5.325 -0.1814  0.5860  0.7569
 2365SOL    HW118728   1.667   4.548   5.278  0.0689  1.3601  0.1278
 2365SOL    HW218729   1.665   4.628   5.397  1.7769  0.8551 -0.8954
 2366SOL     OW18730   1.512   1.683   4.642  0.1039 -0.5796  0.5146
 2366SOL    HW118731   1.565   1.606   4.620  1.4823  0.5932 -0.2991
 2366SOL    HW218732   1.447   1.671   4.574  0.4290  0.1073  0.0725
 2367SOL     OW18733   0.358   1.918  16.051  0.2810 -0.0173 -0.3005
 2367SOL    HW118734   0.369   1.954  15.963  0.6285 -0.8884 -0.6085
 2367SOL    HW218735   0.307   1.840  16.028  0.2290 -0.3589  0.9707
 2368SOL     OW18736   4.192   0.205   6.779  0.6404 -0.5589  0.1165
 2368SOL    HW118737   4.193   0.300   6.795 -2.0837 -0.4806 -0.2725
 2368SOL    HW218738   4.106   0.186   6.741  1.0420  0.2346 -1.2111
 2369SOL     OW18739   0.647   4.595   1.236 -0.4821  0.0538 -0.2634
 2369SOL    HW118740   0.735   4.577   1.204 -0.6941 -0.1457 -0.7294
 2369SOL    HW218741   0.606   4.583   1.151 -1.5442  1.3449  0.0717
 2370SOL     OW18742   0.611   0.514  16.608 -0.1102 -0.3350  0.0243
 2370SOL    HW118743   0.521   0.484  16.611  0.1683 -1.0214  1.8582
 2370SOL    HW218744   0.626   0.507  16.514 -0.9009  0.3234 -0.1435
 2371SOL     OW18745   3.122   1.461   2.705 -0.5085  0.0375  0.0122
 2371SOL    HW118746   3.212   1.492   2.709 -0.5023  0.0016  0.1434
 2371SOL    HW218747   3.129   1.395   2.636 -0.1270 -1.1911  1.2266
 2372SOL     OW18748   4.708   4.231   0.953  0.3546 -0.1630  0.9233
 2372SOL    HW118749   0.055   4.267   0.964  1.2407 -2.2709  0.5719
 2372SOL    HW218750   4.674   4.243   1.042 -0.9241 -0.9503  0.5360
 2373SOL     OW18751   4.696   0.393   5.390  0.3588  0.0584  0.7117
 2373SOL    HW118752   4.717   0.463   5.328  1.5572 -0.2341  0.8029
 2373SOL    HW218753   4.617   0.427   5.433 -0.0276 -1.0759  0.9003
 2374SOL     OW18754   1.278   3.598   3.524  0.3485  0.1845 -0.3065
 2374SOL    HW118755   1.271   3.551   3.441 -1.5534  1.0556 -0.6458
 2374SOL    HW218756   1.183   3.597   3.538  0.2262  2.5338 -0.9075
 2375SOL     OW18757   0.119   2.327  14.991 -0.8162  1.0930 -0.4342
 2375SOL    HW118758   0.136   2.356  14.901  1.2920 -1.9526 -1.0457
 2375SOL    HW218759   0.196   2.369  15.030  1.6153 -1.1185 -2.8085
 2376SOL     OW18760   4.432   2.429  13.681 -0.0065 -0.0538 -0.3766
 2376SOL    HW118761   4.492   2.437  13.606 -0.4708  0.9541 -0.6357
 2376SOL    HW218762   4.444   2.335  13.694 -0.0394  0.1807  1.2929
 2377SOL     OW18763   1.963   4.093  10.716  0.1252  0.2609 -0.5976
 2377SOL    HW118764   1.970   4.025  10.783 -1.2414  1.3123  0.5949
 2377SOL    HW218765   1.971   4.043  10.635 -0.7622 -1.9161  0.6823
 2378SOL     OW18766   2.773   1.089  12.270 -0.6403  0.0633 -0.0976
 2378SOL    HW118767   2.711   1.160  12.251  0.0297  1.1867  1.9723
 2378SOL    HW218768   2.846   1.130  12.317 -1.9146  1.0140  1.0462
 2379SOL     OW18769   3.796   1.454   1.264  0.3892 -0.0468 -0.4014
 2379SOL    HW118770   3.749   1.513   1.204  0.9572  0.3505 -0.4537
 2379SOL    HW218771   3.744   1.478   1.341  0.8575 -0.9484  0.1962
 2380SOL     OW18772   3.511   1.744  11.000  0.3283  0.4243 -0.1027
 2380SOL    HW118773   3.605   1.725  10.998  0.4462  0.8178  1.1721
 2380SOL    HW218774   3.474   1.656  11.010 -0.6955  0.8243 -0.4224
 2381SOL     OW18775   2.290   0.109  11.042  0.3338 -0.2742 -0.1312
 2381SOL    HW118776   2.305   0.051  10.968  0.1901 -2.2165  1.3520
 2381SOL    HW218777   2.194   0.106  11.048  0.3813 -1.4197  0.1238
 2382SOL     OW18778   3.496   4.688   0.096 -0.2892  0.5680  0.4130
 2382SOL    HW118779   3.547   4.619   0.138  1.9390  3.4343  2.3774
 2382SOL    HW218780   3.516   0.028   0.141 -2.4771  2.7768 -2.6378
 2383SOL     OW18781   1.604   1.049  11.945  0.4539  0.4094 -0.4750
 2383SOL    HW118782   1.698   1.046  11.965 -0.3208 -2.2880  2.7640
 2383SOL    HW218783   1.590   0.980  11.879 -2.1795 -0.5784  1.1510
 2384SOL     OW18784   1.010   1.930   8.337  0.1372  0.6182 -0.0270
 2384SOL    HW118785   1.044   1.999   8.394  0.8424  0.9223 -0.8223
 2384SOL    HW218786   0.942   1.901   8.397  0.0219  0.6407 -0.1455
 2385SOL     OW18787   1.743   0.413   9.472  0.0947  0.2181  0.2254
 2385SOL    HW118788   1.811   0.358   9.512 -0.6546 -1.6707 -1.1158
 2385SOL    HW218789   1.692   0.443   9.547  1.1158 -0.0245  1.0128
 2386SOL     OW18790   3.498   0.392   7.184 -0.0271  0.5445  0.3345
 2386SOL    HW118791   3.489   0.327   7.254  1.0367  1.2562  1.1399
 2386SOL    HW218792   3.415   0.378   7.139  1.2151 -1.7040 -1.2372
 2387SOL     OW18793   3.847   2.395  12.340 -0.0414 -0.0945 -0.3076
 2387SOL    HW118794   3.903   2.429  12.270  0.8757  2.4756  1.6542
 2387SOL    HW218795   3.796   2.333  12.289  1.4575 -1.4140 -0.1838
 2388SOL     OW18796   1.521   1.736   3.168 -0.4581 -0.2377  0.2734
 2388SOL    HW118797   1.470   1.714   3.090 -1.3368  0.5697  0.6250
 2388SOL    HW218798   1.501   1.829   3.157 -0.6464 -0.3314 -0.1927
 2389SOL     OW18799   4.189   0.546   6.589  0.2809 -0.2326 -0.0989
 2389SOL    HW118800   4.193   0.629   6.542 -3.0915 -0.1659 -0.2399
 2389SOL    HW218801   4.163   0.486   6.520 -0.2063  0.4559 -0.5128
 2390SOL     OW18802   3.537   3.730   2.348  0.4056  0.0434  0.4591
 2390SOL    HW118803   3.606   3.795   2.357 -0.5200  0.9941  0.7478
 2390SOL    HW218804   3.555   3.688   2.264 -1.1258 -0.5573  0.4291
 2391SOL     OW18805   0.497   2.212   2.680 -0.2584 -0.6177  0.2664
 2391SOL    HW118806   0.448   2.229   2.760 -0.6397  3.6415 -0.8220
 2391SOL    HW218807   0.423   2.206   2.620 -0.7766  1.2131  0.7231
 2392SOL     OW18808   0.504   1.978   4.468 -0.0266  0.0139 -0.1327
 2392SOL    HW118809   0.450   2.021   4.534  0.8458  2.1857 -0.8341
 2392SOL    HW218810   0.576   1.937   4.515  0.7856  0.7920 -0.6926
 2393SOL     OW18811   2.209   3.721   9.233 -0.6664  0.2084  0.5447
 2393SOL    HW118812   2.269   3.736   9.160  0.7956 -2.9319  1.0911
 2393SOL    HW218813   2.122   3.709   9.194  0.6223  1.6745 -2.7799
 2394SOL     OW18814   4.327   2.788   8.063 -0.3416  0.0116 -0.3085
 2394SOL    HW118815   4.367   2.849   8.001  2.2375 -2.0990 -0.6663
 2394SOL    HW218816   4.397   2.724   8.071 -0.9627 -0.2563  2.7724
 2395SOL     OW18817   1.313   0.644   2.872 -0.4531 -0.3185  0.0917
 2395SOL    HW118818   1.346   0.722   2.826  0.6490 -0.3663  0.8050
 2395SOL    HW218819   1.224   0.670   2.896 -0.2928 -0.4991  0.8758
 2396SOL     OW18820   2.774   1.771   3.571 -0.4768  0.2293  0.4091
 2396SOL    HW118821   2.851   1.825   3.554  0.8398 -1.7401  0.0967
 2396SOL    HW218822   2.787   1.722   3.490 -2.6128 -1.1087  0.8634
 2397SOL     OW18823   4.395   2.415   2.469 -0.1752  0.1063 -0.0641
 2397SOL    HW118824   4.456   2.361   2.419 -1.5705 -1.3594 -0.1616
 2397SOL    HW218825   4.457   2.470   2.517  0.6158  0.0973 -1.0762
 2398SOL     OW18826   2.765   1.830   0.917 -0.1790  0.2534 -0.4868
 2398SOL    HW118827   2.753   1.896   0.849  1.7080 -0.9698 -2.0107
 2398SOL    HW218828   2.723   1.863   0.996 -0.3253  1.0584 -0.9058
 2399SOL     OW18829   3.623   1.813   1.307 -0.3662 -0.2289  0.7506
 2399SOL    HW118830   3.638   1.737   1.251 -0.8786 -0.9130  1.5375
 2399SOL    HW218831   3.710   1.841   1.333  0.3646 -2.6097  0.8720
 2400SOL     OW18832   1.858   0.872   6.815 -0.4572 -0.4639 -0.1957
 2400SOL    HW118833   1.830   0.791   6.858  0.4837 -0.4676  0.4166
 2400SOL    HW218834   1.943   0.885   6.858  0.0362  2.1651 -1.9743
 2401SOL     OW18835   2.729   1.833  13.932 -0.5313  0.1077  0.4907
 2401SOL    HW118836   2.673   1.837  13.855 -2.2308  1.0833  1.7859
 2401SOL    HW218837   2.679   1.886  13.994 -2.4869 -1.7800  0.4995
 2402SOL     OW18838   3.863   1.236   2.469  0.2634  0.0299  0.5936
 2402SOL    HW118839   3.926   1.248   2.397 -0.2356  0.0185  0.1508
 2402SOL    HW218840   3.875   1.316   2.520 -0.6174  1.7905 -1.9547
 2403SOL     OW18841   1.179   0.630   3.529 -0.0032 -0.3697 -0.6758
 2403SOL    HW118842   1.201   0.620   3.437 -0.3226 -1.1189 -0.6641
 2403SOL    HW218843   1.251   0.682   3.565  0.2125 -0.8519 -0.4128
 2404SOL     OW18844   1.409   4.463   2.388 -0.5227  0.0349 -0.0306
 2404SOL    HW118845   1.393   4.503   2.474 -1.8042  0.7439 -0.5997
 2404SOL    HW218846   1.477   4.520   2.353 -0.4798  0.0299  0.0447
 2405SOL     OW18847   3.984   4.344   7.464 -0.5047 -0.1966  0.1164
 2405SOL    HW118848   3.923   4.404   7.420 -0.3751  1.4303  2.1913
 2405SOL    HW218849   3.986   4.379   7.553  0.7922 -0.5946  0.2400
 2406SOL     OW18850   0.309   2.627   2.895 -0.3201  0.2389  0.2989
 2406SOL    HW118851   0.370   2.685   2.942  0.1639 -0.0981  0.0946
 2406SOL    HW218852   0.234   2.630   2.953 -2.2577 -0.4903 -2.1475
 2407SOL     OW18853   3.288   1.293   6.751  0.0406  0.1399  0.3376
 2407SOL    HW118854   3.218   1.333   6.699 -0.2609 -1.7921 -0.7307
 2407SOL    HW218855   3.278   1.206   6.711  0.7500  0.3719 -0.3431
 2408SOL     OW18856   4.429   0.622   9.956  0.2988 -0.1935 -0.4123
 2408SOL    HW118857   4.502   0.624  10.018 -0.5677 -2.7600  0.6906
 2408SOL    HW218858   4.465   0.686   9.895  2.9827 -1.5939 -0.3163
 2409SOL     OW18859   0.717   0.618   6.567 -0.4037 -0.3822  0.1502
 2409SOL    HW118860   0.776   0.690   6.590 -0.5913 -0.2810  0.3106
 2409SOL    HW218861   0.782   0.551   6.545  1.1233  0.4282  2.2206
 2410SOL     OW18862   2.897   0.996   5.846 -1.1685 -0.9794 -0.3737
 2410SOL    HW118863   2.869   1.057   5.778  0.3001  1.1224  0.8863
 2410SOL    HW218864   2.825   1.012   5.907 -1.0907 -0.2232 -0.4819
 2411SOL     OW18865   3.629   4.194   1.369 -0.5149 -0.5285 -0.5460
 2411SOL    HW118866   3.619   4.105   1.336  0.9722 -0.2260 -1.7986
 2411SOL    HW218867   3.675   4.243   1.301  0.7094 -0.0591  0.6240
 2412SOL     OW18868   3.993   3.404   9.801  0.2494 -0.7073  0.1975
 2412SOL    HW118869   3.943   3.474   9.759  1.6907 -0.3171 -0.8791
 2412SOL    HW218870   3.970   3.423   9.892 -1.2565 -1.6788  0.0266
 2413SOL     OW18871   4.035   0.661   5.538 -0.5487  0.4869 -0.6349
 2413SOL    HW118872   3.955   0.713   5.546 -2.0777 -1.8703 -0.5113
 2413SOL    HW218873   4.053   0.658   5.444 -1.5509  1.8477 -0.8687
 2414SOL     OW18874   1.429   0.454   2.690  0.2408  0.7115 -0.5036
 2414SOL    HW118875   1.499   0.517   2.709 -0.1808  0.3503  2.2418
 2414SOL    HW218876   1.363   0.491   2.749  0.0080 -1.6290  0.6590
 2415SOL     OW18877   3.368   2.740   6.845  0.3088 -0.6390 -0.0794
 2415SOL    HW118878   3.332   2.656   6.816 -1.1633 -0.4516  1.1717
 2415SOL    HW218879   3.331   2.798   6.779 -1.2578 -0.1048  1.2567
 2416SOL     OW18880   1.818   2.797   7.433 -0.1207  0.8233 -0.1319
 2416SOL    HW118881   1.786   2.708   7.449  2.0815 -0.3284 -2.1937
 2416SOL    HW218882   1.791   2.845   7.511 -0.1768  0.8525 -0.1693
 2417SOL     OW18883   1.783   2.495   1.481  0.2878 -0.7995 -0.2887
 2417SOL    HW118884   1.844   2.474   1.410 -0.9034 -1.4492 -1.1124
 2417SOL    HW218885   1.707   2.531   1.436 -0.9489 -1.2741  1.4255
 2418SOL     OW18886   0.992   2.128   0.424 -0.0904 -0.1206  0.5304
 2418SOL    HW118887   1.060   2.092   0.367  0.8773  1.3051  0.7893
 2418SOL    HW218888   0.911   2.141   0.375  1.0010 -0.2967 -1.3264
 2419SOL     OW18889   2.901   0.764  17.476 -0.1689 -0.1986 -0.2243
 2419SOL    HW118890   2.827   0.807  17.433 -0.6143 -0.7152  0.0193
 2419SOL    HW218891   2.934   0.840  17.522 -0.0100 -0.3030 -0.1657
 2420SOL     OW18892   3.110   0.075   8.409  0.4647  0.5221  0.0943
 2420SOL    HW118893   3.133   0.060   8.500  3.8596  0.7576 -0.7262
 2420SOL    HW218894   3.169   0.150   8.394  0.3394  0.7213  0.6049
 2421SOL     OW18895   1.419   2.545   5.039  0.3301 -0.5368 -0.5028
 2421SOL    HW118896   1.471   2.581   4.966 -2.3947  3.1120 -0.6613
 2421SOL    HW218897   1.419   2.454   5.009  1.8535 -0.3777 -0.9890
 2422SOL     OW18898   3.816   0.002  16.984 -0.0760  0.3523 -0.3595
 2422SOL    HW118899   3.773   4.660  16.963 -0.2016  0.1129  0.8678
 2422SOL    HW218900   3.834   4.733  17.077  0.0625  0.0539 -0.4204
 2423SOL     OW18901   0.150   2.630  10.930  0.9323 -0.6080 -0.5099
 2423SOL    HW118902   0.063   2.606  10.897  0.9501 -1.7313  0.2908
 2423SOL    HW218903   0.145   2.605  11.022  0.7816 -0.0078 -0.3506
 2424SOL     OW18904   0.485   2.347   6.847 -0.0832  0.3168 -0.4044
 2424SOL    HW118905   0.490   2.252   6.854  0.5682  0.1596 -3.3601
 2424SOL    HW218906   0.572   2.372   6.815  1.0635 -1.4162  1.3611
 2425SOL     OW18907   1.041   1.209   8.789 -0.6150 -0.4112  0.1622
 2425SOL    HW118908   1.089   1.134   8.753 -4.1872 -1.1447 -3.1359
 2425SOL    HW218909   1.111   1.275   8.787 -0.6498 -0.3739  0.1663
 2426SOL     OW18910   1.254   0.885   5.542 -0.3877 -0.4333  0.1228
 2426SOL    HW118911   1.200   0.827   5.487 -1.2241  0.5721 -0.1203
 2426SOL    HW218912   1.341   0.860   5.512 -1.6172 -1.7134 -2.3796
 2427SOL     OW18913   2.184   3.068   8.234 -0.7193  0.0308  0.3849
 2427SOL    HW118914   2.239   3.125   8.289 -0.5490  2.7675 -2.6268
 2427SOL    HW218915   2.123   3.029   8.295 -0.4209  0.7587  1.1578
 2428SOL     OW18916   2.438   4.597   1.760  0.1992 -0.7723 -0.3724
 2428SOL    HW118917   2.506   4.663   1.744 -0.6095  0.1632  0.0421
 2428SOL    HW218918   2.432   4.566   1.670 -0.1289 -0.1580 -0.5656
 2429SOL     OW18919   0.282   3.837  17.069 -0.4749 -0.2880 -0.0119
 2429SOL    HW118920   0.193   3.813  17.093  1.6291 -4.5033  3.6873
 2429SOL    HW218921   0.321   3.873  17.149 -0.9504  1.9658 -0.7992
 2430SOL     OW18922   2.700   4.267   9.226  0.5043  0.3569  0.2958
 2430SOL    HW118923   2.630   4.218   9.268  1.9743 -0.9675  1.2072
 2430SOL    HW218924   2.668   4.251   9.137  1.4689 -0.4905  0.0949
 2431SOL     OW18925   4.614   4.044   8.357  0.6285 -0.3627  0.0808
 2431SOL    HW118926   4.652   4.002   8.280  1.5205  2.4652 -1.0178
 2431SOL    HW218927   4.570   3.973   8.404 -1.4983  0.8435 -0.0710
 2432SOL     OW18928   0.876   3.530   0.625 -0.1599 -0.0207 -0.1030
 2432SOL    HW118929   0.856   3.550   0.716 -0.5502 -1.3540  0.1030
 2432SOL    HW218930   0.790   3.549   0.587  0.8593  1.4880 -1.6673
 2433SOL     OW18931   2.753   3.093  11.216  0.0005  0.5460  0.1143
 2433SOL    HW118932   2.675   3.118  11.166 -1.4030 -1.2781  1.4033
 2433SOL    HW218933   2.815   3.161  11.189  0.0533 -0.6465 -2.7821
 2434SOL     OW18934   1.043   3.331   7.738 -0.3074  0.9633  0.3337
 2434SOL    HW118935   1.091   3.381   7.804 -1.9461  0.6378  1.7867
 2434SOL    HW218936   0.977   3.281   7.787 -0.6113  1.5125  0.4875
 2435SOL     OW18937   3.631   2.609   1.905 -0.2403 -0.3520  0.4463
 2435SOL    HW118938   3.631   2.579   1.815 -0.7729 -1.4969  0.8239
 2435SOL    HW218939   3.566   2.545   1.937 -2.2552  0.2818 -2.3723
 2436SOL     OW18940   0.310   4.091   9.973 -0.1455  0.2807  0.5019
 2436SOL    HW118941   0.280   4.010   9.930 -0.2036 -0.3603  1.7607
 2436SOL    HW218942   0.320   4.142   9.892 -0.3346  0.1297  0.3829
 2437SOL     OW18943   1.293   3.941   9.964  0.6813  0.0036 -0.0022
 2437SOL    HW118944   1.216   3.939  10.022  0.2312  1.7202 -0.5672
 2437SOL    HW218945   1.278   4.032   9.938  0.7220  0.6134  2.1038
 2438SOL     OW18946   1.219   4.376   6.530 -0.0970 -0.1734  0.2353
 2438SOL    HW118947   1.216   4.469   6.511  1.9656 -0.4865 -1.6517
 2438SOL    HW218948   1.178   4.371   6.616  1.3186 -0.4039  0.8989
 2439SOL     OW18949   1.491   0.262   8.380  0.3526 -0.2520  0.7558
 2439SOL    HW118950   1.539   0.194   8.428  1.9900 -1.0611 -1.9652
 2439SOL    HW218951   1.404   0.223   8.380 -0.3243  1.2762  1.5052
 2440SOL     OW18952   4.164   4.629   3.818 -0.7095 -0.0429 -0.4176
 2440SOL    HW118953   4.074   4.659   3.812 -0.7126 -0.0940 -0.6144
 2440SOL    HW218954   4.146   4.540   3.788  1.3662 -0.9789  1.1442
 2441SOL     OW18955   4.149   1.173   7.505  0.5608  0.0476  0.1650
 2441SOL    HW118956   4.056   1.173   7.483  0.9100  1.1308 -1.2821
 2441SOL    HW218957   4.190   1.224   7.435 -0.9490  1.0848  0.0436
 2442SOL     OW18958   0.914   0.246  10.485 -0.1863 -0.3564 -0.0952
 2442SOL    HW118959   0.943   0.195  10.560 -2.1897  0.4986  1.2688
 2442SOL    HW218960   0.997   0.270  10.442 -0.7246  0.6522 -0.5774
 2443SOL     OW18961   4.453   1.089  13.725 -0.1185 -0.3031  0.2723
 2443SOL    HW118962   4.515   1.154  13.691  0.1431 -2.8416 -3.9900
 2443SOL    HW218963   4.493   1.005  13.702 -0.1929 -0.0239 -0.8829
 2444SOL     OW18964   1.043   3.369   7.222 -0.0499 -0.4196  0.3146
 2444SOL    HW118965   1.011   3.387   7.310 -1.2523 -3.1134  0.4393
 2444SOL    HW218966   1.077   3.280   7.233  2.4953  0.8786  2.7896
 2445SOL     OW18967   3.006   3.786   7.941 -0.1434 -0.1089  0.1727
 2445SOL    HW118968   3.005   3.853   7.873 -0.4584 -0.6532 -0.3658
 2445SOL    HW218969   3.002   3.711   7.881 -1.7117  0.5892 -0.5951
 2446SOL     OW18970   4.115   0.095   8.607  0.8064 -0.2526  0.6188
 2446SOL    HW118971   4.056   0.119   8.679  0.6032 -0.6262  0.5809
 2446SOL    HW218972   4.198   0.080   8.652 -0.0794 -1.4452  1.8543
 2447SOL     OW18973   0.985   4.360   6.745  0.1300 -0.1645 -0.6392
 2447SOL    HW118974   1.004   4.451   6.765  2.4230 -0.9918  0.9299
 2447SOL    HW218975   0.892   4.356   6.768  0.1090 -0.5800 -0.7853
 2448SOL     OW18976   4.367   4.706   4.349  0.0137 -0.5064 -0.6092
 2448SOL    HW118977   4.430   4.638   4.372 -0.3878 -0.6735  0.0152
 2448SOL    HW218978   4.415   0.042   4.378  0.6543 -1.9212  2.1651
 2449SOL     OW18979   4.322   3.721   7.091 -0.3099 -0.1246  0.7402
 2449SOL    HW118980   4.357   3.805   7.120  0.8969 -0.1121 -0.7888
 2449SOL    HW218981   4.230   3.742   7.075 -0.0168 -0.7185 -1.6855
 2450SOL     OW18982   2.951   1.819   8.271 -0.2064 -0.7717  0.3012
 2450SOL    HW118983   2.965   1.773   8.188  3.2149  1.4980 -0.3874
 2450SOL    HW218984   2.857   1.832   8.267  0.2389  2.1557 -0.0809
 2451SOL     OW18985   4.009   0.876   4.515 -0.3721 -0.5921  0.3256
 2451SOL    HW118986   3.950   0.866   4.441  0.6145 -0.9500 -0.4065
 2451SOL    HW218987   4.008   0.968   4.539 -0.7017 -1.0136  1.9811
 2452SOL     OW18988   3.667   0.434  12.841  0.2545 -0.0708 -0.3503
 2452SOL    HW118989   3.574   0.414  12.830  0.3822 -1.5305  1.3096
 2452SOL    HW218990   3.657   0.529  12.851  1.4106  0.0960 -0.7720
 2453SOL     OW18991   4.359   3.895   1.699 -0.0483  0.0754  0.4538
 2453SOL    HW118992   4.268   3.905   1.726 -0.3184  0.7662 -0.7014
 2453SOL    HW218993   4.396   3.861   1.780  0.2448  1.9986  1.1282
 2454SOL     OW18994   0.353   0.613   5.005  0.2369  0.6431 -0.4477
 2454SOL    HW118995   0.423   0.678   4.996  0.7692  0.1159 -0.0947
 2454SOL    HW218996   0.370   0.553   4.932  1.8374 -0.6592  0.9899
 2455SOL     OW18997   4.258   0.866   4.630  0.5512  0.1330  0.1587
 2455SOL    HW118998   4.173   0.846   4.590  0.0657 -0.5620  1.5039
 2455SOL    HW218999   4.245   0.828   4.717  3.4697  0.4671  0.7476
 2456SOL     OW19000   0.576   4.499   0.987 -0.0270  0.3967  0.2818
 2456SOL    HW119001   0.618   4.550   0.918  1.8808 -1.8386 -0.2320
 2456SOL    HW219002   0.489   4.538   0.983 -0.2564 -0.0883  0.5820
 2457SOL     OW19003   3.532   4.069   5.137  0.1604 -0.2354 -0.1321
 2457SOL    HW119004   3.514   4.149   5.187  1.9587  0.7987 -1.1256
 2457SOL    HW219005   3.448   4.045   5.098 -0.4918  1.1998  0.3644
 2458SOL     OW19006   3.937   3.795  15.377 -0.3888  0.1328 -0.0880
 2458SOL    HW119007   3.915   3.888  15.370  1.6744  0.5088 -1.5108
 2458SOL    HW219008   3.936   3.777  15.283 -0.9190 -1.6993  0.2752
 2459SOL     OW19009   1.634   3.649   5.349  0.3297 -0.1157  0.7127
 2459SOL    HW119010   1.539   3.641   5.339  0.8002 -0.3960 -3.1834
 2459SOL    HW219011   1.657   3.681   5.262  0.6941  0.4270  1.0034
 2460SOL     OW19012   2.632   2.745   5.317  0.2275  0.5431 -0.0530
 2460SOL    HW119013   2.645   2.699   5.400  0.3820  0.6012 -0.0456
 2460SOL    HW219014   2.721   2.735   5.282 -1.0970 -2.8030 -2.4627
 2461SOL     OW19015   4.003   3.340   8.850  0.0383 -0.0388  0.0202
 2461SOL    HW119016   3.993   3.252   8.813 -0.6486  1.1135 -2.5459
 2461SOL    HW219017   4.081   3.366   8.800  0.9810 -1.6405  0.6359
 2462SOL     OW19018   4.110   4.497   1.063  0.0062 -0.4268 -0.2348
 2462SOL    HW119019   4.037   4.548   1.098  1.8546  1.8668  0.3046
 2462SOL    HW219020   4.069   4.414   1.043  1.0619 -0.8706 -0.5799
 2463SOL     OW19021   1.039   4.498   0.884 -0.0275 -0.1567 -0.6734
 2463SOL    HW119022   1.031   4.594   0.888  0.9900 -0.0609 -0.8109
 2463SOL    HW219023   1.131   4.494   0.856  0.0409 -1.7329 -0.1890
 2464SOL     OW19024   1.926   2.113   2.893  0.0608  0.0406 -0.0276
 2464SOL    HW119025   1.971   2.136   2.812 -0.0066  1.4409  0.3279
 2464SOL    HW219026   1.991   2.068   2.948 -0.5111  1.0058  1.4416
 2465SOL     OW19027   0.903   2.239   1.491 -0.6499 -0.3891 -0.1937
 2465SOL    HW119028   0.881   2.181   1.418  0.7433 -0.3123 -0.6720
 2465SOL    HW219029   0.835   2.212   1.552  0.5676 -0.4804  1.1175
 2466SOL     OW19030   3.100   2.391   1.748 -0.0456 -0.0456  0.3866
 2466SOL    HW119031   3.118   2.483   1.766 -2.1597  0.6444 -1.1144
 2466SOL    HW219032   3.155   2.348   1.815  2.1814  0.8238 -0.8958
 2467SOL     OW19033   1.948   1.911   9.000  0.0046 -0.4022 -0.4293
 2467SOL    HW119034   1.998   1.992   9.013  0.7376 -1.0063  0.4847
 2467SOL    HW219035   1.913   1.929   8.913 -0.7325 -0.2975 -0.1142
 2468SOL     OW19036   2.545   2.922   9.332  0.3295 -0.0192  0.3061
 2468SOL    HW119037   2.619   2.953   9.384 -0.7110  0.7066  1.3720
 2468SOL    HW219038   2.586   2.844   9.294  0.1721  0.0838 -0.0754
 2469SOL     OW19039   3.428   3.969  11.508 -0.3687 -0.0148  0.4949
 2469SOL    HW119040   3.427   4.061  11.534  0.0433  0.6938 -1.9536
 2469SOL    HW219041   3.519   3.957  11.482 -0.3871  1.9923 -0.5257
 2470SOL     OW19042   0.586   4.187   1.549  0.2185 -0.1055  0.2059
 2470SOL    HW119043   0.555   4.244   1.479 -1.4484 -1.5124 -0.2147
 2470SOL    HW219044   0.576   4.235   1.631  0.2678 -0.6230  0.5131
 2471SOL     OW19045   2.528   3.521  13.419  0.5209  0.2855 -0.1125
 2471SOL    HW119046   2.459   3.485  13.364  0.0427  1.2091 -0.1029
 2471SOL    HW219047   2.498   3.502  13.507 -2.5295 -2.4550 -1.7531
 2472SOL     OW19048   2.984   0.485   8.866  1.2756  0.0090  0.2829
 2472SOL    HW119049   3.011   0.393   8.865  1.4281  0.0602 -0.1931
 2472SOL    HW219050   2.906   0.459   8.915  0.0547 -3.2078 -3.4057
 2473SOL     OW19051   3.670   0.590  15.978  0.3899 -0.0887 -0.1979
 2473SOL    HW119052   3.735   0.520  15.976  0.0497 -0.4499  1.1464
 2473SOL    HW219053   3.622   0.583  15.896 -2.1018 -1.9781  1.4250
 2474SOL     OW19054   1.206   1.866   5.716 -0.4774 -0.1361  0.0888
 2474SOL    HW119055   1.275   1.913   5.763  0.3474 -0.8883 -0.3778
 2474SOL    HW219056   1.261   1.836   5.644 -0.9851  0.4666 -0.5589
 2475SOL     OW19057   0.611   4.492   6.233 -0.2931 -0.2981 -0.0935
 2475SOL    HW119058   0.517   4.508   6.243  0.0750  1.7278  0.1781
 2475SOL    HW219059   0.607   4.397   6.221 -0.0941 -0.2658 -0.4117
 2476SOL     OW19060   0.379   4.616   2.017  0.2166  0.1038  0.5754
 2476SOL    HW119061   0.369   4.524   1.992  1.7437  1.1207 -3.8178
 2476SOL    HW219062   0.440   4.647   1.950  0.9454 -0.7902  0.8266
 2477SOL     OW19063   4.137   4.707   6.548  0.2165  0.5065 -0.0923
 2477SOL    HW119064   4.183   4.664   6.620  1.8216  1.7691 -0.3766
 2477SOL    HW219065   4.123   0.052   6.587 -0.1919  0.3658  0.0783
 2478SOL     OW19066   1.780   2.514  15.598 -0.3932  0.2469  0.3387
 2478SOL    HW119067   1.867   2.506  15.637 -0.8147  1.2408  1.4811
 2478SOL    HW219068   1.730   2.480  15.672  1.2740 -2.8939  0.0299
 2479SOL     OW19069   1.759   2.376   2.672  0.2632  1.1083  0.0742
 2479SOL    HW119070   1.733   2.423   2.593 -2.1620 -0.2803  0.0161
 2479SOL    HW219071   1.731   2.428   2.747  1.7842  0.9286  0.7607
 2480SOL     OW19072   2.287   0.615   1.596  0.0780  0.4989  0.3750
 2480SOL    HW119073   2.321   0.605   1.685  0.0893 -0.7323  0.2268
 2480SOL    HW219074   2.247   0.701   1.606  1.2167  1.1600 -0.6962
 2481SOL     OW19075   2.603   1.471   5.888  0.2799  0.7558 -0.4391
 2481SOL    HW119076   2.582   1.535   5.955  0.8759 -1.9902  2.4246
 2481SOL    HW219077   2.671   1.525   5.848 -0.1702  2.0342  0.5337
 2482SOL     OW19078   1.121   0.525   5.523 -0.1570  0.3020 -0.1498
 2482SOL    HW119079   1.189   0.489   5.466 -0.0797  0.2292 -0.0133
 2482SOL    HW219080   1.075   0.590   5.471 -1.9799  0.8053  2.0832
 2483SOL     OW19081   4.608   0.205  11.462 -0.1045 -0.3768 -0.0857
 2483SOL    HW119082   4.632   0.292  11.493  0.5667 -0.4683 -0.3504
 2483SOL    HW219083   4.666   0.143  11.506  0.4264 -1.2060 -1.9520
 2484SOL     OW19084   0.939   3.961   7.528 -0.0036  0.4914  0.0614
 2484SOL    HW119085   0.956   3.926   7.615  1.6488  1.1005 -0.0102
 2484SOL    HW219086   0.956   4.054   7.544  0.5760  0.7316 -1.9461
 2485SOL     OW19087   2.245   3.529   3.493 -0.1098  0.9339  0.0511
 2485SOL    HW119088   2.170   3.550   3.437 -0.6368 -0.9669  0.0405
 2485SOL    HW219089   2.308   3.588   3.452  0.4103  0.0735 -0.3785
 2486SOL     OW19090   3.658   0.289  11.018  0.1972 -0.0239  0.9903
 2486SOL    HW119091   3.591   0.233  10.980  2.6150 -1.4585 -1.1667
 2486SOL    HW219092   3.696   0.338  10.945 -0.5363 -0.0504  0.5931
 2487SOL     OW19093   0.057   3.674  16.403 -0.2088  0.2359 -0.2677
 2487SOL    HW119094   0.127   3.723  16.361  1.4094 -1.1062  0.8584
 2487SOL    HW219095   0.002   3.673  16.325  1.3085  0.8044 -1.3325
 2488SOL     OW19096   2.694   1.500   6.671  0.0013  0.0142  0.5861
 2488SOL    HW119097   2.696   1.404   6.665 -2.0298 -0.0162  0.4777
 2488SOL    HW219098   2.771   1.527   6.621 -0.2706 -0.6035 -0.1689
 2489SOL     OW19099   2.284   1.850   6.112  0.1612  0.2019 -0.1839
 2489SOL    HW119100   2.330   1.768   6.095 -3.9793 -1.9044 -1.2829
 2489SOL    HW219101   2.358   1.906   6.135  0.2024 -1.0731  2.7369
 2490SOL     OW19102   2.159   1.725  13.495  0.8571 -0.0480  0.3701
 2490SOL    HW119103   2.073   1.762  13.514  0.7892 -0.0925  0.1514
 2490SOL    HW219104   2.133   1.637  13.469 -1.1440  1.5638 -3.2025
 2491SOL     OW19105   4.263   1.707   5.409 -0.1430 -0.5456  0.3617
 2491SOL    HW119106   4.309   1.629   5.439  1.3969 -0.4955 -1.8603
 2491SOL    HW219107   4.280   1.720   5.316 -1.2304 -1.8618 -0.0106
 2492SOL     OW19108   3.834   0.516  15.285 -0.0476  0.2291 -0.1304
 2492SOL    HW119109   3.875   0.542  15.367  1.3662 -2.5875  0.0747
 2492SOL    HW219110   3.825   0.601  15.242 -2.2909  0.9517  1.7748
 2493SOL     OW19111   3.201   3.467  10.054  0.6192 -0.0870 -0.0068
 2493SOL    HW119112   3.112   3.491  10.080  0.3338 -0.3105 -0.7981
 2493SOL    HW219113   3.191   3.448   9.961 -0.6022 -1.0216  0.3064
 2494SOL     OW19114   0.338   3.901   5.965  0.2340 -0.5314  0.3553
 2494SOL    HW119115   0.364   3.852   5.887 -0.6250  2.3469 -1.7297
 2494SOL    HW219116   0.405   3.969   5.961  1.2084 -1.5761 -1.0968
 2495SOL     OW19117   0.659   4.365  11.509 -0.2831  0.0068  0.1313
 2495SOL    HW119118   0.688   4.373  11.418  1.2277 -0.5262  0.5608
 2495SOL    HW219119   0.614   4.281  11.505  0.1428 -0.3167  2.6994
 2496SOL     OW19120   3.422   3.924  14.930  0.3284  0.2586  0.2597
 2496SOL    HW119121   3.349   3.936  14.868 -0.5194  1.3771  1.4756
 2496SOL    HW219122   3.466   4.005  14.904  0.2977  0.0259 -0.5217
 2497SOL     OW19123   4.422   3.470   3.469 -0.3439 -0.1681 -0.3079
 2497SOL    HW119124   4.497   3.444   3.522 -0.6494  0.5658  0.4692
 2497SOL    HW219125   4.437   3.403   3.401 -0.3713 -1.5681  1.0602
 2498SOL     OW19126   0.782   0.447   6.914  0.4539 -0.1680 -0.2319
 2498SOL    HW119127   0.857   0.467   6.859  2.0126 -2.6576  0.9844
 2498SOL    HW219128   0.757   0.359   6.887 -0.2896 -0.4959  1.4767
 2499SOL     OW19129   3.736   1.014   3.480 -0.5782  0.1701  0.1916
 2499SOL    HW119130   3.733   1.102   3.441  1.6577 -0.1885 -0.8364
 2499SOL    HW219131   3.682   1.024   3.558 -0.0251 -0.7135  0.6831
 2500SOL     OW19132   0.293   2.291   8.760 -0.3424  0.2304 -0.1640
 2500SOL    HW119133   0.222   2.353   8.742 -0.5607  0.1218  0.3260
 2500SOL    HW219134   0.284   2.237   8.682  0.1763  0.6390 -0.5081
 2501SOL     OW19135   2.933   1.047   9.691 -0.6350 -0.9023 -0.7733
 2501SOL    HW119136   2.941   0.974   9.752 -2.3302  0.0642  0.5879
 2501SOL    HW219137   2.993   1.007   9.628  0.4164 -0.1260 -0.2745
 2502SOL     OW19138   0.697   1.232  12.497  0.6854 -0.0663  0.4968
 2502SOL    HW119139   0.784   1.233  12.456  0.0174 -3.8761 -1.0178
 2502SOL    HW219140   0.645   1.252  12.420 -0.7145 -0.2464  1.3977
 2503SOL     OW19141   0.049   3.298   2.481  0.9308  0.1258  0.6310
 2503SOL    HW119142   0.136   3.280   2.517  0.6359  0.9982  1.7662
 2503SOL    HW219143   0.075   3.371   2.424 -1.3433  0.5096  0.0885
 2504SOL     OW19144   3.366   3.370   4.336  0.1966  0.1048  0.0304
 2504SOL    HW119145   3.335   3.460   4.332 -0.2469 -0.0273  0.4786
 2504SOL    HW219146   3.323   3.339   4.416  2.0113  0.8022  1.2852
 2505SOL     OW19147   1.214   0.184   7.258  0.1980  0.0276 -0.3392
 2505SOL    HW119148   1.227   0.090   7.246  4.4580  0.9418 -3.0818
 2505SOL    HW219149   1.304   0.213   7.247 -0.4961  2.9494  1.7487
 2506SOL     OW19150   0.228   2.106   8.544 -0.3051 -0.1905  0.5115
 2506SOL    HW119151   0.294   2.037   8.550 -0.3941 -0.2688  0.5897
 2506SOL    HW219152   0.150   2.077   8.592 -1.1086  0.9034 -0.1414
 2507SOL     OW19153   3.764   1.682  16.388  0.2623  0.0338 -0.3275
 2507SOL    HW119154   3.716   1.689  16.306 -0.3635 -0.9539 -0.0341
 2507SOL    HW219155   3.831   1.749  16.374 -0.0949  0.4601 -0.0369
 2508SOL     OW19156   4.458   2.489   3.871  0.1705  0.5058 -0.0118
 2508SOL    HW119157   4.514   2.517   3.944  0.6138 -0.1955 -0.0853
 2508SOL    HW219158   4.447   2.399   3.903  0.0238  0.9899  1.2815
 2509SOL     OW19159   1.593   0.083   6.218  0.6545  0.3928  0.1973
 2509SOL    HW119160   1.615   0.151   6.154  0.3590  0.4647  0.1707
 2509SOL    HW219161   1.672   0.085   6.271  1.5020 -2.5846 -0.9490
 2510SOL     OW19162   0.230   2.460   0.491 -0.3181  0.3438 -0.0076
 2510SOL    HW119163   0.185   2.377   0.473 -2.3687  1.5894 -0.5879
 2510SOL    HW219164   0.169   2.497   0.556 -1.3762 -1.7604  0.1969
 2511SOL     OW19165   1.625   2.404   4.159  1.0021  0.4381  0.1425
 2511SOL    HW119166   1.693   2.411   4.091  0.7197 -0.1945 -0.1977
 2511SOL    HW219167   1.636   2.486   4.207  1.5627  1.3464 -1.4975
 2512SOL     OW19168   3.119   4.398   9.436 -0.2655  0.4586  0.1640
 2512SOL    HW119169   3.061   4.414   9.363 -1.3584 -2.3178  0.3957
 2512SOL    HW219170   3.050   4.400   9.503 -0.2311  1.7649  0.1466
 2513SOL     OW19171   4.347   4.603   1.105  0.2691  0.2628 -0.0623
 2513SOL    HW119172   4.258   4.569   1.102  0.5996 -0.1904 -4.7997
 2513SOL    HW219173   4.344   4.687   1.059  1.4857  0.5593  0.3884
 2514SOL     OW19174   4.524   1.256  13.000 -0.5131  0.6394  0.1554
 2514SOL    HW119175   4.597   1.313  13.026  0.1409 -0.0486 -0.1847
 2514SOL    HW219176   4.571   1.173  12.995 -1.2025  0.0933  2.6592
 2515SOL     OW19177   2.090   0.506   0.276  0.0680 -0.1924 -0.5791
 2515SOL    HW119178   2.160   0.559   0.239  0.8638 -0.4775  0.5029
 2515SOL    HW219179   2.123   0.510   0.366 -2.1667 -0.4624  0.2552
 2516SOL     OW19180   0.100   4.701   9.093  0.1211  0.2215  0.0622
 2516SOL    HW119181   0.173   4.647   9.124  1.0544  0.9049 -0.9731
 2516SOL    HW219182   0.025   4.672   9.145 -0.9206  1.0133 -1.0050
 2517SOL     OW19183   1.038   0.477  16.895  0.5847 -0.2066  0.4821
 2517SOL    HW119184   0.999   0.539  16.833  0.0073 -2.0569 -1.0046
 2517SOL    HW219185   0.962   0.420  16.906 -1.1620  1.6704 -1.8723
 2518SOL     OW19186   1.267   2.085  16.629 -0.4190 -0.4427 -0.0448
 2518SOL    HW119187   1.174   2.108  16.623  0.2308  1.4934 -2.9087
 2518SOL    HW219188   1.316   2.167  16.636 -0.0897 -0.8566  2.3403
 2519SOL     OW19189   3.767   3.383   4.116  0.0264  0.0435  0.7804
 2519SOL    HW119190   3.732   3.362   4.202  0.3157 -2.3599  0.3080
 2519SOL    HW219191   3.829   3.451   4.141 -2.8469  3.3258 -0.9424
 2520SOL     OW19192   0.359   2.376  17.362  0.0611  0.3672  0.5399
 2520SOL    HW119193   0.426   2.432  17.402  1.3009 -0.5075 -0.3231
 2520SOL    HW219194   0.418   2.324  17.307  1.0046  3.2477 -1.1903
 2521SOL     OW19195   0.375   1.700   6.240 -0.2412  0.2801 -0.5491
 2521SOL    HW119196   0.322   1.677   6.164  1.5526 -0.9194 -1.4512
 2521SOL    HW219197   0.416   1.785   6.221 -1.0219  0.7541 -0.1259
 2522SOL     OW19198   2.382   2.016   9.726 -0.1722  0.2307 -0.4882
 2522SOL    HW119199   2.422   2.054   9.804 -1.1448  2.5191 -1.1108
 2522SOL    HW219200   2.423   1.929   9.727 -2.4796 -0.8399  1.2478
 2523SOL     OW19201   3.288   0.633  12.944  0.3870  0.3146 -0.4344
 2523SOL    HW119202   3.308   0.620  12.851  1.1789 -0.4309 -0.1641
 2523SOL    HW219203   3.193   0.625  12.940  0.5344 -1.5065 -0.3710
 2524SOL     OW19204   2.398   3.039   5.951 -0.1104 -0.0702 -0.2859
 2524SOL    HW119205   2.389   2.958   5.900  0.5099 -1.3089  1.5975
 2524SOL    HW219206   2.355   3.016   6.033  0.1231  1.3331  0.2242
 2525SOL     OW19207   1.658   3.116  10.512  0.2039  0.3848 -0.1473
 2525SOL    HW119208   1.622   3.132  10.599  0.4435 -1.5803  0.3249
 2525SOL    HW219209   1.607   3.180  10.463  0.0942 -1.5221 -2.5304
 2526SOL     OW19210   4.733   2.806   8.964  0.0745 -0.4748 -0.4180
 2526SOL    HW119211   4.737   2.736   9.030  0.8332 -1.5870 -1.6388
 2526SOL    HW219212   4.733   2.885   9.018  0.1037 -1.3382  0.8419
 2527SOL     OW19213   4.599   0.889  13.150  0.1089  0.8146  0.4540
 2527SOL    HW119214   4.504   0.898  13.164  0.2058  0.2834  1.4787
 2527SOL    HW219215   4.589   0.794  13.154  0.1443  0.7577 -0.8940
 2528SOL     OW19216   4.621   0.985   1.834  0.9812  0.3928 -0.7424
 2528SOL    HW119217   4.639   0.938   1.916 -1.5182  0.0198 -0.4050
 2528SOL    HW219218   4.707   1.020   1.811  0.8649  2.3976  1.8424
 2529SOL     OW19219   2.541   0.526   2.581  0.0028 -0.0487 -0.2604
 2529SOL    HW119220   2.473   0.502   2.644 -1.7902 -1.3372 -2.7146
 2529SOL    HW219221   2.516   0.478   2.502  1.3028  0.9658 -1.2839
 2530SOL     OW19222   3.323   3.132  11.658 -0.0886  0.1386 -0.3261
 2530SOL    HW119223   3.265   3.111  11.585 -0.4035 -0.9550  0.2342
 2530SOL    HW219224   3.303   3.224  11.677  0.3613  0.3467 -0.8614
 2531SOL     OW19225   0.279   1.986   0.507  0.0354  0.3567 -0.0992
 2531SOL    HW119226   0.286   2.076   0.475  2.1237 -0.1063 -0.9255
 2531SOL    HW219227   0.297   1.934   0.429  0.9458 -0.6405  0.7928
 2532SOL     OW19228   4.016   3.259   8.517  0.3292 -0.5233 -0.2428
 2532SOL    HW119229   4.007   3.205   8.596  0.9038 -0.0666  0.1423
 2532SOL    HW219230   3.952   3.329   8.526  0.8891  0.0787 -0.9464
 2533SOL     OW19231   1.507   0.552   7.770  0.6602 -0.1397  0.3783
 2533SOL    HW119232   1.461   0.596   7.841 -1.8765  0.4386 -1.6273
 2533SOL    HW219233   1.595   0.553   7.809 -0.2239 -0.3234  2.4096
 2534SOL     OW19234   4.246   0.754   7.320  0.5859 -0.1856 -0.0856
 2534SOL    HW119235   4.270   0.687   7.384  3.9915  1.3075  0.2204
 2534SOL    HW219236   4.328   0.782   7.280  0.9336 -1.3180 -0.1577
 2535SOL     OW19237   2.574   0.523   8.767  0.7193 -0.0469  0.1375
 2535SOL    HW119238   2.564   0.523   8.672 -0.6215 -1.8363  0.2618
 2535SOL    HW219239   2.606   0.434   8.781  2.2987  0.6549  0.8649
 2536SOL     OW19240   3.960   4.392  15.636  0.4171 -0.2791 -0.1016
 2536SOL    HW119241   3.877   4.344  15.626  0.4468 -0.1517 -1.0066
 2536SOL    HW219242   3.952   4.414  15.729 -2.9229 -0.6247 -0.3079
 2537SOL     OW19243   3.555   0.288   2.170  0.1012 -0.1842  0.3277
 2537SOL    HW119244   3.490   0.335   2.118  0.6504 -0.1023 -0.2981
 2537SOL    HW219245   3.549   0.196   2.143  1.3315 -0.1207 -0.1870
 2538SOL     OW19246   0.522   4.643  17.428  0.0736 -0.2925  0.7190
 2538SOL    HW119247   0.536   4.638  17.523  0.0830  2.7026  0.8708
 2538SOL    HW219248   0.427   4.640  17.421  0.0794 -1.2256  1.0661
 2539SOL     OW19249   2.359   4.258   6.986 -0.0713  0.3070 -0.0611
 2539SOL    HW119250   2.417   4.233   6.914 -0.9539  0.2810 -0.7642
 2539SOL    HW219251   2.309   4.176   6.988 -1.9059  1.4138 -0.7071
 2540SOL     OW19252   0.085   4.473   7.069  0.2535  0.4167  0.1344
 2540SOL    HW119253   0.170   4.457   7.111  0.2892 -0.3748 -0.2305
 2540SOL    HW219254   0.110   4.461   6.978  0.5262  0.3499  0.2199
 2541SOL     OW19255   1.722   3.898  10.690  0.1613  0.0523  0.0990
 2541SOL    HW119256   1.794   3.837  10.708 -0.4516 -0.4169  0.9827
 2541SOL    HW219257   1.761   3.963  10.633 -1.0643  0.7800  0.0872
 2542SOL     OW19258   0.341   4.287  10.156  0.3744 -0.2942 -0.1875
 2542SOL    HW119259   0.435   4.266  10.157  0.1829 -1.2416 -1.7215
 2542SOL    HW219260   0.316   4.222  10.091  0.3565  0.0203 -0.4984
 2543SOL     OW19261   1.820   0.360   9.196  0.5258  0.2118 -0.4310
 2543SOL    HW119262   1.761   0.367   9.271 -1.0642  1.2816 -1.7828
 2543SOL    HW219263   1.885   0.302   9.236  1.0388  0.3724 -1.0363
 2544SOL     OW19264   2.978   1.470   2.212 -0.6008 -0.0504  0.3833
 2544SOL    HW119265   2.978   1.503   2.302  0.8928  0.5468  0.1660
 2544SOL    HW219266   2.931   1.536   2.161 -0.3813  1.3849  2.0673
 2545SOL     OW19267   0.900   2.696  15.131  0.3869  0.4188 -0.1751
 2545SOL    HW119268   0.965   2.627  15.124  1.4813  1.4118  0.0950
 2545SOL    HW219269   0.834   2.656  15.076  1.4767  0.4674 -1.5200
 2546SOL     OW19270   4.229   0.654   5.724  0.4545 -0.2919  1.2309
 2546SOL    HW119271   4.179   0.723   5.767  2.8079  2.1955  0.0159
 2546SOL    HW219272   4.167   0.624   5.658 -1.1050  1.2188  2.0282
 2547SOL     OW19273   2.525   2.232   1.796  0.7472 -0.0843  0.1912
 2547SOL    HW119274   2.456   2.294   1.771  1.2504  0.3810 -0.0419
 2547SOL    HW219275   2.518   2.160   1.734 -0.2246  0.0312  0.1658
 2548SOL     OW19276   0.379   1.119   6.360  0.1377 -0.2656  0.9267
 2548SOL    HW119277   0.340   1.164   6.436  0.5071  2.7713 -0.6498
 2548SOL    HW219278   0.343   1.033   6.383  0.8154 -0.4663  1.2152
 2549SOL     OW19279   0.020   1.232   2.153 -0.6627  0.0000  0.3282
 2549SOL    HW119280   0.000   1.323   2.176 -1.2202 -0.0661  0.1270
 2549SOL    HW219281   4.715   1.179   2.218 -0.3466  1.0767  1.4278
 2550SOL     OW19282   0.334   4.354  15.170  0.1474  0.1670 -0.1750
 2550SOL    HW119283   0.254   4.360  15.221  0.4487  1.8673  0.0732
 2550SOL    HW219284   0.384   4.414  15.224  0.0578 -0.3998  0.5398
 2551SOL     OW19285   3.138   3.341   5.327 -0.1245  0.0255  0.2511
 2551SOL    HW119286   3.058   3.289   5.336 -0.8821  1.3843  1.3929
 2551SOL    HW219287   3.104   3.407   5.267  3.5099  1.8304  0.1776
 2552SOL     OW19288   3.731   2.472   7.147  0.1450  0.1513 -0.1067
 2552SOL    HW119289   3.650   2.439   7.110  0.3818 -1.1182  0.5190
 2552SOL    HW219290   3.795   2.458   7.077  0.1342 -1.0800  0.1325
 2553SOL     OW19291   2.107   3.682   1.846 -0.4121  0.5893 -0.3410
 2553SOL    HW119292   2.188   3.631   1.846  0.3317  1.7660 -1.9381
 2553SOL    HW219293   2.126   3.749   1.911 -2.5995 -1.9024  2.8672
 2554SOL     OW19294   0.511   3.490   6.308 -0.4864  0.6267 -0.5061
 2554SOL    HW119295   0.490   3.510   6.217 -0.9558  1.4443 -0.2239
 2554SOL    HW219296   0.593   3.537   6.319 -0.1633  0.1874 -1.0780
 2555SOL     OW19297   3.822   1.099   5.662 -0.7187 -0.1132 -0.5737
 2555SOL    HW119298   3.865   1.177   5.626 -0.8555  1.3591  2.4462
 2555SOL    HW219299   3.846   1.127   5.751 -0.6088 -0.5230 -0.4763
 2556SOL     OW19300   0.138   4.271   7.507  0.1996 -0.3468 -0.4752
 2556SOL    HW119301   0.142   4.190   7.456  1.5565 -0.9988  0.6657
 2556SOL    HW219302   0.067   4.321   7.467  2.2450  0.6165 -2.8867
 2557SOL     OW19303   2.947   2.731  17.136 -0.4806  0.3919 -0.6722
 2557SOL    HW119304   2.883   2.798  17.113 -1.5998  0.2988  2.2446
 2557SOL    HW219305   2.909   2.701  17.218  0.1662 -0.2017 -0.5922
 2558SOL     OW19306   4.362   4.687   3.599 -0.3637 -0.2146 -0.6166
 2558SOL    HW119307   4.405   0.030   3.593 -0.3840 -0.2064 -0.6470
 2558SOL    HW219308   4.334   4.682   3.691  2.6153 -1.5253  0.2447
 2559SOL     OW19309   3.631   2.793   6.406  0.1473  0.2317  0.3206
 2559SOL    HW119310   3.599   2.883   6.413 -1.2693 -0.2423 -0.0729
 2559SOL    HW219311   3.727   2.801   6.403  0.0678  1.1967  0.3295
 2560SOL     OW19312   1.012   4.239  16.209  0.3580  0.0927  0.1684
 2560SOL    HW119313   0.974   4.161  16.248  1.1516 -0.4115 -0.0755
 2560SOL    HW219314   0.938   4.298  16.223 -0.4206 -0.9023  0.1470
 2561SOL     OW19315   3.836   3.879   2.310 -0.2620 -0.0037  0.4324
 2561SOL    HW119316   3.917   3.859   2.357 -0.8853  1.4769  2.1142
 2561SOL    HW219317   3.838   3.826   2.230 -0.3014 -0.9414  1.0536
 2562SOL     OW19318   0.437   1.675   2.192  0.1723  0.9018 -0.8676
 2562SOL    HW119319   0.483   1.708   2.269 -2.6849  1.2276  0.6893
 2562SOL    HW219320   0.387   1.752   2.166 -0.0642  1.3013  0.7733
 2563SOL     OW19321   0.651   0.108  12.993 -0.0288  0.2280 -0.5255
 2563SOL    HW119322   0.566   0.087  12.954 -0.6445  2.1708 -0.2224
 2563SOL    HW219323   0.710   0.136  12.922  3.0334  0.2508  2.0489
 2564SOL     OW19324   0.240   2.512   8.543  0.7831 -0.4984  0.4630
 2564SOL    HW119325   0.208   2.556   8.622 -0.0418  2.8992 -1.7809
 2564SOL    HW219326   0.215   2.574   8.475 -0.0906  0.5957  1.7750
 2565SOL     OW19327   0.634   2.702  13.847  0.2538 -0.3778  0.0021
 2565SOL    HW119328   0.552   2.751  13.839  0.7983  0.3986 -0.7940
 2565SOL    HW219329   0.699   2.769  13.869  1.0755 -1.7753  1.8633
 2566SOL     OW19330   4.088   2.844   5.726  0.3145 -0.8296 -1.0797
 2566SOL    HW119331   4.037   2.785   5.671 -1.9961  0.8502 -0.7540
 2566SOL    HW219332   4.155   2.794   5.773 -0.2873 -0.6966 -0.0633
 2567SOL     OW19333   2.809   3.974   3.706  0.2740  0.1937 -0.4261
 2567SOL    HW119334   2.810   3.896   3.650  0.6570 -0.0514 -0.0782
 2567SOL    HW219335   2.810   3.935   3.794 -2.5289  0.6569 -0.1735
 2568SOL     OW19336   0.368   4.123   1.780 -0.3197  0.4433 -0.7825
 2568SOL    HW119337   0.285   4.088   1.748 -0.8565  0.1092  0.9298
 2568SOL    HW219338   0.433   4.105   1.712  0.5318  1.8966 -0.3515
 2569SOL     OW19339   2.568   3.255   7.519  0.4098 -0.3369 -0.4970
 2569SOL    HW119340   2.517   3.238   7.598 -0.3917  2.5568 -0.4237
 2569SOL    HW219341   2.623   3.176   7.519 -0.4688 -0.9526 -1.0114
 2570SOL     OW19342   1.477   2.208   3.448 -0.0624 -0.0062  0.1347
 2570SOL    HW119343   1.503   2.243   3.534 -0.4021 -0.7429  0.5411
 2570SOL    HW219344   1.558   2.223   3.399 -1.1142  0.9514 -1.3149
 2571SOL     OW19345   4.076   2.316   5.518  0.0109 -0.2634  0.0981
 2571SOL    HW119346   4.159   2.276   5.545 -0.2165 -0.0310  1.1389
 2571SOL    HW219347   4.023   2.237   5.526 -1.3686  0.7222  0.6567
 2572SOL     OW19348   3.473   0.153   9.360  0.0655  0.5572  0.4413
 2572SOL    HW119349   3.446   0.062   9.371  0.4178  0.5168  0.9728
 2572SOL    HW219350   3.568   0.160   9.365  0.2575 -3.9240  2.7890
 2573SOL     OW19351   3.770   4.108  15.082 -0.2377  0.7589  0.0571
 2573SOL    HW119352   3.709   4.077  15.016 -0.3991 -1.5894  1.3036
 2573SOL    HW219353   3.711   4.141  15.149  1.8563 -0.9269  2.7706
 2574SOL     OW19354   1.061   1.534   1.717 -0.2700 -0.7236  0.5269
 2574SOL    HW119355   0.981   1.486   1.739 -1.1742  0.9088  0.8384
 2574SOL    HW219356   1.088   1.482   1.642  0.5910  0.4603  0.0059
 2575SOL     OW19357   1.454   0.599   4.995 -0.2082 -0.1684  0.1816
 2575SOL    HW119358   1.545   0.570   4.987 -0.3983 -0.5182 -0.7273
 2575SOL    HW219359   1.413   0.539   4.932 -1.8405  2.7675 -1.5548
 2576SOL     OW19360   1.689   4.675   9.185 -0.2297  0.1790  0.1960
 2576SOL    HW119361   1.670   4.604   9.246  0.7831  0.7378  1.1508
 2576SOL    HW219362   1.778   4.645   9.168  1.2284  4.0616  1.0331
 2577SOL     OW19363   0.373   0.342   6.835 -0.5276 -0.2820 -0.1410
 2577SOL    HW119364   0.304   0.325   6.770 -0.4086 -1.8091  0.1282
 2577SOL    HW219365   0.424   0.404   6.783 -0.3661 -0.2387  0.0737
 2578SOL     OW19366   3.895   2.142   3.690 -0.1610  0.1455  0.3760
 2578SOL    HW119367   3.957   2.144   3.763 -0.5259  0.0768  0.6882
 2578SOL    HW219368   3.960   2.093   3.640  1.6132  0.7647  2.0602
 2579SOL     OW19369   2.342   3.881  11.750  0.2615  0.2056  0.0681
 2579SOL    HW119370   2.389   3.798  11.753 -0.4599 -0.2330 -0.7516
 2579SOL    HW219371   2.248   3.863  11.748 -0.2448  2.8916 -0.5064
 2580SOL     OW19372   3.165   0.755   7.390  0.5236 -0.2590 -0.2248
 2580SOL    HW119373   3.260   0.759   7.402  0.3935 -2.0893  1.4068
 2580SOL    HW219374   3.163   0.775   7.296 -0.3158  1.8325  0.2590
 2581SOL     OW19375   2.762   1.445   8.145 -0.2027 -0.0429 -0.0822
 2581SOL    HW119376   2.816   1.372   8.114 -2.4179 -1.9557  0.6127
 2581SOL    HW219377   2.730   1.407   8.227 -0.3503 -3.1999 -1.6087
 2582SOL     OW19378   2.066   4.380  12.635  0.0940  0.1466 -0.0247
 2582SOL    HW119379   2.021   4.411  12.714 -4.0539 -4.7078 -0.5208
 2582SOL    HW219380   2.116   4.309  12.676 -0.1561 -0.8675 -1.5028
 2583SOL     OW19381   2.682   4.679   7.532 -0.0707  0.3261  0.6269
 2583SOL    HW119382   2.712   0.002   7.596  1.7591  1.9008 -1.7947
 2583SOL    HW219383   2.705   4.598   7.576  1.7884  0.4575 -0.1030
 2584SOL     OW19384   0.461   4.198  17.409  0.4680  0.3728  0.7872
 2584SOL    HW119385   0.459   4.127  17.344 -0.1906  0.5797  0.5806
 2584SOL    HW219386   0.495   4.275  17.364  1.6183  0.0508  1.1201
 2585SOL     OW19387   0.480   0.525   3.098  0.1308 -0.2485 -0.3968
 2585SOL    HW119388   0.533   0.451   3.069 -2.6765 -2.0190 -1.0433
 2585SOL    HW219389   0.527   0.573   3.166 -0.2805  0.1993 -0.4282
 2586SOL     OW19390   3.185   3.947   4.342  0.1473  0.1716 -0.2197
 2586SOL    HW119391   3.237   4.008   4.393 -0.6530 -0.1153  0.9381
 2586SOL    HW219392   3.235   3.866   4.349  2.0970  1.2478 -1.9215
 2587SOL     OW19393   2.176   3.658  17.061  0.2851 -0.2707 -0.4056
 2587SOL    HW119394   2.212   3.623  17.143 -1.7451  0.9941  1.0031
 2587SOL    HW219395   2.212   3.747  17.055 -0.6219 -0.0384 -2.3877
 2588SOL     OW19396   1.737   1.544   1.728  0.2496  0.4973 -0.0827
 2588SOL    HW119397   1.796   1.470   1.743 -0.4427  0.1484  0.8352
 2588SOL    HW219398   1.665   1.481   1.732  0.4288  0.3606  0.9951
 2589SOL     OW19399   1.313   4.167  10.964  0.0835  0.0458 -0.1584
 2589SOL    HW119400   1.293   4.219  10.887 -3.7434  1.7527  1.9502
 2589SOL    HW219401   1.358   4.091  10.926  0.1784 -0.9316  1.8685
 2590SOL     OW19402   2.592   3.106   0.728  0.0918 -0.0064 -0.5959
 2590SOL    HW119403   2.611   3.081   0.818  1.0813  1.7428 -0.3110
 2590SOL    HW219404   2.623   3.026   0.686 -0.4903 -0.4753 -0.1349
 2591SOL     OW19405   1.419   4.164   2.981  0.1909  0.0086 -0.4097
 2591SOL    HW119406   1.389   4.138   3.068 -0.6856 -0.7708 -0.9463
 2591SOL    HW219407   1.354   4.118   2.927 -0.1076 -1.3406  1.0707
 2592SOL     OW19408   4.411   0.539  13.498  0.3058 -0.8379  0.0956
 2592SOL    HW119409   4.315   0.537  13.501  0.3788 -1.7699  1.4274
 2592SOL    HW219410   4.428   0.453  13.460  1.2145 -0.4806 -0.3002
 2593SOL     OW19411   3.041   3.410   3.727  0.4018  0.2833  0.3925
 2593SOL    HW119412   3.096   3.439   3.800  0.4899  0.5829  0.2079
 2593SOL    HW219413   3.108   3.384   3.664 -0.1514  0.5194 -0.2878
 2594SOL     OW19414   3.532   1.956   6.792 -0.6540 -0.4685  0.5122
 2594SOL    HW119415   3.573   1.875   6.763  1.5396  1.0748 -0.6471
 2594SOL    HW219416   3.508   1.934   6.882  0.7634 -0.1575  0.9579
 2595SOL     OW19417   1.314   3.301  16.901 -0.1159  0.4926 -0.0387
 2595SOL    HW119418   1.234   3.353  16.893 -0.3912  0.3057  1.4412
 2595SOL    HW219419   1.271   3.242  16.964 -0.2236  2.0070  1.3014
 2596SOL     OW19420   2.614   4.418  13.427 -0.3633 -0.3700 -0.7548
 2596SOL    HW119421   2.546   4.387  13.487  0.3777  2.3486  1.4831
 2596SOL    HW219422   2.622   4.350  13.360 -0.3623 -0.8592 -0.2553
 2597SOL     OW19423   1.674   2.887  16.578  0.6885  0.3917 -0.1875
 2597SOL    HW119424   1.753   2.834  16.595  1.4442  1.6143  0.0885
 2597SOL    HW219425   1.690   2.978  16.602 -1.3500  0.2972  1.4986
 2598SOL     OW19426   1.757   4.689   5.106 -0.0726 -0.3371 -0.1047
 2598SOL    HW119427   1.850   4.670   5.121  0.6970  2.4523 -1.2655
 2598SOL    HW219428   1.745   0.027   5.157  1.9806 -0.8659  1.1851
 2599SOL     OW19429   2.583   0.953   5.783  0.2754  1.0615  0.4136
 2599SOL    HW119430   2.627   1.024   5.736 -2.8829  0.8579 -2.8275
 2599SOL    HW219431   2.492   0.979   5.774  0.1504  1.5970  3.2941
 2600SOL     OW19432   2.842   3.774   4.433  0.1946 -0.4330 -0.3877
 2600SOL    HW119433   2.794   3.836   4.488  0.1897  0.2365 -1.1528
 2600SOL    HW219434   2.881   3.712   4.495  2.2575 -1.8014 -3.0577
 2601SOL     OW19435   2.353   3.897  10.176  0.6996 -0.2845 -1.0785
 2601SOL    HW119436   2.350   3.891  10.081  1.8049  1.2479 -1.2126
 2601SOL    HW219437   2.265   3.862  10.190 -0.1711  1.3772 -2.4164
 2602SOL     OW19438   4.637   3.548   2.613  0.7365 -0.0468  0.2521
 2602SOL    HW119439   4.660   3.460   2.642 -3.2888 -0.8968  0.8607
 2602SOL    HW219440   4.544   3.534   2.592  0.8201 -0.2749  0.0374
 2603SOL     OW19441   2.255   3.568   2.663  0.5913  0.0095 -0.3839
 2603SOL    HW119442   2.279   3.515   2.739  0.8177  0.7988  0.1008
 2603SOL    HW219443   2.178   3.523   2.629  0.3953 -0.8858  1.2433
 2604SOL     OW19444   0.244   3.803  10.429  0.2006  0.2195  0.7102
 2604SOL    HW119445   0.177   3.852  10.477 -0.9793 -1.7765  1.1026
 2604SOL    HW219446   0.249   3.863  10.353 -0.3092  0.8013  1.1300
 2605SOL     OW19447   2.683   4.652   6.665  0.4533 -0.4491 -0.5230
 2605SOL    HW119448   2.653   4.564   6.642 -0.0457 -0.6233  0.7593
 2605SOL    HW219449   2.775   4.633   6.679  0.3648 -1.7943 -1.7828
 2606SOL     OW19450   2.608   4.149  13.338 -0.5464  0.2547 -0.5754
 2606SOL    HW119451   2.652   4.100  13.407 -2.2509 -0.2598  0.1451
 2606SOL    HW219452   2.539   4.086  13.319  0.2189 -0.1237 -2.1152
 2607SOL     OW19453   3.254   2.983   6.365 -0.0809  0.3421 -0.6068
 2607SOL    HW119454   3.285   2.937   6.286  1.2706  1.4816 -0.7316
 2607SOL    HW219455   3.173   3.014   6.325 -0.0690 -0.1808 -1.0429
 2608SOL     OW19456   0.222   0.390   2.083 -0.1368  0.1802 -0.5758
 2608SOL    HW119457   0.264   0.410   1.999  3.5255 -0.0933  1.2404
 2608SOL    HW219458   0.129   0.394   2.058 -0.3119  2.4247  0.4423
 2609SOL     OW19459   3.992   3.935  11.158 -0.3780  0.2164  0.2681
 2609SOL    HW119460   4.068   3.932  11.100 -0.7543 -0.7772 -0.1668
 2609SOL    HW219461   3.973   3.842  11.172 -0.4200 -0.0691 -1.6068
 2610SOL     OW19462   2.122   2.705  11.657  0.8960  0.6797 -0.9935
 2610SOL    HW119463   2.099   2.727  11.747 -1.0751  0.2068 -1.3603
 2610SOL    HW219464   2.204   2.753  11.650  0.7343  0.8491 -1.7892
 2611SOL     OW19465   2.965   4.159   9.213 -0.3754  0.1620 -0.0832
 2611SOL    HW119466   2.878   4.198   9.217 -0.0741  0.7928  0.3078
 2611SOL    HW219467   2.947   4.067   9.195  1.6946 -0.6668  2.1741
 2612SOL     OW19468   2.770   4.005   3.203  0.1305 -0.0898 -0.1458
 2612SOL    HW119469   2.750   3.932   3.262 -0.5193 -1.8092 -2.5432
 2612SOL    HW219470   2.686   4.050   3.197  0.0372 -0.2154  0.2030
 2613SOL     OW19471   0.482   1.909   7.855  0.0067 -0.4115 -0.6815
 2613SOL    HW119472   0.435   1.990   7.872  1.5662 -0.0567  2.0431
 2613SOL    HW219473   0.544   1.903   7.929  1.0668  2.9502 -1.3048
 2614SOL     OW19474   0.786   4.170   3.986  0.0168  0.2173  0.3373
 2614SOL    HW119475   0.770   4.242   4.047 -0.4320  0.7093 -0.3632
 2614SOL    HW219476   0.752   4.204   3.902 -3.1799 -1.3142  0.9974
 2615SOL     OW19477   4.020   0.370   7.396 -0.0590  0.6798 -0.1631
 2615SOL    HW119478   4.027   0.310   7.322 -2.3364 -0.1908  0.3316
 2615SOL    HW219479   4.030   0.314   7.474 -0.3544  2.4334  1.1189
 2616SOL     OW19480   3.210   3.425   4.594  0.3733 -0.2678 -0.6284
 2616SOL    HW119481   3.141   3.385   4.647 -0.5919  1.0453 -0.8932
 2616SOL    HW219482   3.281   3.375   4.634  0.9695  1.2063  0.1694
 2617SOL     OW19483   4.676   2.236  14.551  0.0050  0.6652 -0.4921
 2617SOL    HW119484   4.648   2.165  14.493  1.4575 -0.8932  0.7343
 2617SOL    HW219485   0.021   2.262  14.519  0.4754  1.4904  1.4171
 2618SOL     OW19486   2.915   4.474   6.317  0.1405 -0.7031 -0.1577
 2618SOL    HW119487   2.983   4.519   6.267 -0.8498  0.7697 -0.1816
 2618SOL    HW219488   2.837   4.474   6.262  0.2365  2.6750 -0.2965
 2619SOL     OW19489   0.372   3.995   4.516  1.0321 -0.5790 -0.7638
 2619SOL    HW119490   0.387   4.084   4.548 -0.4827 -0.2973 -0.8544
 2619SOL    HW219491   0.425   3.958   4.587  0.2134  0.7038  0.5128
 2620SOL     OW19492   4.171   4.327  15.803 -0.2633  0.5315 -0.2507
 2620SOL    HW119493   4.127   4.314  15.720 -2.5689  2.2233  0.7115
 2620SOL    HW219494   4.253   4.376  15.791  0.6469 -0.6588  1.0140
 2621SOL     OW19495   1.874   4.557   3.009 -0.4109  0.2714 -0.3729
 2621SOL    HW119496   1.933   4.546   3.083 -0.3075 -2.6717 -0.8915
 2621SOL    HW219497   1.896   4.484   2.952  1.2282  1.0756 -0.7708
 2622SOL     OW19498   0.243   0.721   7.580 -0.2226 -0.6440  0.6602
 2622SOL    HW119499   0.167   0.666   7.600 -3.4241  3.8044  0.5359
 2622SOL    HW219500   0.315   0.675   7.622 -1.3268 -1.6983  1.3903
 2623SOL     OW19501   3.792   3.625   3.131 -0.0254  0.0370  0.1151
 2623SOL    HW119502   3.831   3.675   3.203  0.5934  2.2137 -1.6980
 2623SOL    HW219503   3.777   3.544   3.179 -0.2314  2.2130  3.7333
 2624SOL     OW19504   3.905   2.087   4.181  0.5165 -0.2065  0.4484
 2624SOL    HW119505   3.863   2.158   4.228 -0.3863  0.3458 -1.1731
 2624SOL    HW219506   3.996   2.114   4.196  1.3832 -1.6204 -2.0957
 2625SOL     OW19507   2.902   2.970  10.850 -0.1481 -0.4928 -0.3732
 2625SOL    HW119508   2.960   3.046  10.848  0.6795 -1.1749 -1.8528
 2625SOL    HW219509   2.940   2.917  10.921  1.4552  1.0299 -0.0887
 2626SOL     OW19510   1.616   0.617   9.017 -0.0409  0.4468 -0.1320
 2626SOL    HW119511   1.605   0.530   9.054  2.0081  0.6979  1.0620
 2626SOL    HW219512   1.593   0.665   9.097 -1.9788  0.4366 -0.6770
 2627SOL     OW19513   0.548   3.100   7.158  0.3533  0.3168  0.5332
 2627SOL    HW119514   0.640   3.103   7.182  0.8765  0.5002 -1.4889
 2627SOL    HW219515   0.543   3.156   7.080  2.6547  0.1275  0.2662
 2628SOL     OW19516   1.273   4.723   3.257 -0.2582  0.3384 -0.3698
 2628SOL    HW119517   1.368   4.738   3.263 -0.1103 -0.7791  0.0880
 2628SOL    HW219518   1.267   4.628   3.263  0.3087  0.2992 -0.3734
 2629SOL     OW19519   0.038   2.644   3.003 -0.4187 -0.5148  0.1268
 2629SOL    HW119520   0.032   2.696   3.083  2.1837 -2.0908  1.3352
 2629SOL    HW219521   4.716   2.574   3.018 -1.1948  0.5918  2.0951
 2630SOL     OW19522   3.135   3.686   7.706 -0.0921  0.2674  0.1048
 2630SOL    HW119523   3.161   3.641   7.626  0.9581  3.9323 -1.6090
 2630SOL    HW219524   3.188   3.766   7.708  1.1903 -0.6158  2.3992
 2631SOL     OW19525   1.655   1.482   4.559  0.0402  0.2494  0.3459
 2631SOL    HW119526   1.624   1.461   4.471  0.9748 -0.9487  0.3037
 2631SOL    HW219527   1.717   1.555   4.551  0.6085 -0.2613  0.0758
 2632SOL     OW19528   3.890   1.212   6.961  0.2634  0.2471  0.9467
 2632SOL    HW119529   3.838   1.257   7.028  0.1939  1.1525  0.2906
 2632SOL    HW219530   3.830   1.143   6.932  0.4899 -0.0842  1.2689
 2633SOL     OW19531   2.018   3.384   6.449  0.6566 -0.9447 -0.2159
 2633SOL    HW119532   1.980   3.395   6.362  0.3460  2.3449  0.3598
 2633SOL    HW219533   2.046   3.474   6.463  1.7262 -1.8683  3.6403
 2634SOL     OW19534   0.329   3.917   2.376 -0.2070 -0.5095 -0.4195
 2634SOL    HW119535   0.388   3.963   2.435  0.4035 -1.2873 -0.4355
 2634SOL    HW219536   0.329   3.828   2.409  1.6909 -0.2368  0.2949
 2635SOL     OW19537   1.991   1.666   5.708 -0.1706  0.6882 -0.4117
 2635SOL    HW119538   2.078   1.674   5.668  0.2795 -3.4330 -0.2465
 2635SOL    HW219539   2.005   1.678   5.802 -2.7698 -2.7012  0.3766
 2636SOL     OW19540   4.622   2.448  11.251  0.1408  0.3508  0.5773
 2636SOL    HW119541   4.596   2.357  11.268  1.0045  0.3813  2.0361
 2636SOL    HW219542   4.609   2.480  11.341  2.8946  2.5316  0.1773
 2637SOL     OW19543   1.342   4.636   4.279  0.2873  0.0910  0.0165
 2637SOL    HW119544   1.402   4.610   4.208  0.2226 -0.1390  0.0450
 2637SOL    HW219545   1.263   4.605   4.235  1.9801 -4.0743 -0.1116
 2638SOL     OW19546   3.881   4.590   6.522 -0.5249  0.1814 -0.5866
 2638SOL    HW119547   3.967   4.631   6.523 -1.5822  2.3115  2.1160
 2638SOL    HW219548   3.907   4.500   6.540  1.0936  0.8004  0.1507
 2639SOL     OW19549   0.411   1.570   1.265  0.5014  0.1001  0.1540
 2639SOL    HW119550   0.465   1.493   1.283  1.3175  0.5347 -0.4356
 2639SOL    HW219551   0.331   1.525   1.238  0.9271 -0.4044 -0.2472
 2640SOL     OW19552   0.497   2.119   6.526 -0.0678  0.3413  0.0621
 2640SOL    HW119553   0.557   2.062   6.573 -0.4584 -0.0915  0.0385
 2640SOL    HW219554   0.415   2.070   6.528 -0.0922  0.4495  1.8640
 2641SOL     OW19555   3.278   3.070   2.150  0.4914  0.8089  0.0321
 2641SOL    HW119556   3.357   3.110   2.114  0.9913  1.0174  1.3600
 2641SOL    HW219557   3.305   2.986   2.186 -1.1102  0.8049  1.2594
 2642SOL     OW19558   2.135   0.790   0.983 -0.5572  0.5409 -0.1300
 2642SOL    HW119559   2.075   0.792   0.908  0.6699  2.2825 -1.0645
 2642SOL    HW219560   2.087   0.837   1.051 -1.3694 -0.2586 -0.1538
 2643SOL     OW19561   4.276   1.435  10.877  0.0624  0.5450  0.0975
 2643SOL    HW119562   4.228   1.437  10.960 -0.1796  1.5202 -0.0588
 2643SOL    HW219563   4.310   1.523  10.894 -0.2901  0.7821 -0.4134
 2644SOL     OW19564   2.974   3.587  15.845 -0.4418  0.0191 -0.3498
 2644SOL    HW119565   3.027   3.653  15.799 -0.7808 -0.2637 -1.1528
 2644SOL    HW219566   2.913   3.642  15.894 -1.7358  0.1868 -2.1398
 2645SOL     OW19567   0.619   2.259   9.851 -0.3174 -0.2727 -0.2622
 2645SOL    HW119568   0.584   2.188   9.905  1.5073  0.2657  1.6198
 2645SOL    HW219569   0.663   2.316   9.914  1.8124 -2.3025  0.0791
 2646SOL     OW19570   3.686   0.027   9.583 -0.2560  0.7401  0.0698
 2646SOL    HW119571   3.681   4.691   9.526 -1.0948 -0.1684  1.3991
 2646SOL    HW219572   3.678   4.730   9.670 -1.2458  0.4413 -0.1491
 2647SOL     OW19573   3.689   3.868   8.433  0.0017  0.2396 -0.2767
 2647SOL    HW119574   3.639   3.814   8.495  0.2345  0.0609 -0.2443
 2647SOL    HW219575   3.771   3.820   8.423  0.3819  0.2856  2.7633
 2648SOL     OW19576   4.552   3.326  12.449  0.1227 -0.1179 -0.2094
 2648SOL    HW119577   4.559   3.400  12.508 -3.8871  0.7551 -0.8271
 2648SOL    HW219578   4.616   3.353  12.383  0.5137  0.3975  0.3792
 2649SOL     OW19579   3.625   4.680   1.522  0.4236 -0.2200  0.0650
 2649SOL    HW119580   3.563   4.615   1.556 -0.2130 -0.3103 -1.2835
 2649SOL    HW219581   3.634   4.645   1.434 -1.4896  0.4096 -0.3788
 2650SOL     OW19582   4.313   4.203   3.969  0.0360 -0.0455  0.5769
 2650SOL    HW119583   4.377   4.222   3.901 -1.3412 -1.3951 -1.0995
 2650SOL    HW219584   4.269   4.287   3.965 -0.1482 -0.2216 -1.2469
 2651SOL     OW19585   0.369   1.604   7.547  0.1986  0.3578  0.1748
 2651SOL    HW119586   0.310   1.679   7.551  1.2055  1.1697 -0.2084
 2651SOL    HW219587   0.398   1.621   7.458 -1.9440  4.5278  0.2944
 2652SOL     OW19588   2.808   2.509   2.889  0.6517 -0.3867 -0.0477
 2652SOL    HW119589   2.825   2.517   2.795 -1.0501  2.2442 -0.1303
 2652SOL    HW219590   2.899   2.493   2.913  0.6775  1.1281  0.8452
 2653SOL     OW19591   2.011   1.677  12.384 -0.3150  0.2891 -0.2180
 2653SOL    HW119592   1.972   1.664  12.471  1.9814 -1.0474  0.6134
 2653SOL    HW219593   2.090   1.717  12.420  0.5523 -2.4115  0.9054
 2654SOL     OW19594   0.572   3.318  14.778 -0.0945  0.0184  0.1557
 2654SOL    HW119595   0.487   3.334  14.736  0.5106  3.0496  0.0944
 2654SOL    HW219596   0.563   3.358  14.865 -1.4043 -0.4954  0.2591
 2655SOL     OW19597   1.826   0.798   5.049 -0.3410 -0.7463  0.4079
 2655SOL    HW119598   1.752   0.832   4.999  0.8072  0.7912 -0.2415
 2655SOL    HW219599   1.896   0.846   5.003 -1.2527 -0.6844 -0.9063
 2656SOL     OW19600   3.009   4.011   3.981 -0.1427  0.5076 -1.1965
 2656SOL    HW119601   2.959   4.005   4.063  1.0592 -0.5655 -0.5421
 2656SOL    HW219602   3.038   3.921   3.967  0.5261  0.6517 -0.7301
 2657SOL     OW19603   1.881   1.323   5.398 -0.2736 -0.2657 -0.3926
 2657SOL    HW119604   1.796   1.341   5.439  0.2038 -0.7268  0.7895
 2657SOL    HW219605   1.857   1.360   5.312  0.5151  3.1989  0.9111
 2658SOL     OW19606   0.365   0.358  12.003  0.3654  0.3078  0.2194
 2658SOL    HW119607   0.420   0.282  12.022 -0.4182  0.0725  1.6054
 2658SOL    HW219608   0.374   0.390  12.093  0.2264  1.4171 -0.1549
 2659SOL     OW19609   0.886   1.041  17.714  0.1652 -0.1288 -0.3887
 2659SOL    HW119610   0.790   1.040  17.720  0.1802  1.1092 -0.0653
 2659SOL    HW219611   0.902   1.108  17.649 -2.2731  0.4501 -0.3948
 2660SOL     OW19612   3.541   3.379   1.015 -0.1727  0.1227  0.1658
 2660SOL    HW119613   3.601   3.309   0.989  0.8425  1.9880 -2.5058
 2660SOL    HW219614   3.542   3.444   0.944 -2.6435  1.2491  1.1456
 2661SOL     OW19615   1.365   1.932   8.334  0.3303  0.6934 -0.3085
 2661SOL    HW119616   1.327   1.845   8.326 -0.1309  0.9360 -0.6906
 2661SOL    HW219617   1.366   1.950   8.428  2.3080 -0.4632 -0.0997
 2662SOL     OW19618   4.110   4.215   2.015 -0.2103  0.2926  0.2538
 2662SOL    HW119619   4.117   4.174   2.102 -1.3175  0.6453  0.5155
 2662SOL    HW219620   4.193   4.261   2.009 -1.0703  1.7809 -0.2112
 2663SOL     OW19621   3.247   0.301   8.391 -0.4376 -0.2583 -0.2453
 2663SOL    HW119622   3.173   0.358   8.371 -0.9656 -0.6723  0.5150
 2663SOL    HW219623   3.293   0.348   8.461 -0.3087  0.1440 -0.6013
 2664SOL     OW19624   0.661   2.382   5.479  0.4534 -0.3756  0.1535
 2664SOL    HW119625   0.683   2.350   5.392 -2.4042 -0.8016 -0.4002
 2664SOL    HW219626   0.719   2.331   5.537  0.0391 -2.4116 -1.2486
 2665SOL     OW19627   2.744   2.768   6.920 -0.2424 -0.3606 -0.2027
 2665SOL    HW119628   2.722   2.752   7.012 -0.0417  0.1692 -0.0613
 2665SOL    HW219629   2.837   2.753   6.936 -0.1332 -2.7794 -3.0351
 2666SOL     OW19630   1.503   2.204   1.882 -0.2960 -0.0538 -0.1829
 2666SOL    HW119631   1.436   2.250   1.932  1.0080  1.5034  0.1148
 2666SOL    HW219632   1.505   2.127   1.939 -0.9943  0.6308  0.7585
 2667SOL     OW19633   3.480   3.718   4.019 -0.6483 -0.2133 -0.0833
 2667SOL    HW119634   3.402   3.705   3.965 -1.1244  0.4925  0.4419
 2667SOL    HW219635   3.542   3.669   3.964  0.0458  1.8876 -1.1910
 2668SOL     OW19636   0.855   2.231   3.244  0.0898 -0.3672 -0.4279
 2668SOL    HW119637   0.786   2.293   3.270  0.5261 -0.7450  1.6205
 2668SOL    HW219638   0.820   2.150   3.280 -1.7121  1.1886  1.3483
 2669SOL     OW19639   2.648   4.700  16.436  0.0392 -0.6713 -0.2048
 2669SOL    HW119640   2.655   4.700  16.340  1.0891 -0.2334 -0.1240
 2669SOL    HW219641   2.722   4.653  16.474  1.2129 -0.0269 -1.7087
 2670SOL     OW19642   1.122   0.861   4.546 -0.2195 -0.1036 -0.0226
 2670SOL    HW119643   1.120   0.787   4.607 -1.6011 -0.8538 -0.9761
 2670SOL    HW219644   1.028   0.866   4.529  0.0692 -1.4969 -2.0203
 2671SOL     OW19645   3.062   0.101  17.425 -0.2360 -0.4227  0.1676
 2671SOL    HW119646   2.974   0.138  17.431 -0.3651 -0.8199  0.6679
 2671SOL    HW219647   3.053   0.007  17.410 -0.0571 -0.5484  0.8582
 2672SOL     OW19648   0.497   3.532   5.181 -0.1073 -0.4972 -0.2083
 2672SOL    HW119649   0.509   3.437   5.178  0.9745 -0.4356  2.2174
 2672SOL    HW219650   0.590   3.553   5.172 -0.5575  1.3287 -0.7647
 2673SOL     OW19651   2.280   0.390   5.301  0.2774  0.2524  1.0671
 2673SOL    HW119652   2.226   0.338   5.241  0.6286  1.2635 -0.1273
 2673SOL    HW219653   2.206   0.439   5.335 -1.2753  0.8877 -3.2280
 2674SOL     OW19654   0.969   4.116   9.870  0.0040 -0.9711  0.0801
 2674SOL    HW119655   1.003   4.203   9.888 -0.4632 -1.2047  2.0050
 2674SOL    HW219656   0.880   4.136   9.841  0.2288 -1.3027 -0.8698
 2675SOL     OW19657   4.521   0.246   4.064  0.7130 -0.8909 -0.3791
 2675SOL    HW119658   4.515   0.278   3.974  0.1573 -0.4455 -0.1789
 2675SOL    HW219659   4.455   0.177   4.057 -1.6995  1.2538  1.5749
 2676SOL     OW19660   0.912   0.715  14.647  0.2959 -0.3707 -0.6832
 2676SOL    HW119661   0.858   0.756  14.580 -0.8151  2.2447  1.8252
 2676SOL    HW219662   0.994   0.765  14.647  1.2183 -1.8747 -0.6283
 2677SOL     OW19663   4.038   1.293   0.568  0.5654  0.7200  0.3201
 2677SOL    HW119664   4.116   1.333   0.606  1.0656 -0.8029  0.8720
 2677SOL    HW219665   3.969   1.328   0.625 -0.2854  1.5885 -1.2396
 2678SOL     OW19666   1.564   3.855   0.712  0.5279 -0.3361  0.2832
 2678SOL    HW119667   1.616   3.893   0.783  0.9768  0.1606 -0.3221
 2678SOL    HW219668   1.554   3.942   0.674 -0.7803 -0.5076  0.2393
 2679SOL     OW19669   2.064   0.690   5.829 -0.2777  0.4846  0.2892
 2679SOL    HW119670   2.152   0.668   5.796 -0.3301 -0.2189  0.6162
 2679SOL    HW219671   2.054   0.781   5.802 -0.7470  0.1557 -0.6420
 2680SOL     OW19672   0.178   4.136   4.853  0.2928  0.3607 -0.8601
 2680SOL    HW119673   0.143   4.071   4.792  0.5797  0.1501 -0.7997
 2680SOL    HW219674   0.255   4.093   4.889 -1.7347 -0.6676  2.2801
 2681SOL     OW19675   1.075   3.404   5.341 -0.2481  0.1494 -0.7673
 2681SOL    HW119676   1.042   3.319   5.313 -3.5904  1.3903 -0.5173
 2681SOL    HW219677   1.092   3.446   5.256  0.4395 -0.6057 -1.0056
 2682SOL     OW19678   1.979   4.264  15.032  0.5594 -0.3046  0.5105
 2682SOL    HW119679   1.985   4.262  14.937 -0.1499 -0.3365  0.4682
 2682SOL    HW219680   1.940   4.351  15.044  0.8438  0.1763 -2.2823
 2683SOL     OW19681   1.871   3.443  15.609 -0.2812  0.2520 -0.5532
 2683SOL    HW119682   1.867   3.347  15.608  0.0216  0.2195  1.1170
 2683SOL    HW219683   1.895   3.464  15.700 -0.5922  0.3591 -0.4969
 2684SOL     OW19684   3.032   3.625   6.813 -0.4007  0.5081 -0.1550
 2684SOL    HW119685   3.033   3.686   6.887 -2.5346 -0.0214  0.2946
 2684SOL    HW219686   2.969   3.557   6.836  1.9958 -2.4527 -2.2444
 2685SOL     OW19687   3.594   3.182   9.272 -0.1238 -0.1479  0.1189
 2685SOL    HW119688   3.612   3.274   9.253  2.8696 -0.9056 -0.6399
 2685SOL    HW219689   3.573   3.187   9.365 -0.8673 -3.1469  0.1212
 2686SOL     OW19690   4.003   3.873  13.370 -0.2766  0.2196  0.3407
 2686SOL    HW119691   4.003   3.910  13.282  1.9618 -0.4308  0.0527
 2686SOL    HW219692   3.990   3.945  13.431 -2.1385  1.0857 -1.0942
 2687SOL     OW19693   0.069   2.610   8.045  0.4319 -0.6032 -0.2232
 2687SOL    HW119694   0.164   2.609   8.040  0.4408  0.5238 -0.3469
 2687SOL    HW219695   0.052   2.704   8.040  2.2701 -0.2876 -0.5463
 2688SOL     OW19696   0.447   3.727   0.436 -0.3593  0.1058  0.2434
 2688SOL    HW119697   0.362   3.693   0.409 -0.0494  0.4240 -1.0963
 2688SOL    HW219698   0.426   3.800   0.493 -0.0177  1.7115 -1.7129
 2689SOL     OW19699   0.448   2.524   7.335 -0.2597 -0.4563 -0.1661
 2689SOL    HW119700   0.494   2.583   7.395  2.7430 -1.9293 -1.0043
 2689SOL    HW219701   0.504   2.520   7.258  0.4180 -1.0864  0.3509
 2690SOL     OW19702   0.974   3.234   4.344 -0.7523  0.4479  0.3506
 2690SOL    HW119703   0.929   3.167   4.291 -1.3429  1.5415 -0.5512
 2690SOL    HW219704   0.907   3.303   4.347 -2.0797 -0.8163 -0.0093
 2691SOL     OW19705   3.289   3.930   6.310 -0.3615 -0.0485  0.0141
 2691SOL    HW119706   3.344   3.854   6.327  0.4676  0.6009  0.2403
 2691SOL    HW219707   3.273   3.961   6.399 -2.6438 -1.1348 -0.0262
 2692SOL     OW19708   3.551   1.915   7.523  0.3860  0.2166 -0.1877
 2692SOL    HW119709   3.618   1.923   7.455 -2.6901  1.9187 -3.0518
 2692SOL    HW219710   3.604   1.928   7.602  0.7309  0.0354 -0.3898
 2693SOL     OW19711   3.964   2.709   3.091 -0.0886  0.0549 -0.5431
 2693SOL    HW119712   3.986   2.620   3.118  1.8186  1.0375  1.1343
 2693SOL    HW219713   4.050   2.752   3.097 -0.6709  1.3749 -1.4508
 2694SOL     OW19714   3.857   0.274  12.751  0.5347  0.2669  0.4367
 2694SOL    HW119715   3.780   0.234  12.712 -0.5777  1.3833  1.5147
 2694SOL    HW219716   3.812   0.341  12.802 -2.3754 -1.1629 -0.3059
 2695SOL     OW19717   1.268   1.924   0.390 -0.0016  0.6324 -0.8818
 2695SOL    HW119718   1.360   1.908   0.408 -0.5099 -1.4293 -0.0573
 2695SOL    HW219719   1.246   1.972   0.470  2.0408 -2.4508  1.5143
 2696SOL     OW19720   1.820   1.443   6.191  0.8426  0.5472 -0.3816
 2696SOL    HW119721   1.730   1.412   6.202  1.4248 -1.5789 -1.7888
 2696SOL    HW219722   1.803   1.527   6.234  0.3022  0.6419 -0.7934
 2697SOL     OW19723   0.455   0.712   5.593  0.6730  0.0058  0.2426
 2697SOL    HW119724   0.399   0.636   5.576  1.9141 -1.4739  2.7199
 2697SOL    HW219725   0.415   0.740   5.675 -1.8556  0.3963 -1.1181
 2698SOL     OW19726   1.056   3.957  12.318  0.6396 -0.3658  0.4859
 2698SOL    HW119727   0.989   3.940  12.252  0.5918 -0.2048  0.4934
 2698SOL    HW219728   1.031   4.047  12.340  1.6742  0.1968 -0.6183
 2699SOL     OW19729   1.036   2.768   2.757 -0.1783 -0.0077  0.6001
 2699SOL    HW119730   1.009   2.716   2.832 -0.8010 -0.9108 -0.2399
 2699SOL    HW219731   1.055   2.702   2.690  0.3371  1.3695 -0.6085
 2700SOL     OW19732   4.461   3.891   0.195 -0.0005 -0.1806  0.2048
 2700SOL    HW119733   4.397   3.824   0.172  1.0175 -1.7034  1.8151
 2700SOL    HW219734   4.443   3.966   0.138 -1.6251  0.8480  2.0882
 2701SOL     OW19735   0.449   0.185   4.711 -0.8976  0.4401  0.2809
 2701SOL    HW119736   0.372   0.129   4.720  1.1927 -2.4333  0.3073
 2701SOL    HW219737   0.512   0.113   4.719 -3.2379 -1.7551 -1.1475
 2702SOL     OW19738   0.360   1.175   6.893  0.1868 -0.2452 -0.3702
 2702SOL    HW119739   0.389   1.088   6.865  1.3035  0.6067 -1.8933
 2702SOL    HW219740   0.427   1.197   6.958 -1.0810 -2.0013  1.5235
 2703SOL     OW19741   2.901   2.679  17.385  0.1883  0.4777 -0.6533
 2703SOL    HW119742   2.921   2.733  17.461 -0.4591 -2.1348  1.3607
 2703SOL    HW219743   2.836   2.626  17.431  1.2020 -1.5683 -1.5990
 2704SOL     OW19744   4.293   1.185   3.087 -0.2057  0.2390 -0.2162
 2704SOL    HW119745   4.246   1.142   3.159  1.3231  1.3290  1.4576
 2704SOL    HW219746   4.359   1.232   3.138 -0.2044  0.7223 -0.6684
 2705SOL     OW19747   3.747   3.451   7.211 -0.3401 -0.5327 -0.2792
 2705SOL    HW119748   3.824   3.395   7.226 -0.5008 -0.1183  2.1978
 2705SOL    HW219749   3.746   3.456   7.116 -0.2223 -1.6416 -0.3404
 2706SOL     OW19750   0.143   1.080   8.269 -0.1328  0.0513 -0.3817
 2706SOL    HW119751   0.100   1.159   8.238  1.3044  0.8862 -0.2466
 2706SOL    HW219752   0.066   1.023   8.267  2.3079 -3.2528 -0.3932
 2707SOL     OW19753   2.217   1.982   1.385 -0.7496 -0.0852 -0.2698
 2707SOL    HW119754   2.230   1.929   1.464  0.1662 -0.5437 -0.7368
 2707SOL    HW219755   2.152   1.923   1.348 -1.0332  1.1317 -1.7305
 2708SOL     OW19756   4.213   1.698   3.733 -0.3480  0.5577 -0.2525
 2708SOL    HW119757   4.257   1.684   3.817 -0.6764 -0.8045 -0.3071
 2708SOL    HW219758   4.180   1.615   3.699  2.2233 -0.3609 -0.4895
 2709SOL     OW19759   2.119   4.165   4.627  0.0775 -0.0249 -0.1577
 2709SOL    HW119760   2.214   4.158   4.640 -0.2040 -0.8120  1.3791
 2709SOL    HW219761   2.092   4.088   4.676 -1.2878  0.0762 -0.7635
 2710SOL     OW19762   4.344   0.215  13.410  0.2719 -0.3792  0.1083
 2710SOL    HW119763   4.427   0.262  13.400  0.4787 -1.3279 -2.6253
 2710SOL    HW219764   4.366   0.130  13.450 -3.6308 -1.5938 -0.2844
 2711SOL     OW19765   3.959   1.438   5.551  0.0057  0.1700 -0.6117
 2711SOL    HW119766   3.969   1.526   5.514 -0.7606  0.9647  1.0655
 2711SOL    HW219767   3.916   1.462   5.633 -0.0524  2.4660 -1.2979
 2712SOL     OW19768   4.409   4.620   6.410 -0.2754 -0.1472  0.1797
 2712SOL    HW119769   4.412   4.705   6.454  1.0704 -0.2164  0.2290
 2712SOL    HW219770   4.317   4.626   6.384 -0.6569 -0.6369  1.4403
 2713SOL     OW19771   3.156   3.291   6.361  0.3646 -0.4776 -0.4128
 2713SOL    HW119772   3.163   3.284   6.266 -0.5707 -1.3813 -0.4240
 2713SOL    HW219773   3.119   3.209   6.394 -0.0928  0.4007  1.2466
 2714SOL     OW19774   4.032   4.215   8.789  0.0689  0.0357 -0.1450
 2714SOL    HW119775   4.079   4.236   8.708  1.8875  1.4478  1.2860
 2714SOL    HW219776   3.976   4.143   8.760 -2.4625  1.8878  0.1298
 2715SOL     OW19777   2.691   3.780   7.601 -0.5301 -0.3307  0.1579
 2715SOL    HW119778   2.747   3.704   7.616 -1.6843 -0.8858  1.7122
 2715SOL    HW219779   2.612   3.740   7.638 -2.1068  0.1866 -2.6393
 2716SOL     OW19780   1.192   3.772   7.008 -0.2028 -0.5179  0.3068
 2716SOL    HW119781   1.189   3.862   7.041  0.2715 -1.0000  1.6446
 2716SOL    HW219782   1.184   3.720   7.087 -1.0112 -0.5343  0.2094
 2717SOL     OW19783   1.822   4.162   8.699 -0.1612 -0.7041 -0.1201
 2717SOL    HW119784   1.766   4.140   8.624 -1.4232 -3.8714  1.7685
 2717SOL    HW219785   1.849   4.073   8.720 -0.9318 -1.0655 -0.6443
 2718SOL     OW19786   4.566   2.167   2.545 -0.8201  0.1149  0.0964
 2718SOL    HW119787   4.472   2.168   2.563 -1.1241 -0.5405 -1.5340
 2718SOL    HW219788   4.577   2.218   2.465 -1.5793 -2.6936 -1.7877
 2719SOL     OW19789   1.138   3.376  10.084 -0.1000  0.9166 -0.5253
 2719SOL    HW119790   1.211   3.344  10.032  0.8465  0.2538  1.2205
 2719SOL    HW219791   1.166   3.387  10.175 -1.8282 -2.7557  0.4908
 2720SOL     OW19792   4.453   3.598   9.272 -0.2642  0.5407  0.4575
 2720SOL    HW119793   4.393   3.601   9.346 -0.0805  1.6442  0.5489
 2720SOL    HW219794   4.400   3.561   9.201  1.4071  1.7072 -1.3924
 2721SOL     OW19795   1.790   2.695   9.633  0.2259 -0.1777  0.5399
 2721SOL    HW119796   1.700   2.663   9.641  0.1345  0.8567  3.4736
 2721SOL    HW219797   1.834   2.618   9.669  1.5900  0.7493  0.8318
 2722SOL     OW19798   2.081   1.739   3.947 -0.6480  0.2841  0.2556
 2722SOL    HW119799   2.078   1.677   3.873 -0.3033 -1.8512  2.0473
 2722SOL    HW219800   2.166   1.782   3.940  0.8015 -2.8980 -2.0872
 2723SOL     OW19801   2.140   4.278   7.683 -0.0630  0.4023  0.4494
 2723SOL    HW119802   2.226   4.240   7.702  0.3874  0.7939 -0.7944
 2723SOL    HW219803   2.141   4.363   7.725  1.3080  0.8024 -0.3884
 2724SOL     OW19804   0.734   3.209   7.420  0.6101 -0.6164 -0.5196
 2724SOL    HW119805   0.803   3.265   7.454  0.4621 -1.4861  1.2505
 2724SOL    HW219806   0.753   3.131   7.472  1.2728 -0.7450 -0.9611
 2725SOL     OW19807   0.782   4.635   5.242 -0.3931 -0.9868 -0.6645
 2725SOL    HW119808   0.706   4.638   5.300 -0.5084  3.0033 -1.0182
 2725SOL    HW219809   0.840   4.579   5.293 -2.0186 -0.2092  2.0269
 2726SOL     OW19810   3.526   2.192  10.181  0.3424  0.4293  0.3514
 2726SOL    HW119811   3.606   2.194  10.234  0.9616  0.2695 -0.5785
 2726SOL    HW219812   3.475   2.134  10.238  0.4559 -0.4191 -0.4126
 2727SOL     OW19813   0.818   1.768   6.155  0.0098 -0.2497 -0.2535
 2727SOL    HW119814   0.862   1.853   6.146 -0.7029  0.5281  3.3316
 2727SOL    HW219815   0.815   1.742   6.063  0.6235 -3.5665  0.6685
 2728SOL     OW19816   0.967   4.457   5.364  0.2834  0.9527  0.1579
 2728SOL    HW119817   1.058   4.486   5.361  0.3496  1.0306  3.2015
 2728SOL    HW219818   0.959   4.441   5.458 -0.2466 -0.5677 -0.1507
 2729SOL     OW19819   0.194   2.833   9.361  0.4061  0.3010  0.2391
 2729SOL    HW119820   0.222   2.922   9.338  1.1894 -0.3260 -1.2792
 2729SOL    HW219821   0.158   2.848   9.448  0.6650  0.2121  0.3595
 2730SOL     OW19822   2.183   2.161   2.748  0.0643  0.6209  0.3523
 2730SOL    HW119823   2.136   2.130   2.670  0.5782  2.6063 -0.7347
 2730SOL    HW219824   2.200   2.252   2.725  1.6922  0.5242  1.1620
 2731SOL     OW19825   1.401   4.086   5.272  0.5627  0.4721  0.1578
 2731SOL    HW119826   1.341   4.130   5.332 -0.6054 -0.4926 -0.3293
 2731SOL    HW219827   1.442   4.164   5.234 -0.4764  0.3764 -1.1261
 2732SOL     OW19828   3.349   1.197   4.116 -1.1438  0.2091  0.7832
 2732SOL    HW119829   3.376   1.146   4.040 -2.4532  2.7380 -1.3489
 2732SOL    HW219830   3.402   1.276   4.106 -0.5472 -0.5748 -2.0592
 2733SOL     OW19831   0.818   3.786   2.081  0.6400  0.5135  0.9005
 2733SOL    HW119832   0.787   3.714   2.025  2.5271  2.5679 -2.8054
 2733SOL    HW219833   0.847   3.848   2.014 -1.5857 -1.1802 -1.6636
 2734SOL     OW19834   2.416   0.428   3.127  0.4985 -0.3063  0.2295
 2734SOL    HW119835   2.416   0.352   3.184 -0.0232 -2.0337 -2.0773
 2734SOL    HW219836   2.500   0.458   3.162 -0.2310  0.9439  0.9423
 2735SOL     OW19837   1.876   0.471  10.748 -0.1036 -0.7528  0.3015
 2735SOL    HW119838   1.885   0.376  10.752 -0.6846 -0.8085  0.3553
 2735SOL    HW219839   1.940   0.494  10.681 -0.5603  3.7926  1.4291
 2736SOL     OW19840   2.119   3.236  10.487  0.2003  0.2840  0.1961
 2736SOL    HW119841   2.095   3.206  10.399  0.8816 -0.0341  0.1229
 2736SOL    HW219842   2.173   3.159  10.503 -0.1019  0.3529  1.5730
 2737SOL     OW19843   1.327   3.070   7.889  0.5494  0.0288  0.5971
 2737SOL    HW119844   1.263   3.020   7.839  2.6827 -1.4850 -0.6567
 2737SOL    HW219845   1.272   3.111   7.955  2.1169  0.8647  1.3783
 2738SOL     OW19846   2.024   2.114   6.608  0.5446 -0.2296 -0.3710
 2738SOL    HW119847   2.015   2.028   6.648 -2.4697 -0.6797 -1.9790
 2738SOL    HW219848   2.013   2.169   6.685 -2.0388 -0.5349 -0.5295
 2739SOL     OW19849   1.924   2.953   5.110  0.0131  0.1834  0.1019
 2739SOL    HW119850   1.840   2.920   5.078 -0.2551  1.0780 -0.1150
 2739SOL    HW219851   1.973   2.871   5.106 -0.2236 -0.0387  1.7416
 2740SOL     OW19852   4.468   2.896  12.762  0.2681  0.3992 -0.2152
 2740SOL    HW119853   4.379   2.867  12.745 -0.4021  3.0525 -1.1564
 2740SOL    HW219854   4.468   2.886  12.857  3.5342 -1.5053 -0.3962
 2741SOL     OW19855   2.253   4.451   5.547 -0.5465  0.6710 -0.6254
 2741SOL    HW119856   2.331   4.475   5.598 -0.8213 -0.7117  0.4535
 2741SOL    HW219857   2.198   4.415   5.616  0.1899  2.0685  0.6697
 2742SOL     OW19858   0.769   0.320   3.702 -0.4302  0.7657 -0.0243
 2742SOL    HW119859   0.770   0.249   3.767 -0.1448 -1.0191 -1.9875
 2742SOL    HW219860   0.828   0.386   3.739 -0.6687  0.5405  0.7594
 2743SOL     OW19861   2.265   0.744   4.340  0.0492  0.4669  0.1648
 2743SOL    HW119862   2.294   0.765   4.429  0.0224  0.3067  0.2110
 2743SOL    HW219863   2.340   0.784   4.295  0.3671 -1.0526 -0.6452
 2744SOL     OW19864   3.683   0.048   7.448  0.3223 -0.7350 -0.2469
 2744SOL    HW119865   3.728   0.030   7.531 -0.2266  5.2633  1.3900
 2744SOL    HW219866   3.737   0.117   7.410  0.2826  0.5656  2.0512
 2745SOL     OW19867   1.274   1.499   7.938  0.4441 -0.1911 -0.3687
 2745SOL    HW119868   1.356   1.485   7.986  0.6290  0.6267 -0.4510
 2745SOL    HW219869   1.210   1.432   7.961  1.5071 -0.5701  1.5011
 2746SOL     OW19870   0.969   1.232  11.409 -0.4884  0.3132  0.4481
 2746SOL    HW119871   0.992   1.314  11.453 -1.1039  2.2539 -2.8370
 2746SOL    HW219872   0.999   1.249  11.320 -0.2128  3.2076  1.0744
 2747SOL     OW19873   2.532   0.526  14.685  0.3305 -0.0142  0.2973
 2747SOL    HW119874   2.511   0.619  14.695 -1.1455 -0.5710  2.4716
 2747SOL    HW219875   2.609   0.529  14.628 -0.5241  1.2030 -0.7716
 2748SOL     OW19876   0.643   3.888   5.737  0.2558 -0.1134 -0.1193
 2748SOL    HW119877   0.730   3.856   5.760 -0.2403  0.0844  2.0342
 2748SOL    HW219878   0.655   3.943   5.659  0.3324  1.0588  0.7246
 2749SOL     OW19879   4.249   3.912  14.233  0.5845 -0.2130  0.4587
 2749SOL    HW119880   4.170   3.944  14.190 -0.1452 -2.0009  0.4702
 2749SOL    HW219881   4.199   3.868  14.302  1.9128 -1.1474  0.8206
 2750SOL     OW19882   4.662   0.873   2.084 -0.3453 -0.2367 -0.4361
 2750SOL    HW119883   0.008   0.836   2.088 -0.9261 -1.5916 -0.0511
 2750SOL    HW219884   4.603   0.801   2.110 -0.1643 -0.9250 -1.9321
 2751SOL     OW19885   1.306   3.532   5.732 -0.1457  0.1843  0.5473
 2751SOL    HW119886   1.242   3.471   5.695  0.6712 -1.1147  1.2869
 2751SOL    HW219887   1.369   3.473   5.774 -0.0297 -0.5538 -0.6527
 2752SOL     OW19888   0.069   3.504   8.094 -0.0930  0.0329  0.2246
 2752SOL    HW119889   0.103   3.541   8.176  3.3862  0.1703 -1.2862
 2752SOL    HW219890   0.089   3.412   8.111 -0.8457 -0.5342 -2.0203
 2753SOL     OW19891   0.988   2.287   8.609  0.0803 -0.0269  0.1220
 2753SOL    HW119892   0.924   2.319   8.672  1.0038 -0.6081  1.3598
 2753SOL    HW219893   0.946   2.318   8.528  0.1198 -2.4222 -0.8252
 2754SOL     OW19894   0.872   2.042   6.171  0.0404 -0.7190 -0.1402
 2754SOL    HW119895   0.921   2.023   6.091  0.7623  0.0477  0.1179
 2754SOL    HW219896   0.924   1.999   6.239  2.1434  0.1664 -1.1878
 2755SOL     OW19897   4.522   2.195   7.232  0.0710 -0.2934  0.5100
 2755SOL    HW119898   4.580   2.163   7.301  0.5295 -1.9840 -0.6678
 2755SOL    HW219899   4.528   2.287   7.255  0.9976  0.0762 -1.2414
 2756SOL     OW19900   3.018   0.737   2.226 -0.1520 -0.1916  0.1178
 2756SOL    HW119901   3.047   0.800   2.291 -1.0304 -1.9446  2.2106
 2756SOL    HW219902   3.106   0.712   2.197  0.0170  1.9902 -1.2126
 2757SOL     OW19903   2.441   1.350   6.489  0.3385 -0.4577  0.4988
 2757SOL    HW119904   2.498   1.416   6.529  0.6001 -1.1984  1.3709
 2757SOL    HW219905   2.371   1.352   6.555 -2.4328  2.0924 -2.5310
 2758SOL     OW19906   0.779   4.238   3.085  0.0171 -0.0979  0.2633
 2758SOL    HW119907   0.822   4.313   3.045  1.2391 -0.6113  0.5905
 2758SOL    HW219908   0.738   4.189   3.014  1.0492  0.7486 -0.9166
 2759SOL     OW19909   0.920   2.684   8.617  0.0143  0.1857  0.0669
 2759SOL    HW119910   0.964   2.766   8.640  3.1087 -1.0138 -1.6366
 2759SOL    HW219911   0.954   2.660   8.531  1.0545 -2.3647  1.1922
 2760SOL     OW19912   0.196   4.269   6.048 -0.9655 -0.3609  0.0403
 2760SOL    HW119913   0.249   4.205   6.001  1.2923  0.9001  0.8620
 2760SOL    HW219914   0.158   4.315   5.973 -2.1622 -0.3681  0.6516
 2761SOL     OW19915   3.984   4.477   2.369  0.2315  0.4736  0.3506
 2761SOL    HW119916   3.910   4.423   2.399  0.3174 -0.9335 -1.9591
 2761SOL    HW219917   3.940   4.545   2.318 -0.4946 -1.2207 -1.2737
 2762SOL     OW19918   3.464   2.841   7.342  0.6299 -0.6554 -0.1110
 2762SOL    HW119919   3.470   2.793   7.260  3.7180 -1.4918  0.5936
 2762SOL    HW219920   3.550   2.884   7.349  0.5170 -0.4254 -0.1465
 2763SOL     OW19921   2.870   0.044  11.235  0.4799 -0.0252  0.2720
 2763SOL    HW119922   2.817   4.738  11.299 -0.8204 -1.5744 -1.9363
 2763SOL    HW219923   2.915   4.711  11.193  1.6490  0.5881  0.4432
 2764SOL     OW19924   1.257   4.432   9.631 -0.6934 -0.3359 -0.0492
 2764SOL    HW119925   1.300   4.513   9.660  0.6661 -1.1250  0.0993
 2764SOL    HW219926   1.328   4.369   9.625 -0.9164 -0.8317  2.6461
 2765SOL     OW19927   4.475   0.766   3.989  0.0951  0.2024  0.1518
 2765SOL    HW119928   4.409   0.713   3.944  2.6513 -1.3267 -1.8544
 2765SOL    HW219929   4.433   0.828   4.049 -1.7325 -0.0882 -0.8125
 2766SOL     OW19930   2.806   3.945   9.393 -0.0100 -0.0079 -0.4390
 2766SOL    HW119931   2.753   3.951   9.313 -0.1109  0.4236 -0.3376
 2766SOL    HW219932   2.834   3.854   9.397  0.5405  0.0946 -1.9978
 2767SOL     OW19933   0.631   4.490   2.372  0.2859  0.2737 -0.6536
 2767SOL    HW119934   0.674   4.562   2.417  0.1279 -0.5092  0.7455
 2767SOL    HW219935   0.543   4.492   2.409 -0.1840 -0.5918 -1.7009
 2768SOL     OW19936   1.335   2.798   7.759 -0.4729 -0.0400  0.3872
 2768SOL    HW119937   1.422   2.823   7.790 -1.4005  1.1435  2.0846
 2768SOL    HW219938   1.329   2.718   7.812  0.1628 -1.7967 -2.2053
 2769SOL     OW19939   2.357   1.477   3.633 -0.4409  0.8642 -0.2485
 2769SOL    HW119940   2.370   1.433   3.549  0.1972 -1.2769  0.9585
 2769SOL    HW219941   2.447   1.495   3.661 -1.2515  0.5462  2.5572
 2770SOL     OW19942   2.494   1.925   5.927  0.1441  0.8582  0.2079
 2770SOL    HW119943   2.536   1.940   5.842 -1.9704 -1.4797 -1.2356
 2770SOL    HW219944   2.403   1.939   5.901  1.2188  1.8479 -2.9938
 2771SOL     OW19945   1.000   3.566   9.349 -0.3215  0.4539  0.4453
 2771SOL    HW119946   1.047   3.603   9.424 -1.6720  0.7739  1.1405
 2771SOL    HW219947   1.051   3.611   9.282  2.0691 -2.1770  0.4996
 2772SOL     OW19948   4.518   4.199   7.508 -0.7984 -0.5733 -0.0069
 2772SOL    HW119949   4.526   4.278   7.456  1.6968 -0.5550  0.3996
 2772SOL    HW219950   4.424   4.190   7.490 -1.2603  1.4894  1.4071
 2773SOL     OW19951   2.098   0.622  16.473  0.7838 -0.0864 -0.1616
 2773SOL    HW119952   2.053   0.541  16.449 -0.3665  1.2727 -2.7003
 2773SOL    HW219953   2.072   0.615  16.565 -1.7273  1.7139 -0.7277
 2774SOL     OW19954   2.884   3.598   5.582  0.3210  0.3754 -0.6214
 2774SOL    HW119955   2.897   3.505   5.603  0.7049  0.2596 -1.3468
 2774SOL    HW219956   2.972   3.630   5.604  0.4833  0.0385 -0.7649
 2775SOL     OW19957   4.375   0.945  16.821  0.4784 -0.2014  0.1278
 2775SOL    HW119958   4.432   0.876  16.789  2.1473  0.2772  2.0472
 2775SOL    HW219959   4.438   1.013  16.800 -0.4867  0.7009  0.1499
 2776SOL     OW19960   1.616   0.706  16.621 -0.4116 -0.4158 -0.4527
 2776SOL    HW119961   1.530   0.744  16.639  0.6239  0.7660  2.1577
 2776SOL    HW219962   1.672   0.784  16.627 -0.4002 -0.3111 -2.0836
 2777SOL     OW19963   2.938   0.815   2.626 -0.4241 -0.1676 -0.7235
 2777SOL    HW119964   3.028   0.803   2.654  0.5324  1.7402 -2.9512
 2777SOL    HW219965   2.931   0.900   2.580  0.2824 -0.5162 -1.4693
 2778SOL     OW19966   1.631   4.302   1.500 -0.2562  0.2745 -0.1900
 2778SOL    HW119967   1.690   4.228   1.487  0.6027  0.4931  2.4048
 2778SOL    HW219968   1.667   4.340   1.580 -1.5744 -1.8679  1.4355
 2779SOL     OW19969   4.368   2.856  16.162 -0.1652 -0.8342  0.1053
 2779SOL    HW119970   4.360   2.935  16.215  2.4502 -0.5730  0.1272
 2779SOL    HW219971   4.340   2.879  16.074 -0.1421 -1.2474 -0.0101
 2780SOL     OW19972   4.553   4.324  11.945 -0.3542  0.0322 -0.5610
 2780SOL    HW119973   4.634   4.327  11.893  0.9456  1.5432  1.5090
 2780SOL    HW219974   4.552   4.230  11.960  0.8465 -0.1652 -1.6872
 2781SOL     OW19975   2.313   3.756  10.834 -0.0357 -0.3358  0.5501
 2781SOL    HW119976   2.363   3.746  10.916  0.8366 -2.3842 -0.2175
 2781SOL    HW219977   2.385   3.759  10.771 -0.8160  0.5816 -0.2800
 2782SOL     OW19978   3.374   3.957   4.577 -0.0435  0.0446  0.3761
 2782SOL    HW119979   3.465   3.980   4.560 -0.5783  0.7682 -1.4937
 2782SOL    HW219980   3.394   3.867   4.602 -1.2527 -0.2788  0.1921
 2783SOL     OW19981   0.075   1.048  13.491 -0.4489  0.4094 -0.6870
 2783SOL    HW119982   0.022   1.048  13.571  1.3547  0.8104  0.5031
 2783SOL    HW219983   0.143   1.108  13.521 -0.1959  0.5271 -1.4948
 2784SOL     OW19984   4.454   4.356   9.629 -0.0680 -0.2449  0.2284
 2784SOL    HW119985   4.542   4.319   9.620 -0.6525 -0.4457 -4.1927
 2784SOL    HW219986   4.425   4.298   9.700 -0.2363 -3.5759 -2.5786
 2785SOL     OW19987   2.816   1.277   3.299 -0.9823 -0.4688 -0.0665
 2785SOL    HW119988   2.781   1.207   3.244  1.3973 -0.8647 -1.0450
 2785SOL    HW219989   2.817   1.355   3.243  0.2268 -0.4472 -0.0202
 2786SOL     OW19990   2.782   1.778   7.160  0.3923  1.1782 -0.5725
 2786SOL    HW119991   2.794   1.869   7.187  1.6998  1.4656 -2.1154
 2786SOL    HW219992   2.810   1.738   7.242 -1.8003 -1.0003 -0.9031
 2787SOL     OW19993   4.391   1.802  17.723  1.0656 -0.0455  0.0905
 2787SOL    HW119994   4.353   1.852  17.651 -0.2014 -2.1642 -0.6876
 2787SOL    HW219995   4.459   1.869  17.735  0.1898  0.8883 -0.1204
 2788SOL     OW19996   0.344   2.171   4.558  0.1471 -0.4005 -0.2749
 2788SOL    HW119997   0.293   2.163   4.639  2.2298 -0.1693  1.0755
 2788SOL    HW219998   0.343   2.266   4.541 -2.6366 -0.2249  0.8572
 2789SOL     OW19999   0.004   2.545   2.350 -0.3023  0.3229  0.0062
 2789SOL    HW120000   0.065   2.614   2.376 -1.2990  0.4465  2.0001
 2789SOL    HW220001   0.007   2.560   2.256  2.0148  3.4330  0.5654
 2790SOL     OW20002   4.066   3.891  11.467  0.1928 -0.6976 -0.6780
 2790SOL    HW120003   4.128   3.841  11.415 -0.5288 -0.7218 -1.5079
 2790SOL    HW220004   4.048   3.965  11.409 -0.2358 -0.4172 -0.1860
 2791SOL     OW20005   2.761   4.346   6.107  0.5016 -0.7661  0.0386
 2791SOL    HW120006   2.757   4.251   6.122  3.0587 -0.5524  2.1090
 2791SOL    HW220007   2.822   4.355   6.034 -0.2832 -1.4141 -0.7006
 2792SOL     OW20008   0.604   3.657   3.907  0.7375 -0.1295 -0.4874
 2792SOL    HW120009   0.653   3.698   3.978  0.0090 -1.1673  0.6333
 2792SOL    HW220010   0.532   3.719   3.899  1.7817  0.6799 -3.3149
 2793SOL     OW20011   0.011   4.405   0.711 -0.1112 -0.1814  0.1317
 2793SOL    HW120012   0.046   4.351   0.782 -1.1011  0.0322  0.7786
 2793SOL    HW220013   4.681   4.454   0.751 -2.4165 -2.2084 -1.4569
 2794SOL     OW20014   2.406   0.153   4.074  0.8085 -0.1818 -0.3754
 2794SOL    HW120015   2.483   0.098   4.058  0.1616 -0.7976 -1.3164
 2794SOL    HW220016   2.391   0.123   4.164  3.2197  0.5353  0.2734
 2795SOL     OW20017   4.592   2.420   7.454 -0.5935 -0.4396  0.1579
 2795SOL    HW120018   4.537   2.488   7.412 -0.4738 -0.1775  0.4277
 2795SOL    HW220019   4.671   2.471   7.471 -0.7307 -0.1468 -0.0564
 2796SOL     OW20020   2.119   3.320  11.231  0.5607 -0.1634 -0.3127
 2796SOL    HW120021   2.116   3.380  11.306  1.7061 -0.3089 -0.1587
 2796SOL    HW220022   2.211   3.294  11.232  0.2244 -1.4009 -2.3770
 2797SOL     OW20023   0.911   3.208   3.991  0.2541  0.0341  0.4239
 2797SOL    HW120024   1.004   3.210   4.014  0.7451 -1.2702 -1.4134
 2797SOL    HW220025   0.916   3.165   3.906 -0.1221  1.7093 -0.4515
 2798SOL     OW20026   1.389   4.622   7.690  0.1797 -0.1155  0.0875
 2798SOL    HW120027   1.479   4.622   7.722  0.7856 -3.2242 -1.6595
 2798SOL    HW220028   1.395   4.660   7.602 -2.6275  1.3702  0.5574
 2799SOL     OW20029   2.381   4.181   6.578  0.2678 -0.2489 -0.9875
 2799SOL    HW120030   2.396   4.094   6.542  0.1998  0.3932 -2.5643
 2799SOL    HW220031   2.296   4.206   6.542 -0.5625  0.9033  1.7476
 2800SOL     OW20032   0.297   0.216   8.985  0.2771  0.8807 -0.2329
 2800SOL    HW120033   0.319   0.308   9.004 -0.0486  0.7726  0.6558
 2800SOL    HW220034   0.326   0.175   9.067 -0.8131 -0.2167 -0.4010
 2801SOL     OW20035   4.673   3.507   5.401 -0.4568  0.2419 -0.5467
 2801SOL    HW120036   0.022   3.528   5.381  0.2259 -0.3635  1.9844
 2801SOL    HW220037   4.666   3.568   5.474  1.6092  1.1469 -1.1208
 2802SOL     OW20038   4.588   1.561   4.031  0.2413 -0.4009  0.6877
 2802SOL    HW120039   4.609   1.520   3.947  1.8370 -0.7834  1.2670
 2802SOL    HW220040   4.493   1.552   4.031  0.2834 -0.9676  4.2578
 2803SOL     OW20041   0.114   3.993   8.980  0.6115  0.3585  0.4579
 2803SOL    HW120042   0.040   4.053   8.971  0.4233  0.0159 -0.2603
 2803SOL    HW220043   0.174   4.054   9.024  2.0176 -0.9766  0.3977
 2804SOL     OW20044   1.876   2.253   4.841 -0.5406  0.2289 -0.9888
 2804SOL    HW120045   1.936   2.196   4.793  1.8396 -0.0619  2.2850
 2804SOL    HW220046   1.889   2.228   4.932  0.0217 -0.5823 -1.2943
 2805SOL     OW20047   4.155   2.955   0.416 -0.3016  0.3315 -0.1233
 2805SOL    HW120048   4.217   3.027   0.413 -1.2827  1.1180 -1.8524
 2805SOL    HW220049   4.196   2.885   0.365 -0.1956 -0.7960  1.4853
 2806SOL     OW20050   0.273   3.003   8.760  0.4700 -0.4916 -0.3526
 2806SOL    HW120051   0.287   2.951   8.681  0.2420 -0.4556 -0.4175
 2806SOL    HW220052   0.353   3.055   8.765  0.9905 -1.4150  0.7883
 2807SOL     OW20053   0.048   1.549   6.774 -0.0721 -0.6150 -0.5759
 2807SOL    HW120054   0.009   1.462   6.779 -1.1597  0.0537  2.8056
 2807SOL    HW220055   0.056   1.560   6.869 -0.4876  0.1127 -0.6238
 2808SOL     OW20056   1.111   4.145   8.908 -0.4335  0.0114  0.0629
 2808SOL    HW120057   1.091   4.070   8.964  0.5951 -0.5465 -0.2909
 2808SOL    HW220058   1.195   4.115   8.872 -1.2319  0.0624 -1.8676
 2809SOL     OW20059   0.283   1.555   9.888 -1.1497  0.2166 -0.0004
 2809SOL    HW120060   0.238   1.603   9.957  1.0200  2.3253 -0.0709
 2809SOL    HW220061   0.234   1.473   9.884  0.3048 -0.6614  0.0849
 2810SOL     OW20062   4.038   0.160   4.757  0.5588 -0.0957  0.1639
 2810SOL    HW120063   3.987   0.212   4.819  1.9407 -1.1547  2.2276
 2810SOL    HW220064   4.012   0.198   4.674  0.2208  0.1977  0.4035
 2811SOL     OW20065   2.430   4.229  10.568  0.2771 -0.0048 -0.0808
 2811SOL    HW120066   2.414   4.216  10.475 -3.0784  0.3022  0.4456
 2811SOL    HW220067   2.429   4.138  10.598 -0.3193 -0.0583 -0.2620
 2812SOL     OW20068   1.825   3.184   6.510 -0.0595 -0.1495  0.2131
 2812SOL    HW120069   1.899   3.239   6.484 -0.1487  0.6909  1.7391
 2812SOL    HW220070   1.803   3.232   6.591 -1.7814  0.4528 -0.5977
 2813SOL     OW20071   0.403   4.284   5.080 -0.2148 -0.6077  0.0277
 2813SOL    HW120072   0.477   4.227   5.058 -0.7754 -1.4008  0.2210
 2813SOL    HW220073   0.421   4.361   5.027 -1.2992  0.0124  0.5771
 2814SOL     OW20074   2.663   1.516  14.911 -0.0058 -0.2738  0.4510
 2814SOL    HW120075   2.653   1.428  14.949 -0.7866 -0.7437 -0.8116
 2814SOL    HW220076   2.616   1.513  14.827  0.5550 -2.3726  0.1956
 2815SOL     OW20077   1.014   0.085  10.218 -0.7666  0.4626 -0.0499
 2815SOL    HW120078   1.013   0.016  10.284  0.0731  1.7437  1.3179
 2815SOL    HW220079   1.065   0.161  10.248 -0.5421 -0.3395  1.5526
 2816SOL     OW20080   1.525   1.580  16.030  0.7054 -0.5009  0.1142
 2816SOL    HW120081   1.550   1.663  15.988 -4.1062  1.3708  0.9886
 2816SOL    HW220082   1.430   1.580  16.042  0.6052  3.0626 -0.5088
 2817SOL     OW20083   0.057   4.310   4.236  0.2470 -0.1005  0.3148
 2817SOL    HW120084   0.037   4.266   4.153  1.6472 -0.0655 -0.0480
 2817SOL    HW220085   4.710   4.340   4.256 -0.0703 -2.4263  2.3272
 2818SOL     OW20086   1.914   3.054  14.473  0.6863 -0.5257  0.2218
 2818SOL    HW120087   1.844   3.088  14.529 -0.2742  0.6306 -1.6854
 2818SOL    HW220088   1.989   3.108  14.499 -0.3808  1.4226 -0.7165
 2819SOL     OW20089   3.971   3.707   7.858  0.1549 -0.6942 -0.0560
 2819SOL    HW120090   3.922   3.789   7.860  1.0081 -0.1349 -1.4606
 2819SOL    HW220091   3.950   3.678   7.946  0.4417 -1.2864 -0.1794
 2820SOL     OW20092   3.097   4.724   9.240 -0.3129  0.2308 -0.7954
 2820SOL    HW120093   3.169   0.046   9.241 -0.6211  0.6131 -1.8864
 2820SOL    HW220094   3.036   0.040   9.286 -0.1346 -0.7447  0.6551
 2821SOL     OW20095   0.037   0.671   8.821 -0.4363 -0.0024 -0.1586
 2821SOL    HW120096   0.057   0.619   8.898  3.1576  1.2406 -0.2630
 2821SOL    HW220097   0.110   0.732   8.814 -0.4583  0.1002  0.5325
 2822SOL     OW20098   2.788   1.338   0.981 -0.0168  0.1630 -0.0551
 2822SOL    HW120099   2.863   1.339   0.921 -1.3831 -0.5955 -1.7902
 2822SOL    HW220100   2.837   1.387   1.046  0.2068  0.6743 -0.6136
 2823SOL     OW20101   1.187   3.376  10.585 -0.0186 -0.5398  0.0761
 2823SOL    HW120102   1.214   3.442  10.521  3.5327 -0.7099  1.3805
 2823SOL    HW220103   1.107   3.341  10.547 -0.2804  0.3212 -0.1686
 2824SOL     OW20104   4.093   2.213  12.472 -0.3431  0.1634  0.2888
 2824SOL    HW120105   4.091   2.121  12.444  0.9141  0.1404  0.2668
 2824SOL    HW220106   4.006   2.244  12.445 -0.4820  0.4632  1.0946
 2825SOL     OW20107   2.616   2.762  14.285  0.0230 -0.7708 -0.0642
 2825SOL    HW120108   2.648   2.674  14.305  1.7702 -0.2285 -0.4234
 2825SOL    HW220109   2.542   2.748  14.226 -0.7856 -0.6380  0.9410
 2826SOL     OW20110   3.624   3.588   8.129  0.0797 -0.5064 -0.1791
 2826SOL    HW120111   3.698   3.641   8.157  0.2109 -1.4271  1.1843
 2826SOL    HW220112   3.666   3.507   8.101  0.7403  0.2364 -1.3326
 2827SOL     OW20113   4.273   4.397  14.643  0.3084  0.3036  0.1016
 2827SOL    HW120114   4.278   4.329  14.577 -1.1429 -1.2359  1.5677
 2827SOL    HW220115   4.186   4.436  14.631  0.2941  0.8916  2.0693
 2828SOL     OW20116   3.577   2.178  11.035 -0.1916 -0.1961 -0.8599
 2828SOL    HW120117   3.652   2.230  11.064 -0.0127 -1.2519  0.5776
 2828SOL    HW220118   3.534   2.238  10.973  0.1456  1.0521  0.1058
 2829SOL     OW20119   3.997   4.500  14.623 -0.1891  0.3692 -0.0350
 2829SOL    HW120120   4.046   4.561  14.567  1.5412 -0.6225  0.3762
 2829SOL    HW220121   3.934   4.465  14.561 -0.7060  1.2598 -0.0182
 2830SOL     OW20122   1.134   2.895  11.139 -0.0377  0.2887 -0.4084
 2830SOL    HW120123   1.055   2.866  11.093  0.3847 -1.4623 -0.0050
 2830SOL    HW220124   1.128   2.984  11.103  1.8799  0.9632  0.9655
 2831SOL     OW20125   0.742   4.523   5.998  0.1733 -0.2644 -0.0413
 2831SOL    HW120126   0.701   4.609   5.988 -0.3234 -0.6073 -0.8689
 2831SOL    HW220127   0.695   4.503   6.079 -1.1954  0.7936 -0.5725
 2832SOL     OW20128   0.834   3.717   9.973 -0.1750  0.0685  0.8742
 2832SOL    HW120129   0.923   3.682   9.977  0.0361  0.5434  0.3355
 2832SOL    HW220130   0.803   3.633  10.007 -1.0455 -0.2744 -0.7849
 2833SOL     OW20131   3.055   1.438   4.441  0.5959 -0.3348  0.1951
 2833SOL    HW120132   3.150   1.438   4.452  0.6018  0.9371  0.2300
 2833SOL    HW220133   3.038   1.531   4.425  2.5520 -0.0631 -0.3075
 2834SOL     OW20134   4.661   0.977   6.661 -0.2132  0.4951 -0.0795
 2834SOL    HW120135   4.735   0.952   6.717  1.6475  2.4413 -1.6514
 2834SOL    HW220136   4.711   1.012   6.587 -0.1041  0.9961  0.2341
 2835SOL     OW20137   2.884   1.081   2.819 -0.3021  0.0557  0.1042
 2835SOL    HW120138   2.849   1.064   2.732 -0.8958 -0.4349  0.4364
 2835SOL    HW220139   2.973   1.106   2.797 -0.6401  0.9216 -0.2549
 2836SOL     OW20140   4.660   2.584   5.614 -0.0099 -0.6939 -0.1282
 2836SOL    HW120141   0.013   2.594   5.631 -0.2170  2.0168 -0.4881
 2836SOL    HW220142   4.619   2.587   5.700 -3.3258  1.1799 -1.7776
 2837SOL     OW20143   4.437   4.305   7.995  0.3434  0.0966  0.3743
 2837SOL    HW120144   4.382   4.293   8.073 -0.7055 -0.9210 -0.5159
 2837SOL    HW220145   4.414   4.396   7.975 -0.4125  0.3637  2.4794
 2838SOL     OW20146   3.053   4.153   1.063  0.5619  0.0590 -0.0412
 2838SOL    HW120147   3.027   4.134   1.153 -0.0476  2.1390  0.2356
 2838SOL    HW220148   3.048   4.249   1.066  2.9398  0.2108 -0.6592
 2839SOL     OW20149   0.824   2.803   9.936 -0.6480  0.3749  0.1833
 2839SOL    HW120150   0.779   2.749   9.871  0.8154  1.5323 -1.8157
 2839SOL    HW220151   0.754   2.864   9.956  0.0130  1.0300  0.5180
 2840SOL     OW20152   0.303   3.834   6.232  0.1768 -0.3696 -0.2606
 2840SOL    HW120153   0.345   3.829   6.146 -0.4330 -0.7967 -0.5327
 2840SOL    HW220154   0.365   3.889   6.280  0.0595 -0.7557  0.3312
 2841SOL     OW20155   2.031   0.836   4.552 -0.2089 -0.1168 -0.1005
 2841SOL    HW120156   2.126   0.844   4.551 -0.2016 -0.6353 -3.3105
 2841SOL    HW220157   2.005   0.924   4.580  0.1339  0.3821 -1.3381
 2842SOL     OW20158   3.267   2.966   7.982 -0.3462 -0.0367  0.1389
 2842SOL    HW120159   3.280   2.949   7.888 -0.4157 -2.7676  0.6207
 2842SOL    HW220160   3.187   2.914   7.987 -1.0242  0.9930  0.0003
 2843SOL     OW20161   2.754   2.902  14.099 -0.1332 -0.8716 -0.5595
 2843SOL    HW120162   2.732   2.995  14.104  1.2056 -0.5148 -1.4006
 2843SOL    HW220163   2.696   2.854  14.159  0.3117 -1.3308 -0.4868
 2844SOL     OW20164   0.991   1.982  12.420  0.7942  0.3528 -0.5683
 2844SOL    HW120165   1.049   1.906  12.427 -2.3143 -2.0786 -1.4272
 2844SOL    HW220166   0.918   1.957  12.476  2.3576  1.4420  1.9809
 2845SOL     OW20167   0.854   0.221  13.981  0.0666 -0.4529  0.7506
 2845SOL    HW120168   0.867   0.171  13.901 -2.6317 -1.8134  1.1625
 2845SOL    HW220169   0.920   0.286  13.958 -1.7154  1.5872  1.4696
 2846SOL     OW20170   2.661   4.254   1.677  0.0541  0.3141  0.8317
 2846SOL    HW120171   2.746   4.226   1.710 -1.0533 -2.7835  1.0563
 2846SOL    HW220172   2.617   4.257   1.762  1.6079 -1.0162  1.6732
 2847SOL     OW20173   1.867   4.284   9.993 -0.5152  0.4895  0.1597
 2847SOL    HW120174   1.957   4.251   9.989 -1.4334 -2.0929  0.8567
 2847SOL    HW220175   1.823   4.213  10.039 -0.5552 -0.2233 -0.9978
 2848SOL     OW20176   2.849   3.652   3.146 -0.1360 -0.9105  0.3126
 2848SOL    HW120177   2.883   3.566   3.172  0.1055 -0.8202  0.2934
 2848SOL    HW220178   2.759   3.644   3.179  0.0607 -0.9736  0.8395
 2849SOL     OW20179   1.764   3.196   7.955 -0.1397 -0.1035  0.0031
 2849SOL    HW120180   1.745   3.169   8.045 -1.1156 -0.1872 -0.2306
 2849SOL    HW220181   1.747   3.289   7.967  1.8294  0.2597  0.0497
 2850SOL     OW20182   4.637   1.291   7.840  0.6901 -0.3888 -0.1887
 2850SOL    HW120183   4.689   1.210   7.843  0.3700 -0.5373  1.1017
 2850SOL    HW220184   4.631   1.314   7.747 -0.7143 -0.4032 -0.0904
 2851SOL     OW20185   0.925   2.600  16.807  0.3693  0.5178  0.2678
 2851SOL    HW120186   0.876   2.551  16.742  0.3041 -1.4692  1.8109
 2851SOL    HW220187   0.918   2.539  16.880  0.5771 -0.2313 -0.3500
 2852SOL     OW20188   2.088   3.389   7.954  0.3119 -0.7827  0.0976
 2852SOL    HW120189   2.111   3.463   8.010 -2.4498 -1.4895  2.1409
 2852SOL    HW220190   2.034   3.427   7.884  1.2094 -0.7720 -0.5921
 2853SOL     OW20191   0.687   3.639   3.272  0.7291  0.3824 -0.4199
 2853SOL    HW120192   0.662   3.653   3.363 -0.1480 -1.2844 -0.4062
 2853SOL    HW220193   0.763   3.584   3.288  0.6905 -0.1210 -1.9186
 2854SOL     OW20194   0.729   1.725   7.821 -0.3789 -0.2843  0.2154
 2854SOL    HW120195   0.738   1.780   7.743 -1.1076  0.2781  0.5295
 2854SOL    HW220196   0.641   1.692   7.803 -0.5247  1.1714 -1.6932
 2855SOL     OW20197   2.301   1.954   4.953 -0.9135 -0.3421 -0.2396
 2855SOL    HW120198   2.261   2.035   4.983 -0.7673 -0.4594  0.2606
 2855SOL    HW220199   2.335   1.978   4.866  0.7251  1.0001  0.7707
 2856SOL     OW20200   2.379   1.947   1.966 -0.2257 -0.1235 -0.7954
 2856SOL    HW120201   2.349   1.939   1.875  2.5500 -0.9916 -1.6633
 2856SOL    HW220202   2.475   1.939   1.960 -0.4168 -3.0925  0.3880
 2857SOL     OW20203   3.055   2.982   1.778  0.3781 -0.0455  0.2211
 2857SOL    HW120204   3.055   3.062   1.831 -1.2836 -1.0148  1.6659
 2857SOL    HW220205   3.143   3.000   1.746  0.1990 -0.6595 -0.5991
 2858SOL     OW20206   0.584   0.323   7.496 -0.3923  0.8221 -0.6104
 2858SOL    HW120207   0.569   0.411   7.532  0.0633  1.1920 -1.3317
 2858SOL    HW220208   0.649   0.330   7.427  2.0701  1.6376  1.7946
 2859SOL     OW20209   2.800   3.126   2.499  0.8912 -0.6796  0.1514
 2859SOL    HW120210   2.772   3.095   2.413 -1.3221  2.3260 -0.1791
 2859SOL    HW220211   2.782   3.056   2.563 -0.2333  0.7218  1.3848
 2860SOL     OW20212   2.613   4.398   6.551 -0.1671 -0.4991 -0.0024
 2860SOL    HW120213   2.587   4.460   6.484  0.3767 -1.9263 -1.5382
 2860SOL    HW220214   2.529   4.357   6.573 -0.7692  0.5143 -0.4383
 2861SOL     OW20215   0.958   2.377   9.948  0.6150 -0.0064  0.4673
 2861SOL    HW120216   0.932   2.296   9.992  0.4866 -0.2102  0.0217
 2861SOL    HW220217   0.887   2.433   9.980  1.3173  0.5165  1.0899
 2862SOL     OW20218   1.374   0.340   9.161 -0.0952 -0.3449  0.1412
 2862SOL    HW120219   1.468   0.343   9.146 -0.2931  3.3519 -0.3713
 2862SOL    HW220220   1.375   0.271   9.228  1.5621 -0.5768 -0.1368
 2863SOL     OW20221   2.197   3.628  14.576  0.0456 -0.1141 -0.1281
 2863SOL    HW120222   2.122   3.576  14.548 -0.4428  0.4535  0.1193
 2863SOL    HW220223   2.156   3.712  14.597  1.0483  0.1284  0.8955
 2864SOL     OW20224   3.256   1.142  15.851 -0.3634  0.3909  0.5284
 2864SOL    HW120225   3.340   1.129  15.896  0.1174 -2.0198 -1.0897
 2864SOL    HW220226   3.240   1.236  15.856 -0.1978  0.3281  2.3248
 2865SOL     OW20227   3.724   4.709   5.545 -0.3012 -0.1586 -0.1940
 2865SOL    HW120228   3.690   0.047   5.585  0.0415  0.0198 -0.2609
 2865SOL    HW220229   3.720   4.731   5.452  0.1029  0.6445 -0.0186
 2866SOL     OW20230   1.418   1.658   5.771 -0.0831 -0.5783 -0.2535
 2866SOL    HW120231   1.441   1.614   5.853  0.9303 -0.9891 -0.7574
 2866SOL    HW220232   1.499   1.660   5.721  1.3295 -1.1781  2.0007
 2867SOL     OW20233   3.586   1.132   6.540 -0.0917  0.0105 -0.2849
 2867SOL    HW120234   3.622   1.052   6.578  0.3205  0.5068  0.3690
 2867SOL    HW220235   3.667   1.184   6.535 -0.7188  0.9575 -0.5677
 2868SOL     OW20236   3.712   1.827   8.484  0.5572  0.3886 -0.2038
 2868SOL    HW120237   3.715   1.881   8.563  0.1189  1.9293 -1.2473
 2868SOL    HW220238   3.639   1.868   8.439  0.6278  0.7696  0.0260
 2869SOL     OW20239   3.798   0.784   6.318 -0.1256 -0.0329 -0.0821
 2869SOL    HW120240   3.735   0.726   6.274  0.3266 -1.1108  0.6801
 2869SOL    HW220241   3.740   0.857   6.338  0.4963 -0.1864  2.2021
 2870SOL     OW20242   2.224   0.715   7.096  0.1814  0.0547  0.5347
 2870SOL    HW120243   2.178   0.780   7.043  0.8783  0.7797  0.8198
 2870SOL    HW220244   2.237   0.757   7.181  1.0499 -0.4554  0.6521
 2871SOL     OW20245   2.954   1.840   2.398  0.1115 -0.2984 -0.0803
 2871SOL    HW120246   2.971   1.892   2.476  1.4368 -0.2812 -0.3743
 2871SOL    HW220247   2.924   1.756   2.431  2.2833 -0.5280  1.2803
 2872SOL     OW20248   4.333   1.559   3.960  0.2341  0.5078  0.1417
 2872SOL    HW120249   4.286   1.481   3.929  1.4675  0.3788 -1.3989
 2872SOL    HW220250   4.409   1.570   3.903  0.5917  1.4868  0.8066
 2873SOL     OW20251   2.774   2.453   8.132 -0.3601  0.6626 -0.2680
 2873SOL    HW120252   2.687   2.489   8.112  0.0932  1.0071 -1.6704
 2873SOL    HW220253   2.775   2.380   8.070  2.2155  0.6131 -0.1660
 2874SOL     OW20254   2.175   3.355   7.303 -0.5064 -0.2092 -0.0660
 2874SOL    HW120255   2.110   3.296   7.341  0.1596 -1.5847 -1.0959
 2874SOL    HW220256   2.210   3.306   7.229 -0.7377  0.2009 -0.4474
 2875SOL     OW20257   0.809   3.451   9.013  0.2861  0.3730 -0.2064
 2875SOL    HW120258   0.847   3.538   9.027  1.7903 -0.3006 -0.1861
 2875SOL    HW220259   0.890   3.404   8.995 -0.7440 -1.5390  0.1194
 2876SOL     OW20260   0.442   2.851  13.504  0.1994  0.6801 -0.5310
 2876SOL    HW120261   0.487   2.854  13.589 -1.2837 -1.0517  0.3125
 2876SOL    HW220262   0.473   2.764  13.482 -0.5004  0.8848 -2.2739
 2877SOL     OW20263   0.269   0.256  10.175 -0.6022 -0.5533  0.0129
 2877SOL    HW120264   0.251   0.210  10.093  0.1067 -0.6503 -0.0859
 2877SOL    HW220265   0.359   0.288  10.172 -1.2001  1.3882  2.3012
 2878SOL     OW20266   0.945   4.449   2.109 -0.4549 -0.4127 -0.4310
 2878SOL    HW120267   0.985   4.484   2.188 -0.2746  2.2821 -1.6844
 2878SOL    HW220268   1.016   4.421   2.052  1.9031 -1.1076  2.8842
 2879SOL     OW20269   4.049   3.352   7.727 -0.2019  0.0445  0.3421
 2879SOL    HW120270   3.973   3.293   7.729 -0.0921 -0.0790  0.8752
 2879SOL    HW220271   4.090   3.335   7.642  1.9882 -2.0559  1.8226
 2880SOL     OW20272   0.559   4.156  13.985  0.1710 -0.8116  0.1040
 2880SOL    HW120273   0.618   4.226  13.957  0.6995 -0.0448  3.1204
 2880SOL    HW220274   0.617   4.083  14.007  1.8464  0.1640 -1.1027
 2881SOL     OW20275   0.505   3.346   5.933 -0.0986 -0.0781  0.3891
 2881SOL    HW120276   0.579   3.372   5.878  0.2845  0.2626  1.0710
 2881SOL    HW220277   0.485   3.426   5.982  0.3574 -0.4501  1.1909
 2882SOL     OW20278   2.707   2.033  14.837  0.3387 -0.7452 -0.3288
 2882SOL    HW120279   2.615   2.010  14.825  0.4688 -1.0454 -0.7674
 2882SOL    HW220280   2.735   1.949  14.871  2.4642  0.0014 -0.2599
 2883SOL     OW20281   4.338   4.267   6.324  0.2539  0.5604 -0.2796
 2883SOL    HW120282   4.384   4.190   6.291 -0.9111 -0.4287  0.3932
 2883SOL    HW220283   4.363   4.263   6.416  0.1425 -1.6340 -0.3249
 2884SOL     OW20284   2.080   2.074   8.662 -0.2113 -0.1512 -0.4868
 2884SOL    HW120285   2.149   2.123   8.616  2.2540 -0.3637  2.9400
 2884SOL    HW220286   2.128   2.049   8.741 -0.1999 -1.3277 -0.8709
 2885SOL     OW20287   3.506   1.126   8.227 -0.3535 -0.7124  0.2433
 2885SOL    HW120288   3.595   1.161   8.231 -0.8410  0.5533 -0.1017
 2885SOL    HW220289   3.472   1.184   8.294  0.8816  0.3088 -0.0095
 2886SOL     OW20290   3.866   2.004   6.272  0.0319 -0.3149 -0.0321
 2886SOL    HW120291   3.835   2.051   6.194  0.7639  0.3320  0.0608
 2886SOL    HW220292   3.815   2.037   6.346  2.1173 -0.7534  1.5695
 2887SOL     OW20293   1.378   0.714  11.880  0.1754  0.5335  0.4780
 2887SOL    HW120294   1.299   0.764  11.865 -0.2673  0.1301  1.5041
 2887SOL    HW220295   1.448   0.759  11.833 -1.1400  0.9456 -1.0691
 2888SOL     OW20296   2.501   3.108   5.402 -0.2371  0.2049 -0.2951
 2888SOL    HW120297   2.560   3.071   5.468  0.0419 -0.3182 -0.8419
 2888SOL    HW220298   2.417   3.090   5.444 -0.2785  3.3493  1.0439
 2889SOL     OW20299   2.267   1.169   1.824  0.3598 -0.1967 -0.2683
 2889SOL    HW120300   2.344   1.114   1.809 -1.0156 -2.3972  0.8093
 2889SOL    HW220301   2.207   1.095   1.825 -0.7895  0.7441 -0.2170
 2890SOL     OW20302   2.379   3.913   7.613  0.4367  0.1199 -0.1016
 2890SOL    HW120303   2.283   3.915   7.613  0.4136 -1.0000 -0.5585
 2890SOL    HW220304   2.403   3.828   7.651 -1.1790  0.0908  0.8711
 2891SOL     OW20305   1.838   1.460  14.328 -0.0286  0.1489  0.2173
 2891SOL    HW120306   1.870   1.457  14.238 -2.3574 -0.3959 -0.5869
 2891SOL    HW220307   1.772   1.528  14.315  0.7319  0.7625 -0.4486
 2892SOL     OW20308   2.677   3.404   4.166  0.1967  0.6490  0.1332
 2892SOL    HW120309   2.582   3.395   4.165  0.1654  0.9402  0.7232
 2892SOL    HW220310   2.696   3.440   4.252 -0.3380  1.5368 -0.1188
 2893SOL     OW20311   0.825   4.641   7.064 -0.5536  0.6515  0.1419
 2893SOL    HW120312   0.784   4.716   7.106 -1.7353 -0.6745  1.3280
 2893SOL    HW220313   0.765   4.626   6.990 -0.4102 -0.2181  0.2005
 2894SOL     OW20314   4.099   1.976   3.504 -0.0287 -0.0776 -0.3593
 2894SOL    HW120315   4.184   1.964   3.460  0.2446 -1.6616  0.6089
 2894SOL    HW220316   4.051   1.960   3.423  0.9657  0.0427 -0.9845
 2895SOL     OW20317   3.567   4.456  17.682  0.0369 -0.1330 -0.1124
 2895SOL    HW120318   3.527   4.540  17.706  0.3425 -0.3353  1.0781
 2895SOL    HW220319   3.606   4.486  17.600 -0.5077  2.0707  0.4444
 2896SOL     OW20320   1.475   4.291   7.168  0.6065 -0.6152  0.4596
 2896SOL    HW120321   1.460   4.198   7.153 -0.4050 -1.0327  4.1504
 2896SOL    HW220322   1.564   4.307   7.136 -0.4381  3.0915 -0.6838
 2897SOL     OW20323   3.216   0.865   7.700 -0.1595 -0.7829 -0.3159
 2897SOL    HW120324   3.293   0.843   7.648  1.2979  1.4516  0.8768
 2897SOL    HW220325   3.153   0.796   7.681  1.4232 -1.6664 -2.2600
 2898SOL     OW20326   1.566   0.235   8.721 -0.0048  0.0213  0.9296
 2898SOL    HW120327   1.487   0.183   8.736  0.0489 -0.4970 -0.6211
 2898SOL    HW220328   1.523   0.312   8.684 -0.4844 -1.4225 -1.5223
 2899SOL     OW20329   4.621   2.875   7.881 -0.2565  0.4751  0.1777
 2899SOL    HW120330   4.619   2.809   7.812 -1.1367 -0.6528  1.2825
 2899SOL    HW220331   4.596   2.954   7.832  1.0506  1.4699  1.1082
 2900SOL     OW20332   4.612   3.253   5.343  0.0997  0.7074  0.0023
 2900SOL    HW120333   4.566   3.262   5.427  0.1284 -3.8231  0.4962
 2900SOL    HW220334   4.658   3.336   5.335  0.2383  0.5935 -0.3759
 2901SOL     OW20335   0.162   2.424   0.168  0.0687 -0.2362  0.5072
 2901SOL    HW120336   0.153   2.464   0.255  0.3740  0.1070  0.3818
 2901SOL    HW220337   0.089   2.364   0.156  0.7153 -1.3118  1.9575
 2902SOL     OW20338   4.168   0.802  12.159  0.0598  0.2919 -0.5962
 2902SOL    HW120339   4.228   0.856  12.209  0.0806 -0.1468 -0.1536
 2902SOL    HW220340   4.109   0.860  12.110 -0.3316  0.2155 -0.2132
 2903SOL     OW20341   2.922   3.918   9.046  0.3055 -0.3310  0.0793
 2903SOL    HW120342   2.964   3.838   9.079 -1.1375 -0.6791  1.0907
 2903SOL    HW220343   2.837   3.885   9.018 -0.0707  0.7450 -0.0125
 2904SOL     OW20344   3.752   2.167   6.092  0.6704  0.1122  0.0862
 2904SOL    HW120345   3.791   2.215   6.019 -0.2861  0.7241 -0.0128
 2904SOL    HW220346   3.660   2.162   6.067  0.9170  1.2993 -1.0891
 2905SOL     OW20347   0.195   4.675   6.189 -0.9468  0.0549 -0.1255
 2905SOL    HW120348   0.111   4.708   6.220 -0.9563  1.6565 -1.8773
 2905SOL    HW220349   0.246   0.012   6.205  0.6954 -1.1411  0.4867
 2906SOL     OW20350   3.544   2.484   6.080  0.1582  0.7320 -0.5917
 2906SOL    HW120351   3.510   2.519   6.162 -1.5127  3.0091 -2.2679
 2906SOL    HW220352   3.635   2.512   6.085  0.2021  1.1931 -3.6604
 2907SOL     OW20353   3.578   0.149   8.173 -0.0395  0.3566  0.5166
 2907SOL    HW120354   3.639   0.149   8.247  2.0476  0.8748 -1.2177
 2907SOL    HW220355   3.609   0.071   8.127 -0.7847 -0.3007  1.1310
 2908SOL     OW20356   2.437   1.252   5.162 -0.1879  0.5111  0.1923
 2908SOL    HW120357   2.403   1.268   5.074 -0.5877  0.2980  0.3064
 2908SOL    HW220358   2.424   1.335   5.207 -2.9064 -1.7170  3.4996
 2909SOL     OW20359   0.588   4.388   3.906  0.1183  0.5781 -0.3202
 2909SOL    HW120360   0.554   4.448   3.840  0.1677  1.1586  0.1826
 2909SOL    HW220361   0.535   4.314   3.876  0.5664  1.0578 -2.3168
 2910SOL     OW20362   2.056   1.844   6.670 -0.2412 -0.1560  0.5899
 2910SOL    HW120363   2.008   1.763   6.655  0.4525 -0.7468  1.5844
 2910SOL    HW220364   2.106   1.852   6.589 -1.7950  1.9776 -0.1705
 2911SOL     OW20365   3.098   1.905  17.419  0.7638 -0.0214 -0.1044
 2911SOL    HW120366   3.166   1.958  17.378  0.2495 -0.0158 -0.9517
 2911SOL    HW220367   3.083   1.833  17.357  0.5474 -0.2167  0.1744
 2912SOL     OW20368   2.087   2.377   2.963  0.6658 -0.0270  0.3434
 2912SOL    HW120369   2.017   2.320   2.929 -0.7679  2.2973 -0.6202
 2912SOL    HW220370   2.035   2.415   3.034 -1.4237 -0.2331 -1.0651
 2913SOL     OW20371   0.312   0.270   2.482  0.1900  0.6062  0.3450
 2913SOL    HW120372   0.252   0.325   2.432 -1.2136 -1.6024 -0.3705
 2913SOL    HW220373   0.295   0.304   2.570  0.0130 -0.4634  0.7165
 2914SOL     OW20374   2.145   3.649   9.921 -0.1064 -0.5051  0.6065
 2914SOL    HW120375   2.113   3.585   9.984 -0.1341  1.2307  2.3508
 2914SOL    HW220376   2.206   3.595   9.871  0.2244  1.2199 -0.8798
 2915SOL     OW20377   1.786   4.380   5.654 -0.3240 -0.3001 -0.2724
 2915SOL    HW120378   1.728   4.305   5.667  0.0001 -0.6350 -0.8202
 2915SOL    HW220379   1.827   4.349   5.574 -0.4428 -2.0242  0.3379
 2916SOL     OW20380   4.466   4.588   7.959 -0.0821 -0.2252 -0.5392
 2916SOL    HW120381   4.435   4.595   8.050  0.2973 -0.0753 -0.4220
 2916SOL    HW220382   4.543   4.645   7.955  0.4415 -0.8053  0.9619
 2917SOL     OW20383   3.015   0.335   2.167 -0.1963 -0.3753  0.1766
 2917SOL    HW120384   2.966   0.314   2.247  1.2350 -0.5747  1.0124
 2917SOL    HW220385   2.954   0.395   2.123  1.5374  1.0330 -0.3084
 2918SOL     OW20386   0.169   1.192   9.468  0.2708 -0.9146 -0.1845
 2918SOL    HW120387   0.100   1.252   9.494 -0.2731 -0.9405 -1.5601
 2918SOL    HW220388   0.123   1.117   9.429  0.5565 -0.7627 -0.8220
 2919SOL     OW20389   0.046   1.057  13.019  0.8274  0.2613 -0.1466
 2919SOL    HW120390   0.051   1.112  13.097  1.5838  2.9194 -2.0610
 2919SOL    HW220391   4.728   0.993  13.056  0.7137  0.6327  0.3189
 2920SOL     OW20392   3.465   4.539   8.945 -0.2999  0.5419 -0.6506
 2920SOL    HW120393   3.428   4.627   8.934 -2.2103 -0.1724  0.0870
 2920SOL    HW220394   3.424   4.509   9.026 -2.4655  2.1299 -1.1721
 2921SOL     OW20395   1.735   2.091   5.734 -0.7389  0.2246  0.3630
 2921SOL    HW120396   1.754   2.075   5.827  2.5515 -1.3075 -0.5758
 2921SOL    HW220397   1.756   2.008   5.691  1.0521  0.0981  1.4772
 2922SOL     OW20398   1.806   0.749   7.718 -0.1015  0.0925 -0.1146
 2922SOL    HW120399   1.789   0.708   7.803 -0.8259  0.1802 -0.2157
 2922SOL    HW220400   1.888   0.791   7.744  0.3540 -0.1391 -1.1975
 2923SOL     OW20401   2.958   0.652   6.391 -0.3951  0.7034 -0.0202
 2923SOL    HW120402   2.972   0.672   6.298  2.4009  0.3951  0.3262
 2923SOL    HW220403   2.915   0.736   6.410  1.4041  1.5395  0.4248
 2924SOL     OW20404   0.747   2.669   7.879  0.2485 -0.4445 -0.1443
 2924SOL    HW120405   0.764   2.666   7.785 -0.0035  2.1790 -0.2590
 2924SOL    HW220406   0.834   2.697   7.908  0.1530  0.5800 -0.8661
 2925SOL     OW20407   2.705   2.707   1.154  0.0046 -0.6705 -0.1207
 2925SOL    HW120408   2.695   2.778   1.218  0.9558 -1.3624  0.8071
 2925SOL    HW220409   2.726   2.638   1.217  0.7102 -0.5250 -0.1888
 2926SOL     OW20410   1.504   2.514   6.463 -0.1302  0.2743  0.0363
 2926SOL    HW120411   1.461   2.482   6.541 -0.0505 -0.8691 -0.3944
 2926SOL    HW220412   1.448   2.477   6.395 -0.3268  2.0071 -0.7498
 2927SOL     OW20413   1.722   3.736   6.056 -0.0399 -0.4322  0.1131
 2927SOL    HW120414   1.748   3.673   6.124  1.3770  1.4185  1.2963
 2927SOL    HW220415   1.801   3.783   6.031  1.0674 -1.5860  1.4055
 2928SOL     OW20416   4.246   2.026   3.750  0.3007  0.1444  0.3971
 2928SOL    HW120417   4.177   2.003   3.688  0.2938 -1.6081  1.0525
 2928SOL    HW220418   4.327   2.033   3.700  0.2753 -0.1638  0.3141
 2929SOL     OW20419   0.983   1.899   0.240 -0.0506 -0.1740  0.0577
 2929SOL    HW120420   0.971   1.805   0.254 -0.2016 -0.4679 -2.0919
 2929SOL    HW220421   0.895   1.929   0.217 -0.4707 -1.1387  0.3943
 2930SOL     OW20422   3.157   1.627   6.969  0.6691  0.5145  0.4762
 2930SOL    HW120423   3.186   1.639   7.059  5.4301 -1.5074 -0.8192
 2930SOL    HW220424   3.245   1.613   6.935  0.3837 -0.6853  0.2049
 2931SOL     OW20425   3.401   1.367  16.728 -0.4301  0.2282 -0.3920
 2931SOL    HW120426   3.326   1.425  16.722 -0.4808 -0.1664 -3.4607
 2931SOL    HW220427   3.471   1.429  16.751  0.7100 -1.1307 -0.1955
 2932SOL     OW20428   0.240   3.730   7.893 -0.7034 -0.2829  0.7682
 2932SOL    HW120429   0.176   3.698   7.956 -1.7782 -3.1108 -1.7533
 2932SOL    HW220430   0.235   3.819   7.926 -1.5344 -0.7310  1.8680
 2933SOL     OW20431   1.032   2.625   6.509  0.3540  0.3835 -0.3428
 2933SOL    HW120432   1.017   2.703   6.455 -1.0536 -1.0347 -1.9656
 2933SOL    HW220433   1.019   2.662   6.596  1.8536 -1.0464  0.4851
 2934SOL     OW20434   2.012   3.754   6.691 -0.2167 -0.8084  0.3657
 2934SOL    HW120435   2.087   3.722   6.740  0.8632  0.1443 -0.6761
 2934SOL    HW220436   2.037   3.721   6.604 -0.0421 -0.3901  0.2598
 2935SOL     OW20437   2.442   0.176   3.211 -0.4532  0.2930 -0.0864
 2935SOL    HW120438   2.441   0.109   3.143  1.5238  0.4456 -0.2587
 2935SOL    HW220439   2.401   0.128   3.283 -1.3417  1.0797 -0.0619
 2936SOL     OW20440   3.385   1.026   4.334  0.0710 -0.4155  0.6021
 2936SOL    HW120441   3.383   1.085   4.259 -0.7489 -1.5270 -0.2472
 2936SOL    HW220442   3.411   1.085   4.404  0.7555 -0.4971  0.4176
 2937SOL     OW20443   1.594   1.974   0.423 -0.2170 -0.0953 -0.5439
 2937SOL    HW120444   1.673   1.924   0.445  1.3086  2.7640  0.5542
 2937SOL    HW220445   1.620   2.064   0.445 -3.1971  0.3706  1.0783
 2938SOL     OW20446   4.277   2.097   2.394  0.2061 -0.2113 -0.4985
 2938SOL    HW120447   4.277   2.090   2.490 -1.2292 -0.4890 -0.5131
 2938SOL    HW220448   4.254   2.190   2.391  1.6061  0.2541  2.6192
 2939SOL     OW20449   3.868   3.516  10.729  0.1559 -0.2879  0.2072
 2939SOL    HW120450   3.953   3.503  10.769 -0.2549 -3.4417  0.0442
 2939SOL    HW220451   3.823   3.433  10.744 -1.1994  0.5208  0.6804
 2940SOL     OW20452   4.488   0.653   2.130  0.5209  0.1101  0.4930
 2940SOL    HW120453   4.411   0.644   2.185  1.3888 -1.6877  1.4168
 2940SOL    HW220454   4.482   0.573   2.078  0.2704  1.0160 -0.8676
 2941SOL     OW20455   0.981   2.759   7.952  0.2718 -0.3947 -0.1458
 2941SOL    HW120456   1.052   2.798   8.003  1.8545 -3.1747 -0.2719
 2941SOL    HW220457   1.000   2.666   7.950 -0.9066 -0.6340 -0.2467
 2942SOL     OW20458   4.395   3.649   7.555  0.1981  0.2033  0.1021
 2942SOL    HW120459   4.392   3.744   7.545 -2.6969  0.2244  1.2556
 2942SOL    HW220460   4.324   3.631   7.616 -0.3535 -0.1843 -0.6498
 2943SOL     OW20461   2.905   2.087   6.160 -0.1946 -0.0181 -0.3918
 2943SOL    HW120462   2.901   2.145   6.237  1.0028 -0.0638 -0.2904
 2943SOL    HW220463   2.886   2.011   6.214 -0.1634  1.2371  1.4206
 2944SOL     OW20464   4.490   0.935   7.341  0.5826 -0.3795  0.4727
 2944SOL    HW120465   4.447   0.925   7.256 -1.4251  1.2933  1.3044
 2944SOL    HW220466   4.564   0.877   7.322  1.0004  0.6641 -1.0708
 2945SOL     OW20467   2.548   4.398   7.945  0.2384  0.1768  0.0082
 2945SOL    HW120468   2.549   4.310   7.981 -1.3613  0.5668  1.0382
 2945SOL    HW220469   2.630   4.435   7.978 -0.8308  1.7582  0.9260
 2946SOL     OW20470   3.250   0.193   9.192 -0.3210  0.4319 -0.2341
 2946SOL    HW120471   3.273   0.212   9.101  2.5578 -2.6495 -0.1867
 2946SOL    HW220472   3.335   0.208   9.235 -0.9203  1.3163  0.6316
 2947SOL     OW20473   4.404   2.151   9.991  0.1412 -0.5018  0.2765
 2947SOL    HW120474   4.419   2.240   9.959 -0.4354 -1.3515 -2.4054
 2947SOL    HW220475   4.452   2.155  10.074  1.6688  1.8214 -0.7034
 2948SOL     OW20476   1.647   0.839  13.763 -0.2344 -0.1154  0.0907
 2948SOL    HW120477   1.598   0.878  13.835 -0.2448  1.5463 -0.8013
 2948SOL    HW220478   1.583   0.772  13.739 -0.7919 -0.5659  2.9178
 2949SOL     OW20479   1.583   4.007   8.983 -0.0753  0.1928  0.3868
 2949SOL    HW120480   1.677   4.010   8.998 -0.0019 -1.2397  0.2125
 2949SOL    HW220481   1.556   4.096   9.005  0.6200  0.1707  1.3614
 2950SOL     OW20482   0.868   3.194   5.606 -0.6964  0.4957  0.1368
 2950SOL    HW120483   0.786   3.221   5.649  0.6533 -1.1466  3.8096
 2950SOL    HW220484   0.939   3.236   5.655 -1.3799  1.4662  0.2940
 2951SOL     OW20485   4.570   2.882   3.644 -0.1985 -0.0463  0.0838
 2951SOL    HW120486   4.530   2.795   3.648  0.8754 -0.5725 -0.5070
 2951SOL    HW220487   4.572   2.906   3.737 -1.1756  0.2003  0.0346
 2952SOL     OW20488   1.902   4.049   5.293 -0.3779  0.8305  0.4390
 2952SOL    HW120489   1.921   4.119   5.231  0.0638  0.4747  0.1734
 2952SOL    HW220490   1.834   4.089   5.346 -1.2966 -0.6021  0.3504
 2953SOL     OW20491   0.273   2.722   7.035 -0.1811  0.5414 -0.2862
 2953SOL    HW120492   0.263   2.634   7.071 -0.1042  1.7813  2.7574
 2953SOL    HW220493   0.232   2.776   7.103 -0.6967  2.5238 -2.1500
 2954SOL     OW20494   1.781   2.948   9.424 -0.0925  0.0038  0.2273
 2954SOL    HW120495   1.815   2.895   9.496 -0.7073  0.3348  0.7697
 2954SOL    HW220496   1.760   2.886   9.355 -0.7477  0.1456  0.2932
 2955SOL     OW20497   1.719   4.401   3.961  0.2178  0.3470  0.0329
 2955SOL    HW120498   1.752   4.316   3.990 -0.4698 -0.4192 -1.4266
 2955SOL    HW220499   1.704   4.455   4.039  0.4781 -0.4952  0.6626
 2956SOL     OW20500   3.300   0.666   2.177  0.2144 -0.7411 -0.3221
 2956SOL    HW120501   3.303   0.640   2.269 -0.8566  1.5627  0.3495
 2956SOL    HW220502   3.344   0.750   2.191 -0.5099 -0.5168  0.5791
 2957SOL     OW20503   4.490   2.223   3.921 -0.1390 -0.2112 -0.3330
 2957SOL    HW120504   4.523   2.142   3.960 -1.6901  0.6010  2.6470
 2957SOL    HW220505   4.564   2.227   3.860 -0.4800  0.7191 -0.6921
 2958SOL     OW20506   2.150   4.641  15.128 -0.2641 -0.3235 -0.2013
 2958SOL    HW120507   2.184   4.724  15.161 -1.0389  0.0609 -0.3834
 2958SOL    HW220508   2.149   4.591  15.210  1.1456  2.1268  1.3129
 2959SOL     OW20509   1.317   3.393  16.576 -0.2774  0.5269 -0.2489
 2959SOL    HW120510   1.350   3.366  16.662  2.7768  3.5134 -0.4641
 2959SOL    HW220511   1.373   3.347  16.514 -0.6624  1.4645 -1.2860
 2960SOL     OW20512   1.248   0.026   9.091 -0.0026  0.6296 -0.1125
 2960SOL    HW120513   1.342   0.033   9.080  0.1320 -0.8100  0.1283
 2960SOL    HW220514   1.221   0.117   9.078 -3.4057 -0.1503  1.4356
 2961SOL     OW20515   3.062   1.407   4.947  0.4692  0.1629 -0.1763
 2961SOL    HW120516   3.147   1.427   4.908 -0.9871  0.7637 -3.0700
 2961SOL    HW220517   3.091   1.389   5.036  0.2940  1.9486  0.2556
 2962SOL     OW20518   4.348   4.600   6.051 -0.0366  0.5390  0.0437
 2962SOL    HW120519   4.346   4.536   5.980  0.6839  0.2284  0.3034
 2962SOL    HW220520   4.291   4.556   6.114 -0.7147  1.5219  0.1174
 2963SOL     OW20521   3.900   1.633   5.030  0.1525  0.4410  0.3950
 2963SOL    HW120522   3.983   1.630   5.078 -0.0151 -0.4655  0.6336
 2963SOL    HW220523   3.910   1.563   4.966  1.7098 -0.4218  1.5696
 2964SOL     OW20524   1.235   3.511   8.899  0.1251 -0.2938 -0.1854
 2964SOL    HW120525   1.151   3.473   8.873 -1.0905  2.6773 -0.6687
 2964SOL    HW220526   1.226   3.528   8.993 -1.2332 -0.2253 -0.3317
 2965SOL     OW20527   2.361   4.344   7.433 -0.3421  0.2405  0.0205
 2965SOL    HW120528   2.393   4.383   7.352 -1.1740  0.2594 -0.2903
 2965SOL    HW220529   2.379   4.253   7.409 -1.1560  0.2501 -0.6246
 2966SOL     OW20530   1.795   2.948   7.879  0.6366 -0.4132  0.4607
 2966SOL    HW120531   1.788   3.041   7.900  0.5228 -0.3021 -0.0793
 2966SOL    HW220532   1.804   2.907   7.966 -1.0260 -0.4692  0.6052
 2967SOL     OW20533   1.109   0.011   0.615 -0.4092  0.3243  0.0362
 2967SOL    HW120534   1.108   0.101   0.582 -1.5456  0.3357  0.0885
 2967SOL    HW220535   1.193   0.001   0.660  0.1259  0.3700 -0.9603
 2968SOL     OW20536   2.586   3.198   6.248  0.5761  0.1545  0.0677
 2968SOL    HW120537   2.506   3.222   6.200  0.3428 -1.4769 -0.3654
 2968SOL    HW220538   2.633   3.277   6.272 -2.1177  1.9680 -0.5920
 2969SOL     OW20539   4.125   1.931  11.273 -0.1947  0.7798  0.1315
 2969SOL    HW120540   4.078   1.977  11.342  0.3046  1.1284  0.2386
 2969SOL    HW220541   4.100   1.981  11.195  1.0046  3.0647  1.2003
 2970SOL     OW20542   1.601   1.003   8.849 -0.0169  0.0873 -1.0112
 2970SOL    HW120543   1.670   0.938   8.868  0.7660  1.4021  0.6198
 2970SOL    HW220544   1.531   0.970   8.905  0.0105  1.3889 -0.2232
 2971SOL     OW20545   3.632   3.767   2.876  0.2549  0.2677  0.3746
 2971SOL    HW120546   3.580   3.844   2.897 -0.4582  0.2219 -1.1924
 2971SOL    HW220547   3.701   3.771   2.941 -0.9877 -0.5732  1.7318
 2972SOL     OW20548   1.632   3.212   6.311 -0.1454 -0.2551  0.3694
 2972SOL    HW120549   1.582   3.135   6.339 -0.4134 -0.1499  0.1813
 2972SOL    HW220550   1.696   3.223   6.381 -1.2303  1.3452  1.1162
 2973SOL     OW20551   1.925   3.024   6.106 -0.8095 -0.3313 -0.9053
 2973SOL    HW120552   1.935   3.118   6.118 -2.4543 -0.5880  2.4507
 2973SOL    HW220553   2.015   2.993   6.096 -0.9335 -0.2114 -2.3147
 2974SOL     OW20554   2.381   0.344   2.180  0.4081 -0.8264 -0.2220
 2974SOL    HW120555   2.444   0.414   2.166  0.0283 -0.4669 -0.1229
 2974SOL    HW220556   2.352   0.342   2.089 -2.0281 -4.3358  0.6105
 2975SOL     OW20557   2.288   3.536   7.509  0.3038 -0.0603  0.2021
 2975SOL    HW120558   2.265   3.619   7.466  0.0983  0.1932  0.8018
 2975SOL    HW220559   2.237   3.470   7.462 -1.5444  1.0756  0.5919
 2976SOL     OW20560   1.419   2.540   5.295 -0.0824  0.0058 -0.0157
 2976SOL    HW120561   1.332   2.570   5.320  1.0014  2.2834  1.0229
 2976SOL    HW220562   1.418   2.556   5.200 -2.6718  1.1949  0.2237
 2977SOL     OW20563   2.443   0.875   4.186 -0.4154  0.1920 -0.1711
 2977SOL    HW120564   2.538   0.864   4.194 -0.2911  0.3223 -1.4484
 2977SOL    HW220565   2.418   0.968   4.188  0.2966  0.4363 -2.5693
 2978SOL     OW20566   0.152   3.001   3.155  0.5843  0.0829  0.3867
 2978SOL    HW120567   0.238   3.034   3.181  0.2730  0.1473  1.3244
 2978SOL    HW220568   0.098   3.074   3.186 -0.4434  0.0635 -1.3640
 2979SOL     OW20569   0.815   2.650   1.228 -0.2225 -0.3161  0.0722
 2979SOL    HW120570   0.764   2.572   1.248  1.1620 -0.3904  3.3680
 2979SOL    HW220571   0.771   2.713   1.286 -1.0388  1.1610 -2.1677
 2980SOL     OW20572   1.365   0.638   2.087  0.0443 -0.3897  0.1185
 2980SOL    HW120573   1.429   0.581   2.132 -0.8324 -0.5575  1.1637
 2980SOL    HW220574   1.423   0.659   2.014  0.1262 -0.5098  0.1475
 2981SOL     OW20575   2.605   2.187   7.592  0.1165  0.0424 -0.3399
 2981SOL    HW120576   2.590   2.273   7.553 -0.0115 -0.6630 -1.8272
 2981SOL    HW220577   2.699   2.191   7.611  0.0551 -1.1329  0.2566
 2982SOL     OW20578   3.836   1.513   6.939  0.3776  0.1655  0.0811
 2982SOL    HW120579   3.889   1.445   6.898  0.7967 -0.6105  1.8968
 2982SOL    HW220580   3.860   1.588   6.886  0.2097 -0.4407 -0.8577
 2983SOL     OW20581   2.493   3.497   6.150  0.4124 -0.2839  0.1497
 2983SOL    HW120582   2.540   3.539   6.077 -0.5829 -1.1756 -0.9956
 2983SOL    HW220583   2.525   3.554   6.221  1.5926 -2.0689  1.0468
 2984SOL     OW20584   1.256   3.260   7.500  0.2156  0.2775 -0.2751
 2984SOL    HW120585   1.215   3.220   7.576  1.0628 -1.2618 -0.6194
 2984SOL    HW220586   1.216   3.208   7.431 -0.8809  2.0927 -1.0004
 2985SOL     OW20587   0.595   2.685   6.015 -0.7513  0.4401 -0.3409
 2985SOL    HW120588   0.589   2.590   6.021  0.9050  0.5004  2.3750
 2985SOL    HW220589   0.682   2.700   6.053 -1.3654  2.1018  0.4398
 2986SOL     OW20590   4.377   2.062   1.187  0.5393  0.2058 -0.2061
 2986SOL    HW120591   4.428   2.133   1.148 -1.0171  0.4393 -1.7834
 2986SOL    HW220592   4.385   2.073   1.282  0.2681 -1.1290 -0.0373
 2987SOL     OW20593   0.473   0.237   9.832  0.0983  0.2195  1.1371
 2987SOL    HW120594   0.538   0.255   9.765 -0.5502  1.2418  0.7752
 2987SOL    HW220595   0.489   0.319   9.879 -1.2881  1.5266 -0.6227
 2988SOL     OW20596   1.469   4.349   5.581 -0.5717 -0.1728  0.0063
 2988SOL    HW120597   1.472   4.336   5.676 -0.2149 -0.4327 -0.0395
 2988SOL    HW220598   1.424   4.433   5.583 -3.5747 -1.7925  0.7639
 2989SOL     OW20599   0.531   0.260   8.845  0.2813 -0.1865 -0.6524
 2989SOL    HW120600   0.437   0.240   8.847  0.5634 -1.7238 -2.3349
 2989SOL    HW220601   0.564   0.193   8.905  2.2919  0.6397 -0.8284
 2990SOL     OW20602   1.434   2.491   8.857 -0.2735  0.4353  0.3334
 2990SOL    HW120603   1.476   2.499   8.772 -1.6208 -2.1860 -0.5618
 2990SOL    HW220604   1.344   2.464   8.840 -0.4116  0.7966  0.4992
 2991SOL     OW20605   4.083   2.089   8.370 -0.4112  0.2561 -0.0358
 2991SOL    HW120606   4.062   2.010   8.419  0.6488 -0.4740 -0.7482
 2991SOL    HW220607   4.051   2.064   8.284 -0.6419 -0.5567  0.2853
 2992SOL     OW20608   1.689   2.781   2.679 -0.1541  0.3191  0.0928
 2992SOL    HW120609   1.753   2.815   2.616 -0.7529  0.1702 -0.6052
 2992SOL    HW220610   1.732   2.696   2.694  0.2410  0.5353  0.1864
 2993SOL     OW20611   1.527   4.197   1.835 -0.6098 -0.3990  0.3697
 2993SOL    HW120612   1.535   4.273   1.777 -0.6579  0.6393  1.7252
 2993SOL    HW220613   1.433   4.196   1.855 -0.8290 -1.0577 -0.6509
 2994SOL     OW20614   2.646   3.410  14.272  0.2302  0.4401  0.8730
 2994SOL    HW120615   2.577   3.346  14.288 -0.6596  1.3867  0.7957
 2994SOL    HW220616   2.681   3.400  14.183  1.6979 -2.2070  1.7609
 2995SOL     OW20617   3.783   4.716   7.123 -0.4719  0.2995 -0.1488
 2995SOL    HW120618   3.813   4.718   7.032 -4.3282 -1.1474 -1.4339
 2995SOL    HW220619   3.697   0.016   7.121  0.6941  2.6731 -0.4322
 2996SOL     OW20620   0.009   2.837  11.171 -0.3847 -0.0720  0.5377
 2996SOL    HW120621   0.069   2.805  11.238  0.4978 -0.8217 -0.6145
 2996SOL    HW220622   0.046   2.921  11.145 -0.0379 -0.7729 -1.2075
 2997SOL     OW20623   3.286   4.079   9.604 -0.8871 -0.1255  0.0081
 2997SOL    HW120624   3.347   4.035   9.664 -1.6798  0.6416  1.4011
 2997SOL    HW220625   3.333   4.161   9.591 -1.3584 -0.2086 -2.2007
 2998SOL     OW20626   0.867   1.733   2.733 -0.3002  0.3114 -0.7838
 2998SOL    HW120627   0.909   1.674   2.670  0.8226  2.0448 -1.6349
 2998SOL    HW220628   0.774   1.713   2.721 -0.0370 -1.5473  0.1154
 2999SOL     OW20629   1.026   2.625  13.874 -0.1176  0.3126 -0.0047
 2999SOL    HW120630   0.983   2.547  13.838  1.6211  0.4438 -2.3900
 2999SOL    HW220631   1.068   2.668  13.799 -0.6265  0.5266 -0.1677
 3000SOL     OW20632   3.059   0.752  12.349  0.1827 -0.1465  0.2753
 3000SOL    HW120633   3.112   0.705  12.284 -0.4026  1.1627 -1.1340
 3000SOL    HW220634   3.128   0.764  12.414  2.0927 -1.8269 -1.4262
 3001SOL     OW20635   0.019   3.013   8.487  0.0378  0.3366 -0.0670
 3001SOL    HW120636   4.698   3.076   8.451  2.1011  0.9705 -2.5513
 3001SOL    HW220637   0.082   2.992   8.418  2.0129  2.5391  1.0240
 3002SOL     OW20638   1.461   3.819   9.519 -0.0963  0.0620  0.9127
 3002SOL    HW120639   1.459   3.724   9.513 -0.1601  0.0706  0.8025
 3002SOL    HW220640   1.461   3.852   9.429  0.3636 -0.0143  0.8809
 3003SOL     OW20641   1.727   1.321  12.016 -0.0602  0.1379 -0.0902
 3003SOL    HW120642   1.804   1.371  11.991 -0.3458  0.8199  0.4129
 3003SOL    HW220643   1.760   1.231  12.021  1.6253  0.7738 -0.0013
 3004SOL     OW20644   1.908   4.478   2.130 -0.3371  0.2841  0.3326
 3004SOL    HW120645   1.905   4.418   2.205  0.7246 -0.5986 -0.3223
 3004SOL    HW220646   1.819   4.465   2.098 -0.8618 -0.2018  1.9490
 3005SOL     OW20647   1.849   3.962   4.515 -0.0379  0.0041 -0.2534
 3005SOL    HW120648   1.898   3.883   4.538 -2.4591 -1.2404  0.5949
 3005SOL    HW220649   1.763   3.946   4.554  0.8815 -0.0811  1.7657
 3006SOL     OW20650   4.667   0.670   8.555 -0.0341 -0.6090  0.3820
 3006SOL    HW120651   4.584   0.693   8.597  0.7634  0.7212  1.1854
 3006SOL    HW220652   4.720   0.668   8.634 -0.3315  0.3731  0.5999
 3007SOL     OW20653   0.597   2.520  14.286 -0.3897  0.9587  0.1065
 3007SOL    HW120654   0.538   2.517  14.210 -1.3103  3.5001  0.6943
 3007SOL    HW220655   0.652   2.596  14.267  1.3322 -0.0384  1.1694
 3008SOL     OW20656   4.632   3.428   0.140 -0.4007 -0.1730 -0.0339
 3008SOL    HW120657   4.715   3.470   0.119 -1.0276  0.3220 -1.5288
 3008SOL    HW220658   4.574   3.455   0.068 -3.5036 -1.1352  2.0855
 3009SOL     OW20659   0.065   4.130   5.690  0.6397  0.7805 -0.0128
 3009SOL    HW120660   0.062   4.215   5.733 -0.8433  0.2050  1.0017
 3009SOL    HW220661   0.068   4.064   5.759 -2.4336 -1.0285 -1.6508
 3010SOL     OW20662   0.696   2.302  12.838 -0.3365 -0.0089 -0.6332
 3010SOL    HW120663   0.689   2.233  12.772  2.4380  0.2359 -1.1928
 3010SOL    HW220664   0.726   2.369  12.777 -1.3039 -0.0945 -1.1962
 3011SOL     OW20665   0.411   0.856   8.464 -0.1113 -0.2881 -0.0175
 3011SOL    HW120666   0.380   0.945   8.483  1.3286  0.4788 -1.2772
 3011SOL    HW220667   0.465   0.835   8.540  0.8802 -0.7719 -0.8527
 3012SOL     OW20668   1.978   2.271   0.555 -0.7595  0.7195  0.2318
 3012SOL    HW120669   1.962   2.207   0.486 -0.0512  0.9675 -0.1642
 3012SOL    HW220670   2.074   2.276   0.549 -0.6996 -0.9044 -0.2688
 3013SOL     OW20671   0.630   3.765   7.957 -0.0744 -0.1624 -0.6619
 3013SOL    HW120672   0.585   3.774   7.873  0.3475  0.7638 -0.7884
 3013SOL    HW220673   0.711   3.727   7.923  0.5280 -1.3002  2.0597
 3014SOL     OW20674   4.041   3.089  15.444  0.3301  0.5865 -0.7354
 3014SOL    HW120675   4.054   3.036  15.522  0.4307  2.0718  0.2644
 3014SOL    HW220676   4.020   3.176  15.479 -1.5774  0.1215 -0.6966
 3015SOL     OW20677   2.597   2.700   0.887  0.3606  0.0613  0.5629
 3015SOL    HW120678   2.517   2.752   0.877 -0.2763 -0.5533  2.4105
 3015SOL    HW220679   2.607   2.691   0.982 -1.0098 -0.3327  0.6715
 3016SOL     OW20680   1.041   0.237  12.156  0.0985  0.1441 -0.1125
 3016SOL    HW120681   1.104   0.245  12.084  0.5540  0.6540  0.3430
 3016SOL    HW220682   0.954   0.237  12.115 -0.9905 -0.9549  2.2070
 3017SOL     OW20683   1.084   2.565   5.630  0.6092  0.2819  0.4150
 3017SOL    HW120684   1.169   2.601   5.654  0.7457 -0.1692  0.5926
 3017SOL    HW220685   1.100   2.511   5.554 -0.5257 -0.3964  0.6533
 3018SOL     OW20686   0.591   0.466   5.170  0.0631 -0.1897 -0.3791
 3018SOL    HW120687   0.598   0.375   5.199 -1.7156  0.4812  2.2128
 3018SOL    HW220688   0.642   0.465   5.089  0.4760  1.2231 -0.1353
 3019SOL     OW20689   0.592   3.757   9.274  0.4107  0.0931 -0.2793
 3019SOL    HW120690   0.643   3.683   9.307 -0.0640 -0.8828 -1.7120
 3019SOL    HW220691   0.504   3.727   9.296 -0.2245  0.3679 -2.3741
 3020SOL     OW20692   3.213   3.240   2.997  0.0053 -0.6966 -0.2483
 3020SOL    HW120693   3.191   3.182   2.924 -0.2535 -0.3213 -0.4662
 3020SOL    HW220694   3.206   3.322   2.949 -0.1502 -0.2364  0.5568
 3021SOL     OW20695   1.688   2.317   7.882 -0.1330 -0.0557  0.1298
 3021SOL    HW120696   1.700   2.406   7.847 -1.2891  0.4690  1.0814
 3021SOL    HW220697   1.777   2.286   7.896  0.0826 -0.3978 -1.9684
 3022SOL     OW20698   1.391   0.895   2.141 -0.0844 -0.2281  0.2386
 3022SOL    HW120699   1.355   0.911   2.229  1.2308  0.8033  0.5729
 3022SOL    HW220700   1.364   0.805   2.123  1.1745 -0.0752 -2.3709
 3023SOL     OW20701   2.374   3.570   6.446  0.0525  0.1746  0.2321
 3023SOL    HW120702   2.424   3.503   6.492  2.5510 -0.0494 -2.8419
 3023SOL    HW220703   2.454   3.622   6.435  1.4815 -2.1117 -0.0600
 3024SOL     OW20704   1.170   0.403  12.600 -0.6508  0.2332  0.4020
 3024SOL    HW120705   1.226   0.337  12.641 -0.6248 -0.6095 -1.0077
 3024SOL    HW220706   1.235   0.459  12.557  0.0884  0.1504  1.4002
 3025SOL     OW20707   3.110   0.768   2.979 -0.3679 -0.2979  0.0122
 3025SOL    HW120708   3.077   0.721   3.056 -0.3165  0.4143  0.4778
 3025SOL    HW220709   3.159   0.835   3.027 -1.9926  1.1768 -0.3959
 3026SOL     OW20710   1.115   4.706   8.581  0.4079  0.2864  0.1241
 3026SOL    HW120711   1.089   4.656   8.658  0.3276  1.9897  1.1788
 3026SOL    HW220712   1.047   4.713   8.513  0.2755 -1.4818  0.0740
 3027SOL     OW20713   3.436   3.648   6.168  0.3001 -0.0296 -0.9806
 3027SOL    HW120714   3.465   3.618   6.253 -1.1919 -0.4855 -0.6446
 3027SOL    HW220715   3.406   3.564   6.132  2.1095 -0.5063 -1.3567
 3028SOL     OW20716   3.989   2.009   8.119  0.8910 -0.1090 -0.2930
 3028SOL    HW120717   3.928   1.963   8.061  0.1296  0.5119  0.0235
 3028SOL    HW220718   4.050   1.938   8.142  0.3245 -1.1474 -1.9348
 3029SOL     OW20719   0.280   3.710   9.629  0.1024 -0.0122 -0.1254
 3029SOL    HW120720   0.356   3.759   9.598 -0.0042 -0.7820 -1.6027
 3029SOL    HW220721   0.317   3.658   9.701 -0.7040 -1.2933 -0.6232
 3030SOL     OW20722   0.136   4.225   3.667 -0.0531  0.5557 -0.0422
 3030SOL    HW120723   0.145   4.271   3.584 -0.8709 -0.2823 -0.5998
 3030SOL    HW220724   0.132   4.133   3.639 -0.1120  1.0458 -1.6171
 3031SOL     OW20725   1.150   3.644   5.443  0.3871  0.5663 -0.1698
 3031SOL    HW120726   1.096   3.567   5.427  0.2370  0.9041 -1.3580
 3031SOL    HW220727   1.233   3.619   5.403  0.6375 -0.6563  1.1011
 3032SOL     OW20728   0.823   2.237   5.797  0.1384 -0.0795 -0.1208
 3032SOL    HW120729   0.912   2.202   5.787 -0.4129 -1.7673  0.8369
 3032SOL    HW220730   0.762   2.171   5.765 -0.6965 -0.8150  2.9271
 3033SOL     OW20731   1.014   4.238   5.055  0.1126  0.3231 -0.4728
 3033SOL    HW120732   1.001   4.280   4.970  1.2594  0.0600 -0.7741
 3033SOL    HW220733   1.100   4.265   5.087  1.7003 -0.6823 -3.8229
 3034SOL     OW20734   0.329   3.999   7.048  0.3937  0.8976  0.9205
 3034SOL    HW120735   0.318   4.048   6.966 -2.6199 -0.8584  0.2728
 3034SOL    HW220736   0.422   3.975   7.044 -0.4599 -2.1292 -1.6605
 3035SOL     OW20737   2.677   1.357   1.850 -0.0101  0.2145 -0.4825
 3035SOL    HW120738   2.694   1.428   1.789 -0.0365  1.1120  0.5441
 3035SOL    HW220739   2.766   1.333   1.875 -0.7025 -0.5543  1.2906
 3036SOL     OW20740   4.380   3.474  17.742  0.5902  0.1059  0.1880
 3036SOL    HW120741   4.298   3.431   0.002  1.1413 -0.9232  0.2442
 3036SOL    HW220742   4.412   3.427  17.665 -0.5726 -2.4297  1.2447
 3037SOL     OW20743   3.217   1.006   6.357  0.0922  0.3950  0.0770
 3037SOL    HW120744   3.195   0.975   6.269 -0.9387  0.4408  0.3170
 3037SOL    HW220745   3.274   1.078   6.330  0.9565 -0.2845  0.1098
 3038SOL     OW20746   1.966   1.754   7.006  0.2140  0.0255 -0.4055
 3038SOL    HW120747   1.941   1.702   6.930 -0.8104  0.0205 -0.0572
 3038SOL    HW220748   2.050   1.790   6.976  0.9177 -0.9999  0.3118
 3039SOL     OW20749   1.444   2.688   4.588 -0.4446  0.0469  0.0721
 3039SOL    HW120750   1.413   2.774   4.561  0.9617 -0.2986 -2.6469
 3039SOL    HW220751   1.529   2.687   4.544 -0.3405  0.1571  0.2699
 3040SOL     OW20752   4.228   2.642   9.260  0.4611 -0.4958  0.1609
 3040SOL    HW120753   4.276   2.563   9.284  0.9527 -1.8153 -5.1979
 3040SOL    HW220754   4.191   2.619   9.175 -2.1185  0.7927  0.9187
 3041SOL     OW20755   2.130   2.125   3.213 -0.4934  0.1142  0.5000
 3041SOL    HW120756   2.166   2.213   3.217 -2.3336  0.8344  0.9540
 3041SOL    HW220757   2.194   2.083   3.270  1.5436  1.7731 -0.5624
 3042SOL     OW20758   0.860   1.641   9.013  0.2250  0.1173 -0.6314
 3042SOL    HW120759   0.878   1.554   8.976  2.0755  0.5091 -0.6958
 3042SOL    HW220760   0.878   1.632   9.106  1.4599  0.0574 -0.8717
 3043SOL     OW20761   2.713   3.471   4.678  0.1194 -0.9384 -0.3904
 3043SOL    HW120762   2.747   3.532   4.743  1.8130 -2.5510  0.2562
 3043SOL    HW220763   2.643   3.529   4.648  0.1967 -0.1090  1.0421
 3044SOL     OW20764   3.766   0.168   8.388  0.2703 -1.1141  0.4588
 3044SOL    HW120765   3.808   0.254   8.390 -0.5552 -0.7233  0.9376
 3044SOL    HW220766   3.718   0.180   8.470 -0.1130 -4.6708  0.7839
 3045SOL     OW20767   1.990   0.200   0.614 -0.1314 -0.5544  0.3401
 3045SOL    HW120768   1.949   0.233   0.534 -1.8701  0.1742  1.5184
 3045SOL    HW220769   2.026   0.119   0.579 -0.1394 -1.8262  3.2790
 3046SOL     OW20770   1.134   4.680   7.074  0.2411 -0.3033  0.0266
 3046SOL    HW120771   1.156   4.587   7.087  2.5930  0.4359  1.2776
 3046SOL    HW220772   1.039   4.682   7.079  0.3071 -1.6689  1.7977
 3047SOL     OW20773   2.762   3.055   6.108  0.6631  0.2751 -0.1411
 3047SOL    HW120774   2.725   3.086   6.025  1.3650 -0.8485 -0.8758
 3047SOL    HW220775   2.690   3.087   6.163  0.1757  1.0052 -1.1955
 3048SOL     OW20776   2.101   0.098   5.858 -0.0828 -0.0984  0.8207
 3048SOL    HW120777   2.089   0.190   5.836  0.6565  0.2913  2.0482
 3048SOL    HW220778   2.013   0.083   5.892  0.0267 -1.2857  0.5927
 3049SOL     OW20779   1.503   3.291  10.376  0.0997 -0.3743  0.2798
 3049SOL    HW120780   1.532   3.257  10.292 -0.8563 -0.9128  0.1763
 3049SOL    HW220781   1.408   3.289  10.372  0.2156 -0.8668 -2.3151
 3050SOL     OW20782   4.040   0.585   7.213  0.2162  0.2569 -0.3842
 3050SOL    HW120783   4.100   0.651   7.251  2.7151 -1.9948 -0.4056
 3050SOL    HW220784   4.014   0.529   7.286  0.6081 -2.1608 -2.1274
 3051SOL     OW20785   3.156   1.195   7.030  0.4642 -0.1623 -0.2609
 3051SOL    HW120786   3.192   1.267   6.977 -1.3618 -0.7280 -2.2439
 3051SOL    HW220787   3.205   1.229   7.105 -1.4422 -2.6478  2.1097
 3052SOL     OW20788   3.625   1.284   5.220  0.2805 -0.1537 -0.3820
 3052SOL    HW120789   3.604   1.353   5.158 -2.4815 -2.1091 -1.6393
 3052SOL    HW220790   3.708   1.316   5.254 -0.3827 -0.3717  1.4773
 3053SOL     OW20791   3.712   2.113   9.438  0.1790  0.1782  0.3300
 3053SOL    HW120792   3.730   2.125   9.531 -1.8512 -2.3287  1.0695
 3053SOL    HW220793   3.791   2.137   9.390 -0.4277  0.2135 -0.6525
 3054SOL     OW20794   2.881   3.181   6.839  0.5908 -0.1338  0.2001
 3054SOL    HW120795   2.800   3.149   6.878  0.0424  2.3552  1.1120
 3054SOL    HW220796   2.936   3.108   6.867  2.4577  0.8243 -0.9704
 3055SOL     OW20797   4.380   4.365   1.389  1.1427 -0.4927  0.7980
 3055SOL    HW120798   4.420   4.327   1.467  3.4945  0.3641  0.0289
 3055SOL    HW220799   4.293   4.325   1.393  1.2555 -0.7278  0.9144
 3056SOL     OW20800   2.585   0.813  13.205 -0.6184  0.1841  0.1669
 3056SOL    HW120801   2.590   0.902  13.240 -0.2320  0.6338 -1.0404
 3056SOL    HW220802   2.579   0.827  13.110 -1.8384  0.3315  0.2627
 3057SOL     OW20803   4.410   0.887   3.720  0.0399  0.4187 -0.5229
 3057SOL    HW120804   4.457   0.812   3.683 -2.2017 -0.9973 -0.5100
 3057SOL    HW220805   4.381   0.848   3.802 -0.5837  1.6037 -0.1784
 3058SOL     OW20806   4.297   3.911   7.572  0.2146 -0.0264  0.8987
 3058SOL    HW120807   4.202   3.900   7.581  0.1814  0.5483  1.2711
 3058SOL    HW220808   4.302   4.000   7.607 -3.4313  0.8249 -0.6713
 3059SOL     OW20809   1.113   1.479   9.137  0.2611  0.2444  0.0975
 3059SOL    HW120810   1.058   1.443   9.068  1.6985 -0.6715 -0.5804
 3059SOL    HW220811   1.048   1.509   9.200  1.6773 -1.4484  2.3313
 3060SOL     OW20812   1.578   1.423   4.071 -0.0878 -0.0396 -0.2218
 3060SOL    HW120813   1.663   1.381   4.083 -1.1020 -2.3636 -1.0778
 3060SOL    HW220814   1.604   1.485   4.003  3.1934 -2.4776 -1.1661
 3061SOL     OW20815   3.969   2.284   8.141 -0.8130  0.4322 -0.5110
 3061SOL    HW120816   3.890   2.326   8.175 -0.2563  0.6435  0.5249
 3061SOL    HW220817   3.940   2.195   8.161  0.3746 -0.3301 -2.1708
 3062SOL     OW20818   2.864   4.469   5.887 -0.1121 -0.1378  0.3978
 3062SOL    HW120819   2.803   4.536   5.918  0.7089  0.3592  0.9561
 3062SOL    HW220820   2.803   4.411   5.843  0.1840  0.8327 -1.2994
 3063SOL     OW20821   1.011   3.368   5.768 -0.8015  0.4440  0.1756
 3063SOL    HW120822   0.985   3.460   5.768 -1.3091  0.2869 -2.1598
 3063SOL    HW220823   0.997   3.334   5.856  0.2564 -1.4713 -0.3970
 3064SOL     OW20824   3.390   0.515  14.396 -0.4883  0.1497  0.4080
 3064SOL    HW120825   3.443   0.494  14.319  1.2870 -2.1029  2.2441
 3064SOL    HW220826   3.359   0.603  14.373  0.0934 -0.2008 -1.6755
 3065SOL     OW20827   1.479   0.423   4.565 -0.0208  0.0262  0.2595
 3065SOL    HW120828   1.561   0.392   4.527 -0.5831 -0.6654 -0.3666
 3065SOL    HW220829   1.426   0.448   4.490 -2.5299 -2.4280  1.2046
 3066SOL     OW20830   2.567   2.116   9.508 -0.6805  0.2616 -0.0483
 3066SOL    HW120831   2.533   2.057   9.575  0.6269 -0.5202 -0.0680
 3066SOL    HW220832   2.507   2.099   9.436  2.1730 -1.4867 -2.0069
 3067SOL     OW20833   1.677   3.850   2.105  0.2788 -0.2794 -0.0593
 3067SOL    HW120834   1.690   3.775   2.047  0.0788 -1.2071  1.1062
 3067SOL    HW220835   1.768   3.878   2.111  0.2909 -0.8069  1.9583
 3068SOL     OW20836   0.972   0.930   1.787  0.0505 -0.0055  0.0607
 3068SOL    HW120837   0.972   1.014   1.833  1.0008  1.0415 -1.8431
 3068SOL    HW220838   0.904   0.936   1.720 -0.5472  1.7797  0.8436
 3069SOL     OW20839   0.919   1.070   9.026  0.9111  0.0234  0.1232
 3069SOL    HW120840   0.994   1.104   8.975 -0.7422  1.9634 -1.0399
 3069SOL    HW220841   0.965   1.067   9.110 -3.4547  0.8084  2.5097
 3070SOL     OW20842   3.082   0.691   9.081 -0.2741 -0.1064  0.5170
 3070SOL    HW120843   3.025   0.638   9.025  0.8928  1.9064 -2.5620
 3070SOL    HW220844   3.028   0.720   9.155  0.5247  1.3963  0.5131
 3071SOL     OW20845   2.882   3.131   4.826 -0.3257  0.4749  0.5256
 3071SOL    HW120846   2.878   3.042   4.791 -2.6595  1.4372 -1.7196
 3071SOL    HW220847   2.931   3.121   4.907 -0.1042 -2.1931  0.0691
 3072SOL     OW20848   0.501   2.392   3.041  0.1017 -0.1357  0.0713
 3072SOL    HW120849   0.416   2.428   3.067 -1.6642 -3.1320 -1.5858
 3072SOL    HW220850   0.519   2.315   3.094  1.8619 -0.0663 -0.4024
 3073SOL     OW20851   1.284   2.859   9.838  0.4288  0.0624 -0.2622
 3073SOL    HW120852   1.246   2.781   9.798 -1.2473  0.5159  0.4680
 3073SOL    HW220853   1.379   2.849   9.826  0.7944 -2.1699  4.7200
 3074SOL     OW20854   2.438   4.374   8.832 -0.3378  0.2453  0.0846
 3074SOL    HW120855   2.441   4.396   8.739 -2.5651 -4.1942 -1.0673
 3074SOL    HW220856   2.483   4.446   8.876  0.5165 -0.4870  0.4275
 3075SOL     OW20857   0.907   2.609   2.939 -0.4363  0.4576 -0.0849
 3075SOL    HW120858   0.884   2.618   3.032 -0.5220  3.1499 -0.3677
 3075SOL    HW220859   0.829   2.571   2.898  0.8469 -1.5141 -0.7150
 3076SOL     OW20860   3.005   2.487   5.433 -0.0493 -0.0586 -0.2940
 3076SOL    HW120861   3.089   2.454   5.464 -1.3622 -1.5026  1.6940
 3076SOL    HW220862   3.010   2.573   5.476  1.1559 -1.5946  2.6381
 3077SOL     OW20863   4.527   1.579   2.620  0.2796 -0.1024  0.0590
 3077SOL    HW120864   4.528   1.589   2.525  0.4564  1.4624  0.2365
 3077SOL    HW220865   4.571   1.495   2.633 -0.2194 -0.8455 -2.9939
 3078SOL     OW20866   3.734   0.090   9.083  0.7131 -0.2573 -0.2213
 3078SOL    HW120867   3.735   0.002   9.119 -1.1331 -0.1635  0.0638
 3078SOL    HW220868   3.734   0.129   9.170  0.0789 -1.7607  0.4344
 3079SOL     OW20869   0.682   0.032   8.987  0.1293 -0.3717  0.1360
 3079SOL    HW120870   0.733   0.018   9.067 -3.0864 -5.5982  1.2426
 3079SOL    HW220871   0.743   0.015   8.915 -1.5847 -1.7418 -0.9869
 3080SOL     OW20872   3.624   0.498   8.468  0.0924  0.3780 -0.4015
 3080SOL    HW120873   3.593   0.525   8.381 -2.0798  0.3028  0.3435
 3080SOL    HW220874   3.578   0.562   8.522  0.2044  0.3143 -0.2315
 3081SOL     OW20875   4.262   1.458   0.544 -0.4132 -0.0814  0.0711
 3081SOL    HW120876   4.220   1.482   0.626  0.6007 -0.3291  0.6617
 3081SOL    HW220877   4.265   1.548   0.511  0.0006  0.0927  0.5923
 3082SOL     OW20878   3.396   0.132  14.481  0.6277 -0.5724 -0.4605
 3082SOL    HW120879   3.398   0.227  14.495 -2.2911 -1.0863  3.3455
 3082SOL    HW220880   3.449   0.104  14.555 -1.4012 -0.7519  0.9111
 3083SOL     OW20881   2.659   4.583  13.755  0.1575 -0.5138  0.2998
 3083SOL    HW120882   2.658   4.495  13.792 -0.3348  0.4621  2.6129
 3083SOL    HW220883   2.743   4.580  13.709 -0.4204  0.3909 -0.8077
 3084SOL     OW20884   1.611   4.454   2.792 -0.6042  0.4444  0.0325
 3084SOL    HW120885   1.639   4.477   2.703 -2.6238 -1.7123 -1.1647
 3084SOL    HW220886   1.556   4.527   2.821  0.2250  1.1820 -0.2564
 3085SOL     OW20887   3.529   3.216   1.781 -0.3573  0.2293 -0.3260
 3085SOL    HW120888   3.534   3.128   1.744  0.5948 -0.2478  0.9377
 3085SOL    HW220889   3.612   3.249   1.748  1.4751 -1.9382  2.0815
 3086SOL     OW20890   2.721   4.545   9.493  0.1303  0.1758 -1.0265
 3086SOL    HW120891   2.682   4.622   9.534  0.6876 -0.1772  0.1644
 3086SOL    HW220892   2.690   4.471   9.546  1.1852  0.1176 -0.4910
 3087SOL     OW20893   4.034   3.770   2.791 -0.2152 -0.3471 -0.0554
 3087SOL    HW120894   4.057   3.755   2.699 -2.7555  0.9285 -0.9173
 3087SOL    HW220895   4.003   3.683   2.815  0.4880 -1.1373 -1.9539
 3088SOL     OW20896   2.841   3.161  16.334 -0.0932 -0.0266  0.2818
 3088SOL    HW120897   2.770   3.107  16.299  0.7553 -0.6365 -0.4887
 3088SOL    HW220898   2.795   3.228  16.385 -0.3524 -0.6791  0.9044
 3089SOL     OW20899   2.536   3.397   1.264 -0.0337 -0.7001 -0.3979
 3089SOL    HW120900   2.443   3.418   1.265 -0.2645 -1.8532  2.0054
 3089SOL    HW220901   2.564   3.435   1.180  2.2092  1.1281  1.1587
 3090SOL     OW20902   0.585   3.058   3.334 -0.0622 -0.0495  0.0261
 3090SOL    HW120903   0.541   3.100   3.407 -1.5299  2.0594 -2.0819
 3090SOL    HW220904   0.675   3.090   3.328 -0.2881  0.3061 -1.5654
 3091SOL     OW20905   2.305   0.643   7.505  0.0705  0.5745  0.1355
 3091SOL    HW120906   2.247   0.609   7.573  1.0233 -0.7783  0.2890
 3091SOL    HW220907   2.345   0.715   7.554  0.7496  0.1978  0.1349
 3092SOL     OW20908   2.376   3.216   9.330  0.1760 -0.1038  0.0274
 3092SOL    HW120909   2.344   3.135   9.369  0.8898 -0.5679 -0.3570
 3092SOL    HW220910   2.375   3.276   9.404 -1.2827  1.1577 -1.0052
 3093SOL     OW20911   2.676   1.979  10.923  0.8737 -0.1421 -0.3368
 3093SOL    HW120912   2.684   1.996  10.829 -1.4138 -0.0167 -0.5016
 3093SOL    HW220913   2.674   1.883  10.919  2.9645 -0.1748 -0.6943
 3094SOL     OW20914   4.480   0.109  10.971 -0.0272  0.2290  0.2058
 3094SOL    HW120915   4.472   0.205  10.975 -1.4373  0.0835  1.0747
 3094SOL    HW220916   4.434   0.083  11.051  0.0578 -0.0571  0.1598
 3095SOL     OW20917   4.243   2.919   3.434  0.4987  0.1817 -0.6021
 3095SOL    HW120918   4.329   2.961   3.427  0.9148 -0.5828  0.0336
 3095SOL    HW220919   4.228   2.893   3.525  0.3869 -0.1939 -0.7294
 3096SOL     OW20920   3.870   2.594   4.384  0.4843 -0.1747  0.3552
 3096SOL    HW120921   3.933   2.533   4.346  2.9177  2.8491 -0.5028
 3096SOL    HW220922   3.792   2.587   4.329  0.6131  3.3654 -0.2925
 3097SOL     OW20923   3.968   0.394   0.406  0.0411 -0.3833  0.5850
 3097SOL    HW120924   3.943   0.475   0.361 -0.7889  0.2698  2.2174
 3097SOL    HW220925   4.020   0.344   0.343  1.6178 -0.1161  1.6637
 3098SOL     OW20926   3.436   4.708  17.276 -0.8429  0.2945  0.3610
 3098SOL    HW120927   3.503   0.011  17.328 -1.1753  0.0398  1.0040
 3098SOL    HW220928   3.373   0.038  17.267 -0.1887  0.6759 -1.2187
 3099SOL     OW20929   2.376   0.878  11.138 -0.0589 -0.1641 -0.1928
 3099SOL    HW120930   2.420   0.804  11.180 -3.0449 -1.2512  0.9716
 3099SOL    HW220931   2.444   0.946  11.134 -0.3004 -0.0293 -2.0742
 3100SOL     OW20932   1.897   2.771   5.814 -0.0559  0.3605 -0.0303
 3100SOL    HW120933   1.859   2.853   5.783  1.4135  0.4050 -1.7218
 3100SOL    HW220934   1.853   2.769   5.899  0.9365 -0.7083  0.4521
 3101SOL     OW20935   3.929   0.733   6.592 -0.5083  0.4162  0.3177
 3101SOL    HW120936   4.008   0.783   6.612  0.0551 -1.2434  2.1890
 3101SOL    HW220937   3.920   0.759   6.501 -1.6528  0.8868  0.5702
 3102SOL     OW20938   1.086   2.255   6.281  0.7887  0.1874 -0.2412
 3102SOL    HW120939   1.060   2.163   6.275  2.4649 -0.3485  0.8965
 3102SOL    HW220940   1.146   2.269   6.209  0.0043  0.7172 -0.7903
 3103SOL     OW20941   3.300   3.972  15.365  0.1976 -0.2483  0.0770
 3103SOL    HW120942   3.283   3.894  15.417  0.5124 -1.0452 -1.0340
 3103SOL    HW220943   3.344   3.933  15.290 -0.8225  0.2084 -0.7678
 3104SOL     OW20944   4.153   1.863  13.507  0.0001 -0.6632  0.0847
 3104SOL    HW120945   4.158   1.820  13.421  0.5881 -0.5138  0.0452
 3104SOL    HW220946   4.151   1.785  13.562 -0.9061 -2.5846 -2.6284
 3105SOL     OW20947   2.336   2.862   8.840 -0.2197 -0.7527 -0.4916
 3105SOL    HW120948   2.366   2.777   8.873  0.4911  0.0548  0.9313
 3105SOL    HW220949   2.412   2.919   8.851 -1.2714  0.5223  0.1659
 3106SOL     OW20950   0.246   2.344   5.845  0.3353  0.6323 -0.1493
 3106SOL    HW120951   0.300   2.322   5.920  0.7023 -2.8306 -1.4294
 3106SOL    HW220952   0.308   2.396   5.794 -0.3346 -0.1414 -1.7760
 3107SOL     OW20953   2.523   3.254   9.103 -0.1965 -0.0542  0.2105
 3107SOL    HW120954   2.505   3.165   9.073  3.3694 -0.6807 -0.1419
 3107SOL    HW220955   2.483   3.246   9.189  2.2865  0.4363  1.3996
 3108SOL     OW20956   3.640   1.448   7.134 -0.5915  0.5382  0.1249
 3108SOL    HW120957   3.605   1.378   7.078  0.5723  0.6696 -0.7485
 3108SOL    HW220958   3.713   1.476   7.079 -1.6309  1.2430 -0.8804
 3109SOL     OW20959   3.591   4.189   4.852  0.0981  0.7804  0.1311
 3109SOL    HW120960   3.502   4.157   4.870  0.1038  1.5743  1.6271
 3109SOL    HW220961   3.583   4.213   4.760 -1.1757 -1.2147 -0.2806
 3110SOL     OW20962   2.948   0.498  17.423  0.5415  0.0079 -0.4064
 3110SOL    HW120963   3.043   0.499  17.413  0.4840 -1.6083 -1.1364
 3110SOL    HW220964   2.939   0.592  17.438 -0.3740 -0.1606  0.1199
 3111SOL     OW20965   2.059   3.399   4.487 -0.1400 -0.3328 -0.1300
 3111SOL    HW120966   1.967   3.375   4.472 -0.7291 -1.3211  5.1340
 3111SOL    HW220967   2.085   3.398   4.395 -0.2401  0.3854 -0.1668
 3112SOL     OW20968   1.000   1.022   3.715 -0.4851 -0.4317  0.0577
 3112SOL    HW120969   1.068   0.999   3.778  2.2130  2.2933 -1.8683
 3112SOL    HW220970   1.028   1.112   3.702  0.7582 -0.8479 -0.1878
 3113SOL     OW20971   4.597   4.289   0.506 -0.3174 -0.2187  0.8605
 3113SOL    HW120972   4.545   4.369   0.515 -2.8012 -1.7818  0.2233
 3113SOL    HW220973   4.642   4.290   0.591 -1.0637 -1.3106  1.2557
 3114SOL     OW20974   4.265   1.212   8.488 -0.0914  0.0346 -0.4357
 3114SOL    HW120975   4.310   1.154   8.550 -0.2444  1.3903  0.9561
 3114SOL    HW220976   4.306   1.177   8.409 -0.3833  0.3697 -0.7295
 3115SOL     OW20977   4.214   0.483  16.191 -0.5220 -0.2268 -0.6957
 3115SOL    HW120978   4.198   0.389  16.186  1.1605 -0.5474 -0.1372
 3115SOL    HW220979   4.163   0.515  16.265 -0.3787 -1.6067 -0.0010
 3116SOL     OW20980   3.247   3.259  16.164  0.2957  0.0233  0.0877
 3116SOL    HW120981   3.202   3.343  16.158 -0.4301 -0.3727  0.0122
 3116SOL    HW220982   3.216   3.230  16.250  3.0017  0.0526  1.0852
 3117SOL     OW20983   0.092   1.084   4.140 -0.0267 -0.7605 -0.0622
 3117SOL    HW120984   0.042   1.015   4.097 -1.5612  0.1562  0.2010
 3117SOL    HW220985   0.145   1.126   4.072  1.6883 -1.4409  0.8877
 3118SOL     OW20986   2.990   2.153   4.064 -0.1785 -0.4441  0.2655
 3118SOL    HW120987   2.916   2.164   4.004 -0.3970 -3.2000  0.0291
 3118SOL    HW220988   2.946   2.167   4.148 -0.8148 -1.9953  0.1762
 3119SOL     OW20989   4.601   1.430   4.525  0.0123  0.1156  0.0906
 3119SOL    HW120990   4.630   1.359   4.582  0.4632  1.8837  2.0427
 3119SOL    HW220991   4.673   1.436   4.462 -0.0988 -0.8227 -0.1319
 3120SOL     OW20992   3.466   1.769   4.424 -0.1667  0.6329 -0.0587
 3120SOL    HW120993   3.499   1.856   4.401  0.3762  0.2102 -0.8228
 3120SOL    HW220994   3.523   1.745   4.497 -1.1799 -0.6594  0.3136
 3121SOL     OW20995   4.336   3.166   2.097  0.5881 -0.0414  0.2247
 3121SOL    HW120996   4.287   3.244   2.122  0.1034  0.5848 -2.6091
 3121SOL    HW220997   4.354   3.124   2.181 -0.9999  1.6158  1.4063
 3122SOL     OW20998   4.209   1.171   3.821 -0.3236  0.3329  0.1229
 3122SOL    HW120999   4.212   1.151   3.914 -0.4746 -1.2470 -0.2099
 3122SOL    HW221000   4.121   1.206   3.812 -1.0341 -1.2534  0.9050
 3123SOL     OW21001   0.876   1.201  12.921 -0.5969 -0.1383 -0.4536
 3123SOL    HW121002   0.842   1.143  12.853  1.0576 -2.0924  0.4109
 3123SOL    HW221003   0.899   1.140  12.990  0.7766  2.6659  1.5867
 3124SOL     OW21004   4.112   2.236   5.975  0.1403 -0.6754 -0.5309
 3124SOL    HW121005   4.067   2.185   5.909  0.7400 -1.4006 -0.3861
 3124SOL    HW221006   4.182   2.176   6.003  1.6709  1.2520 -0.1751
 3125SOL     OW21007   1.537   0.006   3.269 -0.3107 -0.0474  0.1307
 3125SOL    HW121008   1.563   0.064   3.340 -0.5895 -0.4741  0.5805
 3125SOL    HW221009   1.604   4.680   3.261 -0.3282 -0.1943  1.2073
 3126SOL     OW21010   2.489   3.005   2.478 -0.2630  0.2327 -0.3240
 3126SOL    HW121011   2.527   3.060   2.410  0.9529  1.0543  1.0286
 3126SOL    HW221012   2.542   3.028   2.554  2.4982 -0.3796 -2.0889
 3127SOL     OW21013   2.142   2.101   6.368  0.1528 -0.0220 -0.2106
 3127SOL    HW121014   2.226   2.147   6.372 -1.0433  2.1395  0.3161
 3127SOL    HW221015   2.113   2.102   6.459 -0.0898 -1.8576 -0.2806
 3128SOL     OW21016   2.720   0.256   9.694  0.2113 -0.4779 -0.1099
 3128SOL    HW121017   2.656   0.327   9.691  1.3389  0.5038 -0.7418
 3128SOL    HW221018   2.757   0.255   9.606  0.7192 -0.6534  0.1008
 3129SOL     OW21019   3.186   3.028   2.851  0.4317 -0.4177 -0.0938
 3129SOL    HW121020   3.206   2.946   2.806 -3.5572 -1.3637 -0.1046
 3129SOL    HW221021   3.097   3.003   2.874 -0.0176  0.1270 -1.2177
 3130SOL     OW21022   2.449   2.073  11.094  0.3444 -0.3295 -0.3211
 3130SOL    HW121023   2.502   2.144  11.131 -0.5679  0.3546 -0.3089
 3130SOL    HW221024   2.512   2.004  11.075  0.2832 -1.0098  1.9536
 3131SOL     OW21025   0.566   0.122  11.554  0.2620  0.2408  0.0681
 3131SOL    HW121026   0.576   0.092  11.464 -2.8244 -0.2130 -0.1051
 3131SOL    HW221027   0.584   0.046  11.609 -1.7158  0.0695  0.4751
 3132SOL     OW21028   0.405   0.814  13.316  0.2849  0.1378 -0.6894
 3132SOL    HW121029   0.317   0.799  13.351  0.0755 -2.5807 -2.3945
 3132SOL    HW221030   0.402   0.908  13.297 -0.4888  0.6015  1.6912
 3133SOL     OW21031   0.199   3.629   8.350  0.2707  0.3416 -0.6803
 3133SOL    HW121032   0.136   3.675   8.405  0.2134 -0.7095  0.1344
 3133SOL    HW221033   0.199   3.540   8.385 -0.9854  0.6878  0.2106
 3134SOL     OW21034   3.180   0.901   2.387 -0.2429  0.3075 -0.2584
 3134SOL    HW121035   3.251   0.959   2.358  0.3636  0.5290  1.6658
 3134SOL    HW221036   3.208   0.875   2.474 -1.3677 -1.6116 -0.4706
 3135SOL     OW21037   3.875   2.786   5.980 -0.3111  0.9809 -0.1316
 3135SOL    HW121038   3.820   2.798   5.903  0.0219  2.3647 -0.1518
 3135SOL    HW221039   3.923   2.704   5.967  0.5052  1.0725  2.4539
 3136SOL     OW21040   4.578   2.432  16.224  0.6834  0.8962 -0.1986
 3136SOL    HW121041   4.597   2.456  16.314  0.6653 -1.3570  0.4196
 3136SOL    HW221042   4.648   2.367  16.213  0.5456  0.7505 -0.2193
 3137SOL     OW21043   3.529   3.959   8.218  0.6280 -0.7808  0.5791
 3137SOL    HW121044   3.582   3.923   8.289  2.1385 -0.6465 -0.4842
 3137SOL    HW221045   3.447   3.926   8.254  0.1625 -0.8677 -0.5692
 3138SOL     OW21046   2.422   2.531   7.493  0.0000  0.2783 -0.1867
 3138SOL    HW121047   2.471   2.471   7.437  0.4767  0.9772 -0.5233
 3138SOL    HW221048   2.435   2.612   7.443 -1.0169  0.5705  0.0086
 3139SOL     OW21049   2.427   2.949  12.292  0.5397  0.0285 -0.8082
 3139SOL    HW121050   2.440   2.942  12.386  0.7033  1.1188 -0.7418
 3139SOL    HW221051   2.389   3.037  12.287 -0.4084 -0.4154 -1.2807
 3140SOL     OW21052   1.455   2.573   7.289  0.5837 -0.4435 -0.3730
 3140SOL    HW121053   1.472   2.596   7.198  0.4122 -0.7041 -0.4709
 3140SOL    HW221054   1.481   2.482   7.301  0.9246 -0.4437 -1.0993
 3141SOL     OW21055   2.726   1.565   5.157 -0.3541 -0.0958  0.2589
 3141SOL    HW121056   2.750   1.569   5.065 -1.8372  0.1421 -0.1292
 3141SOL    HW221057   2.766   1.641   5.198 -1.1947 -0.4733  1.7897
 3142SOL     OW21058   3.733   4.381   7.198  0.4892  0.1708  0.1767
 3142SOL    HW121059   3.750   4.472   7.220 -1.2210  0.8545 -1.3552
 3142SOL    HW221060   3.668   4.389   7.129 -0.4300 -1.0292  0.8961
 3143SOL     OW21061   4.615   4.559   2.076 -0.0321 -0.8346 -0.2442
 3143SOL    HW121062   4.627   4.522   2.163  0.0833  1.2354  0.6271
 3143SOL    HW221063   4.702   4.578   2.039 -0.7179  0.4660 -1.1770
 3144SOL     OW21064   0.656   2.969   6.832 -0.1908  0.1383  0.1811
 3144SOL    HW121065   0.702   2.903   6.780 -1.8608 -0.6310 -0.2934
 3144SOL    HW221066   0.722   2.974   6.901  1.3881  0.8226 -1.3725
 3145SOL     OW21067   0.145   1.099   1.923 -0.4750 -0.2242 -0.6500
 3145SOL    HW121068   0.091   1.144   1.988  0.8511  1.3786 -0.6502
 3145SOL    HW221069   0.206   1.045   1.973  0.0816  0.2295 -0.8428
 3146SOL     OW21070   4.635   4.213   9.481 -0.9074 -0.3149  0.5471
 3146SOL    HW121071   4.675   4.200   9.395 -3.6066 -0.5667 -0.6827
 3146SOL    HW221072   4.701   4.177   9.539 -0.2503 -1.0955 -0.6712
 3147SOL     OW21073   1.868   2.787  10.011  0.0512  0.4695 -0.6763
 3147SOL    HW121074   1.830   2.834  10.085 -2.2178 -0.8679 -0.9976
 3147SOL    HW221075   1.874   2.704  10.057 -2.6733 -0.2147 -1.4971
 3148SOL     OW21076   1.991   1.574   3.146 -0.1691 -0.2248 -0.1509
 3148SOL    HW121077   1.977   1.650   3.090 -0.8346 -0.0646  0.2428
 3148SOL    HW221078   1.906   1.565   3.188  0.1719 -1.1231  0.3438
 3149SOL     OW21079   1.374   0.005   4.594  0.5388  0.5831  0.0251
 3149SOL    HW121080   1.300   4.687   4.576  1.3827 -0.1371 -1.0688
 3149SOL    HW221081   1.325   0.086   4.606  2.4347  1.8810 -1.1054
 3150SOL     OW21082   1.037   0.216   4.961 -0.2495 -0.5189 -0.5780
 3150SOL    HW121083   0.945   0.190   4.952 -0.3107 -0.5411  0.1219
 3150SOL    HW221084   1.023   0.300   5.004  0.1170 -1.3690  1.2457
 3151SOL     OW21085   2.225   3.048   6.163 -0.0548 -0.3841 -0.0011
 3151SOL    HW121086   2.257   3.128   6.205 -2.8819 -0.8257  3.0148
 3151SOL    HW221087   2.225   2.978   6.229  0.3094 -0.4502 -0.0676
 3152SOL     OW21088   1.597   3.496   4.822 -0.2761  0.0264 -0.3881
 3152SOL    HW121089   1.528   3.516   4.759 -0.1383  1.6142 -0.0570
 3152SOL    HW221090   1.567   3.410   4.849  0.4179  0.8028  2.8662
 3153SOL     OW21091   0.188   2.577   7.261 -0.2892 -0.1689 -0.0043
 3153SOL    HW121092   0.277   2.546   7.273 -0.6060 -1.3184 -0.6516
 3153SOL    HW221093   0.151   2.491   7.242  0.3899 -0.0922 -1.6935
 3154SOL     OW21094   3.327   4.657   2.676 -0.1568 -0.2958  0.1145
 3154SOL    HW121095   3.381   4.624   2.747 -0.3937 -1.6768 -0.3577
 3154SOL    HW221096   3.380   4.696   2.606  0.5266  0.1371  0.8748
 3155SOL     OW21097   2.267   1.620   2.893 -0.5873  0.2868 -0.1843
 3155SOL    HW121098   2.227   1.534   2.908  1.0186 -0.8005 -2.1113
 3155SOL    HW221099   2.225   1.647   2.812  1.4485 -0.5184 -1.5122
 3156SOL     OW21100   4.316   3.404   8.257  0.3082  0.2866 -0.1436
 3156SOL    HW121101   4.324   3.491   8.296 -1.4887  0.5789 -0.4579
 3156SOL    HW221102   4.278   3.433   8.174  0.1219 -1.7390 -0.7660
 3157SOL     OW21103   4.305   0.172   4.678  0.2320  0.5153 -0.0057
 3157SOL    HW121104   4.344   0.085   4.678  0.9250  0.8295 -0.2023
 3157SOL    HW221105   4.221   0.152   4.720  0.7708 -2.1751 -0.1913
 3158SOL     OW21106   2.459   2.780   7.373 -0.0807 -0.1114  0.0204
 3158SOL    HW121107   2.419   2.797   7.288 -0.3302 -1.3500 -0.1205
 3158SOL    HW221108   2.449   2.864   7.417  0.9558 -0.6192  1.2091
 3159SOL     OW21109   4.479   2.134  10.930 -0.4224 -0.1019  0.0012
 3159SOL    HW121110   4.544   2.093  10.987 -0.1531 -0.6817 -0.7197
 3159SOL    HW221111   4.524   2.213  10.902 -0.2170 -1.0482 -2.3789
 3160SOL     OW21112   1.391   1.175  11.539  0.2977  0.3141 -0.7346
 3160SOL    HW121113   1.393   1.104  11.476 -1.3570 -0.6065  0.2515
 3160SOL    HW221114   1.386   1.116  11.614 -3.6862  1.0968 -0.3656
 3161SOL     OW21115   0.077   4.558   4.738  1.1628 -0.2992 -0.1988
 3161SOL    HW121116   0.149   4.496   4.750  1.8869 -0.4841 -5.4249
 3161SOL    HW221117   0.065   4.590   4.828  2.2211 -0.7260  0.0969
 3162SOL     OW21118   1.952   3.944   7.898 -0.6631 -0.1909  0.2552
 3162SOL    HW121119   1.868   3.902   7.915 -1.4751  0.9831 -0.7763
 3162SOL    HW221120   1.998   3.929   7.980 -1.1388  0.7157  0.6864
 3163SOL     OW21121   2.505   0.928   5.181 -0.1946 -0.1069  0.3306
 3163SOL    HW121122   2.582   0.871   5.188  0.1607  0.3703  0.3770
 3163SOL    HW221123   2.525   1.018   5.207 -0.1538  0.8513 -3.0667
 3164SOL     OW21124   0.704   4.137   8.364 -0.6669 -0.0547  0.1126
 3164SOL    HW121125   0.674   4.092   8.285 -1.6635 -1.1616  1.1322
 3164SOL    HW221126   0.627   4.168   8.412 -0.1512 -0.8524  1.4551
 3165SOL     OW21127   2.964   4.447   2.222  0.5814  0.1471 -0.0168
 3165SOL    HW121128   2.986   4.532   2.260 -0.9618 -0.3663  2.0318
 3165SOL    HW221129   3.040   4.392   2.242 -0.4001 -1.5083 -0.8177
 3166SOL     OW21130   1.682   1.052  11.593  0.3762  0.3744  0.0991
 3166SOL    HW121131   1.751   1.059  11.659  1.0493 -1.6159 -0.3758
 3166SOL    HW221132   1.736   1.021  11.520  0.4855  1.4746 -0.2810
 3167SOL     OW21133   3.361   1.882   7.972  0.3631 -0.2021 -0.4455
 3167SOL    HW121134   3.349   1.809   8.033  0.0953  0.5495  0.4037
 3167SOL    HW221135   3.455   1.884   7.954  0.0178 -1.1505 -2.3879
 3168SOL     OW21136   2.233   2.410   7.651 -0.2818  0.1838 -0.5458
 3168SOL    HW121137   2.286   2.404   7.731  1.1108  1.6118 -1.3496
 3168SOL    HW221138   2.283   2.456   7.584  0.2053 -1.9255 -1.6443
 3169SOL     OW21139   4.127   3.634  13.717  0.0252 -0.1311  0.5096
 3169SOL    HW121140   4.043   3.609  13.755 -0.8056 -0.0528 -1.2505
 3169SOL    HW221141   4.159   3.696  13.783  1.4656 -0.8494  0.4783
 3170SOL     OW21142   3.797   1.945  10.629  0.0527 -0.0159  0.0240
 3170SOL    HW121143   3.819   1.852  10.636  1.2812  0.2298 -0.4977
 3170SOL    HW221144   3.706   1.934  10.658 -0.0628 -0.8372 -0.6535
 3171SOL     OW21145   2.155   1.152   1.511 -0.0358  0.3252 -0.3169
 3171SOL    HW121146   2.224   1.086   1.504  0.2703  0.4854  1.2318
 3171SOL    HW221147   2.168   1.175   1.603 -1.3903 -2.4214  0.5548
 3172SOL     OW21148   1.313   2.526   7.809 -0.0568 -0.0419  0.7620
 3172SOL    HW121149   1.339   2.435   7.796 -0.2412  0.4632 -3.2969
 3172SOL    HW221150   1.294   2.552   7.719  3.0970 -1.0138 -0.2080
 3173SOL     OW21151   0.125   1.898   9.699  0.5680  0.3782 -0.0091
 3173SOL    HW121152   0.089   1.971   9.749 -0.1751  0.8866 -1.2747
 3173SOL    HW221153   0.047   1.847   9.722  2.8117 -2.0609  2.1942
 3174SOL     OW21154   1.193   2.760   8.148 -0.6771  0.3819  0.1219
 3174SOL    HW121155   1.146   2.747   8.231 -1.0525 -0.3079 -0.2002
 3174SOL    HW221156   1.245   2.680   8.137  0.4078  0.8996  1.4684
 3175SOL     OW21157   2.504   4.352   1.906 -0.4149  0.5927 -0.2419
 3175SOL    HW121158   2.478   4.431   1.860 -0.8709  1.5928  1.7192
 3175SOL    HW221159   2.540   4.392   1.985  0.9764  0.6023 -0.8944
 3176SOL     OW21160   0.115   0.848  13.317  0.2578  0.2015  0.5798
 3176SOL    HW121161   0.035   0.864  13.266 -0.4859  0.3849  1.7975
 3176SOL    HW221162   0.100   0.909  13.389 -2.0701  0.0189  0.2610
 3177SOL     OW21163   0.921   3.195   8.803 -0.8911 -0.0681  0.3167
 3177SOL    HW121164   0.889   3.167   8.889 -0.7415  0.7612  0.6440
 3177SOL    HW221165   1.016   3.194   8.815 -0.7722  2.3457 -0.4048
 3178SOL     OW21166   2.181   4.409   4.496  0.5629 -0.1466  0.4455
 3178SOL    HW121167   2.149   4.379   4.411  1.9242 -0.5751  0.0794
 3178SOL    HW221168   2.141   4.340   4.549 -0.0975 -1.8464 -2.2961
 3179SOL     OW21169   0.864   3.571   2.855  0.1953  0.2913 -0.1582
 3179SOL    HW121170   0.948   3.584   2.901 -0.5840 -1.8840  1.8754
 3179SOL    HW221171   0.880   3.642   2.793  0.5845  1.8247  1.6791
 3180SOL     OW21172   0.625   4.227   9.564 -0.0687  0.7213 -0.1259
 3180SOL    HW121173   0.632   4.155   9.502 -2.3267  0.1937  0.2267
 3180SOL    HW221174   0.702   4.281   9.546 -1.3769  2.2062 -1.2865
 3181SOL     OW21175   2.507   1.678   4.690  0.8909 -0.1009  0.1054
 3181SOL    HW121176   2.472   1.595   4.725 -0.5087  0.3382 -0.2331
 3181SOL    HW221177   2.595   1.694   4.725  0.2820 -0.8531  2.0135
 3182SOL     OW21178   3.941   0.104   8.854  0.5015  0.0424 -0.1985
 3182SOL    HW121179   3.938   0.013   8.823  0.5708  0.6765 -2.0891
 3182SOL    HW221180   3.860   0.100   8.904  0.2007 -0.5046 -0.7144
 3183SOL     OW21181   0.410   3.675  14.221  0.3437  0.2658  0.2220
 3183SOL    HW121182   0.371   3.658  14.135 -2.9843  0.9891  1.5985
 3183SOL    HW221183   0.430   3.768  14.215 -1.1222  0.5779  0.0573
 3184SOL     OW21184   3.654   2.823   1.030 -0.4355  0.0595  0.1547
 3184SOL    HW121185   3.742   2.861   1.037 -1.0205  1.1914  1.2581
 3184SOL    HW221186   3.612   2.867   1.103 -3.3314  2.4748 -2.9707
 3185SOL     OW21187   0.191   3.936  16.812  0.4777  0.3087  0.3401
 3185SOL    HW121188   0.186   3.867  16.878 -2.8894  1.6712  1.4956
 3185SOL    HW221189   0.234   4.005  16.863 -0.0426 -1.0460  2.6182
 3186SOL     OW21190   1.261   2.796   2.411  0.1733 -0.2021  0.2810
 3186SOL    HW121191   1.262   2.757   2.498  1.9257 -1.6738 -0.4256
 3186SOL    HW221192   1.224   2.884   2.422  0.0578 -0.1533 -0.4797
 3187SOL     OW21193   2.166   4.250   0.355 -0.6691 -0.4869 -0.6568
 3187SOL    HW121194   2.082   4.205   0.343 -2.0536  1.6774  0.8420
 3187SOL    HW221195   2.134   4.326   0.404 -0.0193 -0.7498  0.1701
 3188SOL     OW21196   1.547   0.689   5.905 -0.2541  0.2603  0.2301
 3188SOL    HW121197   1.499   0.769   5.883  0.1324  0.2610 -0.5873
 3188SOL    HW221198   1.633   0.713   5.871 -0.0192  0.6427  1.0878
 3189SOL     OW21199   2.633   1.972  12.386  0.3357  0.0906  0.5530
 3189SOL    HW121200   2.552   1.920  12.376 -0.7319  1.7111  0.7900
 3189SOL    HW221201   2.590   2.057  12.381 -0.5582 -0.5265 -2.6007
 3190SOL     OW21202   2.264   0.521   0.518  0.5366  0.1698  0.0229
 3190SOL    HW121203   2.334   0.544   0.457 -1.9028  0.1623 -2.7850
 3190SOL    HW221204   2.313   0.506   0.598 -0.1855 -0.0188  0.4259
 3191SOL     OW21205   2.880   1.623   0.796 -0.5409  0.4176 -0.0543
 3191SOL    HW121206   2.943   1.600   0.864 -3.8198 -0.3625  2.7094
 3191SOL    HW221207   2.828   1.691   0.838 -0.2420  0.5362  0.1209
 3192SOL     OW21208   2.264   1.276  16.325 -0.4803  0.0323  0.0264
 3192SOL    HW121209   2.355   1.248  16.332 -0.3903 -0.1368 -1.7368
 3192SOL    HW221210   2.248   1.305  16.415  1.8130 -1.0832  0.7870
 3193SOL     OW21211   0.497   4.346   0.460 -0.9612 -0.1499  0.3469
 3193SOL    HW121212   0.494   4.250   0.465  0.3995 -0.3111 -1.6494
 3193SOL    HW221213   0.497   4.369   0.552 -0.6185 -2.9568  1.0557
 3194SOL     OW21214   3.534   0.673   6.547 -0.4628 -0.0074 -0.6856
 3194SOL    HW121215   3.492   0.631   6.623  0.8027  1.9780  1.1208
 3194SOL    HW221216   3.480   0.656   6.470 -2.3253  1.5989  0.2547
 3195SOL     OW21217   2.012   3.026  10.707 -0.7920 -0.6956  0.3739
 3195SOL    HW121218   2.051   3.105  10.745  0.8320 -1.9168  1.2531
 3195SOL    HW221219   1.928   3.062  10.681 -0.8444  1.1965  3.2289
 3196SOL     OW21220   3.923   2.501   7.350  0.6654  0.6067  0.3568
 3196SOL    HW121221   4.006   2.475   7.310  0.1934  0.0086 -0.2239
 3196SOL    HW221222   3.867   2.472   7.278  0.7192 -1.0790  1.0003
 3197SOL     OW21223   4.279   2.707   1.701  0.2457 -0.6085  0.5796
 3197SOL    HW121224   4.271   2.612   1.695 -2.9317 -0.4403  1.7407
 3197SOL    HW221225   4.204   2.741   1.652  1.3301 -0.2320 -0.7958
 3198SOL     OW21226   2.387   1.171   7.714 -0.5406 -0.1472 -0.8515
 3198SOL    HW121227   2.461   1.225   7.685 -0.1471  1.0486  2.2744
 3198SOL    HW221228   2.304   1.211   7.687 -1.2861 -1.2098 -0.1203
 3199SOL     OW21229   1.349   4.643   2.638  0.3433 -0.2470 -0.0150
 3199SOL    HW121230   1.378   4.681   2.721  0.3469  0.4185 -0.3156
 3199SOL    HW221231   1.273   4.699   2.619  0.7362 -0.6699 -2.8590
 3200SOL     OW21232   4.437   0.031   3.086  0.0632  0.0681 -0.4877
 3200SOL    HW121233   4.526   0.065   3.097 -0.1498  0.5219 -0.1826
 3200SOL    HW221234   4.386   0.050   3.164 -1.6462 -0.0090 -1.5988
 3201SOL     OW21235   3.407   0.182   0.221  0.0756  0.4727  0.9320
 3201SOL    HW121236   3.352   0.259   0.234  0.8066  1.0126  0.8300
 3201SOL    HW221237   3.498   0.209   0.224 -0.0599  1.1565 -1.2583
 3202SOL     OW21238   0.231   0.152   9.923 -0.4626 -1.1225 -0.0034
 3202SOL    HW121239   0.320   0.182   9.906 -0.9833 -0.1305 -0.9376
 3202SOL    HW221240   0.219   0.080   9.862  0.8401  0.0991 -1.6826
 3203SOL     OW21241   0.548   3.845  17.447  0.0230  0.0223  0.3739
 3203SOL    HW121242   0.521   3.786  17.518 -1.3657 -0.0665 -0.2128
 3203SOL    HW221243   0.630   3.880  17.480  0.1501 -0.0927  0.1783
 3204SOL     OW21244   3.584   2.393   3.430 -0.3096  0.1338  0.0492
 3204SOL    HW121245   3.617   2.321   3.484  1.2741  1.4087  0.7721
 3204SOL    HW221246   3.581   2.467   3.490  1.2836 -0.1531  0.4970
 3205SOL     OW21247   1.543   3.327   2.291 -0.4060  0.3160  0.1642
 3205SOL    HW121248   1.456   3.300   2.319 -0.1082 -0.9081 -0.0889
 3205SOL    HW221249   1.535   3.308   2.198  0.5366  0.7462 -0.0108
 3206SOL     OW21250   0.295   3.848  11.447 -0.4377 -0.1455 -0.3019
 3206SOL    HW121251   0.271   3.915  11.511  0.8521 -0.1339  0.1636
 3206SOL    HW221252   0.216   3.851  11.392  0.7271 -0.2007 -1.9799
 3207SOL     OW21253   4.321   0.862   2.862  0.0461 -0.1683 -0.1078
 3207SOL    HW121254   4.339   0.821   2.778  2.0378 -1.9879  1.1829
 3207SOL    HW221255   4.410   0.892   2.884  0.1093  0.0924 -0.7018
 3208SOL     OW21256   3.417   2.895  11.702 -0.2685  0.2250  0.4785
 3208SOL    HW121257   3.399   2.989  11.705  0.7704  0.4867 -1.6686
 3208SOL    HW221258   3.473   2.880  11.626 -0.3361  0.2326  0.4271
 3209SOL     OW21259   2.447   4.600  15.118  0.5057  0.1938 -0.3403
 3209SOL    HW121260   2.369   4.636  15.075 -0.9555  0.8322  2.9213
 3209SOL    HW221261   2.508   4.627  15.048  0.5077  0.3779 -0.2676
 3210SOL     OW21262   2.544   1.543   8.492 -0.1593  0.5530 -0.1239
 3210SOL    HW121263   2.569   1.460   8.452 -1.2259  0.3913 -0.4319
 3210SOL    HW221264   2.518   1.605   8.423 -0.7508 -0.2808 -0.6429
 3211SOL     OW21265   1.654   0.889  12.726  0.1563  0.3813 -0.7873
 3211SOL    HW121266   1.717   0.956  12.699  1.3994 -0.5294 -0.1747
 3211SOL    HW221267   1.695   0.810  12.689 -1.1895  0.1233 -1.7144
 3212SOL     OW21268   1.491   3.763   7.854 -0.3604 -0.0282 -0.1803
 3212SOL    HW121269   1.526   3.847   7.884  1.3628 -1.1749  1.0485
 3212SOL    HW221270   1.439   3.735   7.929 -1.1372  1.1270 -0.2783
 3213SOL     OW21271   3.739   2.057   8.955 -0.0798 -0.0796  0.3749
 3213SOL    HW121272   3.651   2.094   8.963 -0.6374 -1.2700 -0.4087
 3213SOL    HW221273   3.781   2.143   8.952  0.6690 -0.4289  0.8248
 3214SOL     OW21274   3.308   0.657   3.959  0.0645  0.0357  0.3831
 3214SOL    HW121275   3.224   0.619   3.932 -0.6026  1.8782 -0.1343
 3214SOL    HW221276   3.377   0.603   3.920 -1.4565  0.7253 -3.2948
 3215SOL     OW21277   1.957   2.938   7.063  0.0077 -0.4418 -0.2339
 3215SOL    HW121278   1.949   2.983   6.979  0.2965 -2.5413 -1.4093
 3215SOL    HW221279   2.003   2.859   7.035  1.9643 -0.2359  2.4275
 3216SOL     OW21280   1.619   3.470   2.798  0.4992  0.0945  0.1382
 3216SOL    HW121281   1.699   3.506   2.759  0.3217  0.1301 -0.1909
 3216SOL    HW221282   1.654   3.392   2.842 -0.5181 -0.5827 -0.2691
 3217SOL     OW21283   4.702   1.803   2.906 -0.0690  0.0348 -0.1213
 3217SOL    HW121284   4.642   1.877   2.900  1.1783  0.9916 -0.7651
 3217SOL    HW221285   4.637   1.735   2.925  0.7135 -1.0943 -1.4457
 3218SOL     OW21286   4.726   1.061   2.669  0.1985 -0.3767 -0.2869
 3218SOL    HW121287   0.011   0.971   2.683 -0.5576 -0.9089 -2.3105
 3218SOL    HW221288   0.030   1.094   2.747 -1.6599  2.1899 -0.2520
 3219SOL     OW21289   2.416   3.735   2.074  0.1301  0.4137 -0.2992
 3219SOL    HW121290   2.372   3.756   2.156 -0.3040 -2.6385  0.2485
 3219SOL    HW221291   2.505   3.711   2.099 -0.6783 -2.5440 -0.2481
 3220SOL     OW21292   1.619   3.884  13.142  0.3256 -0.3428 -0.0339
 3220SOL    HW121293   1.604   3.971  13.180  0.7677 -0.0025 -0.6306
 3220SOL    HW221294   1.664   3.837  13.212  0.9342  2.5674  1.5506
 3221SOL     OW21295   2.446   2.366   9.539 -0.0189 -0.5385 -0.0508
 3221SOL    HW121296   2.503   2.421   9.593  2.5763 -1.4670 -1.8288
 3221SOL    HW221297   2.509   2.296   9.527 -0.3863 -1.0293  0.8750
 3222SOL     OW21298   1.267   3.400  12.475 -0.2513 -0.4413 -0.2077
 3222SOL    HW121299   1.279   3.363  12.388 -0.2897 -2.7111  0.7531
 3222SOL    HW221300   1.327   3.474  12.481 -1.1722  0.2158  1.1407
 3223SOL     OW21301   0.820   1.689   5.615  0.6312  0.2731  0.8845
 3223SOL    HW121302   0.776   1.718   5.536  0.5968 -2.8746 -0.2191
 3223SOL    HW221303   0.906   1.729   5.603  0.0356  1.3645  0.1466
 3224SOL     OW21304   3.021   1.737   7.850 -0.9261 -0.2898  0.6959
 3224SOL    HW121305   3.057   1.663   7.802  1.3839  1.3330 -0.0465
 3224SOL    HW221306   3.015   1.697   7.936  0.7296 -0.7335  0.5932
 3225SOL     OW21307   0.267   2.433   6.985 -1.0908  0.2850  0.6198
 3225SOL    HW121308   0.260   2.359   7.046 -1.1579 -0.2717 -0.0608
 3225SOL    HW221309   0.337   2.397   6.931 -2.8711 -1.5568 -0.4566
 3226SOL     OW21310   3.521   4.035  12.229  0.5520  0.4953 -0.1244
 3226SOL    HW121311   3.447   4.073  12.183 -0.2130  0.3699  1.0156
 3226SOL    HW221312   3.592   4.099  12.220  1.9920 -0.8437  1.4393
 3227SOL     OW21313   1.315   0.377  10.527  0.2902  0.4895 -0.3391
 3227SOL    HW121314   1.357   0.428  10.596  2.1097 -2.4592  0.7082
 3227SOL    HW221315   1.259   0.325  10.585  0.3280 -0.6942 -1.3514
 3228SOL     OW21316   3.619   1.886   6.097  0.3280  0.0623 -0.4282
 3228SOL    HW121317   3.649   1.797   6.076 -2.3660 -1.1438  0.8309
 3228SOL    HW221318   3.624   1.928   6.011 -0.2639  0.2569 -0.3689
 3229SOL     OW21319   0.957   2.259   4.038  0.5011 -0.1003 -0.0765
 3229SOL    HW121320   0.969   2.179   3.987 -4.5163 -1.0411  0.2666
 3229SOL    HW221321   1.010   2.319   3.985 -0.9426  0.7608 -0.5635
 3230SOL     OW21322   4.192   3.511   5.137 -0.3188 -0.3598 -0.2868
 3230SOL    HW121323   4.286   3.495   5.147 -0.6882 -2.0538  0.4006
 3230SOL    HW221324   4.177   3.605   5.124  1.9241 -0.1737 -1.5628
 3231SOL     OW21325   3.990   0.571  15.540  0.6801  0.1355  0.6843
 3231SOL    HW121326   4.071   0.530  15.510  0.1213  0.0556 -0.6940
 3231SOL    HW221327   4.009   0.665  15.530 -3.8528  0.8882 -0.6716
 3232SOL     OW21328   0.567   0.778   3.294  0.2614  0.3255  0.1104
 3232SOL    HW121329   0.635   0.843   3.278  0.1692  0.6681  1.1619
 3232SOL    HW221330   0.585   0.758   3.385  2.2872  3.0865  0.3397
 3233SOL     OW21331   2.089   4.278   4.069 -0.2170  0.5547  0.3602
 3233SOL    HW121332   2.119   4.203   4.120  1.6685  1.1237  0.0584
 3233SOL    HW221333   1.996   4.255   4.062 -0.4155  1.1058  1.2887
 3234SOL     OW21334   1.391   0.938   7.996  0.2517 -0.2847  0.0749
 3234SOL    HW121335   1.446   1.004   7.954 -0.9194  1.3465  1.1386
 3234SOL    HW221336   1.310   0.962   7.952  1.1531 -1.2013 -2.0939
 3235SOL     OW21337   0.619   1.550   8.791 -0.3156 -0.6177  0.5525
 3235SOL    HW121338   0.570   1.561   8.872  1.8010  1.6792  1.5437
 3235SOL    HW221339   0.587   1.462   8.771  1.5996 -1.3055  0.5176
 3236SOL     OW21340   1.346   0.329   9.893  0.1814 -0.1454 -0.2860
 3236SOL    HW121341   1.393   0.390   9.949  0.9290  1.4221 -2.6276
 3236SOL    HW221342   1.267   0.383   9.887 -0.0046 -0.4718 -0.8512
 3237SOL     OW21343   3.914   2.250   7.083 -0.1840  0.3909 -0.4151
 3237SOL    HW121344   3.960   2.311   7.025  0.8537  2.8015  2.9853
 3237SOL    HW221345   3.839   2.233   7.026 -0.7678 -3.1058  1.4388
 3238SOL     OW21346   1.345   4.316   4.106 -0.1450 -0.1193  0.5194
 3238SOL    HW121347   1.382   4.228   4.102 -1.6261 -0.7285  0.2927
 3238SOL    HW221348   1.347   4.345   4.015 -0.2536 -0.5109  0.3921
 3239SOL     OW21349   4.398   0.878   6.619  0.1782 -0.3113 -0.4794
 3239SOL    HW121350   4.426   0.823   6.546  1.8650  1.0091 -0.8221
 3239SOL    HW221351   4.485   0.907   6.647 -0.9079  3.3131 -0.8999
 3240SOL     OW21352   4.031   1.946  12.397 -0.1797 -0.0882  0.2084
 3240SOL    HW121353   3.945   1.956  12.357 -0.1088  2.4122  0.6454
 3240SOL    HW221354   4.008   1.923  12.487  1.4601  0.0098  0.6590
 3241SOL     OW21355   2.075   3.214   4.001 -0.2089  0.4111  0.2274
 3241SOL    HW121356   2.168   3.234   4.013 -0.5778  2.4556 -0.3524
 3241SOL    HW221357   2.065   3.266   3.921  0.0249 -2.2618 -1.5470
 3242SOL     OW21358   1.794   4.013  10.103  0.1982 -0.5630 -0.6081
 3242SOL    HW121359   1.780   3.981  10.192  2.3125 -0.2719 -0.1831
 3242SOL    HW221360   1.732   3.958  10.055 -1.3743  0.8476 -0.1996
 3243SOL     OW21361   3.480   3.615   7.640 -0.6010 -0.3749  0.3490
 3243SOL    HW121362   3.536   3.537   7.639 -0.4143 -0.2451  0.6141
 3243SOL    HW221363   3.467   3.634   7.733  0.8470  0.8984  0.2876
 3244SOL     OW21364   3.397   3.989   2.722 -0.1642 -0.0276  0.3040
 3244SOL    HW121365   3.459   3.940   2.669  0.9856  0.2412  1.3962
 3244SOL    HW221366   3.343   4.034   2.657 -1.9703 -0.0508  1.7851
 3245SOL     OW21367   4.027   2.875  15.267  0.6270 -0.5740 -0.1050
 3245SOL    HW121368   4.036   2.949  15.327 -0.1900  0.4177 -1.2331
 3245SOL    HW221369   3.949   2.831  15.299  0.2857 -0.9306 -1.4281
 3246SOL     OW21370   3.148   0.943   4.462  0.3265  0.4976  0.3951
 3246SOL    HW121371   3.224   0.948   4.403  0.1892  0.5780  0.2249
 3246SOL    HW221372   3.100   1.023   4.440  1.0610  1.4145  2.1251
 3247SOL     OW21373   4.397   4.309  13.696 -0.3688 -0.2724  0.1044
 3247SOL    HW121374   4.485   4.343  13.714 -0.0642 -1.3837  0.7007
 3247SOL    HW221375   4.341   4.385  13.710  0.5136  0.3206  0.4695
 3248SOL     OW21376   4.626   1.717   8.542 -0.2278 -0.0486 -0.1494
 3248SOL    HW121377   4.562   1.646   8.546 -0.8808  0.5678  0.2123
 3248SOL    HW221378   4.709   1.672   8.556 -0.4962 -0.6427 -0.4528
 3249SOL     OW21379   1.711   4.330   6.476 -0.3560  0.7210 -0.6886
 3249SOL    HW121380   1.691   4.388   6.403 -0.5497  1.2669 -0.1947
 3249SOL    HW221381   1.637   4.269   6.471 -1.2221  1.6486  0.9857
 3250SOL     OW21382   1.527   4.252   9.978  0.3653 -0.0304 -0.0361
 3250SOL    HW121383   1.575   4.187  10.030  1.4881  1.0415  0.2570
 3250SOL    HW221384   1.452   4.204   9.942  0.5358 -0.9205  0.7733
 3251SOL     OW21385   1.553   3.024   6.657  0.2481  0.6494 -0.0260
 3251SOL    HW121386   1.551   2.929   6.643  1.1626  0.5787  0.3188
 3251SOL    HW221387   1.580   3.023   6.749  0.8856  1.1287 -0.2166
 3252SOL     OW21388   3.644   3.897   1.981  0.2362  0.6907  0.2326
 3252SOL    HW121389   3.632   3.982   1.938 -0.8893  0.8838  0.9413
 3252SOL    HW221390   3.573   3.889   2.044 -1.4087  2.9008 -1.3494
 3253SOL     OW21391   3.249   2.511   2.638 -0.3553 -0.1989  0.2336
 3253SOL    HW121392   3.330   2.488   2.683 -1.5157  0.7501  2.7567
 3253SOL    HW221393   3.222   2.430   2.595  0.5854 -0.4967  0.1957
 3254SOL     OW21394   4.727   3.893   9.814  0.0387 -0.4037  0.4776
 3254SOL    HW121395   0.051   3.852   9.869 -0.6025 -0.5406  1.1344
 3254SOL    HW221396   4.652   3.878   9.872  1.6509 -2.3202  2.0297
 3255SOL     OW21397   1.474   1.666   7.380  0.2451  0.4110  0.1532
 3255SOL    HW121398   1.534   1.620   7.439  1.9198  2.4028  0.0201
 3255SOL    HW221399   1.531   1.739   7.356  0.7873  0.2784  1.0214
 3256SOL     OW21400   1.434   0.456   3.071 -0.0295  0.3643  0.1222
 3256SOL    HW121401   1.411   0.524   3.007 -1.0609  1.1976  1.4008
 3256SOL    HW221402   1.367   0.475   3.137  1.0442  0.9391  1.0465
 3257SOL     OW21403   2.606   2.279   5.909 -0.3380  0.0890  0.2139
 3257SOL    HW121404   2.582   2.345   5.844  0.4454 -0.3566 -0.5252
 3257SOL    HW221405   2.519   2.251   5.936 -0.7555  0.4334 -0.7856
 3258SOL     OW21406   2.880   3.839  17.156  0.4514 -0.0391  0.7025
 3258SOL    HW121407   2.828   3.824  17.077  3.1667 -2.8844 -0.5614
 3258SOL    HW221408   2.851   3.763  17.206 -0.1733 -0.5416 -0.4013
 3259SOL     OW21409   3.474   1.295   3.836 -0.6566 -1.1000  0.0219
 3259SOL    HW121410   3.466   1.344   3.918 -1.0404 -1.1454  0.0138
 3259SOL    HW221411   3.411   1.334   3.775  1.3546  1.0348 -0.6685
 3260SOL     OW21412   3.927   4.224   9.824  0.0850 -0.0537  0.8715
 3260SOL    HW121413   3.945   4.185   9.738 -0.5767  2.3999 -0.3779
 3260SOL    HW221414   3.917   4.317   9.804  0.8385 -0.0238  0.6335
 3261SOL     OW21415   4.643   2.569  14.631  0.4955  0.4194  0.1153
 3261SOL    HW121416   4.552   2.590  14.653  0.4152  0.9126 -0.6857
 3261SOL    HW221417   4.694   2.648  14.649 -0.4139  1.1382 -0.4534
 3262SOL     OW21418   2.844   2.145   5.867  0.4275 -0.1347 -0.4448
 3262SOL    HW121419   2.761   2.188   5.887  1.7153  2.0458  0.2473
 3262SOL    HW221420   2.867   2.120   5.956 -2.3561 -2.2083 -0.3374
 3263SOL     OW21421   4.083   1.541   5.219 -0.0718 -0.4102  0.0715
 3263SOL    HW121422   4.177   1.539   5.205  0.0126 -1.0183  0.6782
 3263SOL    HW221423   4.071   1.575   5.308 -0.9664  0.5169 -0.4075
 3264SOL     OW21424   3.842   4.547   3.847  0.8942 -0.4368 -0.1162
 3264SOL    HW121425   3.799   4.463   3.839  1.4027 -0.8983  2.0072
 3264SOL    HW221426   3.791   4.623   3.820  0.4349 -1.7393 -2.9308
 3265SOL     OW21427   4.229   1.215  12.381 -0.2661 -0.4998  0.2233
 3265SOL    HW121428   4.193   1.191  12.466 -3.0270  1.7116 -0.3379
 3265SOL    HW221429   4.235   1.127  12.343 -0.9572 -1.0026  1.2726
 3266SOL     OW21430   0.842   1.975   3.355 -0.3038 -0.4835 -0.0375
 3266SOL    HW121431   0.806   2.031   3.423  0.3959  0.6955 -0.6255
 3266SOL    HW221432   0.774   1.908   3.350 -1.9277  1.2839 -1.5543
 3267SOL     OW21433   0.129   3.337   3.048  0.4094  0.1131  0.0022
 3267SOL    HW121434   0.122   3.433   3.045  0.5835  0.1324  0.2311
 3267SOL    HW221435   0.111   3.323   3.141 -1.6897 -0.0197 -0.4339
 3268SOL     OW21436   4.299   4.437   0.377 -0.3237 -0.5671 -0.3376
 3268SOL    HW121437   4.223   4.401   0.422 -1.1452  1.9074  0.2401
 3268SOL    HW221438   4.363   4.455   0.446 -0.5876  0.4465 -0.3601
 3269SOL     OW21439   1.785   4.163  10.364 -0.6552 -0.1364 -0.2115
 3269SOL    HW121440   1.718   4.221  10.400  0.3565  1.5746 -1.0702
 3269SOL    HW221441   1.731   4.087  10.341 -1.4747  0.4466 -0.2262
 3270SOL     OW21442   1.890   3.080   2.783 -0.0668  0.0634  0.4682
 3270SOL    HW121443   1.851   3.100   2.697  1.3759  1.8630  0.2501
 3270SOL    HW221444   1.977   3.050   2.759  0.6100  1.2667  1.4803
 3271SOL     OW21445   0.668   3.686   4.491  0.0278 -0.1431  0.1901
 3271SOL    HW121446   0.608   3.756   4.468  0.2965  0.1599  0.4133
 3271SOL    HW221447   0.617   3.626   4.545  2.4987 -1.4531  1.0762
 3272SOL     OW21448   1.368   0.451   6.781 -0.4686 -0.0648 -0.2310
 3272SOL    HW121449   1.391   0.521   6.843 -0.0284  0.3339 -0.8471
 3272SOL    HW221450   1.369   0.378   6.842  0.4006  1.2334  1.3182
 3273SOL     OW21451   0.041   2.330   2.675  0.3258 -0.4092 -0.0147
 3273SOL    HW121452   4.708   2.389   2.670  1.5587  1.0389 -1.3921
 3273SOL    HW221453   4.741   2.246   2.655  0.2797  0.1338 -2.2140
 3274SOL     OW21454   2.514   4.096   4.044 -0.0064  0.8148  0.0498
 3274SOL    HW121455   2.554   4.172   4.004  0.9882 -0.1578 -0.7990
 3274SOL    HW221456   2.465   4.052   3.975 -0.7682 -1.0399  1.7531
 3275SOL     OW21457   3.664   2.519   4.216  0.5579  0.5099 -0.1176
 3275SOL    HW121458   3.704   2.547   4.133 -2.0913 -1.8065 -2.1464
 3275SOL    HW221459   3.618   2.441   4.185  2.0956 -1.0386  1.4926
 3276SOL     OW21460   2.891   4.087   5.851  0.1608 -0.0011  0.1260
 3276SOL    HW121461   2.931   4.070   5.766  0.6005  1.2631  0.0841
 3276SOL    HW221462   2.818   4.148   5.844  0.1667 -0.1066 -0.7648
 3277SOL     OW21463   4.354   0.016   8.979  0.1430  0.1456  0.5024
 3277SOL    HW121464   4.383   0.066   8.902  0.2067 -1.9212 -0.8284
 3277SOL    HW221465   4.393   0.065   9.051  1.3015  1.1759 -0.8269
 3278SOL     OW21466   1.500   2.233   9.779 -0.2161 -0.7026  0.0389
 3278SOL    HW121467   1.449   2.270   9.707 -1.0802  1.4275  1.7527
 3278SOL    HW221468   1.523   2.309   9.831  0.3594 -0.5692 -0.4154
 3279SOL     OW21469   3.313   2.078  15.907  0.5376 -0.2211 -0.0451
 3279SOL    HW121470   3.341   2.160  15.947  0.8964 -1.1327  1.5405
 3279SOL    HW221471   3.219   2.096  15.904  0.8114  1.2553 -0.1262
 3280SOL     OW21472   3.965   1.528   3.775 -0.1681 -0.1410  0.1070
 3280SOL    HW121473   3.958   1.445   3.822  2.9845 -0.4279  0.0675
 3280SOL    HW221474   3.940   1.495   3.689  0.3600 -1.9179  0.6304
 3281SOL     OW21475   3.129   1.996   7.887  0.0983 -0.1600 -0.9198
 3281SOL    HW121476   3.080   1.929   7.838 -0.4729 -0.0807 -0.4569
 3281SOL    HW221477   3.198   1.941   7.924 -0.1825 -0.0379 -0.2157
 3282SOL     OW21478   2.938   3.280  16.073  0.2422 -0.1693  0.2492
 3282SOL    HW121479   2.935   3.261  16.167  0.1489 -1.2817  0.0286
 3282SOL    HW221480   3.013   3.338  16.073  2.4985 -3.0925  0.2540
 3283SOL     OW21481   3.735   1.377  15.941 -0.0316 -0.0881  0.0336
 3283SOL    HW121482   3.777   1.292  15.927  0.9919  0.4571 -0.2033
 3283SOL    HW221483   3.677   1.351  16.013 -1.1010  2.1905 -0.0138
 3284SOL     OW21484   0.237   2.929  15.911 -0.0735 -1.1018  0.1248
 3284SOL    HW121485   0.283   2.847  15.896  2.4304  0.4593 -0.9419
 3284SOL    HW221486   0.318   2.981  15.918 -1.8760  1.6677  0.4786
 3285SOL     OW21487   0.760   2.778   6.644  0.0276  0.1361 -0.1484
 3285SOL    HW121488   0.729   2.711   6.583  3.0632 -1.8233  0.4611
 3285SOL    HW221489   0.814   2.722   6.699  2.8996  1.6282 -1.4327
 3286SOL     OW21490   1.638   0.350  10.837 -0.1140  0.3826 -0.1358
 3286SOL    HW121491   1.687   0.424  10.800 -0.5820  1.0807  0.6497
 3286SOL    HW221492   1.626   0.294  10.760  0.5603  0.7224 -0.4886
 3287SOL     OW21493   3.564   1.407  12.545  0.2095 -0.2945  0.0528
 3287SOL    HW121494   3.512   1.328  12.532 -1.8316  0.8113  1.4286
 3287SOL    HW221495   3.537   1.458  12.469 -0.4126 -0.7803 -0.0549
 3288SOL     OW21496   1.921   2.586   4.141 -0.5938  0.9532  0.2022
 3288SOL    HW121497   1.936   2.604   4.234  1.3411  0.4521 -0.0035
 3288SOL    HW221498   1.826   2.597   4.146 -0.5947  0.6129  0.9108
 3289SOL     OW21499   0.643   1.651   1.142 -0.0262 -0.0172  0.0368
 3289SOL    HW121500   0.668   1.742   1.130  0.6554 -0.5836 -2.9090
 3289SOL    HW221501   0.583   1.654   1.216 -0.6076 -1.2283 -0.3849
 3290SOL     OW21502   1.825   0.768   8.014 -0.0417 -0.1585 -0.7692
 3290SOL    HW121503   1.827   0.773   8.109 -0.9353 -0.5637 -0.7275
 3290SOL    HW221504   1.785   0.681   8.011 -0.5668  0.0036  1.5914
 3291SOL     OW21505   3.878   2.055  13.117  0.3333  0.0334 -0.0452
 3291SOL    HW121506   3.807   2.085  13.173 -1.5181 -1.8385 -1.4090
 3291SOL    HW221507   3.936   2.131  13.110 -1.0903  1.0883 -0.3222
 3292SOL     OW21508   4.626   3.163   7.412  0.2320 -0.3539  0.0288
 3292SOL    HW121509   4.680   3.145   7.335 -0.0697 -1.4928  0.0873
 3292SOL    HW221510   4.583   3.246   7.391 -0.9720 -1.4340 -1.7700
 3293SOL     OW21511   2.894   3.170   8.492 -0.1702 -0.2958 -0.1402
 3293SOL    HW121512   2.965   3.187   8.429 -1.6801 -1.7512 -2.2576
 3293SOL    HW221513   2.911   3.249   8.543 -1.2026 -0.5997  0.6647
 3294SOL     OW21514   3.149   2.651   5.859 -0.3970  0.7350  0.5560
 3294SOL    HW121515   3.088   2.593   5.904  0.3916 -0.7177 -0.2429
 3294SOL    HW221516   3.230   2.605   5.880  0.1224  0.6849 -1.5740
 3295SOL     OW21517   1.637   3.356  12.822 -0.0323  0.6655  0.7706
 3295SOL    HW121518   1.625   3.404  12.903 -1.4009  1.1885  0.2646
 3295SOL    HW221519   1.675   3.277  12.860 -0.5435  0.4326  0.7965
 3296SOL     OW21520   4.178   3.870  11.734  0.7732 -0.1530 -0.1473
 3296SOL    HW121521   4.237   3.934  11.775 -0.2436 -0.5758  2.0103
 3296SOL    HW221522   4.127   3.913  11.665  1.2602  0.2956 -0.2301
 3297SOL     OW21523   3.536   2.019   6.345 -0.3310 -0.1813  0.4113
 3297SOL    HW121524   3.558   1.996   6.255  0.6570 -1.2184  0.9096
 3297SOL    HW221525   3.538   1.937   6.395 -0.9071 -0.6106 -0.2742
 3298SOL     OW21526   3.002   3.311   2.558  0.3931  0.1999  0.0271
 3298SOL    HW121527   3.066   3.294   2.489  1.7287  0.6241  1.1795
 3298SOL    HW221528   2.941   3.239   2.542  1.2048 -0.5964  0.5271
 3299SOL     OW21529   4.271   3.514  16.598 -0.1883 -0.4501 -0.2215
 3299SOL    HW121530   4.230   3.523  16.684  0.9425 -0.8677  0.3488
 3299SOL    HW221531   4.323   3.593  16.581 -1.4739  0.0455 -1.9430
 3300SOL     OW21532   3.997   3.124   8.271  0.5788  0.5069  0.1194
 3300SOL    HW121533   3.988   3.163   8.358  1.8115  1.9410 -0.4042
 3300SOL    HW221534   4.033   3.037   8.284  2.0339  1.4673  2.4478
 3301SOL     OW21535   2.952   3.065  17.293 -0.1958 -0.4907  0.6227
 3301SOL    HW121536   2.867   3.036  17.260 -0.9023 -0.3068  2.2541
 3301SOL    HW221537   2.917   3.144  17.336  1.9412  0.9910 -0.3618
 3302SOL     OW21538   0.432   2.586  10.873  0.1818 -0.4192  0.5962
 3302SOL    HW121539   0.436   2.610  10.965  1.1756 -0.6243  0.6066
 3302SOL    HW221540   0.351   2.624  10.839  0.8024  0.5995  0.2772
 3303SOL     OW21541   2.718   3.627   2.083 -0.2876  0.5409 -0.2153
 3303SOL    HW121542   2.708   3.698   2.146  3.0965  1.0396 -0.2433
 3303SOL    HW221543   2.792   3.659   2.031  0.5898 -1.4928 -0.2288
 3304SOL     OW21544   1.340   1.647  12.699 -0.0984  0.0427 -0.4915
 3304SOL    HW121545   1.394   1.621  12.624  0.2381  3.6368 -1.5083
 3304SOL    HW221546   1.333   1.743  12.696 -0.8845 -0.0144 -0.3627
 3305SOL     OW21547   3.463   3.825  15.196 -0.2805 -0.1249 -0.2270
 3305SOL    HW121548   3.455   3.731  15.183  2.2044 -0.5129  1.1233
 3305SOL    HW221549   3.464   3.848  15.103  0.0672 -1.9446 -0.6734
 3306SOL     OW21550   4.078   1.742   5.874  0.0513 -0.2763 -0.1470
 3306SOL    HW121551   4.080   1.782   5.961  0.2578  0.5509 -0.5244
 3306SOL    HW221552   4.060   1.650   5.891  1.7238 -0.3300  1.3135
 3307SOL     OW21553   2.819   0.281   6.006  0.0252 -0.8532  0.0835
 3307SOL    HW121554   2.878   0.321   6.070 -1.2616 -1.1948  1.4865
 3307SOL    HW221555   2.801   0.357   5.951 -1.1061 -1.5053 -0.4519
 3308SOL     OW21556   3.338   1.381   7.195  0.5137  0.0708 -0.3547
 3308SOL    HW121557   3.380   1.466   7.182  3.8135 -1.8631 -2.0496
 3308SOL    HW221558   3.350   1.375   7.290 -1.1180  1.2704 -0.0600
 3309SOL     OW21559   2.103   1.216   7.848  0.0236  0.2841  0.0230
 3309SOL    HW121560   2.089   1.186   7.758 -1.9404 -0.3116  0.5144
 3309SOL    HW221561   2.055   1.148   7.896 -0.2684  0.0499 -0.6024
 3310SOL     OW21562   1.297   0.931  13.307  0.1750 -0.2042 -0.0830
 3310SOL    HW121563   1.244   0.908  13.231  2.6133  0.7259 -2.0773
 3310SOL    HW221564   1.273   1.023  13.308 -1.4654 -0.6887  2.9037
 3311SOL     OW21565   2.185   1.838  12.681 -0.2193 -0.4465 -0.0734
 3311SOL    HW121566   2.250   1.903  12.708 -0.8815  0.4638 -0.6716
 3311SOL    HW221567   2.219   1.814  12.595 -1.1301  0.7971 -0.7880
 3312SOL     OW21568   3.934   0.248   8.142 -0.1397  0.0732  0.2446
 3312SOL    HW121569   3.922   0.265   8.049 -1.6702  0.4804  0.5228
 3312SOL    HW221570   3.860   0.297   8.178  0.7987 -0.5207  3.0322
 3313SOL     OW21571   0.855   2.206   1.204  0.4363 -0.0769  0.4089
 3313SOL    HW121572   0.897   2.120   1.197  0.8269  0.1254  0.2288
 3313SOL    HW221573   0.817   2.215   1.117  1.2845 -0.4620 -0.0028
 3314SOL     OW21574   3.126   1.521   3.633  0.5859  0.8497  0.0181
 3314SOL    HW121575   3.075   1.591   3.592  0.8605  0.3725 -1.1373
 3314SOL    HW221576   3.057   1.454   3.632 -0.1172  1.5314  2.0214
 3315SOL     OW21577   0.295   4.737   2.408 -0.5290  0.1672  0.2120
 3315SOL    HW121578   0.322   0.074   2.455 -2.3306  1.0617 -0.2488
 3315SOL    HW221579   0.237   0.028   2.340 -2.8659 -1.9119  1.2422
 3316SOL     OW21580   2.894   3.154   5.304  0.4057  0.3556  0.0690
 3316SOL    HW121581   2.844   3.218   5.354  0.3580  2.0916 -2.2183
 3316SOL    HW221582   2.821   3.115   5.257 -0.6432 -0.0713  2.0174
 3317SOL     OW21583   3.327   1.589   2.862 -0.0365  0.1284 -0.0427
 3317SOL    HW121584   3.327   1.511   2.918 -0.5625  0.6780  0.7322
 3317SOL    HW221585   3.408   1.582   2.812 -0.0316 -0.2592  0.0159
 3318SOL     OW21586   2.821   4.418   4.215 -0.1635  0.5531 -0.2307
 3318SOL    HW121587   2.778   4.392   4.134 -2.3608 -0.5260  1.3065
 3318SOL    HW221588   2.777   4.500   4.238 -0.0263  0.5220  0.1486
 3319SOL     OW21589   2.135   2.146  17.067 -0.0937  0.2732 -0.2032
 3319SOL    HW121590   2.131   2.237  17.037 -0.6103  0.1139 -0.6095
 3319SOL    HW221591   2.072   2.113  17.003 -2.7896  1.9064  1.6003
 3320SOL     OW21592   4.015   3.248  15.208  0.0570 -0.1223 -0.5570
 3320SOL    HW121593   4.043   3.196  15.283 -1.7726  0.2009  0.3565
 3320SOL    HW221594   3.946   3.302  15.246  0.2141  0.3863 -1.0009
 3321SOL     OW21595   3.691   1.470   4.831 -0.0233 -0.1458  0.3921
 3321SOL    HW121596   3.658   1.512   4.752 -1.0890 -0.9191  0.4241
 3321SOL    HW221597   3.780   1.445   4.804 -0.2990 -0.9673  0.2519
 3322SOL     OW21598   1.611   4.384   4.398  0.2932  0.0279 -0.1521
 3322SOL    HW121599   1.519   4.367   4.379  0.0610  1.4294 -0.2399
 3322SOL    HW221600   1.606   4.413   4.489  2.9774 -1.3914  0.4471
 3323SOL     OW21601   3.555   4.198   7.668 -0.1617 -0.3135 -0.1167
 3323SOL    HW121602   3.608   4.121   7.647  1.0481 -0.1621  2.3216
 3323SOL    HW221603   3.469   4.185   7.627 -0.9499  2.6883  0.5776
 3324SOL     OW21604   1.537   0.239   1.930 -0.1291  0.2343 -0.4104
 3324SOL    HW121605   1.513   0.185   1.856 -1.5321  0.5166 -0.1545
 3324SOL    HW221606   1.475   0.312   1.942  1.9325  1.8662  0.4361
 3325SOL     OW21607   1.947   3.277  15.851  0.2450  0.4715 -0.0100
 3325SOL    HW121608   1.873   3.253  15.906  0.2438 -1.7003 -0.9756
 3325SOL    HW221609   1.932   3.227  15.771  3.4293 -0.9854  0.3013
 3326SOL     OW21610   3.911   1.050   3.012 -0.3856  0.0208  0.2532
 3326SOL    HW121611   3.972   0.981   2.984  1.1086 -0.2502  4.3127
 3326SOL    HW221612   3.838   1.013   3.061  0.4670  0.5937  1.9443
 3327SOL     OW21613   3.541   0.711   4.851 -0.4803 -0.2614 -0.3754
 3327SOL    HW121614   3.477   0.645   4.823 -0.3581 -2.0603  3.5127
 3327SOL    HW221615   3.487   0.788   4.835  2.2057  1.5172 -0.7806
 3328SOL     OW21616   3.941   1.096  12.486 -0.6585  0.5779 -0.5028
 3328SOL    HW121617   4.023   1.107  12.535 -0.3736  2.0503 -1.3003
 3328SOL    HW221618   3.933   1.002  12.503 -0.1932  0.7036  0.4314
 3329SOL     OW21619   3.779   1.479   6.617  0.7657 -0.0051 -0.5280
 3329SOL    HW121620   3.717   1.444   6.681 -0.8547 -0.1348 -2.1795
 3329SOL    HW221621   3.860   1.499   6.665  0.9745 -1.2511 -0.3641
 3330SOL     OW21622   3.838   2.167  15.049 -0.4555 -0.2293  0.3886
 3330SOL    HW121623   3.926   2.168  15.010 -0.3786  0.6372  0.5814
 3330SOL    HW221624   3.820   2.259  15.069 -1.3798  0.2503 -2.6397
 3331SOL     OW21625   2.359   2.817  11.685 -0.2831  0.7533 -0.3591
 3331SOL    HW121626   2.435   2.759  11.688 -1.1601 -0.4354 -1.0014
 3331SOL    HW221627   2.371   2.881  11.755 -0.7374  1.0469 -0.5463
 3332SOL     OW21628   0.409   1.591   4.097  0.5383 -0.5297  0.1889
 3332SOL    HW121629   0.393   1.594   4.002 -0.1165  0.5391  0.3303
 3332SOL    HW221630   0.463   1.669   4.114 -2.4533  1.2363  1.5917
 3333SOL     OW21631   1.227   2.416  17.070 -0.5093 -0.0226 -0.2335
 3333SOL    HW121632   1.158   2.470  17.109  1.3748  1.0601  1.5663
 3333SOL    HW221633   1.274   2.461  17.000  0.0454 -0.2686 -0.0132
 3334SOL     OW21634   1.908   2.583   9.053 -0.7772 -0.7259 -0.7096
 3334SOL    HW121635   1.997   2.610   9.075 -0.5064 -2.6587  0.6220
 3334SOL    HW221636   1.868   2.662   9.089  0.0816 -0.1557 -1.0218
 3335SOL     OW21637   0.474   3.379   9.479  0.3591 -0.0228  0.7794
 3335SOL    HW121638   0.394   3.370   9.427  0.3960  0.9051  0.5479
 3335SOL    HW221639   0.540   3.380   9.409 -1.7155 -2.2363 -1.2205
 3336SOL     OW21640   2.582   2.661   8.662 -0.5401  0.1191  0.2044
 3336SOL    HW121641   2.542   2.630   8.581 -0.4240  0.2140  0.1109
 3336SOL    HW221642   2.611   2.576   8.695  0.6562  1.3292  2.2810
 3337SOL     OW21643   1.231   4.345   5.188  0.4410  0.2433  0.1220
 3337SOL    HW121644   1.223   4.303   5.273 -4.4802 -0.6360 -0.8178
 3337SOL    HW221645   1.274   4.426   5.215 -0.7042  0.7780  0.3143
 3338SOL     OW21646   0.201   0.169   8.645  0.0198  0.3168  0.1625
 3338SOL    HW121647   0.220   0.263   8.645  1.2381  0.0629 -1.4683
 3338SOL    HW221648   0.154   0.163   8.729 -0.5071 -4.2975 -0.4915
 3339SOL     OW21649   3.815   2.235   1.747 -0.0046 -0.1321 -0.4586
 3339SOL    HW121650   3.801   2.145   1.776  0.3986  0.0983  0.4579
 3339SOL    HW221651   3.881   2.273   1.806 -2.2211  0.9267  1.3225
 3340SOL     OW21652   2.500   1.781   3.562 -0.2681  0.5764 -0.3514
 3340SOL    HW121653   2.592   1.770   3.584 -0.5417 -1.5135 -0.3051
 3340SOL    HW221654   2.494   1.741   3.475 -1.1960  0.9250 -0.4527
 3341SOL     OW21655   4.446   0.764   1.423 -0.1425 -0.0550  0.2741
 3341SOL    HW121656   4.365   0.774   1.472 -0.7822 -1.5531 -0.4784
 3341SOL    HW221657   4.427   0.697   1.358  0.1163  1.3200 -1.2055
 3342SOL     OW21658   3.295   1.151   8.704  0.3623 -0.0830 -0.0178
 3342SOL    HW121659   3.261   1.106   8.626 -0.2960  0.5667 -0.0988
 3342SOL    HW221660   3.279   1.088   8.774 -0.7806 -1.7322 -1.7419
 3343SOL     OW21661   3.688   0.792   1.688 -0.2698  0.1535  0.2301
 3343SOL    HW121662   3.725   0.762   1.771  1.1961 -1.9428 -1.1582
 3343SOL    HW221663   3.657   0.714   1.643 -1.7957  0.0177  1.5328
 3344SOL     OW21664   0.636   4.020  16.896 -0.1774 -0.4936  0.3066
 3344SOL    HW121665   0.554   4.022  16.946 -0.2013 -0.7648  0.2763
 3344SOL    HW221666   0.615   4.030  16.803  1.3458 -0.5395 -0.0466
 3345SOL     OW21667   1.383   1.362  13.754  0.1484 -0.8083  0.1181
 3345SOL    HW121668   1.449   1.298  13.782  2.3101  1.0987 -0.6294
 3345SOL    HW221669   1.385   1.433  13.818  0.0942  0.0919 -0.8748
 3346SOL     OW21670   3.752   1.380   0.112  0.1162 -0.9869 -0.8299
 3346SOL    HW121671   3.817   1.362   0.180 -1.4426 -0.2181  0.8575
 3346SOL    HW221672   3.690   1.307   0.121  1.4196 -1.6894  2.3913
 3347SOL     OW21673   3.473   2.138   9.315 -0.0903  0.2004 -0.1247
 3347SOL    HW121674   3.549   2.097   9.355  0.8691  0.4647 -1.6978
 3347SOL    HW221675   3.515   2.200   9.256  0.7141  0.2007  0.4559
 3348SOL     OW21676   2.649   0.158   0.444  0.2260  0.6159 -0.4665
 3348SOL    HW121677   2.716   0.216   0.481  0.8098 -0.1891 -0.2766
 3348SOL    HW221678   2.575   0.218   0.454 -0.2567  0.3711 -2.5540
 3349SOL     OW21679   2.346   1.490  15.139 -0.2295  0.5148 -0.2233
 3349SOL    HW121680   2.373   1.582  15.136 -0.5981  0.7635  3.3947
 3349SOL    HW221681   2.434   1.454  15.146  0.6387  2.8042  0.9488
 3350SOL     OW21682   4.620   1.080  15.837 -0.2265 -0.0375 -0.3604
 3350SOL    HW121683   4.648   1.127  15.758 -0.8933 -1.9601 -1.7248
 3350SOL    HW221684   4.584   1.159  15.878  0.2272  1.4559 -2.8208
 3351SOL     OW21685   3.510   0.489   2.364  0.6537  0.1184  0.0721
 3351SOL    HW121686   3.520   0.410   2.311 -0.4560  0.0868 -0.0957
 3351SOL    HW221687   3.419   0.476   2.390  1.1285  1.7772  2.5104
 3352SOL     OW21688   0.537   2.520  12.555  0.1056  0.2371  0.4359
 3352SOL    HW121689   0.497   2.597  12.596  1.0556  0.3562  1.1516
 3352SOL    HW221690   0.623   2.516  12.596  0.0776 -1.6754  0.2758
 3353SOL     OW21691   0.955   4.411   6.121 -0.0713  0.3020 -0.0533
 3353SOL    HW121692   0.873   4.425   6.072  1.3293 -0.1307 -2.5073
 3353SOL    HW221693   1.011   4.472   6.073 -0.4741  0.9352  0.2783
 3354SOL     OW21694   2.700   4.000   7.424 -0.0426 -0.1241  0.0128
 3354SOL    HW121695   2.668   3.987   7.334  1.1096 -2.0202 -0.1247
 3354SOL    HW221696   2.684   3.914   7.462  0.5097 -1.2853 -2.3575
 3355SOL     OW21697   1.088   2.381  10.364 -0.3072  0.1716  0.1062
 3355SOL    HW121698   1.175   2.364  10.329  0.6932  0.2899  2.5812
 3355SOL    HW221699   1.095   2.332  10.446 -0.3364 -1.5436 -0.9155
 3356SOL     OW21700   2.581   2.377   8.667 -0.0944  0.7884  0.5367
 3356SOL    HW121701   2.571   2.346   8.757  0.7441  0.9838  0.6984
 3356SOL    HW221702   2.490   2.389   8.642 -0.0562 -1.3792 -0.6564
 3357SOL     OW21703   3.993   2.612   8.140 -0.1395  0.2552 -0.4194
 3357SOL    HW121704   3.998   2.572   8.227 -2.1067  3.9573  1.4021
 3357SOL    HW221705   4.047   2.550   8.091 -0.6425  1.0709 -1.9851
 3358SOL     OW21706   3.351   3.876   7.301 -0.1393 -0.2819  0.0726
 3358SOL    HW121707   3.356   3.846   7.210 -0.0915 -1.6231  0.5107
 3358SOL    HW221708   3.434   3.922   7.296 -0.0814 -0.2408  1.3199
 3359SOL     OW21709   4.705   1.093   5.432  0.0852 -0.1008 -0.0749
 3359SOL    HW121710   4.665   1.006   5.430  2.1439 -1.0437 -0.2514
 3359SOL    HW221711   0.009   1.089   5.516 -2.6616 -1.2477  1.3512
 3360SOL     OW21712   1.024   0.660  16.147  0.2069 -0.3301  0.2129
 3360SOL    HW121713   1.039   0.608  16.068  2.4181  1.3982 -0.5189
 3360SOL    HW221714   1.043   0.595  16.215 -0.6471  0.8563  1.5683
 3361SOL     OW21715   4.295   3.134   7.623  0.2528  0.3240 -0.1500
 3361SOL    HW121716   4.254   3.113   7.707 -0.4636  3.7202  0.3529
 3361SOL    HW221717   4.327   3.220   7.651 -1.2355  0.4070  1.2949
 3362SOL     OW21718   1.488   0.213  10.372 -0.3373 -0.0164  0.5144
 3362SOL    HW121719   1.558   0.224  10.436 -0.7291 -1.1584  1.1263
 3362SOL    HW221720   1.422   0.273  10.408  0.8772  1.0283  1.0225
 3363SOL     OW21721   0.304   1.248   2.172  0.4500 -0.1166  0.4526
 3363SOL    HW121722   0.342   1.174   2.220  2.5479 -0.3164 -1.5175
 3363SOL    HW221723   0.214   1.224   2.152  0.7907 -1.1430  0.1565
 3364SOL     OW21724   3.383   0.523  12.686 -0.0589 -0.0864  0.4148
 3364SOL    HW121725   3.369   0.430  12.703 -0.0326 -0.6229 -2.5235
 3364SOL    HW221726   3.456   0.525  12.624 -0.2357  2.7903  0.2993
 3365SOL     OW21727   0.313   0.279   7.404  0.4432  0.5440 -0.4719
 3365SOL    HW121728   0.309   0.346   7.336  3.1652 -1.2052 -2.3250
 3365SOL    HW221729   0.398   0.295   7.444  0.2343  0.9487 -0.1802
 3366SOL     OW21730   4.286   0.027  17.168 -0.2261  0.2809  0.2119
 3366SOL    HW121731   4.298   4.692  17.111 -1.8139 -0.3407  0.7211
 3366SOL    HW221732   4.369   0.073  17.155  1.7736 -3.3012  0.3638
 3367SOL     OW21733   2.484   4.168   9.372 -0.2203 -0.3388 -0.1965
 3367SOL    HW121734   2.470   4.217   9.453  1.0057  1.1585 -0.8804
 3367SOL    HW221735   2.424   4.094   9.380 -0.4810  0.1056  1.9071
 3368SOL     OW21736   1.773   3.674   8.147 -0.3636 -0.2779  0.2856
 3368SOL    HW121737   1.701   3.721   8.190  1.1704  0.9202  1.5285
 3368SOL    HW221738   1.786   3.702   8.056 -1.6471 -0.0430  0.1690
 3369SOL     OW21739   0.849   1.864   4.395 -0.0690 -0.3793 -0.2721
 3369SOL    HW121740   0.873   1.954   4.373 -2.4120  0.9404  2.5812
 3369SOL    HW221741   0.874   1.860   4.487  0.1089 -1.8017 -0.3877
 3370SOL     OW21742   3.608   3.281   6.492  0.2256  0.1665 -0.5174
 3370SOL    HW121743   3.607   3.364   6.539  0.9663 -0.5482  0.7702
 3370SOL    HW221744   3.682   3.239   6.535  0.6216 -0.3462 -1.6976
 3371SOL     OW21745   2.541   4.223  14.483  0.1293  0.1977  0.0155
 3371SOL    HW121746   2.458   4.268  14.467  0.3077  0.2055 -0.9460
 3371SOL    HW221747   2.594   4.286  14.531  1.4851  0.8171 -2.2995
 3372SOL     OW21748   2.135   0.405   1.115 -0.1473  0.7764 -0.1748
 3372SOL    HW121749   2.178   0.467   1.056 -0.5997  0.3606 -0.9345
 3372SOL    HW221750   2.162   0.319   1.083 -0.2022  0.5058  0.5094
 3373SOL     OW21751   3.968   0.399   9.112 -0.6977 -0.2792 -0.2160
 3373SOL    HW121752   4.004   0.336   9.050 -2.6802 -0.5362 -1.1246
 3373SOL    HW221753   3.982   0.355   9.195  0.1791 -0.8375 -0.6577
 3374SOL     OW21754   0.141   2.666   8.350 -0.0379  0.1406 -0.4890
 3374SOL    HW121755   0.074   2.629   8.293  0.3997 -1.3612 -0.0259
 3374SOL    HW221756   0.158   2.747   8.303 -2.0662  0.7685 -0.1375
 3375SOL     OW21757   2.924   3.961   4.258  0.0978 -0.0183 -0.1129
 3375SOL    HW121758   2.886   3.889   4.309  0.4758  0.2800  0.5961
 3375SOL    HW221759   3.018   3.965   4.275  0.0537 -0.1225  0.1573
 3376SOL     OW21760   1.501   1.555   9.170  0.1453  0.3837  0.0540
 3376SOL    HW121761   1.487   1.603   9.089 -1.1735 -1.9818 -1.1249
 3376SOL    HW221762   1.596   1.560   9.178  0.2553 -2.1591  0.2872
 3377SOL     OW21763   1.085   0.646  13.542  0.1017  0.1641  0.1219
 3377SOL    HW121764   1.010   0.630  13.486  1.5012  2.0440 -2.2729
 3377SOL    HW221765   1.139   0.572  13.515  0.0909  0.7712 -1.5345
 3378SOL     OW21766   3.509   1.812   5.327  0.2627 -0.3430 -0.6902
 3378SOL    HW121767   3.435   1.851   5.374  1.1373  0.5954 -0.1040
 3378SOL    HW221768   3.469   1.744   5.272  2.2306 -1.5102 -0.6782
 3379SOL     OW21769   1.037   4.226  11.318  0.0868  0.0719 -0.3509
 3379SOL    HW121770   1.086   4.196  11.394 -0.7597 -0.8681 -0.1718
 3379SOL    HW221771   1.085   4.190  11.243 -0.6489  0.1637 -0.8784
 3380SOL     OW21772   0.336   3.953   3.440  0.4005 -0.0087  0.2707
 3380SOL    HW121773   0.328   4.042   3.405 -2.7208 -0.4383 -0.1289
 3380SOL    HW221774   0.266   3.950   3.505  2.1678 -0.8483  2.1286
 3381SOL     OW21775   3.139   3.734  17.102 -0.0609  0.1013  0.0030
 3381SOL    HW121776   3.061   3.769  17.144 -0.7231 -0.3400 -0.8731
 3381SOL    HW221777   3.151   3.644  17.133  0.0707 -0.2535 -1.0904
 3382SOL     OW21778   4.531   2.558   5.876  0.0905  0.3004  0.1042
 3382SOL    HW121779   4.525   2.463   5.882 -1.2688  0.2567 -1.8846
 3382SOL    HW221780   4.571   2.579   5.960  0.2227 -1.2521  0.4250
 3383SOL     OW21781   1.338   1.465   1.804  0.5805  0.5318 -0.4844
 3383SOL    HW121782   1.361   1.552   1.837  0.2579 -0.2086  1.6927
 3383SOL    HW221783   1.242   1.467   1.809  0.4776  0.8100 -2.5716
 3384SOL     OW21784   1.439   1.987   5.821 -0.6085 -0.4539  0.5315
 3384SOL    HW121785   1.475   1.992   5.909  1.0781 -2.0303 -0.0627
 3384SOL    HW221786   1.456   1.896   5.796 -0.5565 -0.7776  1.7538
 3385SOL     OW21787   1.697   0.243  10.555 -0.2449  0.6630  0.7491
 3385SOL    HW121788   1.775   0.285  10.519  0.7541 -0.7480  1.2499
 3385SOL    HW221789   1.716   0.149  10.557  0.5978  0.8271  0.7045
 3386SOL     OW21790   0.601   1.871  14.600  0.2018 -0.2423  0.3491
 3386SOL    HW121791   0.595   1.783  14.637 -0.8313 -0.1490  0.4029
 3386SOL    HW221792   0.513   1.877  14.562  1.1988 -0.2389 -1.9546
 3387SOL     OW21793   1.124   0.315  10.313 -0.1267 -0.4065 -0.0687
 3387SOL    HW121794   1.124   0.383  10.246 -0.8932 -0.3478 -0.0091
 3387SOL    HW221795   1.159   0.371  10.383 -0.2554  1.0187 -1.1342
 3388SOL     OW21796   3.356   3.969   8.671 -0.0342  0.4347 -0.0248
 3388SOL    HW121797   3.394   3.881   8.672  0.3841  0.6158  0.5024
 3388SOL    HW221798   3.407   4.015   8.739 -0.4841 -1.7965  1.8403
 3389SOL     OW21799   2.698   0.826   7.328  0.2920  0.9453  0.2688
 3389SOL    HW121800   2.707   0.732   7.317 -0.1478  0.9550 -0.2087
 3389SOL    HW221801   2.697   0.846   7.234 -1.8085 -0.1832  0.0324
 3390SOL     OW21802   2.399   2.923   6.854  0.5177  0.2470  0.1570
 3390SOL    HW121803   2.424   3.013   6.831  2.9518 -0.3134  0.5932
 3390SOL    HW221804   2.430   2.879   6.775  0.4573 -0.7817  0.7175
 3391SOL     OW21805   0.306   0.965   2.119 -0.3280  0.0374  0.1183
 3391SOL    HW121806   0.325   0.871   2.113  0.8975  0.2068  1.4410
 3391SOL    HW221807   0.283   0.969   2.212 -0.6629  0.1578  0.0294
 3392SOL     OW21808   1.237   4.241   5.443 -0.3048  0.5330 -0.0876
 3392SOL    HW121809   1.300   4.267   5.510  0.3461  0.3879 -0.6485
 3392SOL    HW221810   1.159   4.281   5.482  0.0755 -0.0639  1.3043
 3393SOL     OW21811   2.517   1.492   7.762 -0.3500 -0.1318 -0.2785
 3393SOL    HW121812   2.472   1.568   7.727  0.6774 -1.0671 -3.5905
 3393SOL    HW221813   2.535   1.454   7.676 -4.1772 -0.6715 -0.8442
 3394SOL     OW21814   3.408   3.829  17.266 -0.4970  0.4046 -0.4691
 3394SOL    HW121815   3.401   3.791  17.178  1.0639 -0.1110 -0.3587
 3394SOL    HW221816   3.498   3.862  17.264 -0.0227 -0.8263  0.9190
 3395SOL     OW21817   0.926   2.604   3.786  0.2037 -0.0792 -0.3057
 3395SOL    HW121818   0.881   2.684   3.811  1.0113 -0.5334  2.5940
 3395SOL    HW221819   0.999   2.643   3.737 -0.6923  2.1612  0.1185
 3396SOL     OW21820   3.060   4.069   8.387 -0.4506 -0.5689 -0.3373
 3396SOL    HW121821   3.023   4.155   8.367 -0.9353 -1.4650 -3.2983
 3396SOL    HW221822   3.100   4.048   8.303  0.4195 -1.3977  0.2918
 3397SOL     OW21823   1.338   0.935   2.426  0.3064 -0.6652  0.0075
 3397SOL    HW121824   1.260   0.880   2.438 -2.6787  3.1356 -1.6737
 3397SOL    HW221825   1.411   0.876   2.442  1.9036  1.5527  0.8793
 3398SOL     OW21826   2.587   1.899   2.443  0.1689  0.1167  0.5341
 3398SOL    HW121827   2.545   1.878   2.359 -1.5612 -1.0254  1.6898
 3398SOL    HW221828   2.603   1.814   2.483 -1.9250 -0.5204  0.0622
 3399SOL     OW21829   3.609   2.783   3.035 -0.5442 -0.3650  0.1932
 3399SOL    HW121830   3.630   2.771   2.942 -2.9811 -0.9109 -0.2858
 3399SOL    HW221831   3.516   2.799   3.020 -0.6356  0.3851  1.5905
 3400SOL     OW21832   3.424   1.136   4.572  0.0703  0.1178 -1.2029
 3400SOL    HW121833   3.389   1.222   4.593 -0.1877 -0.4545  0.6733
 3400SOL    HW221834   3.366   1.080   4.623  1.1621  0.6547  0.6201
 3401SOL     OW21835   0.627   4.702  11.048 -0.3720  0.4604 -0.2563
 3401SOL    HW121836   0.716   4.671  11.031  0.0188  1.7895 -0.6300
 3401SOL    HW221837   0.573   4.629  11.019  1.2335 -1.1910  0.9643
 3402SOL     OW21838   1.846   1.559  14.762 -0.4146  0.5634  0.0020
 3402SOL    HW121839   1.873   1.636  14.712  0.9057 -2.0438 -3.3445
 3402SOL    HW221840   1.878   1.587  14.847 -0.3956  3.0387 -0.8113
 3403SOL     OW21841   2.585   2.052   9.916  0.1626  0.2738  0.4310
 3403SOL    HW121842   2.576   2.014  10.003  1.2240  0.2187  0.5171
 3403SOL    HW221843   2.680   2.063   9.910  0.0787 -0.4514 -2.4955
 3404SOL     OW21844   0.302   0.473   7.208 -0.1301  0.5694  0.5235
 3404SOL    HW121845   0.321   0.564   7.233 -0.2605  0.6640  0.2819
 3404SOL    HW221846   0.208   0.467   7.189  0.2804  0.7452 -1.5825
 3405SOL     OW21847   1.567   1.025   1.980 -0.5065  0.1206  0.4565
 3405SOL    HW121848   1.518   1.035   1.898 -1.1726 -0.6974  0.7621
 3405SOL    HW221849   1.499   0.983   2.033  1.4966 -0.1512  2.8216
 3406SOL     OW21850   2.572   1.722   6.716  0.1038 -0.6217 -0.2164
 3406SOL    HW121851   2.620   1.641   6.731 -1.0970 -1.3194 -0.1105
 3406SOL    HW221852   2.563   1.753   6.806  0.6954  1.0260 -0.7221
 3407SOL     OW21853   3.775   4.260   2.497  0.1445 -0.3897  0.5903
 3407SOL    HW121854   3.771   4.239   2.404 -0.6624  0.7560  0.3657
 3407SOL    HW221855   3.802   4.175   2.532 -0.6673 -0.4150  1.1677
 3408SOL     OW21856   1.670   0.432   4.885  0.2153  0.2858 -0.3662
 3408SOL    HW121857   1.655   0.344   4.852  0.5293 -0.3760  1.2508
 3408SOL    HW221858   1.764   0.429   4.903  0.1822  1.6280  0.0572
 3409SOL     OW21859   2.522   1.358   0.929 -0.1890  0.0969 -0.0079
 3409SOL    HW121860   2.526   1.425   0.861 -1.7594  1.0348  0.8245
 3409SOL    HW221861   2.615   1.344   0.943 -0.0148  1.9989  0.7050
 3410SOL     OW21862   3.078   0.827   9.517 -0.1155 -0.3134 -0.2188
 3410SOL    HW121863   3.161   0.871   9.537 -0.7791  1.1914 -0.7682
 3410SOL    HW221864   3.044   0.785   9.596 -0.9392 -1.1256 -1.0072
 3411SOL     OW21865   0.575   1.967   4.723 -0.2309 -0.2237 -0.0578
 3411SOL    HW121866   0.646   1.916   4.763  0.4705  0.1485 -0.8348
 3411SOL    HW221867   0.500   1.909   4.733  0.1746 -1.0167 -1.6802
 3412SOL     OW21868   4.293   3.087   4.206 -0.3761  0.1138 -0.3829
 3412SOL    HW121869   4.266   3.094   4.114 -1.3899  0.7245 -0.0288
 3412SOL    HW221870   4.212   3.107   4.252 -1.1196 -1.3289 -1.0798
 3413SOL     OW21871   3.721   4.213  15.849 -0.2718  0.0181 -0.1294
 3413SOL    HW121872   3.814   4.191  15.860  0.1027  1.4369 -0.4618
 3413SOL    HW221873   3.720   4.263  15.768 -1.3522 -0.6723 -0.5333
 3414SOL     OW21874   0.725   0.964  13.196 -0.1174 -0.2013  0.2248
 3414SOL    HW121875   0.643   0.989  13.155  0.1847 -0.2936 -0.4285
 3414SOL    HW221876   0.762   0.899  13.137 -0.8616  0.1308 -0.5999
 3415SOL     OW21877   2.387   3.855   9.047 -0.3694 -0.8119 -0.2475
 3415SOL    HW121878   2.341   3.936   9.027 -0.2620 -0.6277  0.2496
 3415SOL    HW221879   2.393   3.817   8.960  0.4496  2.3891 -1.5843
 3416SOL     OW21880   0.621   1.730   9.113 -0.7777 -0.3313 -0.2954
 3416SOL    HW121881   0.551   1.674   9.147 -0.5274 -0.0918  0.6102
 3416SOL    HW221882   0.668   1.669   9.056  0.1052  0.1451 -0.0730
 3417SOL     OW21883   2.219   3.550   3.978  0.4402 -0.5300  0.0004
 3417SOL    HW121884   2.234   3.613   3.907  0.3124  0.2032  0.6336
 3417SOL    HW221885   2.141   3.592   4.013  0.2132 -1.2566  0.3575
 3418SOL     OW21886   2.180   1.751   7.913  0.4039  0.0853 -0.2587
 3418SOL    HW121887   2.162   1.703   7.995  0.4696  2.2543  1.0180
 3418SOL    HW221888   2.228   1.679   7.872  0.3736  0.4219 -0.8814
 3419SOL     OW21889   1.078   1.281  11.162  0.2352 -0.2296  0.2727
 3419SOL    HW121890   1.172   1.274  11.179 -0.1583 -1.4038  1.9914
 3419SOL    HW221891   1.081   1.270  11.067 -0.7499  2.8517 -0.1173
 3420SOL     OW21892   1.975   3.958   4.159 -0.0953  0.1099  1.0373
 3420SOL    HW121893   2.033   4.001   4.222 -0.5207 -0.2366  1.6569
 3420SOL    HW221894   2.044   3.938   4.095 -1.1812 -2.4203  0.6776
 3421SOL     OW21895   4.390   4.660   4.769 -0.2095 -0.4140 -0.2668
 3421SOL    HW121896   4.448   4.594   4.808 -0.2564 -1.3348 -1.7812
 3421SOL    HW221897   4.306   4.630   4.802  0.5321 -1.5771  0.5476
 3422SOL     OW21898   0.905   4.239  10.151  0.3951  0.5577 -0.5072
 3422SOL    HW121899   0.970   4.206  10.214  0.4442  1.5871 -0.0187
 3422SOL    HW221900   0.961   4.266  10.078 -0.0866  0.0624 -1.0528
 3423SOL     OW21901   1.741   2.886  10.233  0.1155  0.1151  0.0561
 3423SOL    HW121902   1.660   2.834  10.236  0.2856 -0.1260  0.6671
 3423SOL    HW221903   1.715   2.977  10.249  1.4081  0.0027  2.7580
 3424SOL     OW21904   2.706   1.195   5.690  0.0155  0.0244  0.1563
 3424SOL    HW121905   2.775   1.245   5.645 -1.0526  1.6013  0.2683
 3424SOL    HW221906   2.643   1.262   5.717 -0.0255 -0.1440  0.4695
 3425SOL     OW21907   4.462   2.083   8.210  0.6305 -0.2274  0.3165
 3425SOL    HW121908   4.385   2.141   8.210  0.9926  0.2547 -1.6235
 3425SOL    HW221909   4.456   2.061   8.117 -2.4767  0.6648  0.3103
 3426SOL     OW21910   2.754   0.572   4.844 -0.4116  0.1134 -0.4769
 3426SOL    HW121911   2.739   0.486   4.804  0.7796 -1.2618  2.0455
 3426SOL    HW221912   2.766   0.555   4.937  1.0523 -0.9437 -0.8612
 3427SOL     OW21913   2.748   2.117   6.706  0.3284 -1.0829  0.9274
 3427SOL    HW121914   2.787   2.044   6.659  1.6960 -2.0526  3.5633
 3427SOL    HW221915   2.805   2.129   6.782  1.0346  3.2196 -0.3063
 3428SOL     OW21916   1.087   1.181   2.375 -1.2899 -0.6421  0.1172
 3428SOL    HW121917   1.137   1.211   2.299 -0.1668 -0.5941  0.8886
 3428SOL    HW221918   0.999   1.179   2.338 -0.4934 -0.0388 -1.8015
 3429SOL     OW21919   0.086   2.661  15.007 -0.3722 -0.1935  0.3356
 3429SOL    HW121920   0.027   2.641  14.935  0.2934 -1.3278  0.1060
 3429SOL    HW221921   0.035   2.718  15.065  1.8294  0.7897  1.3492
 3430SOL     OW21922   2.744   2.313   2.412 -0.0483  0.4297  0.1800
 3430SOL    HW121923   2.654   2.338   2.388  0.2322  0.0520 -1.2227
 3430SOL    HW221924   2.728   2.229   2.454  1.3344 -0.1084 -0.3842
 3431SOL     OW21925   1.096   0.135   3.429 -0.4736 -0.6300  0.3640
 3431SOL    HW121926   1.070   0.208   3.373 -1.8117 -0.4392  1.2310
 3431SOL    HW221927   1.152   0.087   3.369 -0.0413  0.0297  0.2354
 3432SOL     OW21928   1.851   3.560   6.819  0.2737 -0.9351 -0.0564
 3432SOL    HW121929   1.941   3.575   6.849 -0.8103 -1.0764  3.2919
 3432SOL    HW221930   1.818   3.645   6.788  1.2032 -1.0849 -1.4628
 3433SOL     OW21931   4.605   0.953  16.465  0.5150  0.2932  0.2865
 3433SOL    HW121932   4.667   0.964  16.393 -0.6937  0.2095 -0.7634
 3433SOL    HW221933   4.643   1.023  16.518 -1.1290 -0.5972  2.6157
 3434SOL     OW21934   1.102   3.407   1.301  0.3943 -0.1681 -0.3220
 3434SOL    HW121935   1.177   3.362   1.341  2.1476  3.1955  0.1501
 3434SOL    HW221936   1.035   3.396   1.369  0.4446 -2.8189 -0.6913
 3435SOL     OW21937   4.354   2.505   8.827  0.0377 -0.7283 -0.2496
 3435SOL    HW121938   4.444   2.495   8.796 -0.0736 -1.5658 -0.2977
 3435SOL    HW221939   4.328   2.413   8.827  0.3269 -0.8083 -0.7924
 3436SOL     OW21940   0.798   0.171  13.249  0.2593  0.3588  0.2882
 3436SOL    HW121941   0.748   0.137  13.175  1.5528 -0.7081 -0.0967
 3436SOL    HW221942   0.880   0.122  13.256  0.7990  1.1438 -0.7165
 3437SOL     OW21943   1.262   2.695  10.270 -0.1647 -0.3938  0.1614
 3437SOL    HW121944   1.173   2.714  10.240  1.8505  2.4516 -4.1628
 3437SOL    HW221945   1.271   2.773  10.325 -2.1189  0.3319 -0.5434
 3438SOL     OW21946   4.175   4.596  13.379  0.3322  0.3310 -0.1595
 3438SOL    HW121947   4.166   4.680  13.333  2.1096  0.7365  0.2435
 3438SOL    HW221948   4.258   4.613  13.422  0.0855 -1.2835  0.9608
 3439SOL     OW21949   3.163   1.738   7.294 -0.4097  0.1626 -0.4666
 3439SOL    HW121950   3.083   1.743   7.346  0.7264  0.6273  1.2228
 3439SOL    HW221951   3.214   1.686   7.356  0.2522  0.4088 -0.7993
 3440SOL     OW21952   3.191   3.346   7.120 -0.3939  0.1933  0.2029
 3440SOL    HW121953   3.099   3.375   7.119 -0.4325 -0.0056 -1.1475
 3440SOL    HW221954   3.220   3.364   7.209 -0.6502 -1.9111  0.7264
 3441SOL     OW21955   3.728   3.365   6.955  0.1615 -0.4636 -0.3264
 3441SOL    HW121956   3.638   3.353   6.924 -0.4402  0.3344  1.1152
 3441SOL    HW221957   3.765   3.278   6.938 -2.8592 -1.6672 -0.8069
 3442SOL     OW21958   2.415   3.289   1.015  0.1598  0.3382  0.3123
 3442SOL    HW121959   2.442   3.377   1.043 -1.0721  1.3586 -1.7185
 3442SOL    HW221960   2.364   3.258   1.090 -0.5903  0.7384 -0.0250
 3443SOL     OW21961   2.340   2.718   9.324  0.1717 -0.1676 -0.0518
 3443SOL    HW121962   2.382   2.637   9.294  0.5258 -0.2204  0.5897
 3443SOL    HW221963   2.401   2.791   9.321  2.5082 -2.1098  0.7485
 3444SOL     OW21964   1.590   4.290   6.813  0.0555  0.6433 -0.0544
 3444SOL    HW121965   1.680   4.309   6.788 -0.9490  2.5491 -2.1618
 3444SOL    HW221966   1.605   4.322   6.902  1.0221  1.8948 -0.6690
 3445SOL     OW21967   3.876   1.882   3.321  0.4509 -0.0309 -0.3734
 3445SOL    HW121968   3.790   1.923   3.330  0.4525  0.3698 -2.1854
 3445SOL    HW221969   3.869   1.824   3.397  0.4128  1.0443  0.4423
 3446SOL     OW21970   0.672   4.392  14.331  0.0603 -0.5046 -0.2406
 3446SOL    HW121971   0.590   4.359  14.367  0.0660  0.5148  0.7182
 3446SOL    HW221972   0.679   4.348  14.246  1.6535 -0.4856 -0.1186
 3447SOL     OW21973   2.141   1.785  17.617  0.5740  0.1352  0.5599
 3447SOL    HW121974   2.046   1.794  17.617  0.4670 -1.0333  0.8674
 3447SOL    HW221975   2.140   1.693  17.642 -0.0179 -0.1378 -0.4560
 3448SOL     OW21976   2.708   0.112   8.992 -0.1240  0.0063  0.0977
 3448SOL    HW121977   2.743   0.042   9.047 -0.0908  0.0940  0.1872
 3448SOL    HW221978   2.774   0.179   9.009  0.8205 -0.2201 -2.6807
 3449SOL     OW21979   2.431   0.940   3.041 -0.1201  0.1686 -0.1444
 3449SOL    HW121980   2.379   0.862   3.025 -1.4197  1.0069 -0.0141
 3449SOL    HW221981   2.517   0.925   3.001  0.3486  1.6821  0.2749
 3450SOL     OW21982   2.369   1.802   8.505 -0.2499 -0.3113 -0.8180
 3450SOL    HW121983   2.379   1.709   8.522  0.2343 -0.0654  0.2017
 3450SOL    HW221984   2.445   1.837   8.458  1.2916 -1.5670  0.7844
 3451SOL     OW21985   1.564   2.070   9.532 -0.5334  0.1609  0.4745
 3451SOL    HW121986   1.555   2.072   9.437  1.6072 -0.2258  0.2585
 3451SOL    HW221987   1.492   2.123   9.567  0.8327  2.0820  0.3656
 3452SOL     OW21988   1.419   1.650   3.674 -0.7491 -0.2209 -0.0876
 3452SOL    HW121989   1.405   1.645   3.580 -1.4305 -4.6738  0.2489
 3452SOL    HW221990   1.495   1.595   3.693  0.2525  0.4286 -2.2117
 3453SOL     OW21991   0.298   0.756   8.784  0.0626  0.2696 -0.5115
 3453SOL    HW121992   0.380   0.717   8.754  1.3478  1.4948  1.3988
 3453SOL    HW221993   0.319   0.849   8.792 -2.5971  0.8960 -0.9888
 3454SOL     OW21994   2.649   1.267   7.630  0.1202  0.2980  0.4506
 3454SOL    HW121995   2.725   1.276   7.572  1.2201 -1.0648  1.6774
 3454SOL    HW221996   2.696   1.257   7.713  1.0116 -0.6951 -0.1804
 3455SOL     OW21997   2.857   0.122   2.526 -0.0478 -0.0026 -0.2568
 3455SOL    HW121998   2.818   0.209   2.520  0.0032  0.2391  3.0874
 3455SOL    HW221999   2.872   0.111   2.620 -1.5618 -3.4683 -0.4199
 3456SOL     OW22000   2.152   4.619   3.732 -0.5108 -0.1015 -0.1704
 3456SOL    HW122001   2.059   4.616   3.753 -1.0255  1.8338 -2.0796
 3456SOL    HW222002   2.195   4.536   3.753  1.3475  1.3166  1.6468
 3457SOL     OW22003   1.899   4.425   4.463  0.3995  0.4510  0.2071
 3457SOL    HW122004   1.929   4.370   4.390 -0.2498 -0.7952  0.8821
 3457SOL    HW222005   1.848   4.362   4.514  0.5330  0.8348  0.8141
 3458SOL     OW22006   2.884   4.035   5.587  0.5358  0.0506 -0.3685
 3458SOL    HW122007   2.798   3.997   5.603  0.6195  0.5234  1.1619
 3458SOL    HW222008   2.946   3.963   5.597  1.8947  0.8294 -3.0386
 3459SOL     OW22009   3.865   3.299   4.758  0.1277 -0.3427 -0.1237
 3459SOL    HW122010   3.955   3.273   4.780  0.2803  0.1969 -0.1177
 3459SOL    HW222011   3.845   3.233   4.692 -0.5513  0.6119 -0.8762
 3460SOL     OW22012   3.391   3.755   7.899 -0.0012  0.2507 -0.3427
 3460SOL    HW122013   3.332   3.752   7.974 -3.6397  0.1255 -3.2013
 3460SOL    HW222014   3.471   3.768   7.950 -0.9908 -0.0331  1.3077
 3461SOL     OW22015   0.774   1.696   5.886  0.5021 -0.3590 -0.0400
 3461SOL    HW122016   0.788   1.690   5.791  3.4746 -1.3214  0.4596
 3461SOL    HW222017   0.684   1.665   5.896 -0.2821  1.7677 -0.6946
 3462SOL     OW22018   2.119   4.471   8.195  0.1435  0.2825 -0.6960
 3462SOL    HW122019   2.162   4.395   8.156 -2.6669 -1.7294  0.1451
 3462SOL    HW222020   2.039   4.428   8.226 -0.3141  0.8134 -1.1324
 3463SOL     OW22021   1.756   2.915   8.166  0.2136  0.5629 -0.1372
 3463SOL    HW122022   1.689   2.879   8.109  1.5085 -0.7922 -0.7893
 3463SOL    HW222023   1.725   3.002   8.192  0.4159 -0.3146  3.0155
 3464SOL     OW22024   3.706   4.549   9.149 -0.3222  0.4958  0.2638
 3464SOL    HW122025   3.672   4.527   9.062  0.8010 -2.3747  0.5581
 3464SOL    HW222026   3.789   4.503   9.156 -1.2107 -1.5612 -2.8826
 3465SOL     OW22027   3.209   0.006   0.012  0.2254 -0.1004 -0.6403
 3465SOL    HW122028   3.203   4.663  17.731 -1.5933  1.2634 -2.9738
 3465SOL    HW222029   3.299   0.009   0.044 -0.4095 -2.2710  1.3550
 3466SOL     OW22030   0.281   1.697   2.488  0.0259 -0.2735  0.5387
 3466SOL    HW122031   0.194   1.734   2.481  0.0486  0.0063  1.6307
 3466SOL    HW222032   0.266   1.608   2.459  0.0869 -0.2465  0.4209
 3467SOL     OW22033   1.402   4.681   8.215  0.0388 -0.1252 -0.1492
 3467SOL    HW122034   1.493   4.697   8.192 -0.3259  2.5484  0.2438
 3467SOL    HW222035   1.380   4.626   8.140  2.3569 -0.6079 -0.4512
 3468SOL     OW22036   2.058   1.452   2.362  0.1559  0.5990 -0.1349
 3468SOL    HW122037   2.011   1.521   2.408 -1.4218 -1.0720  0.7890
 3468SOL    HW222038   2.015   1.445   2.277 -0.2259  1.1771  0.0128
 3469SOL     OW22039   1.020   0.449   5.119 -0.3420  0.0540 -0.0943
 3469SOL    HW122040   0.942   0.437   5.173  1.5446 -1.2618  2.3403
 3469SOL    HW222041   1.091   0.423   5.177 -1.0604  0.2656  0.8679
 3470SOL     OW22042   1.573   4.568   0.617 -0.4565 -0.5807 -0.4776
 3470SOL    HW122043   1.564   4.637   0.552  0.9306 -0.9812 -1.0707
 3470SOL    HW222044   1.658   4.585   0.656  0.1521 -1.6101 -1.3606
 3471SOL     OW22045   0.809   0.651   9.230  0.4267 -0.6609 -0.6021
 3471SOL    HW122046   0.804   0.741   9.262 -1.8860 -0.4566 -1.5341
 3471SOL    HW222047   0.732   0.605   9.264 -0.3176 -0.4713 -2.0496
 3472SOL     OW22048   2.605   3.347   2.582 -0.0736  0.2856 -0.4081
 3472SOL    HW122049   2.567   3.353   2.669  0.3044  2.2345 -0.3631
 3472SOL    HW222050   2.685   3.294   2.587 -0.8036 -0.7729 -0.1084
 3473SOL     OW22051   2.586   3.551   8.480  0.4629 -0.5397  0.0025
 3473SOL    HW122052   2.501   3.545   8.523  1.0357 -0.6003  1.1327
 3473SOL    HW222053   2.647   3.573   8.551 -0.6276  0.6221  0.5848
 3474SOL     OW22054   0.171   3.810   7.177 -0.7008 -0.0802 -0.0803
 3474SOL    HW122055   0.079   3.803   7.153 -0.6965  0.6686 -0.2948
 3474SOL    HW222056   0.206   3.875   7.116  0.2048  0.2860  0.8196
 3475SOL     OW22057   1.995   0.410   5.471  0.4431  0.0897  0.3724
 3475SOL    HW122058   1.954   0.333   5.510 -2.5367  0.0386 -2.8385
 3475SOL    HW222059   1.977   0.405   5.377  0.6099 -1.2484  0.4081
 3476SOL     OW22060   3.522   4.106   5.689 -0.0738 -0.5033 -0.0671
 3476SOL    HW122061   3.454   4.150   5.741  1.3892  1.5214  0.1134
 3476SOL    HW222062   3.498   4.015   5.674  0.1108 -0.7406  1.0377
 3477SOL     OW22063   0.583   2.453   2.193  0.4496  0.3793  0.3040
 3477SOL    HW122064   0.593   2.387   2.261  0.7237  1.8046  1.6418
 3477SOL    HW222065   0.671   2.490   2.197  0.2831  0.8045 -0.0188
 3478SOL     OW22066   0.092   3.226   3.302 -0.0209  0.1095 -0.7032
 3478SOL    HW122067   0.188   3.228   3.296  0.0107 -0.5257 -0.4504
 3478SOL    HW222068   0.071   3.226   3.395 -0.3058 -0.4640 -0.7691
 3479SOL     OW22069   3.638   1.349  17.583 -0.0258  0.3501  0.5453
 3479SOL    HW122070   3.727   1.314  17.572 -0.1426  0.5185 -0.9556
 3479SOL    HW222071   3.658   1.413  17.652  0.1046 -0.1166  0.9394
 3480SOL     OW22072   2.122   2.625   7.426  0.6558 -0.4500  0.4739
 3480SOL    HW122073   2.158   2.713   7.427 -1.7141  0.5339 -0.9093
 3480SOL    HW222074   2.110   2.621   7.520 -1.3627  2.7901  0.3454
 3481SOL     OW22075   2.580   0.490   8.492 -0.1682 -0.2213  0.0647
 3481SOL    HW122076   2.503   0.511   8.438 -0.8281 -0.9721  0.7224
 3481SOL    HW222077   2.642   0.550   8.450 -2.0984  0.5046 -1.7878
 3482SOL     OW22078   0.077   3.051   2.373 -0.0371 -0.4486 -0.1819
 3482SOL    HW122079   0.092   3.146   2.379 -3.5741  0.2524 -2.2356
 3482SOL    HW222080   0.164   3.011   2.365  0.1869  0.2096 -1.1140
 3483SOL     OW22081   1.068   1.365   3.716 -0.2286  0.2973  0.0477
 3483SOL    HW122082   0.991   1.406   3.755 -2.0805 -1.7976 -1.3895
 3483SOL    HW222083   1.094   1.445   3.669 -0.5939  0.0419 -0.5855
 3484SOL     OW22084   0.734   1.408   7.443  0.1371 -0.9542 -0.0809
 3484SOL    HW122085   0.736   1.385   7.350 -2.3815 -1.0341 -0.1051
 3484SOL    HW222086   0.827   1.408   7.466  0.0871  0.1915  0.1258
 3485SOL     OW22087   2.795   3.526   7.643 -0.2175 -0.1952  0.5107
 3485SOL    HW122088   2.842   3.468   7.584  1.5942  0.0874  1.7032
 3485SOL    HW222089   2.818   3.494   7.730 -0.4834 -2.8776 -0.4094
 3486SOL     OW22090   3.622   0.602   6.199 -0.4052 -0.2446  0.2068
 3486SOL    HW122091   3.580   0.584   6.115  1.4846  1.2803 -1.0843
 3486SOL    HW222092   3.602   0.526   6.254 -0.7997  0.5399  1.1342
 3487SOL     OW22093   1.020   2.387  14.766  0.0485 -0.2451  0.1816
 3487SOL    HW122094   1.014   2.293  14.779 -3.8114  0.1207  0.9983
 3487SOL    HW222095   0.958   2.418  14.831 -0.8156  1.8854 -1.6445
 3488SOL     OW22096   0.594   1.731   8.563  0.5063  0.0649  0.0546
 3488SOL    HW122097   0.683   1.764   8.557  0.9498 -0.7380  2.1348
 3488SOL    HW222098   0.593   1.696   8.652  0.8007  1.7019  0.6999
 3489SOL     OW22099   2.490   4.522   4.434 -0.3426  0.1992  0.2626
 3489SOL    HW122100   2.480   4.511   4.528  0.0575  1.9431  0.5081
 3489SOL    HW222101   2.478   4.439   4.388  2.1074  0.3935 -0.7093
 3490SOL     OW22102   2.073   2.992   2.412 -0.3331 -0.2269  0.1385
 3490SOL    HW122103   2.119   3.062   2.458  1.8253 -0.6070 -1.4470
 3490SOL    HW222104   2.146   2.934   2.389 -0.2941 -0.3928  0.6756
 3491SOL     OW22105   3.774   0.544   4.713 -0.7767  0.5117 -0.2743
 3491SOL    HW122106   3.707   0.585   4.768 -0.6938 -1.9303  1.6750
 3491SOL    HW222107   3.810   0.477   4.771  1.1315  1.2664 -0.5852
 3492SOL     OW22108   0.433   2.745   9.474 -0.1182  0.0845 -0.1872
 3492SOL    HW122109   0.450   2.839   9.468  1.1487 -0.1728 -0.6496
 3492SOL    HW222110   0.355   2.746   9.529 -0.4984  2.1652 -0.7707
 3493SOL     OW22111   3.245   0.177   4.903 -0.2523  0.4192 -0.0647
 3493SOL    HW122112   3.159   0.176   4.863 -0.1028  1.0901 -0.3925
 3493SOL    HW222113   3.299   0.157   4.827 -1.9654 -3.2995 -0.3239
 3494SOL     OW22114   4.351   2.733   3.927 -0.4063  0.7621  0.1423
 3494SOL    HW122115   4.319   2.717   4.016  0.8660 -0.7418  0.3272
 3494SOL    HW222116   4.379   2.644   3.906 -0.0074  1.4112 -2.0483
 3495SOL     OW22117   2.632   4.351  15.989 -0.1398 -0.6100 -0.0129
 3495SOL    HW122118   2.563   4.320  15.931 -0.4992  0.0018  0.0853
 3495SOL    HW222119   2.582   4.422  16.030  0.1576 -0.2241 -0.3138
 3496SOL     OW22120   4.402   1.498   5.532 -0.0036 -0.2639 -0.1024
 3496SOL    HW122121   4.479   1.442   5.528  0.1966 -0.1279  1.7634
 3496SOL    HW222122   4.452   1.577   5.553 -1.9152  0.4472  1.8425
 3497SOL     OW22123   4.473   3.847   4.016 -0.0432 -0.0429 -0.7335
 3497SOL    HW122124   4.569   3.839   4.014  0.1068  1.5594 -0.0262
 3497SOL    HW222125   4.447   3.758   3.993 -3.0973  0.6654  0.0532
 3498SOL     OW22126   2.863   0.429   1.552 -0.1021 -0.2772 -0.2479
 3498SOL    HW122127   2.798   0.398   1.490 -1.5348  0.8242  0.7073
 3498SOL    HW222128   2.941   0.387   1.515  0.1347 -0.3246  0.3046
 3499SOL     OW22129   3.145   0.421  14.299 -0.1879 -0.5760 -0.1036
 3499SOL    HW122130   3.136   0.336  14.342  2.0988 -1.1088 -0.6444
 3499SOL    HW222131   3.238   0.436  14.320 -0.7695  1.6694  0.8951
 3500SOL     OW22132   0.163   4.642   2.767  0.0105 -0.2980 -0.3466
 3500SOL    HW122133   0.171   4.611   2.676 -0.3146 -0.4514 -0.3228
 3500SOL    HW222134   0.251   4.615   2.793 -0.4220 -1.2840  0.0791
 3501SOL     OW22135   2.489   0.231   4.579  0.2024  0.0816 -0.4263
 3501SOL    HW122136   2.399   0.216   4.606  0.5596 -0.8019  0.2433
 3501SOL    HW222137   2.479   0.310   4.525 -0.8183  0.5127  0.3992
 3502SOL     OW22138   3.237   1.917   6.788  0.0641  0.4076 -0.0644
 3502SOL    HW122139   3.324   1.894   6.756  0.0954 -0.2642  0.4945
 3502SOL    HW222140   3.228   1.869   6.871  2.6657  0.0295 -0.0090
 3503SOL     OW22141   1.805   1.893   2.277  0.5858  0.4860  0.4002
 3503SOL    HW122142   1.738   1.900   2.345  0.4491 -0.3956  0.3682
 3503SOL    HW222143   1.811   1.799   2.260  2.1844  0.0646  3.1918
 3504SOL     OW22144   2.354   0.514   8.333 -0.4515 -0.4525 -0.5424
 3504SOL    HW122145   2.269   0.526   8.376  0.3614 -1.3309  1.2929
 3504SOL    HW222146   2.350   0.419   8.340 -1.7093 -0.1787  2.4852
 3505SOL     OW22147   3.983   3.318   5.189  0.2275  0.4238  0.0444
 3505SOL    HW122148   4.031   3.401   5.186 -1.3247  1.2667 -1.3939
 3505SOL    HW222149   4.054   3.256   5.206 -1.3711 -1.2614  0.5951
 3506SOL     OW22150   4.087   4.095   3.724  0.8815  0.1048  0.1137
 3506SOL    HW122151   4.128   4.078   3.640  2.2088 -0.1330  0.8136
 3506SOL    HW222152   4.144   4.044   3.781 -0.8017 -2.3850 -0.4306
 3507SOL     OW22153   4.134   3.026  12.280 -0.0179 -0.0198 -0.6248
 3507SOL    HW122154   4.224   3.034  12.250 -0.0143 -0.1910 -0.6604
 3507SOL    HW222155   4.149   2.999  12.370  0.4409  0.3756 -0.5789
 3508SOL     OW22156   2.502   0.617   7.048  0.0099 -0.1339  0.0159
 3508SOL    HW122157   2.504   0.553   6.976  4.1061 -0.2038  0.1936
 3508SOL    HW222158   2.408   0.617   7.067  0.0309 -2.5551  0.1701
 3509SOL     OW22159   1.126   3.991   7.154  0.1121 -0.3562  0.5827
 3509SOL    HW122160   1.059   4.019   7.217  2.0638 -1.3183  3.1018
 3509SOL    HW222161   1.204   4.039   7.183 -0.4335  0.8217  0.1063
 3510SOL     OW22162   4.572   1.245   3.004 -0.0783  0.2439  0.1764
 3510SOL    HW122163   4.645   1.289   2.961  0.1541 -1.0761 -0.7790
 3510SOL    HW222164   4.603   1.205   3.086 -1.5771  0.8244  1.0301
 3511SOL     OW22165   2.712   2.050   0.749  0.0807 -0.1909 -0.4511
 3511SOL    HW122166   2.617   2.057   0.737  0.3324  1.9754 -1.1089
 3511SOL    HW222167   2.727   2.087   0.835 -0.6524  1.0362 -0.8473
 3512SOL     OW22168   0.739   0.419   8.741  0.5099  0.2447 -0.2484
 3512SOL    HW122169   0.664   0.393   8.795 -0.2135 -0.2145 -1.4738
 3512SOL    HW222170   0.701   0.394   8.657  1.2093  3.5537 -1.5717
 3513SOL     OW22171   4.173   2.254  15.759 -0.4949 -0.7425  0.2804
 3513SOL    HW122172   4.156   2.343  15.789  1.1342 -0.5088  0.4902
 3513SOL    HW222173   4.267   2.258  15.743 -0.7802 -0.4742 -1.4122
 3514SOL     OW22174   2.010   2.857   8.699  0.0320  0.5592 -0.5333
 3514SOL    HW122175   1.945   2.809   8.749  0.5521 -0.5778 -0.9375
 3514SOL    HW222176   2.087   2.820   8.741 -0.2819  0.1012 -0.3625
 3515SOL     OW22177   3.693   4.687   6.026 -0.7022  0.0837  0.0338
 3515SOL    HW122178   3.785   4.679   6.047 -0.2702  0.5231 -1.6554
 3515SOL    HW222179   3.695   4.655   5.936  0.0980  0.4951 -0.0879
 3516SOL     OW22180   2.569   0.323  12.865 -0.1456  0.0701 -0.2381
 3516SOL    HW122181   2.661   0.348  12.852 -0.1787  0.2288 -0.1720
 3516SOL    HW222182   2.549   0.398  12.921  2.2134  0.3212  0.2832
 3517SOL     OW22183   4.211   3.559   3.102 -0.1176  0.3076  0.3545
 3517SOL    HW122184   4.299   3.590   3.123 -0.0804 -1.2858  2.5084
 3517SOL    HW222185   4.162   3.640   3.116 -3.2148 -1.6822  1.0145
 3518SOL     OW22186   1.174   1.000   8.656 -0.1826  0.0321  0.0627
 3518SOL    HW122187   1.202   1.045   8.576  0.9168  0.5016  0.7140
 3518SOL    HW222188   1.161   0.913   8.618 -1.7130  0.2967 -0.0257
 3519SOL     OW22189   2.058   2.103   6.888  0.1724 -0.3014  0.2275
 3519SOL    HW122190   2.067   2.152   6.969  2.2867  0.1803 -0.3101
 3519SOL    HW222191   1.962   2.094   6.883  0.1860 -1.1963  1.4783
 3520SOL     OW22192   1.411   1.853   7.839 -0.4008 -0.1241  0.1401
 3520SOL    HW122193   1.483   1.879   7.781  0.0738  0.7641  1.1407
 3520SOL    HW222194   1.442   1.904   7.913  1.0632 -1.8362  0.6922
 3521SOL     OW22195   4.204   1.898   7.710 -0.5421  0.2737 -0.1089
 3521SOL    HW122196   4.120   1.927   7.674 -1.5635  0.4328  2.3729
 3521SOL    HW222197   4.220   1.815   7.664  1.8180  1.2590 -1.0629
 3522SOL     OW22198   1.298   0.610   2.442  0.2253  0.0017 -0.0438
 3522SOL    HW122199   1.368   0.592   2.379 -1.6943 -1.0310 -1.8637
 3522SOL    HW222200   1.350   0.611   2.522 -1.1424 -1.8693  0.8554
 3523SOL     OW22201   1.144   0.997   7.285 -0.1522  0.0873  0.1400
 3523SOL    HW122202   1.184   0.975   7.201  0.6912 -1.1615  0.8758
 3523SOL    HW222203   1.102   0.916   7.314 -1.7448  0.5620 -0.7873
 3524SOL     OW22204   1.099   3.963   5.845  0.6982 -0.0840 -0.1857
 3524SOL    HW122205   1.118   3.930   5.932 -0.5216 -2.7834 -0.9572
 3524SOL    HW222206   1.114   3.888   5.787 -1.8060 -0.9539  0.3114
 3525SOL     OW22207   1.449   3.926   2.727 -0.2127 -0.2962 -0.4127
 3525SOL    HW122208   1.440   3.924   2.632  1.3763 -3.1515 -0.4840
 3525SOL    HW222209   1.518   3.992   2.735 -0.9386  0.6237 -1.6528
 3526SOL     OW22210   2.427   4.150   2.624  0.0419  0.0279  0.1348
 3526SOL    HW122211   2.479   4.080   2.664 -2.9951 -2.0064  0.5186
 3526SOL    HW222212   2.465   4.163   2.537  0.1053  0.7546  0.2751
 3527SOL     OW22213   1.966   4.514   7.573  0.2646  0.4364 -0.5477
 3527SOL    HW122214   1.950   4.473   7.658 -1.7081 -3.1573 -2.6704
 3527SOL    HW222215   1.922   4.595   7.599  0.6644  0.3927  0.2834
 3528SOL     OW22216   3.223   4.471   8.017 -0.7877 -0.3283  0.9744
 3528SOL    HW122217   3.185   4.406   7.957  1.0021 -0.2787 -0.2166
 3528SOL    HW222218   3.150   4.532   8.019  0.1360  0.7872  0.6894
 3529SOL     OW22219   0.975   0.080   9.530  0.2043  0.5484  0.8819
 3529SOL    HW122220   0.957   0.173   9.515 -1.1556 -0.0487 -1.0691
 3529SOL    HW222221   1.062   0.078   9.571  0.9913  0.1341 -0.8354
 3530SOL     OW22222   2.106   2.092   3.559  0.3390  0.4722 -0.1077
 3530SOL    HW122223   2.169   2.024   3.584  0.3046  0.1468 -0.8847
 3530SOL    HW222224   2.023   2.062   3.596  0.0692 -1.0330 -1.8993
 3531SOL     OW22225   1.167   3.568   4.566  0.2040 -0.2718  0.1308
 3531SOL    HW122226   1.142   3.476   4.580 -0.5785 -0.2301 -1.0445
 3531SOL    HW222227   1.127   3.585   4.481  0.7946  0.5366  0.0180
 3532SOL     OW22228   2.262   4.568  12.492  0.5730  0.4591 -0.2188
 3532SOL    HW122229   2.201   4.494  12.490  1.1115  0.0328 -1.0605
 3532SOL    HW222230   2.253   4.615  12.575 -0.7633  0.3358 -0.2862
 3533SOL     OW22231   0.547   4.127  11.478 -0.2528 -0.1944 -0.4711
 3533SOL    HW122232   0.542   4.104  11.386 -1.0662 -0.4353 -0.3675
 3533SOL    HW222233   0.589   4.048  11.515  2.6612  2.0484  0.9936
 3534SOL     OW22234   1.100   1.700   6.433 -0.3741  0.4993 -0.0076
 3534SOL    HW122235   1.012   1.670   6.410 -0.6545  0.8350  0.6533
 3534SOL    HW222236   1.135   1.629   6.487  0.6210  0.6789 -0.4120
 3535SOL     OW22237   1.609   1.791   2.830  0.1948 -0.3253  0.3171
 3535SOL    HW122238   1.619   1.854   2.901  0.9329 -1.6004  1.3342
 3535SOL    HW222239   1.513   1.792   2.825  0.2592  0.5595 -0.6843
 3536SOL     OW22240   1.670   1.211  15.912  0.6500  0.5209  0.0632
 3536SOL    HW122241   1.761   1.194  15.938  0.4874  1.4670  1.2778
 3536SOL    HW222242   1.692   1.217  15.819  1.3605  1.3506  0.2911
 3537SOL     OW22243   4.315   2.947   8.426 -0.6691 -0.5759  0.4157
 3537SOL    HW122244   4.256   2.921   8.356  0.7214  0.0191 -0.9742
 3537SOL    HW222245   4.350   2.863   8.456  2.0161  1.2134  2.3834
 3538SOL     OW22246   2.982   3.858  11.206 -0.1593  0.2329 -0.3437
 3538SOL    HW122247   2.931   3.904  11.272  0.4100  1.0230 -0.4508
 3538SOL    HW222248   2.939   3.878  11.123 -0.9071 -2.0257 -0.5081
 3539SOL     OW22249   2.521   2.089   6.229  0.2979  0.0212  0.0932
 3539SOL    HW122250   2.606   2.053   6.204  0.4177 -0.6647  1.4469
 3539SOL    HW222251   2.537   2.104   6.322 -1.4585 -1.4938  0.6543
 3540SOL     OW22252   1.383   0.255   6.956 -0.0052  0.4838  0.0026
 3540SOL    HW122253   1.393   0.267   7.051 -0.6254  2.1440 -0.1359
 3540SOL    HW222254   1.399   0.161   6.948 -1.7052  0.3387 -1.6734
 3541SOL     OW22255   1.529   3.411   1.960 -0.1438  0.6700 -0.2403
 3541SOL    HW122256   1.478   3.493   1.960 -3.0420 -1.1290  1.1497
 3541SOL    HW222257   1.469   3.337   1.950  0.5132  0.0291  0.5310
 3542SOL     OW22258   2.571   4.243   5.565  0.1866 -0.2301 -0.8422
 3542SOL    HW122259   2.508   4.198   5.620 -1.3899 -0.5005 -2.8712
 3542SOL    HW222260   2.546   4.212   5.478 -2.2078  0.8186 -0.5479
 3543SOL     OW22261   1.683   3.709   7.557  0.0833  0.3311 -0.4806
 3543SOL    HW122262   1.721   3.766   7.490  3.5130  0.5606  1.6245
 3543SOL    HW222263   1.704   3.626   7.515 -0.2978 -0.2954  0.5447
 3544SOL     OW22264   1.455   4.553   3.580  0.7449  0.4073  0.6919
 3544SOL    HW122265   1.509   4.495   3.633 -0.3257 -0.6118  0.6682
 3544SOL    HW222266   1.463   4.506   3.497  0.8709 -0.5067  1.2211
 3545SOL     OW22267   2.101   2.352   7.363  0.2866  0.2578 -0.3889
 3545SOL    HW122268   2.031   2.341   7.428  0.5413 -1.9038 -0.5033
 3545SOL    HW222269   2.131   2.441   7.382  0.4880  0.3601 -1.2058
 3546SOL     OW22270   4.460   1.959   1.873 -0.6982  0.3350  0.4023
 3546SOL    HW122271   4.534   1.998   1.826 -1.4129  0.6726 -0.4422
 3546SOL    HW222272   4.427   1.911   1.797 -0.4628 -0.7965  1.0323
 3547SOL     OW22273   0.294   1.577   4.475 -0.1807 -0.1447 -0.5851
 3547SOL    HW122274   0.375   1.529   4.455  0.8050  0.8750  0.9554
 3547SOL    HW222275   0.251   1.580   4.390  0.7438  0.3812 -1.0350
 3548SOL     OW22276   4.164   0.860   2.558 -0.4480 -0.7448  0.1791
 3548SOL    HW122277   4.106   0.891   2.488 -0.1135 -1.4183 -0.3976
 3548SOL    HW222278   4.122   0.898   2.635 -1.2868  0.0539 -0.6794
 3549SOL     OW22279   4.424   2.616  10.611  0.0480 -0.0970 -0.0599
 3549SOL    HW122280   4.387   2.702  10.588  0.6158  0.4414  1.0854
 3549SOL    HW222281   4.370   2.594  10.687 -1.7939  0.2675 -1.2477
 3550SOL     OW22282   2.668   3.035   3.821 -0.2971 -0.2002 -0.2309
 3550SOL    HW122283   2.600   3.024   3.888 -0.6318 -0.2450 -0.5761
 3550SOL    HW222284   2.745   3.012   3.872  0.3614  2.6743  0.0550
 3551SOL     OW22285   3.212   3.373  11.699 -0.3447 -0.6376  0.4433
 3551SOL    HW122286   3.202   3.433  11.772 -1.2903 -1.0534  0.6551
 3551SOL    HW222287   3.282   3.407  11.644 -1.6466  0.3034 -0.6364
 3552SOL     OW22288   2.161   3.129   7.972 -0.2916  0.2585 -0.6975
 3552SOL    HW122289   2.141   3.222   7.970  0.5801  0.3870 -2.7683
 3552SOL    HW222290   2.177   3.115   8.066 -3.0006 -0.5664 -0.3834
 3553SOL     OW22291   1.273   3.726   2.769  0.0121  0.4449  0.0049
 3553SOL    HW122292   1.347   3.785   2.755  1.3317 -1.4428 -1.1266
 3553SOL    HW222293   1.230   3.750   2.687 -3.6677  0.8892  2.0629
 3554SOL     OW22294   2.990   2.414   4.943  0.2101  0.2864 -0.5296
 3554SOL    HW122295   3.074   2.376   4.920 -0.0318  0.0558 -1.0279
 3554SOL    HW222296   2.952   2.405   4.856 -0.0897  1.6675 -0.5484
 3555SOL     OW22297   1.901   2.378   8.334 -0.6156  0.1683  0.4919
 3555SOL    HW122298   1.971   2.442   8.323  0.2735 -0.7217  1.0404
 3555SOL    HW222299   1.924   2.332   8.414  0.5966  2.3520  1.3916
 3556SOL     OW22300   1.922   1.317   2.721 -0.2328 -0.3798  0.1507
 3556SOL    HW122301   1.904   1.399   2.676 -0.1648  0.3161  1.4029
 3556SOL    HW222302   1.860   1.328   2.794 -2.6614  0.4642 -2.0423
 3557SOL     OW22303   0.995   0.590  14.296  0.2488 -0.0342 -0.5365
 3557SOL    HW122304   0.932   0.574  14.226  0.3030  0.8352 -0.7813
 3557SOL    HW222305   0.957   0.663  14.345  0.2072  0.1316 -0.8207
 3558SOL     OW22306   1.674   2.899   4.148  0.5369  0.0505  0.3560
 3558SOL    HW122307   1.745   2.956   4.118  1.4397 -2.8485 -2.9434
 3558SOL    HW222308   1.670   2.940   4.235  1.2521 -0.2360  0.5254
 3559SOL     OW22309   1.303   0.047   5.832  0.1218  0.3469  0.2002
 3559SOL    HW122310   1.326   0.137   5.856  1.4051  0.3900 -1.2309
 3559SOL    HW222311   1.361   4.737   5.888 -0.1327  0.6742  0.7651
 3560SOL     OW22312   1.387   3.258   4.437 -0.1460  0.2576 -0.1454
 3560SOL    HW122313   1.307   3.282   4.483 -0.1621 -0.3326  0.1363
 3560SOL    HW222314   1.346   3.230   4.355  1.1169  0.7056 -0.9273
 3561SOL     OW22315   0.051   1.818   4.759 -0.5675  0.4128  0.2592
 3561SOL    HW122316   0.103   1.854   4.687 -0.2441  2.1198  1.3459
 3561SOL    HW222317   4.720   1.767   4.723 -0.3236 -1.4921  2.4695
 3562SOL     OW22318   2.102   2.036   4.102  0.0470  0.1148 -0.2328
 3562SOL    HW122319   2.136   1.977   4.034  1.0042  1.9502 -1.3357
 3562SOL    HW222320   2.017   2.057   4.063  0.3763 -0.3864 -1.2139
 3563SOL     OW22321   0.372   0.720   7.288 -0.3183 -0.6007 -0.3780
 3563SOL    HW122322   0.462   0.746   7.305  0.0505 -2.1576  0.0265
 3563SOL    HW222323   0.324   0.717   7.370  1.9391 -0.8379  0.9369
 3564SOL     OW22324   0.876   3.337   6.997 -0.2911 -0.3173 -0.5774
 3564SOL    HW122325   0.881   3.375   6.909  2.2183 -1.2620 -0.8330
 3564SOL    HW222326   0.936   3.394   7.045 -2.4806  1.0192  0.5608
 3565SOL     OW22327   3.856   3.092   9.348  0.0559 -0.6445  0.3082
 3565SOL    HW122328   3.835   3.076   9.440 -2.0456  1.4843  0.2045
 3565SOL    HW222329   3.769   3.111   9.312  1.4414  1.7981 -1.7643
 3566SOL     OW22330   4.241   3.749  11.278  0.8928  0.7340 -0.0367
 3566SOL    HW122331   4.238   3.735  11.183 -2.5085 -1.3080  0.3725
 3566SOL    HW222332   4.334   3.754  11.301  0.8726  0.7037  0.0507
 3567SOL     OW22333   0.709   4.091   2.016 -0.0615  0.3271  0.1910
 3567SOL    HW122334   0.765   4.037   1.961  0.9964 -0.8016  2.3544
 3567SOL    HW222335   0.677   4.158   1.956  2.8986  0.7723 -0.8734
 3568SOL     OW22336   1.809   3.872   7.367 -0.1152  0.3205  0.0987
 3568SOL    HW122337   1.789   3.961   7.396  0.3259  0.6793 -0.7033
 3568SOL    HW222338   1.892   3.887   7.323 -0.1969 -0.6316 -0.3908
 3569SOL     OW22339   3.558   2.676   3.810 -0.4005  0.7657  0.1796
 3569SOL    HW122340   3.581   2.709   3.723  3.2785  0.1871  0.9325
 3569SOL    HW222341   3.525   2.759   3.845 -0.2218  1.2723 -0.8337
 3570SOL     OW22342   2.831   0.345   0.072 -1.4157 -0.1030 -0.3903
 3570SOL    HW122343   2.920   0.380   0.071 -2.5089  2.6457 -1.8537
 3570SOL    HW222344   2.853   0.252   0.077 -1.2194  0.0235  1.1670
 3571SOL     OW22345   2.399   1.355   7.977 -0.0297 -0.6062  0.1012
 3571SOL    HW122346   2.366   1.432   8.024  1.2228  1.9221 -3.1576
 3571SOL    HW222347   2.401   1.393   7.889  1.4452  0.3758  0.5461
 3572SOL     OW22348   1.382   0.878   9.096  1.0047 -0.1192  0.0413
 3572SOL    HW122349   1.366   0.784   9.106  1.0483 -0.4198 -2.5810
 3572SOL    HW222350   1.315   0.912   9.036  1.0373  0.9963  0.6353
 3573SOL     OW22351   1.936   2.295   9.241 -0.7877 -0.0926  0.3922
 3573SOL    HW122352   1.928   2.248   9.324 -0.9372  0.2832  0.5920
 3573SOL    HW222353   1.893   2.375   9.269  0.9349  1.4506 -1.3507
 3574SOL     OW22354   2.714   1.957   5.722  0.2211 -0.3286  0.2559
 3574SOL    HW122355   2.776   1.961   5.649 -0.5422  0.4862 -0.3429
 3574SOL    HW222356   2.764   2.013   5.782 -1.4081  0.4431  0.9020
 3575SOL     OW22357   2.009   3.616   6.212 -0.6821 -0.2581  0.3037
 3575SOL    HW122358   1.923   3.576   6.205 -1.5205  1.2977  1.7299
 3575SOL    HW222359   2.037   3.615   6.121 -0.1270 -3.3548  0.5008
 3576SOL     OW22360   3.080   4.583   5.605  0.3167 -0.3168  0.0789
 3576SOL    HW122361   3.055   4.631   5.526 -0.3135 -0.4933  0.1707
 3576SOL    HW222362   3.049   4.495   5.585  0.4781  0.0055 -1.6484
 3577SOL     OW22363   0.370   1.340   9.286 -0.4398  0.4253 -0.7965
 3577SOL    HW122364   0.307   1.282   9.330 -0.5503  0.0941 -1.3930
 3577SOL    HW222365   0.360   1.413   9.348 -2.1040 -0.8035  0.3983
 3578SOL     OW22366   2.804   2.184   9.054 -0.3313  0.2791 -0.0413
 3578SOL    HW122367   2.794   2.093   9.082  0.9524 -0.4420 -1.9008
 3578SOL    HW222368   2.751   2.180   8.974  0.1523  0.4414 -0.3693
 3579SOL     OW22369   2.487   3.495   6.936  0.0232  0.1292  0.0256
 3579SOL    HW122370   2.534   3.412   6.945 -0.0758  0.5284  4.2214
 3579SOL    HW222371   2.452   3.509   7.024  0.5079  0.4202  0.1709
 3580SOL     OW22372   3.676   0.183   0.142 -0.2525  0.3464 -0.1232
 3580SOL    HW122373   3.762   0.141   0.142 -0.1363  0.5821  1.6221
 3580SOL    HW222374   3.683   0.219   0.053  0.0414 -1.3598 -0.7832
 3581SOL     OW22375   3.907   0.667   4.084  0.3491  0.3123  0.6597
 3581SOL    HW122376   3.909   0.594   4.147  1.5018  0.0595  0.3294
 3581SOL    HW222377   3.903   0.743   4.143  1.1000 -0.3437  1.5692
 3582SOL     OW22378   1.579   0.794   6.365 -0.3034  0.0964 -1.0167
 3582SOL    HW122379   1.602   0.701   6.370  0.8466  0.5310  1.4423
 3582SOL    HW222380   1.662   0.829   6.334  0.1004  0.3128  0.2994
 3583SOL     OW22381   1.178   3.068   3.889 -0.1842  0.3730 -0.2867
 3583SOL    HW122382   1.255   3.022   3.923 -1.7565 -1.7832  0.4185
 3583SOL    HW222383   1.218   3.153   3.877 -1.7761  1.0981 -0.5286
 3584SOL     OW22384   2.248   2.137  15.588  0.2275 -0.7670 -0.0055
 3584SOL    HW122385   2.335   2.165  15.617  0.2359  0.8547 -1.5796
 3584SOL    HW222386   2.202   2.221  15.584  2.7666  0.6720  0.8232
 3585SOL     OW22387   1.712   2.261  10.485  0.2192  0.1845  0.2199
 3585SOL    HW122388   1.738   2.344  10.444 -0.7834  0.4030  0.0410
 3585SOL    HW222389   1.641   2.230  10.429  1.4278 -0.5027 -0.9556
 3586SOL     OW22390   4.561   1.230   1.913  0.3663  0.6323 -0.5151
 3586SOL    HW122391   4.566   1.145   1.870 -1.8839 -1.1194  2.6994
 3586SOL    HW222392   4.575   1.202   2.004  2.1280  2.0896 -0.3276
 3587SOL     OW22393   4.475   2.916   5.527  0.0715  0.2368  0.4040
 3587SOL    HW122394   4.381   2.929   5.512  0.3747  3.0202  0.8937
 3587SOL    HW222395   4.498   3.007   5.545 -1.1074  0.5748  0.2066
 3588SOL     OW22396   2.946   0.162   6.392  0.2098 -0.3204  0.3617
 3588SOL    HW122397   2.859   0.128   6.370  0.6525 -0.6884 -0.8278
 3588SOL    HW222398   2.951   0.232   6.326 -0.2492  1.2182  1.9684
 3589SOL     OW22399   3.713   1.428  17.132  0.2819 -0.1717 -0.1008
 3589SOL    HW122400   3.794   1.414  17.182 -0.3637  1.9573  1.5646
 3589SOL    HW222401   3.670   1.498  17.181 -0.2575 -1.1223  0.7937
 3590SOL     OW22402   0.546   1.867   6.114  0.5628 -0.2035 -0.9965
 3590SOL    HW122403   0.638   1.846   6.132  0.2959 -0.2289  0.3023
 3590SOL    HW222404   0.535   1.949   6.161 -2.0400 -1.1637  0.0626
 3591SOL     OW22405   0.192   3.632   4.368  0.2879  0.4445  0.2225
 3591SOL    HW122406   0.171   3.722   4.392  0.3286  0.1241  1.4503
 3591SOL    HW222407   0.182   3.601   4.458  0.1322  2.4181  0.8721
 3592SOL     OW22408   1.992   4.459   7.863  0.3223 -0.2178 -0.4992
 3592SOL    HW122409   1.976   4.402   7.938 -1.5234 -1.5643 -1.8976
 3592SOL    HW222410   2.034   4.537   7.899 -1.3096  0.4875 -0.1405
 3593SOL     OW22411   3.610   0.106   3.992 -0.2599 -0.2669 -0.1275
 3593SOL    HW122412   3.647   0.065   4.070  0.4190  1.0784  0.2596
 3593SOL    HW222413   3.655   0.191   3.998 -0.7531 -0.0206  0.0739
 3594SOL     OW22414   3.595   0.853   3.280 -0.2821 -0.6812 -0.0954
 3594SOL    HW122415   3.643   0.914   3.336 -1.8473  0.0847  0.4026
 3594SOL    HW222416   3.654   0.778   3.286  0.0201 -0.4978 -0.8692
 3595SOL     OW22417   0.885   3.662   4.162 -0.0087  0.4351 -0.1697
 3595SOL    HW122418   0.848   3.742   4.199 -1.0654 -0.5716  0.9626
 3595SOL    HW222419   0.930   3.622   4.236 -0.7608 -1.3392 -0.6611
 3596SOL     OW22420   0.544   3.005   9.417 -0.6735  0.3237 -0.3642
 3596SOL    HW122421   0.485   3.068   9.457 -1.3365 -0.3050 -0.3470
 3596SOL    HW222422   0.561   3.035   9.328  0.9797 -2.0281 -0.8606
 3597SOL     OW22423   3.668   0.689  12.908 -0.3549  0.1320 -0.3107
 3597SOL    HW122424   3.619   0.770  12.908  2.1251  1.6352 -1.3636
 3597SOL    HW222425   3.638   0.650  12.991  3.2931 -2.1169 -0.0027
 3598SOL     OW22426   1.205   2.312   9.109  0.4047 -0.5077  0.6756
 3598SOL    HW122427   1.228   2.346   9.022  2.8570  0.1336  1.5882
 3598SOL    HW222428   1.163   2.391   9.144  0.3341 -0.3750  0.2954
 3599SOL     OW22429   0.170   2.620   5.650  0.6321 -0.4539 -0.0123
 3599SOL    HW122430   0.181   2.706   5.609  1.8567  0.0582  1.3954
 3599SOL    HW222431   0.255   2.576   5.661  0.9938  0.8299  2.3008
 3600SOL     OW22432   2.312   3.533   8.546 -0.0469  0.5523  0.2581
 3600SOL    HW122433   2.239   3.526   8.608  1.1596  0.4630  1.6654
 3600SOL    HW222434   2.297   3.616   8.500 -2.5108 -0.9280 -1.5706
 3601SOL     OW22435   0.898   2.547   5.315  0.9749 -0.5139  0.2476
 3601SOL    HW122436   0.866   2.466   5.274  0.2157  0.4313 -1.0198
 3601SOL    HW222437   0.823   2.583   5.364  0.3787 -0.3155 -0.8177
 3602SOL     OW22438   0.772   1.007   3.938  0.0478  0.1314 -0.1684
 3602SOL    HW122439   0.805   0.994   3.849 -1.0779 -1.3090 -0.3721
 3602SOL    HW222440   0.685   1.044   3.925 -0.5516 -2.0937 -2.5300
 3603SOL     OW22441   1.396   4.162   4.941  0.2546 -0.5089  0.2275
 3603SOL    HW122442   1.441   4.229   4.993  0.9148 -2.5816  2.3497
 3603SOL    HW222443   1.373   4.207   4.860  1.1855 -1.8523 -0.7793
 3604SOL     OW22444   3.402   0.993   6.870 -0.8495 -0.4567  0.5539
 3604SOL    HW122445   3.364   0.910   6.899 -0.7132 -0.6450  0.1908
 3604SOL    HW222446   3.360   1.011   6.787 -1.7284  0.4779  1.2063
 3605SOL     OW22447   2.870   2.625   5.797  0.5032  0.6008 -0.1267
 3605SOL    HW122448   2.924   2.634   5.718  0.9779 -0.0860  0.1201
 3605SOL    HW222449   2.893   2.533   5.810 -0.5684  0.5711  1.5186
 3606SOL     OW22450   1.358   0.064   5.468 -0.5348 -0.3606 -0.0667
 3606SOL    HW122451   1.420   0.136   5.460 -0.3683 -0.4298  0.5820
 3606SOL    HW222452   1.278   0.116   5.458 -0.6918  0.1901  3.9888
 3607SOL     OW22453   0.376   1.005   2.906 -0.1738  0.5763  0.3730
 3607SOL    HW122454   0.454   0.987   2.959 -2.0489 -0.6865  2.6764
 3607SOL    HW222455   0.410   1.089   2.874 -1.1229  1.0655  0.6446
 3608SOL     OW22456   4.308   0.429   3.492  0.6416 -0.1102 -0.0639
 3608SOL    HW122457   4.252   0.506   3.483 -0.2465 -0.5801  1.4205
 3608SOL    HW222458   4.370   0.459   3.426  1.3131 -0.4246  0.4214
 3609SOL     OW22459   4.125   3.983   1.874 -0.3859  0.5091  0.5458
 3609SOL    HW122460   4.112   4.072   1.908  0.2203  0.4031  1.0542
 3609SOL    HW222461   4.125   3.934   1.956  1.8194 -0.9637 -0.3169
 3610SOL     OW22462   1.640   3.232   3.364 -0.2357  0.1663 -0.5991
 3610SOL    HW122463   1.576   3.201   3.300 -2.3546  0.6646  1.2618
 3610SOL    HW222464   1.602   3.294   3.426 -1.5336  0.3414 -1.5748
 3611SOL     OW22465   3.223   2.309   8.843 -0.8020  0.0145  0.0286
 3611SOL    HW122466   3.134   2.343   8.859 -0.7099  0.8287 -1.1794
 3611SOL    HW222467   3.267   2.393   8.831  1.1239 -1.3892 -2.7092
 3612SOL     OW22468   0.493   3.452  17.505 -0.0569 -0.5400  0.1653
 3612SOL    HW122469   0.481   3.449  17.410  2.0298  1.1321 -0.1505
 3612SOL    HW222470   0.524   3.363  17.523  0.8520 -0.1305  0.6179
 3613SOL     OW22471   3.029   4.114   5.018 -0.5947  0.0453  0.4415
 3613SOL    HW122472   2.998   4.172   4.949 -1.6645  0.0973  0.9641
 3613SOL    HW222473   2.961   4.124   5.085  0.1530  2.7050  0.8206
 3614SOL     OW22474   1.401   0.626   7.182 -0.1110  0.4145 -0.0538
 3614SOL    HW122475   1.328   0.663   7.133 -1.8036  0.3661  2.4015
 3614SOL    HW222476   1.348   0.579   7.247  0.7531 -4.4552 -2.9214
 3615SOL     OW22477   2.289   4.082   3.277  0.2786 -0.2597 -0.0441
 3615SOL    HW122478   2.231   4.026   3.226 -0.5875  1.7103 -1.2285
 3615SOL    HW222479   2.366   4.083   3.220 -0.4609 -1.3243 -1.0680
 3616SOL     OW22480   1.275   4.670  16.056  0.4981 -0.2459  0.6503
 3616SOL    HW122481   1.316   4.613  16.121  2.7277 -1.2091 -1.6163
 3616SOL    HW222482   1.244   0.003  16.108 -0.3185 -0.0899 -0.0586
 3617SOL     OW22483   3.520   1.779   6.459  0.4988  0.0439  0.1672
 3617SOL    HW122484   3.616   1.783   6.452  0.6653 -0.8204  1.8761
 3617SOL    HW222485   3.503   1.685   6.459  1.5990 -0.1438 -2.5574
 3618SOL     OW22486   2.007   0.042   6.811 -0.0303  0.0019 -0.0488
 3618SOL    HW122487   2.098   0.034   6.839  0.2623 -1.3290 -1.3733
 3618SOL    HW222488   1.972   0.113   6.865 -0.8689 -0.9589  0.6660
 3619SOL     OW22489   2.962   2.372   6.574 -0.3988  0.6154  0.3847
 3619SOL    HW122490   2.981   2.461   6.606 -3.0015  0.8610  1.2868
 3619SOL    HW222491   3.020   2.313   6.622  0.0973  2.4192  1.9944
 3620SOL     OW22492   4.180   1.016   8.191 -0.3990 -0.4639 -0.0184
 3620SOL    HW122493   4.187   0.985   8.282 -4.0328  0.5110  0.6119
 3620SOL    HW222494   4.131   0.942   8.155 -0.3240 -0.4196 -0.2079
 3621SOL     OW22495   1.064   4.393  14.544  0.3836  0.1185 -0.0483
 3621SOL    HW122496   0.998   4.460  14.561 -1.2852 -0.9374 -2.2748
 3621SOL    HW222497   1.137   4.432  14.591 -1.4069 -0.2567  3.0600
 3622SOL     OW22498   1.660   2.533   9.259  0.8008 -0.0701 -0.1522
 3622SOL    HW122499   1.627   2.612   9.218 -1.5894 -0.9366  0.0643
 3622SOL    HW222500   1.741   2.564   9.299  0.1048 -0.2556  1.4099
 3623SOL     OW22501   1.672   2.750   3.566  0.1158  0.4794 -0.6284
 3623SOL    HW122502   1.755   2.738   3.520 -0.2760 -0.9013 -0.9704
 3623SOL    HW222503   1.671   2.846   3.571  1.7849  0.4751 -0.0976
 3624SOL     OW22504   3.752   1.347   4.533  0.7686  0.3152 -0.1505
 3624SOL    HW122505   3.726   1.256   4.522  3.8910 -0.4637 -0.9455
 3624SOL    HW222506   3.674   1.394   4.562  2.5462  1.8805  2.0592
 3625SOL     OW22507   0.031   3.149   5.986 -0.1516 -0.1188 -0.1890
 3625SOL    HW122508   0.037   3.088   5.912 -1.6237  0.0226 -0.4215
 3625SOL    HW222509   0.126   3.157   5.998 -0.0870 -2.0164  0.5175
 3626SOL     OW22510   4.142   4.694   7.450  0.4195 -0.1664  0.2530
 3626SOL    HW122511   4.125   0.044   7.473  0.9708 -0.1592  0.6451
 3626SOL    HW222512   4.204   4.678   7.521 -0.7315 -0.6446  1.1517
 3627SOL     OW22513   2.632   1.541   3.694  0.4590 -0.9862 -0.1480
 3627SOL    HW122514   2.670   1.594   3.624  0.9718 -1.1307  0.0190
 3627SOL    HW222515   2.689   1.554   3.770 -0.4867  0.7211  0.2651
 3628SOL     OW22516   0.748   0.690   1.887 -0.3924  0.6982 -0.0961
 3628SOL    HW122517   0.841   0.691   1.864  0.1442 -2.3561  1.8920
 3628SOL    HW222518   0.717   0.648   1.807  1.5576  1.7446 -1.3875
 3629SOL     OW22519   3.107   3.103  12.377 -0.3099 -0.2545 -0.4815
 3629SOL    HW122520   3.138   3.037  12.439 -0.5773 -1.9506 -2.1217
 3629SOL    HW222521   3.113   3.182  12.431 -0.1921 -1.0641  0.6871
 3630SOL     OW22522   2.114   3.638   6.450 -0.2062  0.2669  0.4931
 3630SOL    HW122523   2.207   3.619   6.456 -0.6941 -2.4544 -0.8345
 3630SOL    HW222524   2.098   3.632   6.356  0.0100  0.4934  0.4419
 3631SOL     OW22525   0.742   4.631  13.139  0.3901  0.3833 -0.2798
 3631SOL    HW122526   0.685   4.704  13.115  1.5356  1.0841 -0.8918
 3631SOL    HW222527   0.818   4.624  13.081 -0.5839  0.8149 -1.5895
 3632SOL     OW22528   3.127   4.486  13.165  0.2600  0.2845 -0.2959
 3632SOL    HW122529   3.168   4.514  13.082 -1.6786  0.0023 -1.3539
 3632SOL    HW222530   3.175   4.405  13.185  2.1649  1.2899 -0.7119
 3633SOL     OW22531   2.110   1.768   7.595  0.4521  0.0024 -0.4768
 3633SOL    HW122532   2.030   1.733   7.555 -0.2826  3.0840 -1.7361
 3633SOL    HW222533   2.112   1.860   7.570 -0.4330  0.1663  0.0432
 3634SOL     OW22534   2.871   2.292   6.327  0.1409 -0.5337  0.2876
 3634SOL    HW122535   2.789   2.342   6.323  0.0425 -0.7103  0.1358
 3634SOL    HW222536   2.890   2.314   6.418 -2.6458  0.8572  0.5242
 3635SOL     OW22537   3.606   3.214   3.804  0.8732 -0.7645  0.0090
 3635SOL    HW122538   3.676   3.179   3.859  0.2291 -0.1677  1.2014
 3635SOL    HW222539   3.588   3.136   3.752 -1.0837 -0.8400  0.8190
 3636SOL     OW22540   0.786   0.070   3.863 -0.1217  0.1573 -0.6855
 3636SOL    HW122541   0.869   0.082   3.816  0.2256  1.9106  0.3648
 3636SOL    HW222542   0.801   0.129   3.937 -2.1987 -1.8387  1.3075
 3637SOL     OW22543   2.021   3.163  13.071 -0.0059 -0.3084 -0.0138
 3637SOL    HW122544   1.927   3.178  13.055  0.0480 -1.6285 -1.6163
 3637SOL    HW222545   2.045   3.253  13.094  2.0310 -0.5307 -1.2407
 3638SOL     OW22546   2.526   3.360   6.520  0.1458  0.2482 -0.4128
 3638SOL    HW122547   2.600   3.412   6.551  0.1567  1.0050 -1.6742
 3638SOL    HW222548   2.505   3.306   6.596 -0.5040  0.4064 -0.4771
 3639SOL     OW22549   0.615   3.989  16.621 -0.3685  0.4454  0.0488
 3639SOL    HW122550   0.679   3.953  16.561 -0.4024 -0.3342  0.4778
 3639SOL    HW222551   0.564   3.910  16.640 -1.1780  0.3884 -2.3965
 3640SOL     OW22552   4.581   1.311   2.600 -0.5459 -0.0143 -0.4513
 3640SOL    HW122553   4.496   1.275   2.573 -0.5538 -2.5480  2.9369
 3640SOL    HW222554   4.621   1.230   2.630  0.1456  0.5327  0.1198
 3641SOL     OW22555   3.673   4.689   7.990  0.5192  0.3121 -0.0865
 3641SOL    HW122556   3.641   4.603   7.963  0.4438  0.1936  0.3668
 3641SOL    HW222557   3.766   4.668   7.985  0.2009 -0.7999 -1.1854
 3642SOL     OW22558   1.213   2.543   6.226  0.5575 -0.2178  0.6189
 3642SOL    HW122559   1.209   2.633   6.196  3.2208 -0.3002 -0.0422
 3642SOL    HW222560   1.159   2.553   6.304  0.2735  0.8327  0.2772
 3643SOL     OW22561   4.618   2.750   9.793  0.2718 -0.0182  0.5989
 3643SOL    HW122562   4.572   2.821   9.748 -1.0642 -1.5936 -0.4920
 3643SOL    HW222563   4.588   2.749   9.884  0.3245 -1.3609  0.5953
 3644SOL     OW22564   3.010   2.568  11.444  0.6503 -0.0991 -0.2669
 3644SOL    HW122565   3.057   2.647  11.470 -0.0602  0.4891 -0.7465
 3644SOL    HW222566   3.004   2.518  11.525 -0.0003 -2.4227 -1.7500
 3645SOL     OW22567   4.286   3.661   1.028  0.1521  0.3995  0.2485
 3645SOL    HW122568   4.380   3.676   1.041  0.3407 -0.5336 -0.0391
 3645SOL    HW222569   4.293   3.600   0.954 -0.8814  1.6464 -0.8728
 3646SOL     OW22570   2.580   1.744   4.036  0.0414 -0.3790 -0.0113
 3646SOL    HW122571   2.653   1.802   4.016 -1.2231  0.8604 -1.0231
 3646SOL    HW222572   2.621   1.658   4.033 -0.4766 -0.6918  1.6485
 3647SOL     OW22573   3.221   0.569  15.323  0.5557  0.3657 -0.3643
 3647SOL    HW122574   3.224   0.486  15.372  1.0869  0.8105  0.3501
 3647SOL    HW222575   3.306   0.604  15.347 -0.6827  2.2740  1.2595
 3648SOL     OW22576   3.674   1.451   7.413 -0.7543 -0.3027 -0.1539
 3648SOL    HW122577   3.628   1.368   7.421 -1.9618  0.5692  1.8672
 3648SOL    HW222578   3.680   1.444   7.317 -1.9480 -0.0194 -0.2478
 3649SOL     OW22579   2.156   0.611   2.618 -0.3017 -0.4971 -0.2792
 3649SOL    HW122580   2.227   0.639   2.676 -0.1932  0.3044 -0.7994
 3649SOL    HW222581   2.201   0.552   2.557  1.8115 -0.6830  1.4613
 3650SOL     OW22582   2.317   3.899  17.081  0.4450 -0.4421 -0.2814
 3650SOL    HW122583   2.377   3.917  17.153  2.0287 -1.4025 -1.3673
 3650SOL    HW222584   2.353   3.953  17.010  0.9174 -0.8550 -0.3548
 3651SOL     OW22585   0.893   2.843  16.912  0.6958  0.3163  0.0296
 3651SOL    HW122586   0.806   2.866  16.879  0.7300 -0.1479 -0.3752
 3651SOL    HW222587   0.904   2.756  16.875 -0.3897  0.0232  0.3904
 3652SOL     OW22588   4.137   0.645   3.563 -0.2327  0.4478 -0.1598
 3652SOL    HW122589   4.051   0.685   3.576 -0.7247 -0.4872 -0.5621
 3652SOL    HW222590   4.171   0.650   3.653 -0.0837  2.6544 -0.3309
 3653SOL     OW22591   1.939   4.320   6.265  0.3871 -0.0967 -0.0990
 3653SOL    HW122592   1.991   4.364   6.197  2.6974  0.9610  2.3581
 3653SOL    HW222593   1.879   4.268   6.211 -1.8610  0.9037  1.4177
 3654SOL     OW22594   1.661   1.366   5.543  0.1536 -0.2036 -0.2376
 3654SOL    HW122595   1.657   1.315   5.624 -1.2468 -1.3078 -1.0019
 3654SOL    HW222596   1.574   1.405   5.544  0.3147  0.0990  1.3609
 3655SOL     OW22597   2.135   1.911   7.311  0.1511  0.1855 -0.2122
 3655SOL    HW122598   2.206   1.850   7.331 -1.3449 -0.9195  1.7308
 3655SOL    HW222599   2.170   1.942   7.227 -2.5570 -0.4361 -1.5688
 3656SOL     OW22600   3.319   3.371   3.453  0.1331  0.2802 -0.1520
 3656SOL    HW122601   3.350   3.281   3.456  1.1926  0.6514 -0.0208
 3656SOL    HW222602   3.374   3.411   3.520 -1.4602  1.7124  0.3066
 3657SOL     OW22603   0.642   0.151   3.336  0.5405 -0.1312  0.5580
 3657SOL    HW122604   0.576   0.162   3.405  0.6319  1.8586  0.3281
 3657SOL    HW222605   0.679   0.238   3.347 -0.9001  0.5551 -0.0406
 3658SOL     OW22606   2.071   4.181   4.362 -0.1263  0.0064 -0.5670
 3658SOL    HW122607   2.047   4.134   4.442  0.0040 -1.7871 -1.5717
 3658SOL    HW222608   2.163   4.158   4.366  0.1491  0.7000 -2.7944
 3659SOL     OW22609   4.488   1.842  17.136 -0.5851  0.1305 -0.2066
 3659SOL    HW122610   4.569   1.862  17.089 -0.8311 -0.1886 -0.7726
 3659SOL    HW222611   4.470   1.925  17.180  3.1109  0.0366  1.4967
 3660SOL     OW22612   3.451   3.127  13.989 -0.1026 -0.4904  0.1366
 3660SOL    HW122613   3.425   3.035  13.988  1.3262 -0.8852  0.3816
 3660SOL    HW222614   3.365   3.168  13.975 -0.1519 -0.6265  0.0370
 3661SOL     OW22615   3.965   4.272   6.934 -0.6631 -0.7567  0.2666
 3661SOL    HW122616   3.964   4.193   6.987  3.6270  0.4512  2.1122
 3661SOL    HW222617   4.025   4.319   6.992  0.6737 -2.6340  0.3779
 3662SOL     OW22618   1.010   1.719  17.726  0.5648  0.0541 -0.4006
 3662SOL    HW122619   1.100   1.704  17.754  0.0276  0.2186  1.4446
 3662SOL    HW222620   0.992   1.810  17.753  1.6108  0.3060 -0.5681
 3663SOL     OW22621   1.936   0.406   4.914  0.2960 -0.0983 -0.4627
 3663SOL    HW122622   1.949   0.331   4.857 -0.9241 -1.6593  1.3305
 3663SOL    HW222623   1.969   0.475   4.856 -0.8164  0.5035 -0.3788
 3664SOL     OW22624   3.068   4.625   6.113  0.0774  0.3273  0.3010
 3664SOL    HW122625   3.009   4.683   6.065  0.3657 -0.3577 -0.8869
 3664SOL    HW222626   3.146   4.681   6.110  1.5133 -1.6770 -0.1806
 3665SOL     OW22627   4.376   0.233   2.602  0.6420  0.4580  0.1689
 3665SOL    HW122628   4.351   0.199   2.516 -0.6453 -0.1329  0.7758
 3665SOL    HW222629   4.341   0.157   2.650  0.4180 -0.5185 -1.5405
 3666SOL     OW22630   4.061   1.711   1.812  0.3520  0.2358 -0.1947
 3666SOL    HW122631   4.104   1.634   1.773  1.0570  0.9990 -0.9282
 3666SOL    HW222632   4.078   1.699   1.905  0.2601 -0.0737 -0.2185
 3667SOL     OW22633   1.846   3.934  16.810 -0.2679 -0.6558  0.5751
 3667SOL    HW122634   1.847   4.029  16.796 -0.0811 -1.0547 -2.1368
 3667SOL    HW222635   1.804   3.909  16.728 -2.0463 -0.5377  1.4691
 3668SOL     OW22636   0.014   3.381   8.865 -0.3508  0.1626  0.2822
 3668SOL    HW122637   0.033   3.300   8.818  0.4701 -1.3290  3.1629
 3668SOL    HW222638   4.721   3.343   8.946  2.2353 -0.8481  0.8988
 3669SOL     OW22639   3.406   4.378   5.915 -0.0987 -0.4392  0.3250
 3669SOL    HW122640   3.489   4.374   5.962  1.2467 -2.1659 -2.2030
 3669SOL    HW222641   3.346   4.340   5.979 -2.4558  3.0761  0.2383
 3670SOL     OW22642   0.964   3.460   2.486 -0.0916 -0.3389  0.2295
 3670SOL    HW122643   1.007   3.420   2.562 -1.2386 -2.6758 -0.3802
 3670SOL    HW222644   1.028   3.528   2.463  0.2324 -0.6715  0.1605
 3671SOL     OW22645   3.003   1.176   4.415  0.3215  0.1377  0.0457
 3671SOL    HW122646   2.986   1.212   4.328 -0.5926  0.2654  0.2889
 3671SOL    HW222647   3.027   1.261   4.450 -0.2212 -0.0316  0.8204
 3672SOL     OW22648   1.087   2.195   5.772  0.2448 -0.4727 -0.3819
 3672SOL    HW122649   1.137   2.275   5.786 -0.0119 -0.3872  0.0210
 3672SOL    HW222650   1.096   2.187   5.677  1.8173 -0.8196 -0.2112
 3673SOL     OW22651   1.821   3.210   4.962  0.6335  0.0359 -0.3222
 3673SOL    HW122652   1.890   3.252   4.911  0.9320 -0.3896 -0.2652
 3673SOL    HW222653   1.809   3.132   4.908 -0.4841  0.2859 -0.4438
 3674SOL     OW22654   0.537   3.109   2.948  0.4929 -0.6733  0.1332
 3674SOL    HW122655   0.494   3.169   2.887  0.6205  0.8206  1.5358
 3674SOL    HW222656   0.581   3.054   2.883 -0.4060 -1.8088  0.4854
 3675SOL     OW22657   2.472   1.442   4.024 -0.1348  0.7443  0.1062
 3675SOL    HW122658   2.424   1.472   4.101  1.6965  0.5327  1.3299
 3675SOL    HW222659   2.400   1.398   3.979 -0.9490  2.4300 -0.2425
 3676SOL     OW22660   4.612   1.687  11.030 -0.3146  0.7113 -0.1748
 3676SOL    HW122661   4.685   1.712  11.087 -1.2598  0.0534  1.3292
 3676SOL    HW222662   4.543   1.692  11.096  0.9795 -1.0651  1.3189
 3677SOL     OW22663   4.313   1.129   6.344 -0.2460 -0.0822 -0.3198
 3677SOL    HW122664   4.341   1.150   6.433 -1.6217 -0.5114  0.2167
 3677SOL    HW222665   4.299   1.215   6.304 -0.3562 -0.5966 -1.4073
 3678SOL     OW22666   2.972   4.368   3.136  0.5398 -0.0699 -0.2767
 3678SOL    HW122667   3.056   4.413   3.142 -0.2384  1.1751  1.1384
 3678SOL    HW222668   2.992   4.277   3.114 -1.0927 -0.5622  0.2829
 3679SOL     OW22669   2.365   0.719   3.972 -0.5213  0.4598 -0.0689
 3679SOL    HW122670   2.384   0.764   4.054 -0.2963 -0.9734  0.6745
 3679SOL    HW222671   2.274   0.693   3.983 -0.2067 -0.8831 -0.6622
 3680SOL     OW22672   0.072   0.456   4.575  0.0682 -0.1509 -0.0766
 3680SOL    HW122673   4.727   0.434   4.541 -0.3163 -0.7396  1.2868
 3680SOL    HW222674   0.133   0.432   4.506  1.3971  1.9713  0.3596
 3681SOL     OW22675   0.512   3.888  12.191 -0.8439  0.2024 -0.1456
 3681SOL    HW122676   0.529   3.880  12.097 -2.8545  2.1566 -0.6799
 3681SOL    HW222677   0.526   3.797  12.214 -1.2630  0.3272  0.6114
 3682SOL     OW22678   2.392   4.097   7.327 -0.7794  0.1115 -0.1856
 3682SOL    HW122679   2.473   4.073   7.281 -2.2059  0.2596 -2.7947
 3682SOL    HW222680   2.327   4.058   7.269 -0.6507  1.5308 -1.2907
 3683SOL     OW22681   2.984   2.358  11.614 -0.3437  0.3490  0.3463
 3683SOL    HW122682   2.959   2.316  11.531  2.3555 -0.8462  0.1293
 3683SOL    HW222683   2.957   2.287  11.673  2.1997  0.4532  1.6507
 3684SOL     OW22684   1.942   2.374   6.800 -0.3566 -0.1376  0.2718
 3684SOL    HW122685   1.898   2.451   6.763  0.4594 -0.3284 -1.1196
 3684SOL    HW222686   2.029   2.393   6.764 -0.6504 -1.9431 -1.3833
 3685SOL     OW22687   2.293   4.252  10.062 -0.1511 -0.0449 -0.6539
 3685SOL    HW122688   2.215   4.197  10.061 -0.4653  0.4125 -1.6103
 3685SOL    HW222689   2.255   4.340  10.065 -0.8068 -0.3343 -0.4300
 3686SOL     OW22690   1.530   0.293   8.099  0.1117  0.0646 -0.3832
 3686SOL    HW122691   1.529   0.267   8.191  0.5447 -2.2663 -1.0433
 3686SOL    HW222692   1.441   0.324   8.079 -0.8875 -1.8372  1.0746
 3687SOL     OW22693   0.561   3.267   7.824  0.0410 -0.6893 -0.4619
 3687SOL    HW122694   0.545   3.348   7.872 -2.0975 -1.7816  0.6685
 3687SOL    HW222695   0.528   3.287   7.736  0.1767 -1.4464 -0.6882
 3688SOL     OW22696   1.473   2.566   2.386  0.1150  0.2842 -0.4808
 3688SOL    HW122697   1.432   2.569   2.473  1.6106 -0.0518  0.2243
 3688SOL    HW222698   1.429   2.634   2.336 -0.1798  0.2503 -0.2751
 3689SOL     OW22699   2.813   1.224   9.161  0.0312 -0.1079  0.4160
 3689SOL    HW122700   2.901   1.233   9.197  0.3888  1.7613 -0.9299
 3689SOL    HW222701   2.757   1.229   9.239 -2.0918  0.9661 -1.1840
 3690SOL     OW22702   1.632   0.793   4.035 -0.0791 -0.7621 -0.2896
 3690SOL    HW122703   1.673   0.767   4.118 -1.9181  0.9721  1.1590
 3690SOL    HW222704   1.659   0.885   4.029  0.8386 -0.9429  0.9457
 3691SOL     OW22705   4.718   4.133  16.407 -0.4595 -0.0568 -0.2745
 3691SOL    HW122706   4.674   4.214  16.433  0.2426  0.3380 -0.3517
 3691SOL    HW222707   4.652   4.076  16.447 -0.3702  0.2182  0.2599
 3692SOL     OW22708   4.166   4.054   0.406  0.4258  0.5156  0.3061
 3692SOL    HW122709   4.177   3.981   0.345  1.7924  1.0203 -0.0333
 3692SOL    HW222710   4.111   4.017   0.475  0.0706  0.1814 -0.1509
 3693SOL     OW22711   1.143   1.387   4.899  0.7564  0.2297  0.2465
 3693SOL    HW122712   1.184   1.414   4.980  1.9977 -0.6706 -0.0687
 3693SOL    HW222713   1.105   1.299   4.906 -0.6871  0.6863 -1.9527
 3694SOL     OW22714   0.640   3.901   7.125  0.0680 -0.1850 -0.4981
 3694SOL    HW122715   0.724   3.889   7.169 -0.0757 -2.8280 -0.9213
 3694SOL    HW222716   0.587   3.876   7.202  0.0971  0.5988 -0.2228
 3695SOL     OW22717   1.401   1.041   3.764 -0.1335  0.2340  0.1402
 3695SOL    HW122718   1.364   1.110   3.708 -0.4182 -1.5197 -1.8127
 3695SOL    HW222719   1.457   1.081   3.831 -1.3761  0.5051  1.0053
 3696SOL     OW22720   0.185   2.547   9.657  0.3053  0.3348 -0.3666
 3696SOL    HW122721   0.265   2.543   9.708 -0.8099  0.4550  1.3845
 3696SOL    HW222722   0.180   2.453   9.638  1.1968  0.4851 -1.3554
 3697SOL     OW22723   3.738   1.940  11.037  0.6390 -0.4670 -0.2179
 3697SOL    HW122724   3.739   1.940  11.133 -0.3736 -1.5703 -0.2156
 3697SOL    HW222725   3.809   1.999  11.011  0.4945 -1.3986 -2.7243
 3698SOL     OW22726   2.150   0.048   4.990 -0.1626  0.0766  0.1343
 3698SOL    HW122727   2.232   0.055   4.940 -0.3400 -1.5802 -0.4000
 3698SOL    HW222728   2.143   0.136   5.026 -0.5474 -0.1777  0.6752
 3699SOL     OW22729   1.281   3.750   8.033  0.4950  0.0235 -0.7192
 3699SOL    HW122730   1.205   3.696   8.055  0.2026  2.2259  3.5601
 3699SOL    HW222731   1.244   3.837   8.017  1.0585  0.7111  1.7646
 3700SOL     OW22732   1.911   2.779  16.633  0.0038  0.0453  1.0247
 3700SOL    HW122733   1.969   2.849  16.603 -2.8627  1.6712 -0.6910
 3700SOL    HW222734   1.889   2.797  16.725 -2.1906  1.2219  0.2630
 3701SOL     OW22735   0.727   1.550   4.083 -0.1227 -0.7997  0.1690
 3701SOL    HW122736   0.672   1.587   4.014 -0.4871 -2.1679 -0.2717
 3701SOL    HW222737   0.781   1.625   4.107  0.5709 -1.6954  1.3949
 3702SOL     OW22738   1.937   0.011   9.474 -0.0131  0.4036 -0.2239
 3702SOL    HW122739   1.868   0.064   9.513  1.8762  0.2657  3.3623
 3702SOL    HW222740   1.906   4.666   9.500  2.0241 -0.1917  0.2153
 3703SOL     OW22741   0.326   1.468   1.996  1.0921 -0.2494 -0.1699
 3703SOL    HW122742   0.308   1.386   2.043  0.8334  0.5274  1.0819
 3703SOL    HW222743   0.362   1.516   2.070 -1.2146  0.0874  0.7410
 3704SOL     OW22744   4.033   2.419   4.004  0.5398 -0.4401 -0.4451
 3704SOL    HW122745   3.974   2.445   3.934  0.3363  1.1216  0.2996
 3704SOL    HW222746   4.085   2.345   3.972  1.6139 -0.3665  1.1373
 3705SOL     OW22747   4.292   3.154   6.544 -0.3626 -0.1227  0.0071
 3705SOL    HW122748   4.344   3.213   6.599  0.6463 -1.9981  1.0384
 3705SOL    HW222749   4.355   3.083   6.537  0.9577  1.0340  0.1802
 3706SOL     OW22750   2.166   2.677   9.070 -0.2928 -0.1278  0.1829
 3706SOL    HW122751   2.249   2.639   9.041 -0.4943 -0.0406 -0.5139
 3706SOL    HW222752   2.203   2.755   9.111  0.0378  0.6230 -1.5269
 3707SOL     OW22753   2.446   4.691   7.152  0.4667  0.1798 -0.0607
 3707SOL    HW122754   2.440   4.596   7.159  2.0327 -0.1019 -2.4431
 3707SOL    HW222755   2.514   4.709   7.087 -0.3852 -1.0029 -1.2795
 3708SOL     OW22756   0.490   2.069  10.463 -0.5147  0.0833  0.2421
 3708SOL    HW122757   0.454   2.063  10.551 -1.1131  0.1320 -0.0032
 3708SOL    HW222758   0.521   1.980  10.446  0.6243  0.3905  0.7144
 3709SOL     OW22759   0.627   4.432   9.268 -0.3490  0.5753 -0.3629
 3709SOL    HW122760   0.578   4.477   9.199 -0.1169  1.5275  0.0927
 3709SOL    HW222761   0.671   4.500   9.318 -1.2789  1.5269 -0.8546
 3710SOL     OW22762   1.730   3.451   5.970 -0.4393 -0.1256 -0.7019
 3710SOL    HW122763   1.790   3.459   5.896  0.5284 -3.1131 -0.2505
 3710SOL    HW222764   1.681   3.532   5.954 -0.8482  0.0132  1.2200
 3711SOL     OW22765   4.359   0.930   7.077  0.1907  0.7231 -0.2158
 3711SOL    HW122766   4.428   0.966   7.021  0.0267 -0.9023 -1.4819
 3711SOL    HW222767   4.277   0.939   7.029  0.8017  0.4928 -1.3252
 3712SOL     OW22768   4.025   1.389   6.394  0.0549  0.2384  0.3186
 3712SOL    HW122769   4.043   1.479   6.420  0.1783 -0.1726  1.6695
 3712SOL    HW222770   4.087   1.374   6.323 -0.7753  2.2608 -0.8340
 3713SOL     OW22771   4.169   0.911   4.015  0.2578 -0.5287 -0.0223
 3713SOL    HW122772   4.081   0.946   4.030  0.5945  0.4569 -0.3467
 3713SOL    HW222773   4.224   0.989   4.015  0.4142 -0.6385 -0.0907
 3714SOL     OW22774   2.270   1.411   6.699  0.8620 -0.8250  0.3533
 3714SOL    HW122775   2.185   1.368   6.704 -0.7446  2.0595 -1.4582
 3714SOL    HW222776   2.280   1.434   6.791  2.4833 -1.7501  0.3890
 3715SOL     OW22777   4.552   3.706   1.080 -0.2570  0.4213 -0.3827
 3715SOL    HW122778   4.634   3.720   1.033  0.1112 -0.2722  0.0584
 3715SOL    HW222779   4.586   3.705   1.169  0.7449  0.3570 -0.7657
 3716SOL     OW22780   2.957   1.182   6.417 -0.1373  0.1764 -0.4868
 3716SOL    HW122781   2.884   1.120   6.411 -0.3545  0.3776  0.0062
 3716SOL    HW222782   3.036   1.145   6.379  1.1543  0.4285  1.9408
 3717SOL     OW22783   3.402   4.231   1.533 -0.5061  0.2598  0.1980
 3717SOL    HW122784   3.389   4.322   1.559  0.6948  1.3524 -2.9561
 3717SOL    HW222785   3.469   4.242   1.465  0.5970  1.3131  1.4585
 3718SOL     OW22786   3.109   1.490   9.068 -0.1580  0.2519 -0.2601
 3718SOL    HW122787   3.079   1.415   9.015  1.2802 -1.0488  0.7492
 3718SOL    HW222788   3.150   1.543   9.000 -1.7516  0.3123 -1.1732
 3719SOL     OW22789   2.724   3.335   7.221  0.2863 -0.5907 -0.1318
 3719SOL    HW122790   2.724   3.242   7.243  0.9720 -0.5466  0.0413
 3719SOL    HW222791   2.662   3.367   7.287 -0.4530 -2.3409  0.0232
 3720SOL     OW22792   1.823   0.433  14.591  0.0685  0.6796  0.4360
 3720SOL    HW122793   1.763   0.494  14.549  2.4741  1.7529 -1.4163
 3720SOL    HW222794   1.760   0.376  14.636  0.6908 -0.7997 -0.5631
 3721SOL     OW22795   1.873   0.728  16.921  0.2219 -0.2753  0.6731
 3721SOL    HW122796   1.822   0.799  16.882 -1.0079 -0.2060  2.4316
 3721SOL    HW222797   1.815   0.708  16.994 -2.0357 -1.4934 -1.4613
 3722SOL     OW22798   3.526   3.147   2.034  0.2170 -0.7624 -0.5046
 3722SOL    HW122799   3.576   3.066   2.021 -0.1435 -0.7234 -2.1229
 3722SOL    HW222800   3.509   3.176   1.945  2.1413 -1.6003 -1.1457
 3723SOL     OW22801   0.400   0.626   2.651 -0.0048  0.2982 -0.0175
 3723SOL    HW122802   0.358   0.551   2.694  1.2129  0.7540  1.9662
 3723SOL    HW222803   0.459   0.645   2.723  0.5922  2.6920 -1.1298
 3724SOL     OW22804   4.106   0.163   0.294  0.5056  0.4475  0.2080
 3724SOL    HW122805   4.057   0.140   0.214 -1.8544  2.0256  1.1766
 3724SOL    HW222806   4.176   0.099   0.292 -0.1442 -0.2302 -1.2688
 3725SOL     OW22807   1.569   3.873   5.858  0.2127 -0.0276 -0.5124
 3725SOL    HW122808   1.609   3.819   5.926  0.1973 -1.6599 -1.7863
 3725SOL    HW222809   1.575   3.812   5.785  0.0856  2.0839 -2.2816
 3726SOL     OW22810   0.586   1.987   5.459 -0.0274  0.6212  0.1309
 3726SOL    HW122811   0.651   1.964   5.392  0.8893  1.0117  0.8912
 3726SOL    HW222812   0.511   2.023   5.411 -0.2093 -1.3293 -1.0263
 3727SOL     OW22813   1.146   1.429   4.486 -0.0931  0.7707 -0.4219
 3727SOL    HW122814   1.056   1.462   4.482 -0.8578 -1.0666  1.5908
 3727SOL    HW222815   1.148   1.360   4.420  0.2431 -0.5830  0.9897
 3728SOL     OW22816   4.125   4.446   1.695  0.0211  0.4050  0.4536
 3728SOL    HW122817   4.062   4.439   1.766  0.7057 -0.5754  0.9722
 3728SOL    HW222818   4.215   4.434   1.727 -0.5505 -2.0461  1.1562
 3729SOL     OW22819   2.267   3.892   5.342 -0.3097 -0.5199  0.6683
 3729SOL    HW122820   2.272   3.843   5.424 -2.6499 -1.0485  0.4945
 3729SOL    HW222821   2.223   3.828   5.286  0.1143 -1.7666  1.7635
 3730SOL     OW22822   2.971   1.005  13.717 -0.3997 -0.5774  0.1417
 3730SOL    HW122823   2.963   0.911  13.734  0.6366 -0.1128  3.2091
 3730SOL    HW222824   3.062   1.012  13.746  0.1140  0.5209 -1.7714
 3731SOL     OW22825   2.237   1.160   2.890  0.0135  0.1890  0.3056
 3731SOL    HW122826   2.262   1.124   2.975  0.8505 -2.5372 -1.1021
 3731SOL    HW222827   2.185   1.238   2.913 -3.8580 -2.1672 -0.4861
 3732SOL     OW22828   0.528   4.389   1.372  0.4761  1.0843  0.6305
 3732SOL    HW122829   0.452   4.442   1.350 -0.2877  0.4792  1.8585
 3732SOL    HW222830   0.601   4.445   1.345  1.0521  0.0525  0.0307
 3733SOL     OW22831   3.452   3.462  13.831 -0.3191 -0.4033  0.3871
 3733SOL    HW122832   3.518   3.476  13.762 -1.3700 -1.9934 -0.9375
 3733SOL    HW222833   3.368   3.455  13.785 -1.1647 -0.0143  1.8960
 3734SOL     OW22834   2.038   1.073   6.127 -0.3192  0.0664 -0.0577
 3734SOL    HW122835   1.984   1.098   6.051 -0.2850  1.6918  0.4485
 3734SOL    HW222836   2.089   1.152   6.143  0.0827 -0.2555  0.2202
 3735SOL     OW22837   2.782   3.420   6.280  0.1167  0.3256 -0.1567
 3735SOL    HW122838   2.855   3.429   6.341  0.0342  0.8502 -0.1340
 3735SOL    HW222839   2.832   3.411   6.198  1.5159  0.4765  0.6724
 3736SOL     OW22840   3.442   3.835  12.536 -0.0671 -0.4028 -0.3294
 3736SOL    HW122841   3.422   3.745  12.563  1.1307  0.3563  3.1440
 3736SOL    HW222842   3.354   3.871  12.523  0.0595  0.4042  1.0216
 3737SOL     OW22843   4.143   3.335   4.936 -0.7537 -0.8339  0.2292
 3737SOL    HW122844   4.159   3.397   5.007  1.8197  0.8733 -1.8373
 3737SOL    HW222845   4.074   3.279   4.973 -0.8716  1.3176  3.2493
 3738SOL     OW22846   3.764   4.081   4.138 -0.9532  0.2260  0.3284
 3738SOL    HW122847   3.680   4.038   4.119 -1.1793  0.9965 -0.4316
 3738SOL    HW222848   3.822   4.053   4.067 -0.7780  1.1879  0.0894
 3739SOL     OW22849   4.708   4.725   7.015  0.2177  0.0393  0.5465
 3739SOL    HW122850   0.017   0.023   6.944 -1.0668 -0.0408 -0.4263
 3739SOL    HW222851   0.028   4.663   7.053  0.3752 -0.7993 -1.0979
 3740SOL     OW22852   1.850   2.667   8.813 -0.7857 -0.0258  0.3609
 3740SOL    HW122853   1.889   2.639   8.895 -0.8305 -0.2205  0.3181
 3740SOL    HW222854   1.807   2.584   8.790 -0.8901 -0.1799  1.1156
 3741SOL     OW22855   3.702   3.986   6.813  0.0136  0.5702  0.4324
 3741SOL    HW122856   3.635   3.951   6.754  1.4385 -2.6759  0.7756
 3741SOL    HW222857   3.769   3.918   6.815 -2.1277 -1.5850 -0.8267
 3742SOL     OW22858   1.976   0.208  10.721  0.4377 -0.7212  0.1691
 3742SOL    HW122859   2.069   0.205  10.700  0.8150 -2.4388  2.0486
 3742SOL    HW222860   1.930   0.170  10.646  2.0242 -0.6788 -0.8096
 3743SOL     OW22861   0.119   0.082   6.818  0.5454  0.2680 -0.0666
 3743SOL    HW122862   0.091   0.017   6.755  1.9758 -0.7725  0.3802
 3743SOL    HW222863   0.137   0.161   6.767  1.6695 -0.7025 -1.1745
 3744SOL     OW22864   3.578   2.495   4.979 -0.6916  0.1571 -0.1020
 3744SOL    HW122865   3.667   2.515   4.950  0.1161 -4.2402 -0.7812
 3744SOL    HW222866   3.544   2.439   4.908 -0.9856  0.8541 -0.5062
 3745SOL     OW22867   3.162   1.909  16.829  0.5682  0.2853  0.6962
 3745SOL    HW122868   3.213   1.990  16.822  1.5408 -0.3382  0.4294
 3745SOL    HW222869   3.231   1.846  16.848 -1.2196 -2.0152 -0.5089
 3746SOL     OW22870   3.283   1.847   2.702  0.8822  0.3310  0.1408
 3746SOL    HW122871   3.360   1.883   2.658  0.0373  2.3217  0.2429
 3746SOL    HW222872   3.303   1.759   2.733  0.1764 -0.5036 -1.7742
 3747SOL     OW22873   1.750   4.479  10.425 -0.1636 -0.2757 -0.2874
 3747SOL    HW122874   1.685   4.428  10.473 -0.1283 -1.9740 -2.0496
 3747SOL    HW222875   1.708   4.461  10.341  0.5146 -2.6855 -0.1127
 3748SOL     OW22876   3.171   0.377   7.758  0.0381 -0.0977 -0.9727
 3748SOL    HW122877   3.200   0.348   7.844  0.1318  0.0418 -0.9566
 3748SOL    HW222878   3.252   0.409   7.720  0.3503  0.1775 -0.0798
 3749SOL     OW22879   0.920   3.204  10.058 -0.0217 -0.3663  0.1718
 3749SOL    HW122880   0.972   3.138  10.012  1.7172  0.4804  0.8947
 3749SOL    HW222881   0.979   3.280  10.049 -1.6838  0.9210  0.2480
 3750SOL     OW22882   0.044   0.284   3.711  0.5485  0.7078  0.9454
 3750SOL    HW122883   0.100   0.359   3.729  1.2869  0.1878  0.8087
 3750SOL    HW222884   0.067   0.229   3.786 -0.8176  0.1918  1.0013
 3751SOL     OW22885   2.599   3.202   4.838 -0.3025 -0.4259  0.4995
 3751SOL    HW122886   2.692   3.202   4.815 -0.9109  2.4280 -1.9713
 3751SOL    HW222887   2.551   3.239   4.764 -0.6023  0.6865  1.2602
 3752SOL     OW22888   1.640   2.357   5.323 -0.1414 -0.6188  1.1009
 3752SOL    HW122889   1.600   2.271   5.336 -1.1837 -0.3386 -0.2862
 3752SOL    HW222890   1.570   2.421   5.313 -1.4324 -2.1751  0.2593
 3753SOL     OW22891   1.572   2.416  14.027 -0.7181  1.1367 -0.0930
 3753SOL    HW122892   1.532   2.369  13.953 -1.0430  1.8880 -0.3929
 3753SOL    HW222893   1.490   2.435  14.073 -1.8908  0.4851 -1.8994
 3754SOL     OW22894   0.904   1.590  11.178 -0.0790  0.0546  0.7407
 3754SOL    HW122895   0.828   1.585  11.236 -1.9809  0.2445 -1.7473
 3754SOL    HW222896   0.883   1.654  11.110 -0.2330  0.9359  1.6165
 3755SOL     OW22897   1.262   4.112   6.511  0.8589  0.0911 -0.6321
 3755SOL    HW122898   1.240   4.205   6.515 -1.1865 -0.3794 -0.8650
 3755SOL    HW222899   1.191   4.087   6.453  1.9192 -0.5395 -1.6528
 3756SOL     OW22900   0.714   0.390   4.950  0.1850 -0.0754 -0.1423
 3756SOL    HW122901   0.688   0.300   4.931  1.2801  0.2150 -3.0979
 3756SOL    HW222902   0.696   0.425   4.863  0.6037 -0.1767 -0.2714
 3757SOL     OW22903   2.097   4.246  15.308 -1.2227 -0.0071 -0.8532
 3757SOL    HW122904   2.089   4.341  15.314 -0.0425  0.1230 -1.2933
 3757SOL    HW222905   2.098   4.212  15.398 -1.2464  0.8359 -0.5418
 3758SOL     OW22906   2.857   0.220  11.733 -0.5381 -0.4841 -0.4717
 3758SOL    HW122907   2.804   0.209  11.812 -2.7908  0.1851 -1.8804
 3758SOL    HW222908   2.921   0.149  11.738 -0.0771  0.0844  1.6479
 3759SOL     OW22909   2.675   3.041   6.937  0.0242  0.1422  0.5298
 3759SOL    HW122910   2.630   3.034   7.022  1.1620 -0.4172  1.0785
 3759SOL    HW222911   2.706   2.951   6.929  1.4635  0.8232 -1.4095
 3760SOL     OW22912   0.193   2.518  10.080  0.2379  0.3862 -0.0860
 3760SOL    HW122913   0.266   2.526  10.141 -0.2877 -0.8096  0.6988
 3760SOL    HW222914   0.162   2.609  10.081  0.1745  0.3559  0.4645
 3761SOL     OW22915   4.456   3.663   3.197 -0.3482 -0.4563  0.2967
 3761SOL    HW122916   4.525   3.662   3.130  0.9782  0.2468  1.6777
 3761SOL    HW222917   4.499   3.622   3.272 -0.3267 -2.0057 -0.5648
 3762SOL     OW22918   0.821   3.131   7.162 -0.7202  0.3167 -0.1420
 3762SOL    HW122919   0.860   3.198   7.105 -0.7240  0.2107 -0.2697
 3762SOL    HW222920   0.818   3.180   7.244 -0.5854  0.1062 -0.0129
 3763SOL     OW22921   2.661   0.122   9.329  0.2292 -0.9312  0.1433
 3763SOL    HW122922   2.594   0.098   9.392 -0.0325 -2.6650 -0.7917
 3763SOL    HW222923   2.618   0.199   9.292  0.8982 -1.1464 -1.1009
 3764SOL     OW22924   4.534   2.228   8.493 -0.4509 -0.1407 -0.2124
 3764SOL    HW122925   4.520   2.138   8.464 -0.2862 -0.3161  0.2510
 3764SOL    HW222926   4.624   2.246   8.463  1.0226 -3.3187  2.3032
 3765SOL     OW22927   0.810   1.027   2.557  0.1644  0.4257  0.2357
 3765SOL    HW122928   0.725   0.988   2.540 -0.4456  1.9204 -0.2045
 3765SOL    HW222929   0.802   1.079   2.477  1.6959 -0.2139 -0.3395
 3766SOL     OW22930   2.791   2.120   2.060  0.2197 -0.2828  0.3260
 3766SOL    HW122931   2.861   2.109   2.125 -0.2244 -1.1075  0.6802
 3766SOL    HW222932   2.791   2.212   2.034 -1.2153  0.2410  2.1675
 3767SOL     OW22933   0.170   3.467   2.290 -0.0281  0.5988 -0.2124
 3767SOL    HW122934   0.143   3.531   2.225  1.5401  0.5297 -0.9493
 3767SOL    HW222935   0.233   3.420   2.235  0.0649 -0.9822  1.2281
 3768SOL     OW22936   0.900   2.146   2.549  0.2704  0.8475 -0.2073
 3768SOL    HW122937   0.829   2.082   2.541  2.1108 -1.2467  0.1760
 3768SOL    HW222938   0.901   2.169   2.456 -2.0450  0.1448 -0.4169
 3769SOL     OW22939   4.328   3.514   2.666  0.5043  0.1623  0.5776
 3769SOL    HW122940   4.241   3.478   2.649  0.9275 -1.0689  0.9924
 3769SOL    HW222941   4.312   3.605   2.644  0.8750  0.1282  0.1534
 3770SOL     OW22942   2.234   1.286   6.122 -0.0854  0.0383  0.0210
 3770SOL    HW122943   2.259   1.373   6.153 -0.3974 -0.1591  0.8377
 3770SOL    HW222944   2.176   1.311   6.050  1.6053  2.4124 -0.4842
 3771SOL     OW22945   0.556   1.703  16.289  0.5201 -0.5300  0.3104
 3771SOL    HW122946   0.558   1.663  16.202  0.8907 -3.9163  1.8546
 3771SOL    HW222947   0.649   1.704  16.310  0.5959  2.7496 -0.1890
 3772SOL     OW22948   1.738   3.606   1.966  0.1871 -0.2342 -0.6531
 3772SOL    HW122949   1.757   3.567   2.051  1.5831 -2.4385 -1.9458
 3772SOL    HW222950   1.713   3.529   1.914 -0.4635 -0.0424 -0.6266
 3773SOL     OW22951   1.772   2.606  14.102  0.3302 -0.8518 -0.0425
 3773SOL    HW122952   1.769   2.581  14.194 -0.6227  0.8212  0.3890
 3773SOL    HW222953   1.735   2.526  14.064 -1.4545  0.2966 -0.7439
 3774SOL     OW22954   4.160   3.311   7.469 -0.0895 -0.2631  0.2770
 3774SOL    HW122955   4.191   3.224   7.494  1.0526 -0.1312 -0.6379
 3774SOL    HW222956   4.230   3.351   7.417 -0.5857  0.6805  0.3394
 3775SOL     OW22957   1.739   2.553   2.433 -0.2911 -0.2349  0.5148
 3775SOL    HW122958   1.645   2.545   2.417  0.1065 -2.1622 -0.9100
 3775SOL    HW222959   1.755   2.615   2.362  1.2690 -2.1774 -0.8290
 3776SOL     OW22960   2.082   0.935   4.219 -0.5185  0.0660 -0.5462
 3776SOL    HW122961   2.132   0.864   4.259 -1.0439  1.6430  2.8745
 3776SOL    HW222962   2.140   1.005   4.250 -0.1955  0.0547 -1.1155
 3777SOL     OW22963   2.692   2.873   0.074 -0.5809  0.5728  0.0107
 3777SOL    HW122964   2.754   2.862   0.147  0.4149  1.4880 -0.6962
 3777SOL    HW222965   2.616   2.899   0.127 -0.2241  0.1949  0.7148
 3778SOL     OW22966   2.071   4.217   8.559 -0.1112 -0.1248  0.4668
 3778SOL    HW122967   1.989   4.183   8.595 -1.0490  2.0257  0.3154
 3778SOL    HW222968   2.076   4.310   8.580  1.4700 -0.0495 -0.2713
 3779SOL     OW22969   0.426   2.610  11.135  0.5062 -0.4681  0.4439
 3779SOL    HW122970   0.438   2.665  11.212  0.0963  0.4997 -0.1850
 3779SOL    HW222971   0.343   2.566  11.153  0.1924 -0.8168 -1.7830
 3780SOL     OW22972   0.403   4.117   0.569 -0.3415 -0.0375 -0.1796
 3780SOL    HW122973   0.324   4.106   0.621 -0.5667 -1.2405 -0.7687
 3780SOL    HW222974   0.426   4.026   0.586  0.6243  0.4168  0.9706
 3781SOL     OW22975   4.244   1.492   6.580 -0.7573  0.2565  0.7718
 3781SOL    HW122976   4.199   1.540   6.511 -0.7551 -0.7922  0.0575
 3781SOL    HW222977   4.266   1.559   6.646  0.0681 -0.2801  1.0375
 3782SOL     OW22978   1.847   0.285   6.911 -0.0778  1.0966  0.0156
 3782SOL    HW122979   1.912   0.348   6.941  0.4222  1.3248 -1.5018
 3782SOL    HW222980   1.801   0.259   6.990 -1.9936  0.2817 -1.3558
 3783SOL     OW22981   2.631   1.863   5.350 -0.3105 -0.0371 -0.1601
 3783SOL    HW122982   2.618   1.957   5.363  0.8026 -0.1341  1.6095
 3783SOL    HW222983   2.572   1.864   5.275  0.0760  0.0485 -0.4623
 3784SOL     OW22984   4.710   0.711   6.835 -0.4556  0.2442  0.0649
 3784SOL    HW122985   4.739   0.621   6.826 -0.8470  0.2202 -0.8593
 3784SOL    HW222986   4.615   0.716   6.846 -0.6900  1.6876 -2.6288
 3785SOL     OW22987   3.790   1.780  17.084  0.6914  0.2107 -0.5108
 3785SOL    HW122988   3.753   1.749  17.001  1.4359  0.9823 -1.1317
 3785SOL    HW222989   3.741   1.730  17.149 -2.2607  1.6322 -1.6491
 3786SOL     OW22990   3.540   1.547  14.467  0.5806  0.0144  0.5522
 3786SOL    HW122991   3.464   1.576  14.418 -0.2189  1.9689  2.9632
 3786SOL    HW222992   3.522   1.453  14.457 -0.6889  0.4079 -0.8152
 3787SOL     OW22993   3.606   3.524   3.887  0.0806  0.0525 -0.3703
 3787SOL    HW122994   3.700   3.514   3.869 -0.1019 -1.3263 -0.5675
 3787SOL    HW222995   3.602   3.464   3.961  1.5591 -0.1333 -0.4306
 3788SOL     OW22996   1.125   4.417  16.009  0.4588  0.0738  0.0602
 3788SOL    HW122997   1.170   4.494  16.045  1.8998 -0.5272 -0.4792
 3788SOL    HW222998   1.096   4.366  16.085  0.0597  0.5671  0.2422
 3789SOL     OW22999   3.280   2.223   6.965 -0.3106 -0.0740  0.3042
 3789SOL    HW123000   3.342   2.219   7.038  0.7104  1.2802 -0.4951
 3789SOL    HW223001   3.237   2.138   6.973 -4.3807  2.0205  0.7314
 3790SOL     OW23002   0.170   3.874   3.887  0.3072  0.4603 -0.1120
 3790SOL    HW123003   0.115   3.822   3.947 -0.1374  0.7215 -0.2922
 3790SOL    HW223004   0.260   3.859   3.915  0.3936  0.4419 -0.4003
 3791SOL     OW23005   4.565   2.396   6.470  0.0189 -0.0136  0.3106
 3791SOL    HW123006   4.598   2.484   6.490 -0.2705 -0.2961  2.0356
 3791SOL    HW223007   4.502   2.403   6.399  1.6997 -2.0220 -1.3781
 3792SOL     OW23008   0.957   1.253   5.405 -0.1639  0.7277  0.5555
 3792SOL    HW123009   0.981   1.180   5.348  0.3292 -0.0204  1.7231
 3792SOL    HW223010   0.876   1.222   5.444 -1.1304 -0.8775 -2.7161
 3793SOL     OW23011   0.189   3.748   0.320 -0.0791  0.3945  0.2533
 3793SOL    HW123012   0.126   3.818   0.303  0.7982  1.1554  0.1235
 3793SOL    HW223013   0.130   3.691   0.369  0.0593  1.8880  2.1649
 3794SOL     OW23014   1.897   2.137   1.539  0.2221 -0.2479  0.2357
 3794SOL    HW123015   1.813   2.176   1.517 -0.3137 -0.8937  1.1341
 3794SOL    HW223016   1.942   2.148   1.455  2.3529  0.4731  1.4541
 3795SOL     OW23017   3.133   4.297   5.358 -0.5242  0.0078  0.1343
 3795SOL    HW123018   3.151   4.295   5.264  0.5760  0.0490  0.3461
 3795SOL    HW223019   3.152   4.386   5.388  2.3341 -1.3879  2.3691
 3796SOL     OW23020   1.972   2.718  11.221  0.4281  1.2681 -0.2005
 3796SOL    HW123021   2.052   2.768  11.236  1.0183  0.4740 -0.7694
 3796SOL    HW223022   1.969   2.732  11.127 -1.2696  0.8769 -0.2090
 3797SOL     OW23023   0.158   2.516  11.195  0.2175 -0.1470  0.0222
 3797SOL    HW123024   0.070   2.484  11.213  0.6831 -1.2259  0.3349
 3797SOL    HW223025   0.210   2.504  11.275  1.1045  0.2615 -0.4911
 3798SOL     OW23026   2.414   4.130  10.318  0.5376  0.4008 -0.2914
 3798SOL    HW123027   2.408   4.141  10.223 -1.9086  1.3610 -0.0395
 3798SOL    HW223028   2.373   4.044  10.318 -2.9836  2.0870 -2.3289
 3799SOL     OW23029   0.566   4.676   4.756 -0.4361  0.3632 -0.2336
 3799SOL    HW123030   0.630   4.608   4.735 -0.5018 -0.3250  1.7909
 3799SOL    HW223031   0.503   4.632   4.699 -1.2397  1.4118 -0.1457
 3800SOL     OW23032   3.391   4.544   7.725 -0.4825  0.1653  0.8897
 3800SOL    HW123033   3.438   4.514   7.803  1.0069  2.3573  0.8315
 3800SOL    HW223034   3.358   4.459   7.697 -3.8572  1.0801  2.1079
 3801SOL     OW23035   3.273   0.732  12.544 -0.0027 -0.4556 -0.2981
 3801SOL    HW123036   3.319   0.747  12.462  1.2006 -2.3549  0.0287
 3801SOL    HW223037   3.293   0.642  12.571 -2.1560 -0.4137  1.4525
 3802SOL     OW23038   3.323   2.170   5.251 -0.3248  0.0334 -0.0235
 3802SOL    HW123039   3.375   2.244   5.222  0.9908 -0.3229  1.4356
 3802SOL    HW223040   3.374   2.132   5.322  1.8080 -2.0521 -2.6318
 3803SOL     OW23041   0.756   0.306  16.162  0.0565  0.1135  0.1921
 3803SOL    HW123042   0.794   0.316  16.249 -0.3720 -0.1971  0.4143
 3803SOL    HW223043   0.741   0.212  16.152  1.1446 -0.1636  1.1623
 3804SOL     OW23044   4.605   3.217   3.015  0.7142  0.3571 -0.1120
 3804SOL    HW123045   4.692   3.217   2.975  1.0744  1.2363  0.6645
 3804SOL    HW223046   4.550   3.255   2.947  0.8354  1.0075  0.1501
 3805SOL     OW23047   1.440   0.700   4.576  0.2773  0.2407  0.1489
 3805SOL    HW123048   1.485   0.666   4.654 -1.0761 -2.7855 -0.3709
 3805SOL    HW223049   1.350   0.673   4.598 -0.4502  0.7463 -2.1754
 3806SOL     OW23050   0.102   2.475   8.972  1.3978 -0.2139 -0.1471
 3806SOL    HW123051   0.086   2.553   9.026 -3.7465 -1.1429 -0.3310
 3806SOL    HW223052   0.115   2.516   8.887 -1.2494  0.2041 -0.3477
 3807SOL     OW23053   2.137   2.369   2.198  0.2442  0.4807 -0.6158
 3807SOL    HW123054   2.128   2.276   2.176  0.6632  0.1885  0.4278
 3807SOL    HW223055   2.084   2.405   2.127  0.5998  0.6253 -0.8113
 3808SOL     OW23056   1.155   0.550  10.125 -0.0753  0.4527  0.0926
 3808SOL    HW123057   1.144   0.528  10.032 -0.4201  0.3769  0.1516
 3808SOL    HW223058   1.217   0.622  10.121  1.0974 -0.5118  0.6822
 3809SOL     OW23059   2.075   3.956  10.502 -0.3072  0.2429 -0.4808
 3809SOL    HW123060   2.087   4.045  10.469  1.0963  0.1770 -0.1381
 3809SOL    HW223061   2.155   3.947  10.552  0.6162  0.9602 -1.8297
 3810SOL     OW23062   1.687   0.665   2.222  0.3599 -0.0112 -0.8276
 3810SOL    HW123063   1.754   0.728   2.198 -1.1395  1.1946 -1.8603
 3810SOL    HW223064   1.692   0.612   2.143 -2.2990 -2.3324  0.5064
 3811SOL     OW23065   1.321   1.773   2.511 -0.3832  0.1520 -0.7079
 3811SOL    HW123066   1.283   1.859   2.494  0.5378  1.0348  1.6323
 3811SOL    HW223067   1.247   1.711   2.504  0.1755 -0.2415 -2.8600
 3812SOL     OW23068   3.139   1.148   5.982  0.1890  0.0544  0.5046
 3812SOL    HW123069   3.098   1.066   6.007 -1.1390  0.6442  0.2316
 3812SOL    HW223070   3.115   1.136   5.890  1.1959 -0.9100  0.3623
 3813SOL     OW23071   3.450   2.736  14.891  0.0964 -0.3142  0.3037
 3813SOL    HW123072   3.392   2.811  14.878  0.6145  0.5565  3.2045
 3813SOL    HW223073   3.450   2.696  14.803  2.2002  0.6526 -0.1157
 3814SOL     OW23074   0.404   3.546  10.116  0.0625 -0.6833  0.1224
 3814SOL    HW123075   0.366   3.459  10.112  0.6796 -0.9323 -0.3352
 3814SOL    HW223076   0.370   3.571  10.202 -0.4371  1.5031 -0.7099
 3815SOL     OW23077   3.775   2.748   2.643  0.1346  0.1576  0.1557
 3815SOL    HW123078   3.851   2.710   2.600 -1.0986 -2.8563  0.6348
 3815SOL    HW223079   3.789   2.842   2.630  0.3788  0.3134  1.5155
 3816SOL     OW23080   1.357   4.731   6.098  0.5290 -0.3202  0.2778
 3816SOL    HW123081   1.404   0.038   6.166 -0.1215  1.9962 -0.9419
 3816SOL    HW223082   1.425   4.672   6.065  0.1954 -0.9007  0.6343
 3817SOL     OW23083   3.987   0.198   9.625  0.2548 -0.1819  0.2747
 3817SOL    HW123084   3.993   0.220   9.717 -0.5875 -1.4134  0.6272
 3817SOL    HW223085   4.027   0.111   9.622 -2.1915 -1.2404 -2.0844
 3818SOL     OW23086   3.424   0.184   0.732  0.1441 -0.0869 -0.7653
 3818SOL    HW123087   3.439   0.273   0.698  0.3201  0.8970  1.8879
 3818SOL    HW223088   3.473   0.132   0.668 -0.1151  1.9054 -2.5978
 3819SOL     OW23089   1.234   3.159   4.250  0.0423  0.0283 -0.0180
 3819SOL    HW123090   1.166   3.216   4.288 -1.8463 -2.0960 -0.1770
 3819SOL    HW223091   1.181   3.079   4.243  0.5268 -0.4748  2.2705
 3820SOL     OW23092   0.247   3.603   4.067 -0.1073 -0.3634  0.3856
 3820SOL    HW123093   0.216   3.518   4.036  2.1436 -0.8248 -0.5799
 3820SOL    HW223094   0.255   3.592   4.161  2.1667  2.2033  0.4761
 3821SOL     OW23095   1.615   3.882   4.078 -0.3789  0.0914 -0.0374
 3821SOL    HW123096   1.669   3.878   4.157  1.9196 -1.4080 -1.6683
 3821SOL    HW223097   1.560   3.804   4.075 -1.4544  0.8287  0.8885
 3822SOL     OW23098   0.462   4.413   4.151  0.1585  0.3670 -0.0714
 3822SOL    HW123099   0.514   4.484   4.189 -1.2408  2.0224 -1.2457
 3822SOL    HW223100   0.517   4.388   4.077  0.3799  2.2088 -0.5353
 3823SOL     OW23101   1.977   3.876   5.497 -0.4727 -0.2982  0.5338
 3823SOL    HW123102   1.957   3.789   5.460  1.3061 -0.7181  0.5552
 3823SOL    HW223103   1.958   3.933   5.422  0.5326 -1.8770 -0.9313
 3824SOL     OW23104   2.637   1.305   8.367  0.3402  0.2960  0.3050
 3824SOL    HW123105   2.584   1.230   8.340  0.8007 -0.1386  0.6322
 3824SOL    HW223106   2.708   1.268   8.418  1.1121 -0.5758 -1.4106
 3825SOL     OW23107   1.153   2.348   1.508  0.2822 -0.2630  0.0672
 3825SOL    HW123108   1.074   2.301   1.532 -0.9960  1.1081 -1.4612
 3825SOL    HW223109   1.145   2.358   1.413 -1.3008 -3.5864 -0.1547
 3826SOL     OW23110   0.439   2.576  17.022 -0.1251 -0.3054 -0.4999
 3826SOL    HW123111   0.410   2.630  16.949 -1.7628 -1.8320 -0.9816
 3826SOL    HW223112   0.525   2.611  17.046  0.2165 -1.3545 -0.1928
 3827SOL     OW23113   1.953   2.564   7.224 -0.7743 -0.1346 -0.2658
 3827SOL    HW123114   1.898   2.528   7.294 -0.6549 -1.4456 -0.8376
 3827SOL    HW223115   2.030   2.588   7.276 -2.2243  2.4959  0.6512
 3828SOL     OW23116   3.102   3.905   2.736  0.0582 -0.2873 -0.3308
 3828SOL    HW123117   3.196   3.918   2.732 -0.2079  1.4696 -1.2006
 3828SOL    HW223118   3.077   3.907   2.828  1.4638  1.2002  0.0203
 3829SOL     OW23119   0.001   1.843   3.762 -0.5524  0.6848  0.3004
 3829SOL    HW123120   0.005   1.753   3.794 -0.1908  0.3040 -0.8226
 3829SOL    HW223121   0.061   1.846   3.687 -0.2511  0.6811  0.5444
 3830SOL     OW23122   2.168   4.552   9.109 -0.3908  0.5457 -0.3404
 3830SOL    HW123123   2.078   4.540   9.077 -0.3809 -2.2981  0.6477
 3830SOL    HW223124   2.210   4.495   9.045  1.2827  0.8846  0.4779
 3831SOL     OW23125   2.303   0.644   9.091  0.4520 -0.3689  0.2804
 3831SOL    HW123126   2.364   0.695   9.037 -1.6802  1.8635 -0.0418
 3831SOL    HW223127   2.250   0.712   9.132 -0.9518 -1.4174  0.2146
 3832SOL     OW23128   0.287   2.004   7.305  0.2486 -0.0692 -0.0180
 3832SOL    HW123129   0.319   1.958   7.383 -2.5597 -0.2624  1.0058
 3832SOL    HW223130   0.281   2.093   7.339 -0.5093  0.1220 -0.6528
 3833SOL     OW23131   2.958   3.336   4.676 -0.3018 -0.4919  0.3043
 3833SOL    HW123132   2.937   3.253   4.721 -1.8022  1.0713  2.4750
 3833SOL    HW223133   2.878   3.388   4.682 -0.5103 -0.8364  0.5152
 3834SOL     OW23134   3.603   1.954   5.833 -0.1009  0.2646  0.2708
 3834SOL    HW123135   3.570   2.042   5.814  1.0262  0.3058 -1.4831
 3834SOL    HW223136   3.525   1.919   5.876 -0.2499 -0.1054 -0.3037
 3835SOL     OW23137   3.549   4.634   2.447  0.4977 -0.2615  0.2564
 3835SOL    HW123138   3.534   4.542   2.465 -0.6463  0.0923  1.1119
 3835SOL    HW223139   3.495   4.650   2.369  0.2812 -1.9109  0.0830
 3836SOL     OW23140   0.306   0.688  14.439  0.4758  0.7738  0.0785
 3836SOL    HW123141   0.268   0.640  14.513  2.4379 -0.1581  0.4882
 3836SOL    HW223142   0.357   0.618  14.397 -0.6052  0.5453 -0.8333
 3837SOL     OW23143   0.536   1.695  11.367  0.0808 -0.0750 -0.0647
 3837SOL    HW123144   0.619   1.694  11.413 -0.1879 -0.4164  0.4151
 3837SOL    HW223145   0.481   1.626  11.405  0.3975 -0.0523  0.4365
 3838SOL     OW23146   0.979   0.046  15.329  0.5477  0.4575  0.0146
 3838SOL    HW123147   1.032   4.710  15.350 -0.8766 -0.4825  0.1433
 3838SOL    HW223148   1.039   0.114  15.297 -0.0166  1.0204  0.1531
 3839SOL     OW23149   3.605   2.850  12.082  0.0231 -0.2385  0.1451
 3839SOL    HW123150   3.569   2.824  12.167 -0.2417  0.6126  0.2932
 3839SOL    HW223151   3.524   2.842  12.031 -1.2914 -2.7705  2.6282
 3840SOL     OW23152   3.160   0.578   6.573  0.5551 -0.3543  0.4138
 3840SOL    HW123153   3.122   0.597   6.659  0.0991  4.3061 -0.7978
 3840SOL    HW223154   3.099   0.619   6.511 -0.9020 -1.2796  1.2206
 3841SOL     OW23155   1.821   1.213  14.481  0.4919 -0.0357 -0.1499
 3841SOL    HW123156   1.844   1.306  14.477  0.4568 -0.0882 -1.6549
 3841SOL    HW223157   1.896   1.176  14.529  0.8416 -0.5406 -1.0886
 3842SOL     OW23158   4.503   0.518   8.391 -0.5777  0.0569 -0.1768
 3842SOL    HW123159   4.520   0.461   8.466 -0.5110  1.9980  1.2891
 3842SOL    HW223160   4.512   0.605   8.430 -0.1405  0.1363 -0.4519
 3843SOL     OW23161   4.644   4.599   9.222  0.2534  0.1651  0.4392
 3843SOL    HW123162   4.572   4.574   9.165  0.3922 -0.7089  0.6591
 3843SOL    HW223163   4.599   4.599   9.306  2.8001  0.4951  1.8008
 3844SOL     OW23164   0.713   2.603   3.161  0.3390  0.3577  0.0585
 3844SOL    HW123165   0.679   2.517   3.138  0.8563  0.5025 -1.2334
 3844SOL    HW223166   0.665   2.663   3.104  1.9169 -0.3282 -1.9606
 3845SOL     OW23167   4.277   2.655   6.834  0.1404 -0.0361  0.3990
 3845SOL    HW123168   4.253   2.687   6.747  0.1207  2.1589  1.2235
 3845SOL    HW223169   4.347   2.710   6.869 -1.8604  1.7603  1.5801
 3846SOL     OW23170   2.133   1.536   5.987 -0.7376  0.0454  0.2508
 3846SOL    HW123171   2.062   1.596   6.010 -0.8444  0.6760 -1.7471
 3846SOL    HW223172   2.092   1.470   5.932 -2.3727  1.1005  0.2165
 3847SOL     OW23173   1.529   4.438  17.306  0.2973 -0.1300  0.3143
 3847SOL    HW123174   1.488   4.508  17.256 -1.0710 -0.0119  1.6057
 3847SOL    HW223175   1.623   4.451  17.292  0.4147 -1.0989  0.1765
 3848SOL     OW23176   4.704   0.640   2.317  0.5731  0.6927 -0.1205
 3848SOL    HW123177   4.640   0.649   2.247 -0.6319  1.0201  1.0077
 3848SOL    HW223178   4.686   0.721   2.366  2.8795 -0.2698  2.3226
 3849SOL     OW23179   3.506   3.102   4.170  0.9215 -0.3538  0.2621
 3849SOL    HW123180   3.464   3.018   4.153  0.2144  0.5787 -2.5648
 3849SOL    HW223181   3.582   3.112   4.113 -0.0917 -0.1978 -1.0648
 3850SOL     OW23182   0.865   2.057   8.128 -0.4420 -0.3109 -0.1446
 3850SOL    HW123183   0.904   2.014   8.052 -2.5654 -1.5112 -0.5645
 3850SOL    HW223184   0.931   2.024   8.189  1.1479  1.5120 -0.8831
 3851SOL     OW23185   4.240   4.527   8.935 -0.3109 -0.2141 -0.2012
 3851SOL    HW123186   4.169   4.583   8.903 -0.3377  0.4256  0.9685
 3851SOL    HW223187   4.307   4.595   8.942  1.3952 -1.6459 -2.5780
 3852SOL     OW23188   4.080   1.131   4.285 -0.5454 -0.1074 -0.6876
 3852SOL    HW123189   4.045   1.113   4.372 -1.7465  1.0036 -0.9366
 3852SOL    HW223190   4.036   1.208   4.249  2.6432  1.6812 -0.7657
 3853SOL     OW23191   1.775   3.162  10.978  0.8565  0.1209  0.1248
 3853SOL    HW123192   1.755   3.092  11.040 -1.1029 -0.9578 -1.7343
 3853SOL    HW223193   1.869   3.170  10.993  0.9785  2.8722 -1.9353
 3854SOL     OW23194   1.128   0.102   6.603  0.4647  0.4918 -0.3998
 3854SOL    HW123195   1.131   0.197   6.607  1.5331  0.5393 -2.4678
 3854SOL    HW223196   1.071   0.086   6.528 -0.4519 -2.7927  0.9667
 3855SOL     OW23197   0.914   1.456   3.248 -0.5735 -0.2388 -0.2778
 3855SOL    HW123198   0.957   1.465   3.333 -3.0356  0.9235  0.8619
 3855SOL    HW223199   0.945   1.528   3.194 -0.1299 -1.7678 -2.0371
 3856SOL     OW23200   2.169   3.705   8.031  0.5797 -0.3039  0.3214
 3856SOL    HW123201   2.100   3.764   8.062  1.6122  1.5910 -0.9207
 3856SOL    HW223202   2.220   3.777   7.994 -0.6052  0.9025  1.0306
 3857SOL     OW23203   0.911   2.110   9.667  0.2589  0.0559  0.7080
 3857SOL    HW123204   0.981   2.135   9.608 -0.1277 -1.1949 -0.2829
 3857SOL    HW223205   0.832   2.122   9.614  0.8250  1.4540  0.2085
 3858SOL     OW23206   0.842   3.456   6.135 -0.8828  0.2837  0.4414
 3858SOL    HW123207   0.888   3.534   6.105  0.2998  0.0661  1.6514
 3858SOL    HW223208   0.904   3.386   6.110 -1.7684  0.7234 -2.9512
 3859SOL     OW23209   4.643   0.555  17.491  0.2294 -0.2279 -0.0457
 3859SOL    HW123210   4.709   0.535  17.557 -0.5982 -0.2006  0.7907
 3859SOL    HW223211   4.621   0.648  17.504  0.8264 -0.2056  0.7941
 3860SOL     OW23212   2.066   1.614   5.378  0.5710  0.2808 -0.1345
 3860SOL    HW123213   2.012   1.592   5.302  0.2664  2.7831 -0.6159
 3860SOL    HW223214   2.051   1.708   5.386 -0.4070  0.1215 -0.1180
 3861SOL     OW23215   2.222   2.113  13.452  0.0929  0.5114  0.2814
 3861SOL    HW123216   2.287   2.183  13.447  2.0269 -1.5457 -3.3045
 3861SOL    HW223217   2.136   2.153  13.453 -0.2789 -0.2724 -0.8739
 3862SOL     OW23218   3.276   0.835  16.280 -0.3119 -0.0061 -0.4863
 3862SOL    HW123219   3.368   0.862  16.266 -0.2686  0.3930  0.5586
 3862SOL    HW223220   3.251   0.914  16.329  0.1217  0.1864 -0.5716
 3863SOL     OW23221   4.582   2.450   7.151  0.4618 -0.2488 -0.2844
 3863SOL    HW123222   4.578   2.544   7.163  0.2308 -0.1658 -1.0107
 3863SOL    HW223223   4.510   2.433   7.090  0.1121  1.5283 -0.3651
 3864SOL     OW23224   0.528   3.093  14.436 -0.1009  0.0497  0.3379
 3864SOL    HW123225   0.562   3.168  14.386  1.3202 -1.4215 -0.8752
 3864SOL    HW223226   0.503   3.038  14.362 -0.0866 -0.9562  1.0774
 3865SOL     OW23227   1.878   3.399  13.553  0.6999 -0.2637  0.1688
 3865SOL    HW123228   1.855   3.393  13.645  2.5411  0.0470  0.6618
 3865SOL    HW223229   1.867   3.308  13.527  0.4300 -0.4273  0.8824
 3866SOL     OW23230   1.352   1.749   2.948  0.6449  0.8890 -1.2346
 3866SOL    HW123231   1.302   1.803   2.886  0.2904  1.6930 -0.2476
 3866SOL    HW223232   1.315   1.662   2.938 -2.0617  1.6362  2.4492
 3867SOL     OW23233   0.435   3.093   5.585 -0.2455  0.2856 -0.7116
 3867SOL    HW123234   0.455   3.002   5.564  0.0810  0.2818 -0.3744
 3867SOL    HW223235   0.495   3.107   5.658 -0.4938 -0.8136 -0.3027
 3868SOL     OW23236   2.188   3.734   2.975 -0.2440 -0.0913  0.4315
 3868SOL    HW123237   2.263   3.674   2.980  0.7131  0.9912 -0.8086
 3868SOL    HW223238   2.117   3.682   2.939  1.5254 -1.8673 -0.5349
 3869SOL     OW23239   4.223   3.736   4.349 -0.3109 -0.2195  0.0112
 3869SOL    HW123240   4.224   3.705   4.259  0.0306 -0.5540  0.1307
 3869SOL    HW223241   4.312   3.711   4.374 -0.1211  1.7861  1.3786
 3870SOL     OW23242   3.047   0.861   5.247 -0.2071  0.2265  0.1426
 3870SOL    HW123243   3.024   0.950   5.223 -0.6215 -0.1894 -1.0262
 3870SOL    HW223244   3.118   0.840   5.186  2.0853 -0.8484  3.1612
 3871SOL     OW23245   2.599   0.376   3.865 -0.1046 -0.1672  0.3590
 3871SOL    HW123246   2.526   0.343   3.811  0.6968 -1.9254  0.3511
 3871SOL    HW223247   2.660   0.303   3.854  1.0250  0.8335 -0.0326
 3872SOL     OW23248   1.430   3.059   9.177  0.0264 -1.2501  0.4310
 3872SOL    HW123249   1.418   3.080   9.084  2.6722 -0.4371  0.2612
 3872SOL    HW223250   1.339   3.050   9.204 -0.9692  1.9727 -1.8010
 3873SOL     OW23251   3.477   0.846   2.450  0.1321  0.0534  0.3631
 3873SOL    HW123252   3.541   0.917   2.454  1.9701 -1.6030  0.4497
 3873SOL    HW223253   3.465   0.819   2.541  2.6395 -1.2762  0.3001
 3874SOL     OW23254   0.681   1.714   7.105 -0.6860 -0.5447  0.1884
 3874SOL    HW123255   0.711   1.636   7.059  0.2204 -1.3853  2.2052
 3874SOL    HW223256   0.595   1.724   7.064  0.3625 -1.5069 -2.1920
 3875SOL     OW23257   2.041   1.356   8.649  0.3237  0.5684 -0.9069
 3875SOL    HW123258   2.080   1.380   8.565  0.8358  0.0140 -0.8312
 3875SOL    HW223259   2.084   1.272   8.666  1.8523  1.1114 -2.0078
 3876SOL     OW23260   2.051   4.180   2.967 -0.3231 -0.5813 -0.1719
 3876SOL    HW123261   2.004   4.155   2.888 -1.4824 -0.5524  0.5025
 3876SOL    HW223262   2.026   4.102   3.018  2.5218 -0.8812  0.7689
 3877SOL     OW23263   1.288   4.484   2.079 -0.6415  0.1331 -0.0053
 3877SOL    HW123264   1.313   4.422   2.011 -0.7488  0.5724 -0.4440
 3877SOL    HW223265   1.356   4.455   2.140  0.3851 -0.9288 -1.6514
 3878SOL     OW23266   0.811   2.583   2.540 -0.0907 -0.2419 -0.3012
 3878SOL    HW123267   0.790   2.495   2.572 -0.4934  0.0825  0.3231
 3878SOL    HW223268   0.777   2.645   2.604 -1.2560 -1.6692  0.4576
 3879SOL     OW23269   2.114   0.895   3.942  0.1333  0.3919 -0.0143
 3879SOL    HW123270   2.104   0.923   4.033 -1.9612 -2.5838  0.6552
 3879SOL    HW223271   2.069   0.811   3.941 -0.0815  0.4777  2.3527
 3880SOL     OW23272   1.791   2.043   6.961 -0.3266  0.0959  0.1100
 3880SOL    HW123273   1.803   2.115   7.022 -1.3041 -0.2020  0.6456
 3880SOL    HW223274   1.788   1.966   7.017  0.8365 -0.3604 -0.4569
 3881SOL     OW23275   4.726   1.073   0.988  0.1939 -0.3770  0.3684
 3881SOL    HW123276   4.717   1.070   0.893 -1.3667 -0.0952  0.5072
 3881SOL    HW223277   0.047   1.002   0.998  1.0568  0.2490 -0.6442
 3882SOL     OW23278   0.211   1.816   8.118 -0.0278  0.5694  0.1063
 3882SOL    HW123279   0.260   1.893   8.144 -0.2788  0.6332  0.3881
 3882SOL    HW223280   0.261   1.738   8.142 -0.7046  0.2786  0.6028
 3883SOL     OW23281   1.264   4.025  10.670  0.1582 -0.2532  0.3582
 3883SOL    HW123282   1.301   4.093  10.726 -0.5377  1.8544 -1.7450
 3883SOL    HW223283   1.326   3.956  10.694 -1.2995 -1.0078  1.9297
 3884SOL     OW23284   4.710   4.423   8.014 -0.8281 -0.4277  0.4012
 3884SOL    HW123285   0.000   4.451   7.929 -2.1326 -1.9049 -0.5847
 3884SOL    HW223286   4.623   4.383   8.004  0.3487 -2.8014 -0.3230
 3885SOL     OW23287   2.665   1.716   4.436 -0.4726 -0.3050  0.7565
 3885SOL    HW123288   2.614   1.649   4.483 -1.7324  0.8571  1.0450
 3885SOL    HW223289   2.736   1.732   4.498 -0.2418  0.2802  0.3318
 3886SOL     OW23290   3.146   0.281   3.162  0.1928  0.2462 -0.9956
 3886SOL    HW123291   3.158   0.204   3.106  1.3124 -0.2869 -0.0146
 3886SOL    HW223292   3.066   0.248   3.203  0.2694 -0.2743 -1.2603
 3887SOL     OW23293   3.748   2.739   8.211 -0.2996 -0.1961  0.1171
 3887SOL    HW123294   3.834   2.697   8.217  0.2465  1.1208  1.7648
 3887SOL    HW223295   3.703   2.661   8.180  0.8094 -0.8608  0.1977
 3888SOL     OW23296   3.731   2.030   0.771  0.1814  0.1472 -0.6044
 3888SOL    HW123297   3.747   2.124   0.765  0.2053  0.1864  0.0467
 3888SOL    HW223298   3.636   2.029   0.776  0.1586  0.6982 -0.9573
 3889SOL     OW23299   0.845   4.619  14.350  0.2469  0.9266  0.3557
 3889SOL    HW123300   0.796   4.652  14.425 -1.6792  0.1081 -0.5560
 3889SOL    HW223301   0.791   4.542  14.335  1.4095 -0.0529  1.2091
 3890SOL     OW23302   2.440   1.357   1.198 -0.0027 -0.4484 -0.1256
 3890SOL    HW123303   2.349   1.360   1.229  0.0159  0.3124 -0.1521
 3890SOL    HW223304   2.438   1.366   1.103 -1.8690  0.5034 -0.0046
 3891SOL     OW23305   2.292   0.447   2.431 -0.1555  0.0267  0.3012
 3891SOL    HW123306   2.281   0.359   2.467  0.4882 -0.3236 -0.3329
 3891SOL    HW223307   2.350   0.423   2.358 -1.9693 -0.3040 -1.0211
 3892SOL     OW23308   3.306   4.478   2.174 -0.6360 -0.9087 -0.2165
 3892SOL    HW123309   3.229   4.532   2.155  0.6940  0.5190 -1.5662
 3892SOL    HW223310   3.275   4.390   2.194 -0.8929 -0.7780 -0.0247
 3893SOL     OW23311   1.573   1.250  15.560  0.1151  0.2573 -0.1013
 3893SOL    HW123312   1.661   1.277  15.534  0.3291 -1.4526 -1.1441
 3893SOL    HW223313   1.523   1.272  15.481  1.7638  0.5267 -1.0776
 3894SOL     OW23314   4.139   2.413   6.505 -0.0946 -0.0853  0.3028
 3894SOL    HW123315   4.142   2.362   6.424 -1.1609  0.4822 -0.0902
 3894SOL    HW223316   4.145   2.502   6.471  0.7612 -0.1457  0.2968
 3895SOL     OW23317   0.360   2.007   5.278  0.2083 -0.5763 -0.5095
 3895SOL    HW123318   0.285   2.026   5.334  0.8083  0.6379 -0.1367
 3895SOL    HW223319   0.331   2.064   5.207  1.2008 -0.4267 -0.7853
 3896SOL     OW23320   0.729   0.159  16.666 -0.6756  0.0324  0.3895
 3896SOL    HW123321   0.657   0.167  16.728 -0.8130 -1.5479  0.4269
 3896SOL    HW223322   0.691   0.182  16.582  0.7675  1.9002  0.2473
 3897SOL     OW23323   4.626   4.417  13.789 -0.4236  0.3853 -0.3614
 3897SOL    HW123324   4.653   4.494  13.739  0.0332  1.5360  1.6602
 3897SOL    HW223325   4.706   4.383  13.828 -0.8360 -1.1504 -0.8497
 3898SOL     OW23326   0.259   3.284  14.081  0.2898  0.1408  0.5470
 3898SOL    HW123327   0.288   3.316  13.995 -1.7104  0.0012 -0.1661
 3898SOL    HW223328   0.190   3.222  14.059  0.8038  0.2347 -1.3511
 3899SOL     OW23329   4.189   3.702  13.262  0.3035  0.1345 -0.1390
 3899SOL    HW123330   4.136   3.771  13.301 -2.0239 -0.6221 -1.8996
 3899SOL    HW223331   4.276   3.712  13.300  0.1924 -1.2273  0.4769
 3900SOL     OW23332   1.351   4.547  16.486  0.4058  0.3010  0.1582
 3900SOL    HW123333   1.293   4.481  16.449 -0.0835  0.0414  1.3602
 3900SOL    HW223334   1.399   4.496  16.552  0.8213 -0.8200 -1.0108
 3901SOL     OW23335   0.338   4.637  17.093  0.0198  0.3442 -0.2698
 3901SOL    HW123336   0.266   4.592  17.049 -0.1970  0.2921  0.1346
 3901SOL    HW223337   0.300   4.645  17.181  0.7380 -0.8085  0.1508
 3902SOL     OW23338   2.483   3.078   4.014 -0.2443  0.9165 -0.2660
 3902SOL    HW123339   2.419   3.019   3.974  0.8106 -1.5854  1.7092
 3902SOL    HW223340   2.442   3.164   4.012  0.1501  1.1108  0.1184
 3903SOL     OW23341   0.541   1.203   1.616  0.1780  0.1320 -0.2635
 3903SOL    HW123342   0.558   1.294   1.594  0.7996  0.2844  0.8965
 3903SOL    HW223343   0.460   1.209   1.667 -0.3108 -1.9123 -0.7711
 3904SOL     OW23344   0.554   1.206   4.678  0.8095 -0.5584  0.1430
 3904SOL    HW123345   0.615   1.217   4.605 -0.1890  1.4321 -0.3935
 3904SOL    HW223346   0.523   1.297   4.682  2.7138  0.0463  1.0813
 3905SOL     OW23347   1.754   2.108   7.372  0.0857  0.3195 -0.1488
 3905SOL    HW123348   1.799   2.069   7.448 -0.4285 -1.2967 -0.6607
 3905SOL    HW223349   1.752   2.031   7.315 -0.4341 -0.7403  1.2900
 3906SOL     OW23350   3.598   1.830   7.824 -0.6043 -0.2577 -0.0324
 3906SOL    HW123351   3.641   1.814   7.908 -1.9368 -0.6292  0.5729
 3906SOL    HW223352   3.611   1.743   7.787 -0.7184  0.0724 -0.8571
 3907SOL     OW23353   3.725   4.723   7.697  0.3510 -0.0541  0.1868
 3907SOL    HW123354   3.728   4.628   7.682 -1.1808 -0.1976  0.8667
 3907SOL    HW223355   3.665   4.736   7.770  1.2505 -2.4128  1.3376
 3908SOL     OW23356   2.237   0.417   9.251  0.3422  0.3086 -0.1516
 3908SOL    HW123357   2.143   0.402   9.265  0.4666 -1.1928 -0.9779
 3908SOL    HW223358   2.241   0.498   9.199 -1.5476  0.1325 -0.5844
 3909SOL     OW23359   1.090   1.846   2.901 -0.1540  0.4214  0.1638
 3909SOL    HW123360   1.009   1.822   2.855  0.0415  1.5636 -0.7573
 3909SOL    HW223361   1.115   1.930   2.864 -1.9174  1.3821  1.1531
 3910SOL     OW23362   2.508   4.652  15.382 -0.3571  0.5596  0.7577
 3910SOL    HW123363   2.428   4.705  15.390  0.6493  2.1751  0.2046
 3910SOL    HW223364   2.507   4.641  15.287 -1.9233 -0.3338  0.8773
 3911SOL     OW23365   3.624   2.616   1.581  0.3728 -0.5759  0.3431
 3911SOL    HW123366   3.605   2.531   1.621 -2.0359 -0.0366  0.3528
 3911SOL    HW223367   3.581   2.603   1.496 -1.5746  1.2670  1.0450
 3912SOL     OW23368   4.643   1.304   6.773 -0.8056 -0.3959 -0.0769
 3912SOL    HW123369   4.568   1.280   6.828 -0.6403  0.5951  0.5918
 3912SOL    HW223370   4.705   1.234   6.793 -0.2156 -0.1033 -0.8665
 3913SOL     OW23371   4.615   2.783   8.266 -0.0733 -0.1138 -0.1245
 3913SOL    HW123372   4.558   2.776   8.342  0.2650 -1.4638 -0.0030
 3913SOL    HW223373   4.577   2.714   8.213 -0.7344 -0.1889  0.4584
 3914SOL     OW23374   2.072   2.129   9.063  0.2337 -0.2208 -0.2251
 3914SOL    HW123375   2.139   2.197   9.071  1.6653 -1.4227 -1.9935
 3914SOL    HW223376   2.008   2.167   9.123  1.0555  1.0509 -0.1376
 3915SOL     OW23377   2.170   0.226   0.883 -0.2556 -0.1566 -0.1387
 3915SOL    HW123378   2.233   0.218   0.810 -0.1564 -2.2853  0.1800
 3915SOL    HW223379   2.095   0.168   0.868 -0.0746 -1.0610  2.5319
 3916SOL     OW23380   4.567   3.200   2.557  0.0487 -0.2903  0.5624
 3916SOL    HW123381   4.651   3.222   2.518  0.8487  0.2051  2.5191
 3916SOL    HW223382   4.531   3.156   2.480  1.4391 -2.4068  1.1177
 3917SOL     OW23383   1.424   1.237   8.426  0.6641  0.2851 -0.2263
 3917SOL    HW123384   1.505   1.206   8.467 -0.4705  0.4828  2.1395
 3917SOL    HW223385   1.444   1.249   8.333  0.5782 -0.8047 -0.3850
 3918SOL     OW23386   3.686   1.072   2.384  0.1285  0.1451 -0.0234
 3918SOL    HW123387   3.632   1.146   2.356 -0.7322 -0.3924  0.2169
 3918SOL    HW223388   3.760   1.116   2.425  0.5978  1.7484 -2.6015
 3919SOL     OW23389   3.860   3.477   8.578 -0.0445 -0.1144 -0.1783
 3919SOL    HW123390   3.794   3.545   8.582 -1.1443 -1.3893  2.9252
 3919SOL    HW223391   3.941   3.528   8.579  0.2368 -0.5379 -1.3451
 3920SOL     OW23392   0.056   3.611  11.969 -0.6013 -0.1945  0.0089
 3920SOL    HW123393   4.709   3.609  12.004 -0.4143 -0.3234  0.4820
 3920SOL    HW223394   0.081   3.696  12.004  2.5233 -1.5494  1.1383
 3921SOL     OW23395   1.523   2.007   9.926 -0.5544  0.1764 -0.0507
 3921SOL    HW123396   1.514   2.091   9.881 -0.8539  0.2751  0.1955
 3921SOL    HW223397   1.619   1.998   9.923 -0.5386  0.8534 -1.7713
 3922SOL     OW23398   4.564   1.910   6.896  0.9762 -0.2847 -0.5025
 3922SOL    HW123399   4.532   1.854   6.825 -1.6782 -0.4137  0.7688
 3922SOL    HW223400   4.582   1.986   6.841 -2.3960  1.6845  1.1437
 3923SOL     OW23401   2.137   3.348   5.323 -0.5881  0.4773  0.0431
 3923SOL    HW123402   2.132   3.292   5.245  1.1763 -0.0927  0.3468
 3923SOL    HW223403   2.073   3.303   5.378  0.9950  0.9925  2.2641
 3924SOL     OW23404   1.419   3.003   2.234  0.3125  0.0668  1.1272
 3924SOL    HW123405   1.494   3.007   2.294  1.1598 -1.1217  0.1535
 3924SOL    HW223406   1.367   2.932   2.269  0.2576  0.3714  1.6571
 3925SOL     OW23407   1.235   0.922  10.293 -0.2548  0.3661 -0.1892
 3925SOL    HW123408   1.230   1.009  10.253 -0.6837 -1.0863 -3.2890
 3925SOL    HW223409   1.141   0.911  10.310 -0.9312  2.5597 -2.5248
 3926SOL     OW23410   1.690   4.535   4.198  0.5158 -0.1924 -0.2858
 3926SOL    HW123411   1.660   4.475   4.267  1.8787  0.5908  0.9810
 3926SOL    HW223412   1.685   4.607   4.261  2.0709 -1.0580  0.8177
 3927SOL     OW23413   3.238   2.379   4.808 -0.2018  0.8070  0.4498
 3927SOL    HW123414   3.325   2.341   4.817 -0.2360 -0.2798 -3.8916
 3927SOL    HW223415   3.252   2.450   4.745 -0.0556  1.7433  1.5490
 3928SOL     OW23416   0.575   0.719   4.073 -0.1287  0.0161 -0.5401
 3928SOL    HW123417   0.548   0.754   4.158 -1.0325 -5.1582  1.2619
 3928SOL    HW223418   0.668   0.743   4.068 -0.2242 -0.1160 -2.8628
 3929SOL     OW23419   2.682   3.660   2.891 -0.1798 -0.0994 -0.6100
 3929SOL    HW123420   2.749   3.603   2.853  0.2004  0.0820 -0.2242
 3929SOL    HW223421   2.603   3.633   2.845 -0.0317 -0.4445 -0.6675
 3930SOL     OW23422   0.216   1.881  16.850  0.5895 -0.2024  0.4701
 3930SOL    HW123423   0.303   1.907  16.821  0.0791  3.1595  1.9249
 3930SOL    HW223424   0.239   1.792  16.877  1.3431 -0.5016 -1.1631
 3931SOL     OW23425   3.200   0.999   5.744  0.0904 -0.4513 -0.3371
 3931SOL    HW123426   3.150   1.049   5.679  0.1609  1.8821  1.4340
 3931SOL    HW223427   3.138   0.927   5.758 -0.3425 -0.6112 -2.9913
 3932SOL     OW23428   1.913   2.884  14.250 -0.1789  0.1774  0.3521
 3932SOL    HW123429   1.958   2.951  14.302  1.4096  0.9430 -2.0250
 3932SOL    HW223430   1.864   2.848  14.324  0.1075  0.8404  0.8783
 3933SOL     OW23431   0.274   0.254   8.379  0.4890  0.6176 -0.2070
 3933SOL    HW123432   0.313   0.232   8.463  0.0461  2.5444  0.5117
 3933SOL    HW223433   0.200   0.312   8.396 -1.0073 -1.5705  0.8044
 3934SOL     OW23434   1.248   0.357  16.718 -0.0657 -0.4394 -0.2945
 3934SOL    HW123435   1.171   0.399  16.757  2.0372  2.7843  0.4234
 3934SOL    HW223436   1.304   0.383  16.792  0.3371 -0.3348 -0.6370
 3935SOL     OW23437   1.839   4.376   7.320  0.3741  0.4365 -0.1570
 3935SOL    HW123438   1.925   4.338   7.342 -0.2783 -1.5563 -1.0018
 3935SOL    HW223439   1.811   4.428   7.395 -1.5951 -0.9547  0.0722
 3936SOL     OW23440   2.030   2.463   1.812 -0.8269  0.6165 -0.2576
 3936SOL    HW123441   2.042   2.501   1.899  1.8342 -0.2737 -0.2367
 3936SOL    HW223442   2.025   2.546   1.765  0.8968  0.4173 -0.7758
 3937SOL     OW23443   4.579   0.718  11.330  0.5138 -0.2079  0.0162
 3937SOL    HW123444   4.558   0.798  11.282  1.2818  0.4037  0.7119
 3937SOL    HW223445   4.549   0.652  11.267  0.2396 -0.1757  0.1121
 3938SOL     OW23446   1.718   3.416  10.978  1.0074 -0.7606 -0.1847
 3938SOL    HW123447   1.728   3.321  10.969 -3.8119 -1.1878 -0.8358
 3938SOL    HW223448   1.806   3.445  11.003  1.1040 -1.0984 -0.1319
 3939SOL     OW23449   4.742   3.070   2.011  0.1414  0.0868 -0.2216
 3939SOL    HW123450   4.712   3.020   2.087  0.4221  1.5914  0.8948
 3939SOL    HW223451   4.670   3.134   2.003 -2.1954 -2.3078  1.5920
 3940SOL     OW23452   2.070   0.375   6.647  0.1133 -0.1877  0.4011
 3940SOL    HW123453   2.116   0.454   6.618 -2.0769  0.7236 -0.6110
 3940SOL    HW223454   2.138   0.313   6.672  0.6065  0.0182 -0.4207
 3941SOL     OW23455   2.345   1.873   3.947 -0.0515  0.2559 -0.1818
 3941SOL    HW123456   2.414   1.807   3.943 -0.0817  0.2204 -0.1135
 3941SOL    HW223457   2.392   1.938   3.895  1.5957  2.0989  3.6515
 3942SOL     OW23458   4.692   0.574   7.347  0.1648  0.2287  0.2958
 3942SOL    HW123459   4.730   0.606   7.429 -2.0132 -0.1995  1.4449
 3942SOL    HW223460   4.656   0.653   7.306  2.3406  0.5446 -1.0079
 3943SOL     OW23461   0.431   0.612   2.383 -0.1487  0.7095 -0.2653
 3943SOL    HW123462   0.413   0.628   2.476  0.9151  0.8339 -0.0807
 3943SOL    HW223463   0.358   0.555   2.358 -0.7981  0.0400  3.1323
 3944SOL     OW23464   4.265   4.526   2.774  0.4186 -0.0493  0.2943
 3944SOL    HW123465   4.293   4.613   2.749  1.2392  0.5548  3.2641
 3944SOL    HW223466   4.173   4.529   2.747  0.0048  1.6915  1.9667
 3945SOL     OW23467   2.610   3.973  16.986 -0.0885  0.3852  0.2038
 3945SOL    HW123468   2.540   4.015  16.935 -0.1645  0.6494  0.5265
 3945SOL    HW223469   2.604   4.029  17.063  2.4685  0.8468  0.0677
 3946SOL     OW23470   3.419   4.505   1.616 -0.0587  0.3149 -0.3807
 3946SOL    HW123471   3.352   4.540   1.558 -0.4017  1.0693  0.4701
 3946SOL    HW223472   3.388   4.521   1.706 -0.9041 -1.3998 -0.3577
 3947SOL     OW23473   0.042   4.293   8.339  0.5517 -0.0818  0.0997
 3947SOL    HW123474   4.705   4.346   8.335  0.3621 -0.4178 -0.5292
 3947SOL    HW223475   0.025   4.226   8.405 -0.9502 -1.0044 -1.2471
 3948SOL     OW23476   4.139   2.861   8.244 -0.0626  0.3014 -0.5685
 3948SOL    HW123477   4.076   2.790   8.230  0.3491  0.5390 -3.6700
 3948SOL    HW223478   4.202   2.836   8.177 -2.6014 -1.1832 -2.4032
 3949SOL     OW23479   2.785   1.242  14.871 -0.3460  0.7467  0.1931
 3949SOL    HW123480   2.724   1.178  14.910  1.5477 -0.5207  1.0603
 3949SOL    HW223481   2.828   1.262  14.954  1.0603 -0.9233 -0.1567
 3950SOL     OW23482   2.086   4.494   4.821 -0.5372 -0.0036  0.1640
 3950SOL    HW123483   2.041   4.507   4.905 -0.2280  0.0394  0.3212
 3950SOL    HW223484   2.125   4.409   4.844 -1.3118 -0.7614 -1.3151
 3951SOL     OW23485   3.217   0.998   9.282 -0.2624 -0.4717 -0.0974
 3951SOL    HW123486   3.167   1.078   9.295  0.0949 -0.3057  0.2586
 3951SOL    HW223487   3.146   0.953   9.235 -0.4429 -0.3236  0.0363
 3952SOL     OW23488   3.458   3.611   9.103  0.0040  0.0213 -0.0075
 3952SOL    HW123489   3.521   3.543   9.126 -1.7983 -1.5446  0.3176
 3952SOL    HW223490   3.402   3.541   9.068  1.2064 -0.4764 -0.9633
 3953SOL     OW23491   4.022   3.668  11.008 -0.0518  0.0352  0.3155
 3953SOL    HW123492   4.080   3.596  11.035 -0.3792  0.0803  1.1345
 3953SOL    HW223493   3.942   3.646  11.055 -1.0532 -1.9825 -2.3313
 3954SOL     OW23494   0.700   2.075  12.659 -0.5107  0.1599  0.3498
 3954SOL    HW123495   0.638   2.014  12.698 -0.3875 -0.3479 -0.2549
 3954SOL    HW223496   0.732   2.021  12.587 -0.2833  0.0065  0.5663
 3955SOL     OW23497   3.476   2.899   8.165 -0.2477 -0.1736 -0.1879
 3955SOL    HW123498   3.386   2.892   8.133  0.2500  0.1683 -1.6918
 3955SOL    HW223499   3.520   2.857   8.090  2.1800  2.1725 -0.0664
 3956SOL     OW23500   0.119   1.966   3.096  0.2758 -0.1428  0.2727
 3956SOL    HW123501   0.074   1.925   3.023  0.9373 -1.7665  0.7784
 3956SOL    HW223502   0.123   2.055   3.061  1.4580  0.5837  2.2619
 3957SOL     OW23503   2.054   4.098  10.044  0.9790 -0.4034 -0.2126
 3957SOL    HW123504   2.108   4.022  10.022  0.9868 -0.4060 -0.1839
 3957SOL    HW223505   1.971   4.053  10.062  1.2573 -0.0820  1.8776
 3958SOL     OW23506   3.917   3.672   5.260  0.1797  0.0551 -0.3622
 3958SOL    HW123507   3.850   3.731   5.293 -0.5307 -1.2224  0.4605
 3958SOL    HW223508   3.893   3.642   5.172  0.6284 -1.2432 -0.0403
 3959SOL     OW23509   2.127   3.953   3.123  0.0509 -0.0777 -0.0849
 3959SOL    HW123510   2.145   3.879   3.066  1.4117 -0.6334  1.0504
 3959SOL    HW223511   2.055   3.922   3.178  0.9987 -1.0055  0.6322
 3960SOL     OW23512   1.445   4.292   2.184 -0.7474  0.3094  0.3814
 3960SOL    HW123513   1.369   4.235   2.171 -0.9512  0.3709  1.2749
 3960SOL    HW223514   1.447   4.290   2.280 -2.0323 -1.7736  0.3740
 3961SOL     OW23515   4.191   1.172  10.796  0.0771 -0.3270  0.0286
 3961SOL    HW123516   4.249   1.248  10.806 -0.9592 -0.0649  4.1225
 3961SOL    HW223517   4.217   1.137  10.711  0.6801 -0.1811  0.1460
 3962SOL     OW23518   1.469   0.836   3.177 -0.1339  0.9359 -0.9587
 3962SOL    HW123519   1.548   0.783   3.171  0.4019  1.3934  2.2760
 3962SOL    HW223520   1.482   0.889   3.255 -1.9029  0.3515 -0.2489
 3963SOL     OW23521   1.031   0.149   8.088  0.9633  0.7333 -0.0062
 3963SOL    HW123522   0.977   0.201   8.148 -1.4382  0.0220 -1.5474
 3963SOL    HW223523   1.072   0.225   8.046 -1.9295  2.6391  0.5860
 3964SOL     OW23524   0.536   4.014   2.551 -0.1602 -0.3774  0.3852
 3964SOL    HW123525   0.613   4.071   2.549 -0.4857  0.0049 -1.0124
 3964SOL    HW223526   0.509   4.043   2.638  1.8655 -0.4718  1.0596
 3965SOL     OW23527   1.244   1.436   8.807  0.0608  0.0717  0.1212
 3965SOL    HW123528   1.302   1.455   8.733 -1.7412  2.7596 -0.5644
 3965SOL    HW223529   1.206   1.519   8.833 -2.9855 -0.6669 -1.9960
 3966SOL     OW23530   4.305   0.828  13.363  0.2460 -0.0045 -0.2051
 3966SOL    HW123531   4.313   0.789  13.451  2.5888  0.1671 -0.3472
 3966SOL    HW223532   4.303   0.746  13.314 -0.3268 -1.1104  1.6636
 3967SOL     OW23533   1.870   2.664   9.358 -0.6498  0.1674  0.1092
 3967SOL    HW123534   1.947   2.720   9.364  0.9430 -1.9992  0.1133
 3967SOL    HW223535   1.856   2.646   9.451 -0.2359  0.2852  0.1935
 3968SOL     OW23536   3.503   1.476   4.610 -0.5699  0.4256 -0.4617
 3968SOL    HW123537   3.443   1.502   4.541 -0.2210  0.8422 -0.6075
 3968SOL    HW223538   3.441   1.467   4.683  1.0930  1.3934  1.0738
 3969SOL     OW23539   1.304   3.280   2.422  0.3046  0.3005  0.7534
 3969SOL    HW123540   1.268   3.313   2.505 -0.5662  0.7085  0.2234
 3969SOL    HW223541   1.285   3.186   2.425  2.6880 -0.1917  0.2564
 3970SOL     OW23542   2.571   3.894   0.404  0.2739 -0.1985  0.0790
 3970SOL    HW123543   2.623   3.966   0.370  0.7656  0.5049  2.2992
 3970SOL    HW223544   2.599   3.816   0.355 -1.8472 -1.6872  1.2249
 3971SOL     OW23545   2.557   0.327   5.719  0.2610 -0.0522  0.1374
 3971SOL    HW123546   2.523   0.285   5.640  1.4930 -2.7868  1.0253
 3971SOL    HW223547   2.615   0.257   5.752  0.6577 -0.1125 -0.6912
 3972SOL     OW23548   1.916   0.559  16.680 -0.2831 -0.3767  0.0268
 3972SOL    HW123549   1.861   0.568  16.758  1.1297 -1.6193  1.1729
 3972SOL    HW223550   1.869   0.592  16.603 -1.3333  0.4798  1.0351
 3973SOL     OW23551   1.883   0.776   2.565  0.6462 -0.6885 -0.0751
 3973SOL    HW123552   1.970   0.760   2.602 -0.3767 -3.3581  1.1325
 3973SOL    HW223553   1.874   0.863   2.605  0.1587  0.4803 -2.7421
 3974SOL     OW23554   2.098   3.608  12.412 -0.0743 -0.1322  0.3617
 3974SOL    HW123555   2.064   3.638  12.497 -1.3628 -0.3193 -0.0864
 3974SOL    HW223556   2.013   3.602  12.368 -0.6348 -0.0153  1.4161
 3975SOL     OW23557   3.988   4.272   5.633 -0.0390 -0.7759 -0.3843
 3975SOL    HW123558   4.005   4.354   5.681 -0.2328 -0.5551 -0.6954
 3975SOL    HW223559   3.893   4.265   5.637 -0.1118  0.1823 -0.4411
 3976SOL     OW23560   0.686   0.456   4.674 -0.5398  0.3298 -0.0722
 3976SOL    HW123561   0.664   0.546   4.649  2.3834  1.2042  0.5690
 3976SOL    HW223562   0.638   0.405   4.609 -2.0916  1.2235  0.3795
 3977SOL     OW23563   0.720   4.347   6.807 -0.1071  0.3651  0.6257
 3977SOL    HW123564   0.723   4.293   6.886  0.8987 -0.3794  0.0740
 3977SOL    HW223565   0.672   4.424   6.836 -0.3727 -0.1477  1.5682
 3978SOL     OW23566   1.028   3.016   8.408  0.8873  0.2270 -0.0581
 3978SOL    HW123567   1.030   3.111   8.419 -0.5557  0.0754  1.4430
 3978SOL    HW223568   0.939   2.990   8.385  1.7772 -1.1654 -2.0002
 3979SOL     OW23569   1.743   1.159   4.929  0.5536  0.3430 -0.0158
 3979SOL    HW123570   1.699   1.087   4.974  0.8744  0.6021  0.7068
 3979SOL    HW223571   1.689   1.186   4.856  0.7668  0.3863 -0.1581
 3980SOL     OW23572   0.188   4.375   4.512 -0.7076 -0.2223  0.1013
 3980SOL    HW123573   0.118   4.353   4.572  0.7678  0.3046  2.0247
 3980SOL    HW223574   0.140   4.376   4.430 -1.4994 -3.0015  0.5295
 3981SOL     OW23575   1.360   3.738   6.618  0.6696 -0.0379  0.7619
 3981SOL    HW123576   1.453   3.756   6.634  0.6181  0.9718 -0.1478
 3981SOL    HW223577   1.345   3.710   6.709  1.3380 -0.7445  0.6573
 3982SOL     OW23578   3.272   2.352   4.004  0.1040 -0.3888  0.0618
 3982SOL    HW123579   3.205   2.286   4.018 -2.2868  1.9542 -0.4514
 3982SOL    HW223580   3.281   2.356   3.908  0.1786 -1.4896  0.0216
 3983SOL     OW23581   2.301   2.310   4.139 -0.3349  0.4341  0.4363
 3983SOL    HW123582   2.299   2.283   4.047  1.8897 -1.1466  0.8537
 3983SOL    HW223583   2.372   2.254   4.170  1.0115  1.3319 -1.0331
 3984SOL     OW23584   3.342   4.590   1.859  0.4962 -0.7658  0.4528
 3984SOL    HW123585   3.248   4.606   1.860  0.7092  0.4374  0.5310
 3984SOL    HW223586   3.357   4.562   1.949 -1.5499  0.4599  1.1627
 3985SOL     OW23587   3.325   2.973   1.755  0.3011 -0.8555  0.4709
 3985SOL    HW123588   3.364   2.912   1.818  2.0651 -0.0639  0.1227
 3985SOL    HW223589   3.387   2.975   1.682 -0.7070  1.8492 -0.2812
 3986SOL     OW23590   0.051   4.418   5.010  0.1912  0.1225  0.2928
 3986SOL    HW123591   0.144   4.433   5.026 -0.2520  2.7371  0.3923
 3986SOL    HW223592   0.033   4.334   5.054 -0.2253  1.3317  2.4612
 3987SOL     OW23593   3.782   2.763  15.332 -0.3481 -0.7145 -0.4295
 3987SOL    HW123594   3.720   2.691  15.339 -0.0642 -0.9237 -0.0711
 3987SOL    HW223595   3.762   2.815  15.410  1.7757 -0.4718 -0.0342
 3988SOL     OW23596   2.959   2.701   6.410 -0.1409  0.5164  0.1747
 3988SOL    HW123597   2.890   2.636   6.422 -0.3722  0.2350 -2.8501
 3988SOL    HW223598   2.999   2.675   6.327  0.7697  0.5850  0.5831
 3989SOL     OW23599   2.234   3.772   8.408  0.0545 -0.7050 -0.1754
 3989SOL    HW123600   2.255   3.847   8.353 -1.9146 -1.1471 -1.5195
 3989SOL    HW223601   2.139   3.774   8.391 -0.3632  0.3521  2.2944
 3990SOL     OW23602   4.719   3.765   3.364  0.3224 -0.1926  0.2646
 3990SOL    HW123603   0.032   3.806   3.297  0.1660 -1.3310 -0.5494
 3990SOL    HW223604   4.673   3.848   3.379  1.4297  0.8766 -2.2601
 3991SOL     OW23605   4.002   4.234   8.386 -0.1009  0.1261  0.2917
 3991SOL    HW123606   3.909   4.224   8.406 -0.7266  1.6698 -1.7546
 3991SOL    HW223607   4.002   4.307   8.324 -1.9919  0.5128  0.7471
 3992SOL     OW23608   1.745   1.384   2.427 -0.3400 -0.1721  0.1973
 3992SOL    HW123609   1.688   1.449   2.388 -0.4409 -1.0886 -1.1653
 3992SOL    HW223610   1.688   1.309   2.444  1.0628 -1.3132 -0.1056
 3993SOL     OW23611   3.884   1.435   9.310  0.3530 -0.3897  0.2403
 3993SOL    HW123612   3.953   1.466   9.368 -1.4770  0.7691  1.8012
 3993SOL    HW223613   3.831   1.513   9.295  0.3482 -0.4610 -0.1296
 3994SOL     OW23614   3.274   3.413   8.595  0.2534  0.4232 -0.5404
 3994SOL    HW123615   3.355   3.362   8.596 -0.6840 -1.0093  3.2858
 3994SOL    HW223616   3.261   3.433   8.502  0.6378  0.3917 -0.6018
 3995SOL     OW23617   1.456   3.784  13.818 -0.1197  0.3996  0.4072
 3995SOL    HW123618   1.505   3.802  13.899  2.5231 -2.4520 -0.5746
 3995SOL    HW223619   1.393   3.715  13.839  0.8305  0.1091  2.3642
 3996SOL     OW23620   3.934   4.523   0.280 -0.3954 -0.4629  0.3014
 3996SOL    HW123621   4.014   4.490   0.239 -0.3268  0.3432 -0.2110
 3996SOL    HW223622   3.923   4.454   0.346  2.7539 -1.5173 -0.2723
 3997SOL     OW23623   4.159   0.245  12.756  0.0254  0.2941  0.8582
 3997SOL    HW123624   4.165   0.176  12.690 -0.5064  1.7564 -0.7133
 3997SOL    HW223625   4.067   0.263  12.774 -0.8273 -0.2326 -3.0039
 3998SOL     OW23626   3.589   0.402   1.697  0.2508 -0.0601  0.0280
 3998SOL    HW123627   3.549   0.489   1.694  1.9020  0.6745 -0.9055
 3998SOL    HW223628   3.683   0.422   1.695  0.2885 -0.2498 -0.0633
 3999SOL     OW23629   2.563   2.629  13.249 -0.2835  0.6164  0.4387
 3999SOL    HW123630   2.539   2.620  13.157  0.4916 -0.1296  0.3122
 3999SOL    HW223631   2.650   2.667  13.249  0.3005 -0.7167  0.5315
 4000SOL     OW23632   0.223   2.836  14.284  0.4523 -0.0566  0.2925
 4000SOL    HW123633   0.297   2.877  14.240  0.2373 -0.7668 -0.7312
 4000SOL    HW223634   0.228   2.748  14.246 -0.5543 -0.2648  0.6466
 4001SOL     OW23635   4.484   2.572   3.625 -0.0760  0.0694  0.3683
 4001SOL    HW123636   4.548   2.524   3.574 -1.5637 -1.3101 -0.2171
 4001SOL    HW223637   4.485   2.535   3.713 -0.0377 -1.6192 -0.3541
 4002SOL     OW23638   3.143   4.280   2.301  0.2212 -0.6308 -0.0279
 4002SOL    HW123639   3.205   4.247   2.366  1.4337  2.4540  0.3334
 4002SOL    HW223640   3.069   4.226   2.331 -0.6413  2.0048  2.6081
 4003SOL     OW23641   2.767   3.929   4.724  0.2687 -0.1853 -0.0240
 4003SOL    HW123642   2.796   3.884   4.804  2.1568  1.1167  0.0145
 4003SOL    HW223643   2.764   4.023   4.739 -1.6825 -0.3519  0.6433
 4004SOL     OW23644   2.837   4.201   3.407 -0.2229 -0.4011  0.2924
 4004SOL    HW123645   2.823   4.115   3.366 -0.4051 -0.3235  0.1907
 4004SOL    HW223646   2.822   4.265   3.338  0.9616  0.6327  1.0138
 4005SOL     OW23647   4.216   4.275   9.875  0.1570 -0.7124  0.3634
 4005SOL    HW123648   4.125   4.250   9.863 -0.2741  0.6414  0.7760
 4005SOL    HW223649   4.203   4.358   9.920  2.3526 -0.2990  0.2403
 4006SOL     OW23650   1.083   0.446   4.480  0.5930 -0.3124 -0.1203
 4006SOL    HW123651   1.061   0.539   4.491 -0.2921 -0.8277  2.4214
 4006SOL    HW223652   1.149   0.455   4.411  0.2561  1.3695 -0.2203
 4007SOL     OW23653   1.185   1.775   9.119 -0.1009  0.4848  0.7301
 4007SOL    HW123654   1.114   1.788   9.055  1.2455 -0.1115 -0.8776
 4007SOL    HW223655   1.196   1.680   9.124 -0.3270  0.5315  2.2163
 4008SOL     OW23656   0.240   3.056   3.950  0.4685 -0.2030  0.5442
 4008SOL    HW123657   0.265   2.969   3.981 -0.2625 -0.1040  1.4336
 4008SOL    HW223658   0.307   3.080   3.887 -0.7876 -0.7707 -1.0008
 4009SOL     OW23659   3.887   1.143   7.544 -0.2571  0.2494 -0.2328
 4009SOL    HW123660   3.841   1.066   7.512  0.1835 -0.6138  1.2177
 4009SOL    HW223661   3.859   1.195   7.469  1.6691 -1.1410 -1.9095
 4010SOL     OW23662   1.408   1.644  15.251 -0.1156 -0.5116 -0.0756
 4010SOL    HW123663   1.471   1.687  15.194 -3.0689 -0.1188 -3.0129
 4010SOL    HW223664   1.376   1.720  15.300  1.3703  0.3436 -0.4230
 4011SOL     OW23665   3.826   4.624   2.806 -0.2010 -0.3007  0.2304
 4011SOL    HW123666   3.846   4.614   2.899  0.4527  2.0566  0.3283
 4011SOL    HW223667   3.815   4.716   2.784 -0.4528 -0.2500  0.5638
 4012SOL     OW23668   2.243   0.271   3.895 -0.5042 -0.7125  0.3099
 4012SOL    HW123669   2.328   0.245   3.931 -1.0262 -0.0373  2.0355
 4012SOL    HW223670   2.183   0.203   3.925 -1.2643  0.3237  1.1629
 4013SOL     OW23671   2.129   0.413  10.525  0.0426  0.0543 -0.1390
 4013SOL    HW123672   2.054   0.406  10.467  0.1622 -0.2281 -0.2625
 4013SOL    HW223673   2.195   0.356  10.486 -0.8951  0.3555 -2.1606
 4014SOL     OW23674   4.552   3.112   5.140 -0.0354 -0.6163  0.4821
 4014SOL    HW123675   4.481   3.173   5.118  1.0382  0.6934  0.6488
 4014SOL    HW223676   4.588   3.163   5.212 -0.6039  1.2072 -0.5355
 4015SOL     OW23677   4.165   4.296   4.508 -0.5969  0.4870 -0.3221
 4015SOL    HW123678   4.134   4.208   4.484  0.5662  0.4106 -1.5173
 4015SOL    HW223679   4.252   4.297   4.467  0.2091 -0.5548  1.3534
 4016SOL     OW23680   3.124   1.605   9.826 -0.0854 -0.2540  0.0837
 4016SOL    HW123681   3.077   1.522   9.826  1.6540 -1.2396  0.5011
 4016SOL    HW223682   3.211   1.588   9.789 -0.1856 -0.1906 -0.1795
 4017SOL     OW23683   2.598   3.053  14.648  0.3768  0.4014  0.2987
 4017SOL    HW123684   2.690   3.072  14.635  1.1041 -2.9086  0.5313
 4017SOL    HW223685   2.550   3.136  14.645  1.1867  0.9359  2.7239
 4018SOL     OW23686   4.644   2.224  13.456  0.4777 -0.3869  0.2001
 4018SOL    HW123687   4.635   2.318  13.445  0.4827 -0.4554 -0.3717
 4018SOL    HW223688   4.737   2.206  13.468  0.4081  1.1116  3.0453
 4019SOL     OW23689   0.794   1.439   1.213  0.2617 -0.2640 -0.2364
 4019SOL    HW123690   0.882   1.445   1.176 -0.0478 -0.3560 -0.9837
 4019SOL    HW223691   0.760   1.513   1.163  0.5330  0.2640  0.3659
 4020SOL     OW23692   0.836   0.081   5.496 -0.3205 -0.4026  0.3863
 4020SOL    HW123693   0.816   0.065   5.588  0.4598  2.2421  1.0171
 4020SOL    HW223694   0.754   0.062   5.451  0.8786 -1.4976 -1.3327
 4021SOL     OW23695   1.044   4.659   1.255 -0.7543 -0.5505 -0.1424
 4021SOL    HW123696   0.981   4.598   1.217 -0.7623  0.4791 -1.7376
 4021SOL    HW223697   1.081   4.704   1.180  1.4956  2.1029  2.5684
 4022SOL     OW23698   4.378   4.285   3.115  0.1254 -0.0342 -1.1064
 4022SOL    HW123699   4.405   4.277   3.207 -2.7553 -1.6646 -0.3852
 4022SOL    HW223700   4.409   4.373   3.093  0.3190  0.1095 -0.2475
 4023SOL     OW23701   1.866   0.308  13.405  0.8099  0.3584  0.1285
 4023SOL    HW123702   1.890   0.304  13.498 -2.1552  0.7648  0.8945
 4023SOL    HW223703   1.865   0.216  13.378 -0.2287  1.0446 -2.1562
 4024SOL     OW23704   2.060   2.191   7.695 -0.0135  0.1518  0.5971
 4024SOL    HW123705   2.121   2.259   7.666 -0.8779  0.9969  0.7805
 4024SOL    HW223706   2.116   2.114   7.706 -0.6647 -0.3892  0.1094
 4025SOL     OW23707   2.166   1.373   4.332  0.1262 -0.1015  0.2697
 4025SOL    HW123708   2.143   1.423   4.253 -0.0501 -0.1966  0.2595
 4025SOL    HW223709   2.248   1.416   4.356  0.4365 -0.8306  0.5272
 4026SOL     OW23710   3.965   1.573   7.381  0.2641  0.2278 -0.6332
 4026SOL    HW123711   3.878   1.572   7.422  0.6746 -1.3992  0.1730
 4026SOL    HW223712   3.946   1.574   7.287  1.1048 -0.0198 -0.8036
 4027SOL     OW23713   3.254   1.937  11.123 -0.2217  0.1729 -0.0962
 4027SOL    HW123714   3.193   1.887  11.068 -0.5742  0.0697  0.3879
 4027SOL    HW223715   3.256   1.881  11.201 -0.9730  0.1333 -0.1063
 4028SOL     OW23716   1.219   3.343  11.340  0.0528  0.2892 -0.0567
 4028SOL    HW123717   1.243   3.427  11.301 -1.8609 -0.1128 -2.0551
 4028SOL    HW223718   1.273   3.281  11.292 -0.6642 -0.5829  0.2563
 4029SOL     OW23719   0.873   2.316   7.444 -0.5190 -0.0786  0.0272
 4029SOL    HW123720   0.964   2.319   7.476 -0.9292  1.4142  1.0447
 4029SOL    HW223721   0.877   2.264   7.363  0.7241 -1.3237  0.8708
 4030SOL     OW23722   4.302   1.912   8.712  0.4239  0.5997  0.5186
 4030SOL    HW123723   4.334   1.968   8.641  0.7930  0.7398  0.7922
 4030SOL    HW223724   4.213   1.897   8.682 -0.2173 -0.3554  2.8606
 4031SOL     OW23725   3.123   0.230  16.984 -0.1328  0.1235 -0.2945
 4031SOL    HW123726   3.051   0.289  16.964 -0.2924  0.6793  2.0388
 4031SOL    HW223727   3.197   0.275  16.942 -1.2137  2.8185  0.7300
 4032SOL     OW23728   2.773   4.165   2.785 -0.3111  0.2140  0.6204
 4032SOL    HW123729   2.801   4.073   2.794 -0.3310  0.1547  0.0826
 4032SOL    HW223730   2.715   4.160   2.709  0.8330 -3.8952  0.0004
 4033SOL     OW23731   4.232   2.126   9.144 -0.4374  0.0197 -0.0922
 4033SOL    HW123732   4.312   2.088   9.108 -0.1547  1.4187 -0.9035
 4033SOL    HW223733   4.195   2.143   9.058 -0.3111 -1.3626 -0.4252
 4034SOL     OW23734   1.629   2.198   1.469  0.1333 -0.6114  0.2932
 4034SOL    HW123735   1.618   2.154   1.385  4.1922  0.0856 -0.6045
 4034SOL    HW223736   1.548   2.179   1.516 -1.3814  2.2838 -1.1448
 4035SOL     OW23737   0.955   0.740   3.646 -0.1116  0.5370  0.0485
 4035SOL    HW123738   1.043   0.708   3.624  0.6620  1.6444  1.5535
 4035SOL    HW223739   0.988   0.826   3.671 -0.9924  1.5348 -2.1706
 4036SOL     OW23740   2.894   0.187   7.388  0.8168  0.1874 -0.0633
 4036SOL    HW123741   2.942   0.165   7.468  0.1683  1.3204  0.6316
 4036SOL    HW223742   2.838   0.254   7.427 -0.1191 -0.7880  0.2744
 4037SOL     OW23743   3.343   2.004   4.610 -0.5158  0.0802  0.1147
 4037SOL    HW123744   3.378   1.994   4.699  0.2384  0.5545 -0.1304
 4037SOL    HW223745   3.272   2.067   4.619 -0.6165 -0.0816  0.4695
 4038SOL     OW23746   4.223   1.361   6.190 -0.3182  0.7150  0.0697
 4038SOL    HW123747   4.305   1.408   6.207 -0.4035  0.1617  2.0087
 4038SOL    HW223748   4.201   1.380   6.099  0.9333  3.0669  0.2415
 4039SOL     OW23749   3.888   4.547  10.170  0.0083  0.0264  0.1473
 4039SOL    HW123750   3.872   4.458  10.204  0.9337  1.3631  4.1447
 4039SOL    HW223751   3.912   4.592  10.251  0.7788  0.1815 -0.1588
 4040SOL     OW23752   2.344   1.477   5.282  0.0534  0.0302  0.2567
 4040SOL    HW123753   2.310   1.566   5.288 -0.5605 -0.0693 -1.8220
 4040SOL    HW223754   2.280   1.427   5.333  1.9706 -1.1506  1.5196
 4041SOL     OW23755   2.943   4.024  16.801 -0.6609 -0.4945  0.3754
 4041SOL    HW123756   2.937   4.055  16.710 -0.6439  0.8621  0.8272
 4041SOL    HW223757   3.036   4.014  16.821  0.0246  1.6967 -1.6220
 4042SOL     OW23758   1.251   3.928   4.905  0.2017  0.7810 -0.2884
 4042SOL    HW123759   1.280   4.017   4.928  0.4410  0.2357  1.5929
 4042SOL    HW223760   1.157   3.943   4.905  0.0504 -0.1527 -0.6627
 4043SOL     OW23761   1.679   0.208   3.991  0.2108  0.2377 -0.6423
 4043SOL    HW123762   1.735   0.141   3.952  2.3365  2.0496 -0.6759
 4043SOL    HW223763   1.688   0.184   4.084 -0.2075  0.4134 -0.5550
 4044SOL     OW23764   0.298   1.899   4.912  0.4890 -0.4882 -0.0456
 4044SOL    HW123765   0.254   1.834   4.857 -1.8498  0.7749  0.3455
 4044SOL    HW223766   0.224   1.921   4.967  1.5162 -2.2010  2.0588
 4045SOL     OW23767   3.938   1.790   1.114  0.0440 -0.4470  0.0592
 4045SOL    HW123768   3.994   1.867   1.102  1.1631 -1.0623  1.2873
 4045SOL    HW223769   3.911   1.812   1.204  0.1852  0.7970 -0.1990
 4046SOL     OW23770   3.092   0.383   5.639  0.1676  0.5834 -0.0897
 4046SOL    HW123771   3.164   0.381   5.575  0.1522  0.4927 -0.1048
 4046SOL    HW223772   3.022   0.353   5.582  0.3964 -1.4567  0.6809
 4047SOL     OW23773   3.389   3.719   6.491  0.3786 -0.0233 -0.3596
 4047SOL    HW123774   3.405   3.647   6.552  1.7202  1.5208  1.0873
 4047SOL    HW223775   3.374   3.791   6.551  1.1414  1.0496 -1.4588
 4048SOL     OW23776   0.783   3.041  14.171  0.0528  0.2254  0.2562
 4048SOL    HW123777   0.727   3.105  14.215 -0.7312  0.3971 -1.0082
 4048SOL    HW223778   0.865   3.070  14.211  0.7887  1.3024 -2.0094
 4049SOL     OW23779   1.414   1.742   4.915 -0.0951  0.4258 -0.2199
 4049SOL    HW123780   1.327   1.701   4.909  0.0956 -0.3893  2.5452
 4049SOL    HW223781   1.447   1.743   4.826 -0.0905 -2.5521 -0.2693
 4050SOL     OW23782   2.226   0.818  11.664  0.0298 -0.2286 -0.1755
 4050SOL    HW123783   2.188   0.765  11.593  0.7548  0.1813 -0.8626
 4050SOL    HW223784   2.317   0.793  11.650  0.8089  2.4867  0.0716
 4051SOL     OW23785   1.778   3.739   7.858 -0.3270 -0.0892 -0.2580
 4051SOL    HW123786   1.817   3.675   7.799 -0.3708  0.6051 -1.0298
 4051SOL    HW223787   1.687   3.741   7.831 -1.2755  1.3351  3.0399
 4052SOL     OW23788   3.341   1.631   1.074  1.4097 -0.2866 -0.3450
 4052SOL    HW123789   3.386   1.638   0.990  0.5046 -3.8592 -1.1220
 4052SOL    HW223790   3.336   1.536   1.090 -0.9179  0.0182  0.7088
 4053SOL     OW23791   2.566   1.089  16.954  0.5504  0.2210 -0.0399
 4053SOL    HW123792   2.520   1.155  16.903 -2.9044 -1.7083  0.5898
 4053SOL    HW223793   2.493   1.042  16.994  0.9525 -0.5825 -0.2308
 4054SOL     OW23794   3.686   0.702  17.478  0.0508 -0.4087  0.0954
 4054SOL    HW123795   3.713   0.768  17.414  2.7039 -0.9941  0.5903
 4054SOL    HW223796   3.601   0.667  17.452 -0.4722 -0.0548  1.3059
 4055SOL     OW23797   0.608   1.937   1.085  0.2674 -0.1592 -0.6027
 4055SOL    HW123798   0.671   1.925   1.014  0.3835  0.9343 -0.6894
 4055SOL    HW223799   0.526   1.940   1.036  0.1466 -0.2229 -0.4012
 4056SOL     OW23800   2.899   4.472   9.310 -0.2717 -0.4036 -0.3543
 4056SOL    HW123801   2.823   4.461   9.367 -0.1201  1.5647  0.2132
 4056SOL    HW223802   2.864   4.446   9.224 -0.8472  0.7981 -0.4726
 4057SOL     OW23803   1.749   0.257  15.601  0.0464  0.0883  0.2876
 4057SOL    HW123804   1.788   0.280  15.517  2.9587 -3.3797  0.6595
 4057SOL    HW223805   1.675   0.318  15.602 -0.0736 -0.0611  0.5366
 4058SOL     OW23806   0.180   0.285   4.309 -0.2884  0.5723 -0.3337
 4058SOL    HW123807   0.134   0.202   4.325 -1.1519  1.0690 -0.1957
 4058SOL    HW223808   0.120   0.314   4.240  0.2331 -1.0035 -1.4227
 4059SOL     OW23809   2.481   0.610   7.808 -0.1451  0.3535 -0.1850
 4059SOL    HW123810   2.418   0.623   7.880  0.7867 -1.4332  0.9641
 4059SOL    HW223811   2.461   0.521   7.778 -1.0172  0.3925  0.2619
 4060SOL     OW23812   4.123   1.477   1.652  0.3883 -0.2430 -0.4047
 4060SOL    HW123813   4.028   1.471   1.646  0.3883 -1.3352  0.6722
 4060SOL    HW223814   4.147   1.391   1.619 -0.6385 -0.6653 -0.0461
 4061SOL     OW23815   3.241   2.451   0.463 -0.4502 -0.2651 -0.0130
 4061SOL    HW123816   3.224   2.533   0.510 -2.8085 -0.7435 -0.0533
 4061SOL    HW223817   3.154   2.411   0.463 -1.1558  1.2610 -0.0627
 4062SOL     OW23818   3.349   1.523   4.373 -0.0694  0.0962 -0.1782
 4062SOL    HW123819   3.396   1.605   4.385 -1.0456  0.8906 -1.9258
 4062SOL    HW223820   3.306   1.539   4.289  0.4278  3.1249  0.1649
 4063SOL     OW23821   0.108   1.299  15.446 -0.0896 -0.8962 -0.1255
 4063SOL    HW123822   0.196   1.320  15.413  0.3617 -1.0437  0.9616
 4063SOL    HW223823   0.064   1.279  15.363 -1.7352  2.9788 -0.1641
 4064SOL     OW23824   3.615   4.557   1.266 -0.0385  0.1395  0.4056
 4064SOL    HW123825   3.559   4.584   1.194  0.2351  0.6652  0.3878
 4064SOL    HW223826   3.588   4.465   1.268 -1.5297  0.5965  1.4932
 4065SOL     OW23827   0.685   4.081   4.705 -0.0160 -0.5054 -0.4054
 4065SOL    HW123828   0.751   4.022   4.742  0.5893  0.7839  0.5838
 4065SOL    HW223829   0.609   4.031   4.734  0.1039 -1.1174 -1.1732
 4066SOL     OW23830   2.134   3.287   9.131  0.2794  0.0361  0.6152
 4066SOL    HW123831   2.077   3.324   9.198  0.0067 -1.1394  1.0284
 4066SOL    HW223832   2.224   3.289   9.163 -0.7215  1.3517  3.3591
 4067SOL     OW23833   1.518   4.019   6.435 -0.0220  0.3994 -0.5950
 4067SOL    HW123834   1.528   4.036   6.341  0.0147 -0.1944 -0.7006
 4067SOL    HW223835   1.427   4.044   6.454 -0.3904  0.3310 -2.2480
 4068SOL     OW23836   3.446   1.433  17.424  0.0723  0.3484 -0.5982
 4068SOL    HW123837   3.499   1.496  17.376  1.8724 -0.0447  0.8667
 4068SOL    HW223838   3.510   1.397  17.485 -1.2174 -0.3256  0.3612
 4069SOL     OW23839   4.573   2.566  15.966 -0.2004  0.1945 -0.9042
 4069SOL    HW123840   4.661   2.540  15.939 -0.3728  0.0225 -1.3020
 4069SOL    HW223841   4.566   2.539  16.058  3.5623  2.0496 -0.0688
 4070SOL     OW23842   0.670   3.843   2.901 -0.7418 -0.2401 -0.8507
 4070SOL    HW123843   0.590   3.855   2.952  0.5908  2.5332  0.5888
 4070SOL    HW223844   0.636   3.819   2.814  0.7219 -1.3098 -1.1283
 4071SOL     OW23845   2.637   3.624   5.695 -0.3036  0.0082  0.3534
 4071SOL    HW123846   2.605   3.604   5.607 -2.3825  0.7256  0.9380
 4071SOL    HW223847   2.725   3.609   5.661 -0.7553 -0.1214 -0.7950
 4072SOL     OW23848   1.902   1.558   9.240 -0.1403 -0.7837 -0.0048
 4072SOL    HW123849   1.878   1.650   9.250 -2.1186 -1.2550 -0.3990
 4072SOL    HW223850   1.991   1.558   9.274 -0.2446  0.4668  0.2685
 4073SOL     OW23851   1.953   4.583   2.556 -0.5487  0.0383 -0.3183
 4073SOL    HW123852   1.971   4.663   2.506  3.1626  0.8430  2.3053
 4073SOL    HW223853   1.867   4.554   2.525  1.0159 -0.6614 -4.0000
 4074SOL     OW23854   0.722   2.264  17.498 -0.3072  0.0989 -0.2330
 4074SOL    HW123855   0.754   2.179  17.525 -0.8940  0.2066  0.8012
 4074SOL    HW223856   0.794   2.323  17.523  0.9332 -2.3590  1.8919
 4075SOL     OW23857   2.253   1.709   5.078  0.1185  0.3633 -0.0238
 4075SOL    HW123858   2.253   1.634   5.018 -3.0879  1.6998 -1.7417
 4075SOL    HW223859   2.275   1.778   5.016 -1.9032  0.2128 -0.9145
 4076SOL     OW23860   2.677   3.719  16.218 -0.0457  0.6595  0.1824
 4076SOL    HW123861   2.677   3.642  16.161  0.4774 -1.5642  3.1915
 4076SOL    HW223862   2.667   3.782  16.147  0.2909 -0.4560 -0.8535
 4077SOL     OW23863   2.119   0.793  10.382 -0.2430 -0.1520 -0.3218
 4077SOL    HW123864   2.145   0.719  10.438 -0.8777  0.7966  1.2110
 4077SOL    HW223865   2.196   0.850  10.381 -0.4737  0.1246 -1.6352
 4078SOL     OW23866   2.943   2.042  12.319  0.3983 -0.3228 -0.7007
 4078SOL    HW123867   2.867   2.091  12.350  1.0160 -0.2376  0.7272
 4078SOL    HW223868   2.946   1.973  12.386 -0.5751  2.0905  1.8777
 4079SOL     OW23869   4.556   3.377   7.159 -0.3195 -0.2260  0.2233
 4079SOL    HW123870   4.647   3.350   7.143 -0.1009  0.7734 -0.2299
 4079SOL    HW223871   4.570   3.467   7.188 -0.3070  0.1171 -0.8430
 4080SOL     OW23872   0.247   1.726   5.196 -0.6109  0.1700 -0.0461
 4080SOL    HW123873   0.308   1.791   5.229 -0.5180  0.3660 -0.5947
 4080SOL    HW223874   0.280   1.645   5.235  1.5230  0.9322 -0.3051
 4081SOL     OW23875   0.845   3.251   8.288  0.0960 -0.5309  0.2524
 4081SOL    HW123876   0.778   3.183   8.276 -0.0846 -0.6051  1.7451
 4081SOL    HW223877   0.796   3.321   8.331  1.0123 -0.2623  0.8344
 4082SOL     OW23878   0.485   4.498   5.316 -0.4247  0.6259 -0.5838
 4082SOL    HW123879   0.394   4.500   5.287 -0.8815 -0.1746  0.7856
 4082SOL    HW223880   0.525   4.447   5.245 -1.0257 -1.1813  0.3937
 4083SOL     OW23881   2.445   3.854   7.072  0.6540 -0.1463 -0.2810
 4083SOL    HW123882   2.358   3.893   7.074 -1.0636 -4.0200  0.9910
 4083SOL    HW223883   2.445   3.784   7.137  1.4499 -0.1267 -0.2605
 4084SOL     OW23884   1.807   0.217  10.990 -0.2046 -0.5249 -0.1984
 4084SOL    HW123885   1.735   0.272  10.959 -1.1230 -1.0360  1.0325
 4084SOL    HW223886   1.854   0.182  10.914 -1.1326 -1.1738 -0.4631
 4085SOL     OW23887   0.020   4.517   3.005  0.2980  0.4530 -0.0656
 4085SOL    HW123888   0.043   4.473   2.923 -0.5811  1.8473 -1.0578
 4085SOL    HW223889   0.103   4.562   3.022  0.3119  0.0610  0.8901
 4086SOL     OW23890   2.751   3.305   5.587 -0.2699  0.1166  0.2961
 4086SOL    HW123891   2.835   3.268   5.615 -0.0335 -0.9132 -1.7421
 4086SOL    HW223892   2.700   3.279   5.664  0.1506  1.4362  1.0201
 4087SOL     OW23893   0.553   4.652   6.882 -0.3152  0.7044  0.0765
 4087SOL    HW123894   0.533   4.583   6.945  1.9145 -0.0537 -0.0417
 4087SOL    HW223895   0.489   4.628   6.816 -0.2826 -0.0982  0.3436
 4088SOL     OW23896   2.636   0.854   6.972 -0.0988  0.5788 -0.1087
 4088SOL    HW123897   2.591   0.775   7.002  1.3678  0.6422  2.2362
 4088SOL    HW223898   2.582   0.918   7.018 -0.8885 -0.6147  0.6301
 4089SOL     OW23899   4.544   4.029   6.878  0.2669 -0.2170 -0.5081
 4089SOL    HW123900   4.570   4.118   6.902  2.2514 -1.4703  1.9505
 4089SOL    HW223901   4.467   4.020   6.934  0.0037  0.0266 -0.8352
 4090SOL     OW23902   3.478   1.509   6.389  0.2447 -0.0686  0.2015
 4090SOL    HW123903   3.501   1.467   6.472 -1.9179 -2.6442 -0.4713
 4090SOL    HW223904   3.566   1.516   6.353 -0.1311 -0.6246 -0.8128
 4091SOL     OW23905   2.447   3.777   4.063  0.5404 -0.7323  0.0439
 4091SOL    HW123906   2.509   3.731   4.006  1.0618  1.7810 -1.4034
 4091SOL    HW223907   2.514   3.801   4.127  1.6201  0.9084 -1.6956
 4092SOL     OW23908   3.705   4.135   1.623 -0.1707 -0.3133 -0.1066
 4092SOL    HW123909   3.717   4.055   1.572  3.9798  1.8318 -2.4910
 4092SOL    HW223910   3.681   4.187   1.546  2.0267  0.9295  0.0370
 4093SOL     OW23911   3.916   4.515  15.028 -0.2316  0.6696  0.0261
 4093SOL    HW123912   3.903   4.582  15.095  1.6358 -0.4811  1.5412
 4093SOL    HW223913   3.834   4.472  15.054  0.1979  0.8844  1.6671
 4094SOL     OW23914   1.441   2.514   3.843 -0.1854  0.1531 -0.4304
 4094SOL    HW123915   1.522   2.564   3.845  0.2824 -0.6038 -0.1680
 4094SOL    HW223916   1.474   2.433   3.804 -0.2038  0.6258 -1.4284
 4095SOL     OW23917   1.109   1.532   2.397  0.0885  0.4799  0.2473
 4095SOL    HW123918   1.083   1.506   2.308 -1.5302  3.7637 -0.2317
 4095SOL    HW223919   1.179   1.467   2.407 -1.3726 -1.1180  0.0943
 4096SOL     OW23920   2.938   1.421  14.745  0.2749  0.1727  0.3569
 4096SOL    HW123921   2.901   1.509  14.755  0.0194 -0.1151  1.8376
 4096SOL    HW223922   2.864   1.375  14.784 -0.9779  0.6883 -1.3920
 4097SOL     OW23923   3.201   2.959  17.302  0.6204  0.0826  0.5197
 4097SOL    HW123924   3.109   2.985  17.297  0.8386  1.3319  2.8523
 4097SOL    HW223925   3.219   2.949  17.396  0.5880 -1.2022  0.4012
 4098SOL     OW23926   1.763   0.156   4.273  0.2345 -0.4277 -0.1023
 4098SOL    HW123927   1.694   0.097   4.304 -0.3915  1.1225  1.4654
 4098SOL    HW223928   1.841   0.106   4.295 -0.0746 -0.5308  0.7808
 4099SOL     OW23929   2.102   4.459   2.887  0.2857 -0.0299  0.6183
 4099SOL    HW123930   2.184   4.456   2.839 -0.6173 -1.9411 -0.8223
 4099SOL    HW223931   2.085   4.365   2.897  0.1811 -0.1009 -0.2858
 4100SOL     OW23932   2.343   4.170   8.471 -0.3829  0.3050 -0.8225
 4100SOL    HW123933   2.361   4.258   8.437 -2.6585  1.1535  0.2198
 4100SOL    HW223934   2.255   4.187   8.503 -0.5787  0.0451 -1.2283
 4101SOL     OW23935   1.180   0.477   9.417 -0.3113  0.0047 -0.3753
 4101SOL    HW123936   1.196   0.383   9.409 -1.8128 -0.2487 -0.3426
 4101SOL    HW223937   1.220   0.513   9.337 -0.8154  1.2898 -0.0537
 4102SOL     OW23938   2.420   4.604   1.182 -0.5908  0.1527 -0.1523
 4102SOL    HW123939   2.388   4.525   1.138 -1.4347 -0.2289  1.1550
 4102SOL    HW223940   2.338   4.649   1.200  0.1787  1.7690 -0.6747
 4103SOL     OW23941   0.216   3.186   5.043  0.1932 -0.3945  0.0093
 4103SOL    HW123942   0.221   3.245   5.118 -3.2333  0.1427 -0.2112
 4103SOL    HW223943   0.132   3.143   5.058 -0.8506  1.6586  0.0409
 4104SOL     OW23944   1.870   3.173  15.623  0.5791  0.9402  0.2798
 4104SOL    HW123945   1.778   3.171  15.595  1.0181 -0.3538 -1.0827
 4104SOL    HW223946   1.894   3.085  15.594  0.6329  1.9351 -2.6923
 4105SOL     OW23947   2.695   2.782   7.192 -0.0638  0.0136 -0.2140
 4105SOL    HW123948   2.619   2.782   7.250  1.2520  1.1602  1.5107
 4105SOL    HW223949   2.768   2.745   7.242 -0.4467  1.3762  1.3670
 4106SOL     OW23950   4.036   0.102   6.133 -0.3330  0.3510  0.4489
 4106SOL    HW123951   4.046   0.010   6.156 -0.8889 -0.2050 -1.4914
 4106SOL    HW223952   4.046   0.149   6.216  3.2039 -1.5195  1.0757
 4107SOL     OW23953   0.167   1.359   5.518  0.0247 -0.0548  0.4636
 4107SOL    HW123954   0.144   1.323   5.604  0.9304  1.4412  1.3341
 4107SOL    HW223955   0.261   1.356   5.532  0.0719  0.6267  0.3056
 4108SOL     OW23956   4.325   0.159  10.176  0.0145 -0.0071 -0.4285
 4108SOL    HW123957   4.398   0.204  10.133  1.8279 -0.0584  2.6079
 4108SOL    HW223958   4.370   0.121  10.251  1.0035 -1.4986 -1.7719
 4109SOL     OW23959   1.072   2.530   4.268 -0.5603 -0.0975 -0.0195
 4109SOL    HW123960   1.107   2.456   4.318 -0.4558 -0.3491 -0.4710
 4109SOL    HW223961   1.151   2.574   4.237 -1.8230  1.3125 -1.1994
 4110SOL     OW23962   0.535   2.760   2.700 -0.3072 -1.0169  0.5376
 4110SOL    HW123963   0.560   2.724   2.785 -0.3092 -0.4575  0.7764
 4110SOL    HW223964   0.440   2.750   2.703 -0.5270  0.3122 -2.0058
 4111SOL     OW23965   0.574   4.741  16.266  0.0822 -0.1132  0.9506
 4111SOL    HW123966   0.620   0.007  16.182  0.2403  1.5058  1.1912
 4111SOL    HW223967   0.590   4.650  16.289 -1.7563 -0.4655  0.8604
 4112SOL     OW23968   4.375   4.283  14.900 -0.4811 -0.5033 -0.3679
 4112SOL    HW123969   4.384   4.364  14.950 -0.1805 -0.9530  0.3054
 4112SOL    HW223970   4.363   4.327  14.816 -0.1776  0.8173  0.2760
 4113SOL     OW23971   2.130   1.744   1.633 -0.0295 -0.6034  0.0416
 4113SOL    HW123972   2.044   1.740   1.591 -0.6022  2.2000  0.9695
 4113SOL    HW223973   2.115   1.691   1.711 -0.9053 -0.5328 -0.0864
 4114SOL     OW23974   2.706   3.652   7.982  0.5488  0.4490 -0.3372
 4114SOL    HW123975   2.630   3.627   7.929  1.7133  0.9646 -2.2500
 4114SOL    HW223976   2.675   3.649   8.072 -1.7247  0.1683 -1.1273
 4115SOL     OW23977   4.035   3.405  11.831 -0.1528  0.2476  0.1570
 4115SOL    HW123978   3.952   3.422  11.875 -0.3220 -1.9509  0.7196
 4115SOL    HW223979   4.063   3.493  11.807  0.9837 -0.5342 -1.4004
 4116SOL     OW23980   3.323   0.849   4.780 -0.0845  0.3021  0.2279
 4116SOL    HW123981   3.251   0.786   4.787 -1.0479  1.1505 -1.8887
 4116SOL    HW223982   3.319   0.868   4.686  0.3030 -0.7692  0.0018
 4117SOL     OW23983   3.281   1.346   2.978  0.9637 -0.0929  0.3633
 4117SOL    HW123984   3.328   1.263   2.989 -0.8048 -1.0078  1.0650
 4117SOL    HW223985   3.207   1.310   2.930 -0.0708  1.2396  0.9720
 4118SOL     OW23986   0.031   3.997  13.888 -0.0278 -0.5639 -0.2363
 4118SOL    HW123987   0.056   4.041  13.806  1.5324  0.0134  0.5533
 4118SOL    HW223988   0.121   3.975  13.913  0.1074  0.8509  0.4693
 4119SOL     OW23989   2.058   3.940   8.136 -0.5924  0.8664 -0.3995
 4119SOL    HW123990   2.010   3.972   8.213 -0.1072 -0.9473  0.6819
 4119SOL    HW223991   2.144   3.973   8.160  0.0416 -0.2330 -1.1471
 4120SOL     OW23992   3.561   1.966   5.095  0.2393 -0.6619  0.0834
 4120SOL    HW123993   3.632   2.029   5.108 -2.4165  2.1983  0.6368
 4120SOL    HW223994   3.563   1.922   5.180  0.5825  1.5598  1.2442
 4121SOL     OW23995   2.173   2.414   2.699 -0.0313 -0.0041  0.1577
 4121SOL    HW123996   2.104   2.473   2.669  0.1216 -0.0545 -0.3070
 4121SOL    HW223997   2.164   2.433   2.792  0.6388 -0.8537  0.4041
 4122SOL     OW23998   2.756   1.056   6.086 -0.9187  0.6052  0.4024
 4122SOL    HW123999   2.724   1.046   6.176 -1.7197  1.2445  0.1929
 4122SOL    HW224000   2.732   1.146   6.065 -1.9917 -0.2815 -2.1044
 4123SOL     OW24001   4.220   1.527   2.501 -0.0216  0.4102 -0.1028
 4123SOL    HW124002   4.244   1.477   2.423 -0.1491  0.0817  0.0682
 4123SOL    HW224003   4.230   1.619   2.479  1.3414  0.7572  2.0721
 4124SOL     OW24004   1.190   0.627   8.151 -0.0232 -0.5272  0.2076
 4124SOL    HW124005   1.134   0.652   8.225  0.0675  0.4680 -0.0600
 4124SOL    HW224006   1.153   0.674   8.076  0.5849  0.8384  0.7633
 4125SOL     OW24007   2.794   0.896   6.749 -0.3920  0.3016  0.2079
 4125SOL    HW124008   2.728   0.887   6.818  0.9610  0.3531  1.5045
 4125SOL    HW224009   2.861   0.949   6.792  1.1057 -0.7330 -0.8526
 4126SOL     OW24010   0.412   3.949   3.094  0.5374  0.1076 -0.6990
 4126SOL    HW124011   0.463   3.951   3.176 -0.3101  0.0520 -0.1742
 4126SOL    HW224012   0.370   4.034   3.101  1.1734  0.2600  1.2643
 4127SOL     OW24013   1.523   2.630   2.114 -0.0659  0.7903  0.2339
 4127SOL    HW124014   1.431   2.613   2.094  0.1301 -1.2239  0.9852
 4127SOL    HW224015   1.566   2.544   2.118  0.8330  1.2505  0.3853
 4128SOL     OW24016   3.867   2.751   8.635  0.1567  0.4366  0.0920
 4128SOL    HW124017   3.940   2.810   8.615 -0.2961  1.1910  0.6959
 4128SOL    HW224018   3.861   2.752   8.730 -1.8832  1.5052 -0.0518
 4129SOL     OW24019   4.197   0.652   9.812 -0.0050  0.0658  0.5355
 4129SOL    HW124020   4.148   0.610   9.883 -0.1693 -0.7667 -0.0689
 4129SOL    HW224021   4.286   0.626   9.836 -0.4549 -2.2455 -0.3528
 4130SOL     OW24022   2.097   1.383  10.338 -0.5650  0.4458 -0.3438
 4130SOL    HW124023   2.038   1.401  10.411  0.8611  0.0479  0.9280
 4130SOL    HW224024   2.032   1.361  10.272  0.6534 -3.0550 -0.3660
 4131SOL     OW24025   2.906   1.545   6.492  0.1946 -0.1156  0.2498
 4131SOL    HW124026   2.977   1.609   6.490 -0.3687  0.4610 -1.0162
 4131SOL    HW224027   2.874   1.552   6.402 -0.3165  0.5798  0.4895
 4132SOL     OW24028   2.328   0.166   8.698  0.1143  0.2044 -0.1365
 4132SOL    HW124029   2.397   0.211   8.649  0.3308 -0.0309 -0.0440
 4132SOL    HW224030   2.380   0.131   8.770 -0.5070  0.5066  0.4598
 4133SOL     OW24031   2.438   4.395   3.599 -0.6129 -0.4785  0.4520
 4133SOL    HW124032   2.405   4.399   3.688 -2.9339 -0.4413 -0.4075
 4133SOL    HW224033   2.494   4.317   3.589  1.4323  1.0106  0.2441
 4134SOL     OW24034   1.340   2.623  16.901 -0.0487 -0.8566 -0.1059
 4134SOL    HW124035   1.333   2.695  16.839  3.6406 -2.3496 -2.2139
 4134SOL    HW224036   1.426   2.632  16.942 -1.1615  0.8350  1.8892
 4135SOL     OW24037   2.251   1.882   8.222 -0.1386 -0.0529  0.0116
 4135SOL    HW124038   2.227   1.790   8.214 -0.9356 -0.0585  2.4529
 4135SOL    HW224039   2.259   1.894   8.317  1.6163 -0.1668 -0.1242
 4136SOL     OW24040   0.195   1.669   2.961  0.0199  0.6512  0.0925
 4136SOL    HW124041   0.115   1.719   2.947 -1.2645 -1.2042  0.8522
 4136SOL    HW224042   0.202   1.672   3.056 -1.0225  1.6394  0.1325
 4137SOL     OW24043   0.038   3.776   0.965 -0.3042  0.2527  0.2566
 4137SOL    HW124044   0.103   3.820   1.020  0.7687  1.6301 -2.1013
 4137SOL    HW224045   0.094   3.753   0.891  2.3064  1.8954  1.6895
 4138SOL     OW24046   2.129   1.723   4.407  0.3736 -0.1467  0.5123
 4138SOL    HW124047   2.065   1.780   4.365 -0.1330 -0.2290  1.1930
 4138SOL    HW224048   2.204   1.730   4.347 -1.0149 -0.2564 -1.2227
 4139SOL     OW24049   0.429   3.723   5.773 -0.4482  0.0592 -0.5331
 4139SOL    HW124050   0.510   3.774   5.780 -1.6120  2.1766 -2.8478
 4139SOL    HW224051   0.433   3.684   5.685 -1.8656  0.1497 -0.6349
 4140SOL     OW24052   1.472   2.991   6.374  0.3265  0.1720 -0.5157
 4140SOL    HW124053   1.493   2.994   6.467  0.0610  0.7659 -0.4785
 4140SOL    HW224054   1.381   3.021   6.376  0.2281  0.0650 -3.7357
 4141SOL     OW24055   2.026   4.085  17.052 -0.3869  0.2548 -0.0210
 4141SOL    HW124056   1.967   4.105  16.980 -1.3044 -1.0195  0.3809
 4141SOL    HW224057   2.039   3.990  17.047 -0.5106  0.3284 -1.6572
 4142SOL     OW24058   3.250   0.588   5.789  0.2851  0.2386  0.5264
 4142SOL    HW124059   3.196   0.661   5.820  0.8589  0.9863 -0.2243
 4142SOL    HW224060   3.180   0.523   5.778 -2.5149  3.1172  1.4938
 4143SOL     OW24061   0.120   2.636  10.388 -0.1652 -0.4171 -0.2752
 4143SOL    HW124062   0.176   2.627  10.465  1.9467  1.3047 -1.5999
 4143SOL    HW224063   0.043   2.582  10.407 -1.9387  1.8977 -0.7628
 4144SOL     OW24064   4.298   4.713   0.265  0.7212 -0.0295 -0.1027
 4144SOL    HW124065   4.294   4.619   0.279 -0.6616 -0.0671 -0.6574
 4144SOL    HW224066   4.380   4.724   0.217  1.0490  2.0638  0.9557
 4145SOL     OW24067   3.050   0.388   9.232  0.4212 -0.2382  0.3562
 4145SOL    HW124068   3.087   0.453   9.291 -1.9041  0.1003  1.4320
 4145SOL    HW224069   3.114   0.317   9.242  1.2770  0.9608  3.5447
 4146SOL     OW24070   0.614   1.669   6.596 -0.6000  0.0860 -0.0379
 4146SOL    HW124071   0.608   1.601   6.664 -3.3217  0.8185  0.4531
 4146SOL    HW224072   0.523   1.663   6.567 -0.7736 -0.4975  0.6308
 4147SOL     OW24073   0.691   0.331   3.062 -0.5742 -0.9976  0.7141
 4147SOL    HW124074   0.685   0.347   2.968  1.2614 -3.1180  0.2332
 4147SOL    HW224075   0.785   0.334   3.077 -0.4074 -0.2987 -0.4495
 4148SOL     OW24076   2.448   3.916   1.277 -0.1550 -0.2222 -0.2535
 4148SOL    HW124077   2.506   3.842   1.258 -1.0019 -0.0394 -3.5173
 4148SOL    HW224078   2.480   3.984   1.219 -2.0540  0.6824 -0.2579
 4149SOL     OW24079   0.403   2.862   4.847 -0.0819  0.1127  0.4549
 4149SOL    HW124080   0.373   2.833   4.933 -0.4381 -0.5461  0.1117
 4149SOL    HW224081   0.331   2.829   4.793 -0.0343 -1.2127  1.1849
 4150SOL     OW24082   1.095   2.882   7.669  0.6981  0.3851 -0.0517
 4150SOL    HW124083   1.050   2.798   7.659  0.6280  0.6120 -1.5250
 4150SOL    HW224084   1.186   2.852   7.665  1.2943  2.3681 -1.1571
 4151SOL     OW24085   3.952   0.770  16.309  0.3084  0.1781  0.3027
 4151SOL    HW124086   4.022   0.799  16.368  2.6000 -1.8519 -1.4262
 4151SOL    HW224087   3.882   0.829  16.337 -1.2814 -0.6825 -1.8510
 4152SOL     OW24088   2.690   0.775   1.506 -0.3678  0.7252 -0.5013
 4152SOL    HW124089   2.655   0.687   1.497  0.3853  0.4041 -0.3371
 4152SOL    HW224090   2.785   0.760   1.499 -0.1999  2.3049 -1.5730
 4153SOL     OW24091   4.592   0.406   4.298  0.1094 -0.2041  0.4232
 4153SOL    HW124092   4.564   0.339   4.236 -0.2667 -0.8772  1.3234
 4153SOL    HW224093   4.563   0.485   4.253  0.0740  0.2918  1.3038
 4154SOL     OW24094   1.199   4.051   2.802  0.4402 -0.3717  0.2490
 4154SOL    HW124095   1.272   3.995   2.776 -0.0849 -0.0954 -1.8208
 4154SOL    HW224096   1.133   3.988   2.773 -0.4118  0.0256  1.3578
 4155SOL     OW24097   2.490   3.329   4.541 -0.2253 -0.6844 -0.3634
 4155SOL    HW124098   2.550   3.404   4.533 -1.3204  0.2205 -0.1546
 4155SOL    HW224099   2.407   3.367   4.571  1.0634  0.3420  1.9620
 4156SOL     OW24100   1.472   4.383   3.336 -0.1707  0.4509  0.0019
 4156SOL    HW124101   1.398   4.367   3.277 -0.0269  1.8618 -0.5542
 4156SOL    HW224102   1.532   4.314   3.309 -0.4792 -0.1980  0.9830
 4157SOL     OW24103   3.755   2.002  15.249 -0.2656  0.1528 -0.5519
 4157SOL    HW124104   3.808   2.039  15.178 -0.5704 -0.9770 -1.3630
 4157SOL    HW224105   3.783   1.912  15.234 -1.3780 -0.2362 -0.2937
 4158SOL     OW24106   0.151   2.912   5.167 -0.6162  0.2749 -0.4575
 4158SOL    HW124107   0.095   2.943   5.095 -1.2046  1.3752  0.4652
 4158SOL    HW224108   0.123   2.964   5.242 -1.4697  0.2364 -0.7392
 4159SOL     OW24109   4.131   0.061  17.697 -0.2379  0.6879 -0.6319
 4159SOL    HW124110   4.063   4.737  17.683  0.2603 -0.4390  2.3320
 4159SOL    HW224111   4.212   0.037  17.651  0.0923  0.4596  0.0726
 4160SOL     OW24112   4.240   1.671  13.317  0.4112  0.2591 -0.7765
 4160SOL    HW124113   4.163   1.692  13.265 -0.0454  1.7293  0.4837
 4160SOL    HW224114   4.249   1.581  13.285  0.2817  0.2865 -0.8852
 4161SOL     OW24115   3.218   1.664  17.252 -0.6697 -0.4213 -0.3993
 4161SOL    HW124116   3.165   1.593  17.288  2.2443 -2.1768  0.3932
 4161SOL    HW224117   3.169   1.688  17.173  0.3607  0.6913 -0.7001
 4162SOL     OW24118   2.066   0.477  14.735 -0.5198  0.3254 -0.3672
 4162SOL    HW124119   2.103   0.415  14.671 -2.4134 -1.3474  0.1490
 4162SOL    HW224120   1.982   0.498  14.695 -1.2472  0.0497  1.0186
 4163SOL     OW24121   4.068   2.935   3.711  0.0074  0.0340  0.1812
 4163SOL    HW124122   3.983   2.901   3.684  0.0218  0.3615 -0.2643
 4163SOL    HW224123   4.131   2.864   3.701 -0.6071 -0.3454 -0.8677
 4164SOL     OW24124   4.016   0.275   4.498  0.3779 -0.1448  0.1582
 4164SOL    HW124125   4.093   0.326   4.522  0.3582  0.8032 -1.8549
 4164SOL    HW224126   4.067   0.215   4.442 -1.0846 -0.4700 -0.8158
 4165SOL     OW24127   4.695   0.587  13.281  0.2444 -0.3276  0.3664
 4165SOL    HW124128   4.713   0.657  13.343  0.8187  0.4944 -0.7328
 4165SOL    HW224129   4.622   0.620  13.227 -1.0507  0.1504  2.4330
 4166SOL     OW24130   0.697   1.405   6.181 -0.1041  0.0352 -0.1467
 4166SOL    HW124131   0.792   1.416   6.171  0.1194 -1.0799  0.8748
 4166SOL    HW224132   0.694   1.311   6.196  0.7465 -0.2256 -1.6323
 4167SOL     OW24133   3.429   0.208   5.126  0.1308 -0.0961 -0.2327
 4167SOL    HW124134   3.406   0.298   5.151 -0.6695 -0.6414  0.9856
 4167SOL    HW224135   3.375   0.192   5.049 -0.6408 -0.9247  0.4877
 4168SOL     OW24136   4.573   4.275   7.059  0.6268 -0.1028 -0.5175
 4168SOL    HW124137   4.641   4.339   7.037 -0.9849  1.3252 -1.2269
 4168SOL    HW224138   4.514   4.322   7.117  1.0200  0.8245 -0.8670
 4169SOL     OW24139   1.213   1.870   4.513  0.3209  0.3262 -0.0226
 4169SOL    HW124140   1.241   1.779   4.500  2.5689  1.2729 -1.6422
 4169SOL    HW224141   1.119   1.852   4.522  0.4323 -0.6449 -0.7171
 4170SOL     OW24142   4.499   2.688   0.730 -0.0410  0.4797  0.0517
 4170SOL    HW124143   4.432   2.666   0.665 -0.8902 -2.0712  1.7978
 4170SOL    HW224144   4.454   2.648   0.804  1.0687 -1.7013 -0.4720
 4171SOL     OW24145   1.046   4.432  11.056 -0.0119 -0.6450 -0.5714
 4171SOL    HW124146   1.047   4.480  11.140  0.0908  0.7659 -1.3751
 4171SOL    HW224147   1.135   4.400  11.045 -0.5722 -2.2005 -0.4961
 4172SOL     OW24148   1.793   0.553   2.955  0.0635 -0.2708 -0.3143
 4172SOL    HW124149   1.859   0.511   3.010  1.2455  0.8363 -0.8965
 4172SOL    HW224150   1.734   0.589   3.021 -1.2205 -1.5470 -0.7787
 4173SOL     OW24151   4.096   0.600  13.354  0.6759 -0.5828  0.1318
 4173SOL    HW124152   4.029   0.667  13.340 -0.8274 -2.4566 -1.5681
 4173SOL    HW224153   4.157   0.631  13.287 -1.2327  0.4032 -1.1463
 4174SOL     OW24154   1.775   2.249   7.148  0.6934  0.0689  0.6103
 4174SOL    HW124155   1.791   2.207   7.232  0.0897 -1.6473 -0.1352
 4174SOL    HW224156   1.855   2.302   7.141  0.1560  0.5330 -2.0368
 4175SOL     OW24157   4.123   2.634   6.353  0.0899  0.1688  0.2386
 4175SOL    HW124158   4.054   2.696   6.333  0.8903  1.3669  1.1645
 4175SOL    HW224159   4.165   2.619   6.268 -2.3231  3.5997 -1.5594
 4176SOL     OW24160   0.106   4.734  15.064 -0.2683  0.4812 -0.2463
 4176SOL    HW124161   0.152   0.067  15.104 -0.3237 -0.2496  1.1938
 4176SOL    HW224162   0.177   4.676  15.035 -1.5430 -0.7561 -0.8596
 4177SOL     OW24163   2.447   1.187   8.651 -0.4043  0.3490  0.2078
 4177SOL    HW124164   2.389   1.207   8.578 -2.1149 -2.5698  0.7590
 4177SOL    HW224165   2.452   1.270   8.698 -0.6050 -0.5276  1.7503
 4178SOL     OW24166   0.358   4.048  16.196  0.2707  0.1617  0.1273
 4178SOL    HW124167   0.280   4.017  16.241 -0.5151  1.0719 -0.6136
 4178SOL    HW224168   0.318   4.104  16.129 -0.9146 -0.1115  0.6273
 4179SOL     OW24169   3.594   1.336   5.677  0.1986  0.0457 -0.2163
 4179SOL    HW124170   3.562   1.310   5.590 -1.4321 -2.7067  1.1859
 4179SOL    HW224171   3.544   1.276   5.733 -0.4216  0.1494 -0.6565
 4180SOL     OW24172   3.759   4.403   4.419  0.4601  0.2081  0.4769
 4180SOL    HW124173   3.772   4.399   4.324 -1.4171 -1.7619  0.3139
 4180SOL    HW224174   3.827   4.467   4.440 -0.4632  1.2274  0.3212
 4181SOL     OW24175   4.199   1.411  10.601  0.0745 -0.3716 -0.5889
 4181SOL    HW124176   4.230   1.443  10.686  1.4322 -2.0904 -0.4342
 4181SOL    HW224177   4.110   1.387  10.624  0.6229  1.3653  3.4073
 4182SOL     OW24178   1.786   2.493   5.871 -0.7039 -0.1150  0.0770
 4182SOL    HW124179   1.811   2.584   5.855 -1.1175 -0.3390 -1.7891
 4182SOL    HW224180   1.733   2.462   5.799 -0.6073 -1.6196  0.6491
 4183SOL     OW24181   1.097   2.795   6.198  0.0487 -0.6152 -0.0351
 4183SOL    HW124182   1.051   2.775   6.116  2.0183  0.8713 -1.4978
 4183SOL    HW224183   1.025   2.830   6.251 -1.2463 -0.3348 -1.9784
 4184SOL     OW24184   1.997   2.169   5.664  0.1694 -0.0999 -0.1447
 4184SOL    HW124185   1.905   2.190   5.655  0.3873 -0.6007 -3.4334
 4184SOL    HW224186   2.014   2.103   5.597  1.0258 -1.2089  1.1445
 4185SOL     OW24187   0.099   3.998   5.287 -0.6492  0.1374 -0.5910
 4185SOL    HW124188   0.072   4.051   5.362  0.3710  2.0719 -1.6105
 4185SOL    HW224189   0.157   3.933   5.326  0.3161  2.1199  1.3040
 4186SOL     OW24190   3.246   1.088   9.604 -0.5883 -0.3377 -0.4606
 4186SOL    HW124191   3.328   1.063   9.562  0.8005  3.1164  0.1713
 4186SOL    HW224192   3.254   1.046   9.690 -3.6893 -2.9401 -1.4470
 4187SOL     OW24193   2.242   4.708   6.070 -0.0141  0.0535 -0.0310
 4187SOL    HW124194   2.195   0.001   6.146 -0.2993  2.4397 -1.2803
 4187SOL    HW224195   2.185   0.001   6.002 -2.0962 -2.9411  0.2347
 4188SOL     OW24196   1.109   2.603   4.712 -0.3874 -0.5674  0.6756
 4188SOL    HW124197   1.142   2.542   4.646 -1.4406 -0.5386  0.1246
 4188SOL    HW224198   1.015   2.585   4.706 -0.5520  0.2601  0.7484
 4189SOL     OW24199   1.498   0.593  12.753  0.3121 -0.0720  0.3898
 4189SOL    HW124200   1.540   0.603  12.667 -1.2211  0.9465 -0.2481
 4189SOL    HW224201   1.409   0.611  12.724  1.2790  1.5044 -1.5816
 4190SOL     OW24202   2.877   1.304   6.848  0.4947  0.2641  1.0499
 4190SOL    HW124203   2.909   1.343   6.767 -0.9185  0.2982  0.5032
 4190SOL    HW224204   2.874   1.379   6.908  3.2002  0.8362  0.4494
 4191SOL     OW24205   2.382   4.411   0.648 -0.4973 -0.3715 -0.2008
 4191SOL    HW124206   2.318   4.482   0.638  2.0499  2.1476  1.5535
 4191SOL    HW224207   2.444   4.445   0.713 -2.2481 -2.2198  2.4278
 4192SOL     OW24208   2.699   1.313   0.649 -0.4308  0.3520  0.2047
 4192SOL    HW124209   2.773   1.312   0.710  0.0977  0.0225 -0.4370
 4192SOL    HW224210   2.660   1.394   0.683 -0.4025 -0.0877  1.3032
 4193SOL     OW24211   2.563   2.333   6.731  0.0217  0.2881 -0.2786
 4193SOL    HW124212   2.495   2.268   6.752  1.7077 -0.6231  2.3459
 4193SOL    HW224213   2.637   2.278   6.706  1.0127  0.9291  1.2785
 4194SOL     OW24214   2.462   0.947   6.697  0.1622 -0.0110 -0.0481
 4194SOL    HW124215   2.451   0.897   6.778 -0.6308  0.8293  0.3532
 4194SOL    HW224216   2.520   1.019   6.719 -1.5984  1.9279 -1.7472
 4195SOL     OW24217   4.616   2.593  10.995 -0.1358 -0.4787  0.0380
 4195SOL    HW124218   4.633   2.680  11.031 -1.3817 -0.7919  1.3836
 4195SOL    HW224219   4.614   2.549  11.080  0.4588 -3.1288 -1.3202
 4196SOL     OW24220   0.766   1.211   8.218  0.1365 -0.6516 -0.3297
 4196SOL    HW124221   0.813   1.292   8.239 -0.4804 -0.6411  1.0459
 4196SOL    HW224222   0.844   1.159   8.197  1.7258  1.5523  0.1573
 4197SOL     OW24223   0.073   4.727  13.961 -0.0161  0.0153  0.0983
 4197SOL    HW124224   0.149   4.674  13.985 -0.4454 -0.4909  0.3218
 4197SOL    HW224225   0.023   4.735  14.043  0.6908 -2.1991  0.7338
 4198SOL     OW24226   0.366   0.844   6.618 -0.2815  0.3005  0.5215
 4198SOL    HW124227   0.333   0.871   6.703  0.2566 -0.4021  0.9572
 4198SOL    HW224228   0.304   0.773   6.602  1.1094 -0.7030 -0.4215
 4199SOL     OW24229   2.070   3.750  11.821 -0.2928  0.1322  0.4237
 4199SOL    HW124230   2.072   3.683  11.890 -0.2440 -1.8395 -1.5141
 4199SOL    HW224231   2.048   3.691  11.749  1.1000 -2.2648  1.9607
 4200SOL     OW24232   4.165   0.642  15.284  0.4199 -0.4036 -0.0987
 4200SOL    HW124233   4.258   0.647  15.308 -0.1507 -0.8630  2.1490
 4200SOL    HW224234   4.126   0.712  15.335  0.2211  0.7224 -1.8124
 4201SOL     OW24235   3.469   0.205  11.351  0.5011  0.0536  0.1169
 4201SOL    HW124236   3.503   0.129  11.304 -0.3702  0.2264 -0.7901
 4201SOL    HW224237   3.397   0.234  11.295  0.8226  2.1936  0.8330
 4202SOL     OW24238   2.333   3.158   0.780  0.1749 -0.5122  0.0643
 4202SOL    HW124239   2.334   3.213   0.858  0.5824 -0.3764 -0.0342
 4202SOL    HW224240   2.424   3.163   0.749  0.2227 -0.2172  0.2486
 4203SOL     OW24241   1.723   1.424   9.393 -0.4208 -0.5804 -0.0694
 4203SOL    HW124242   1.726   1.477   9.472 -0.0875 -0.4834 -0.1473
 4203SOL    HW224243   1.779   1.479   9.338  0.4481 -1.9439 -0.5787
 4204SOL     OW24244   1.585   0.187   9.283  0.4740 -0.0894 -0.0449
 4204SOL    HW124245   1.615   0.101   9.252  1.2068 -0.1412  0.8041
 4204SOL    HW224246   1.596   0.172   9.377 -0.5048 -2.2145 -0.2493
 4205SOL     OW24247   3.487   4.412   8.722  0.1171 -0.1886  0.5691
 4205SOL    HW124248   3.395   4.437   8.711  0.0595  0.0393  1.6080
 4205SOL    HW224249   3.501   4.459   8.804  1.3283  0.0839  0.2101
 4206SOL     OW24250   4.448   0.765   1.838  0.4505 -0.2884  0.3438
 4206SOL    HW124251   4.493   0.849   1.822 -3.3207  1.7901  0.5712
 4206SOL    HW224252   4.524   0.719   1.873 -1.2910 -5.3662 -2.5210
 4207SOL     OW24253   4.296   1.283   5.384 -0.4360  0.0900 -0.1312
 4207SOL    HW124254   4.378   1.265   5.339  0.3804  0.5955  1.1548
 4207SOL    HW224255   4.313   1.371   5.417 -0.1394 -0.0342  0.0470
 4208SOL     OW24256   3.338   2.566   8.856 -0.9160 -0.5216  0.7109
 4208SOL    HW124257   3.317   2.658   8.842  1.9648  0.1112  0.6781
 4208SOL    HW224258   3.432   2.573   8.840 -0.8465 -0.5024  1.1392
 4209SOL     OW24259   4.013   4.499   2.646  0.3163 -0.3248 -0.1476
 4209SOL    HW124260   3.946   4.560   2.676 -0.3185 -1.0474 -0.1182
 4209SOL    HW224261   4.007   4.504   2.550 -0.3341  0.5053 -0.0652
 4210SOL     OW24262   0.440   4.223   3.749  0.6761  0.7924 -0.1248
 4210SOL    HW124263   0.346   4.204   3.747  1.0880 -1.3797  0.2293
 4210SOL    HW224264   0.473   4.175   3.673 -1.1297 -1.4818  0.4958
 4211SOL     OW24265   0.090   2.762   3.259  0.2391  0.1468  0.2270
 4211SOL    HW124266   0.079   2.788   3.351  2.0368 -1.6606  0.9522
 4211SOL    HW224267   0.129   2.841   3.222  0.2726 -0.6435 -1.4216
 4212SOL     OW24268   1.586   1.883   7.061 -0.1440 -0.0256  0.6718
 4212SOL    HW124269   1.542   1.902   7.144  0.5146 -1.8253  1.4363
 4212SOL    HW224270   1.597   1.971   7.024  1.2867 -1.2744 -1.8688
 4213SOL     OW24271   3.012   2.208   7.351 -0.3278  1.1318  0.2770
 4213SOL    HW124272   3.039   2.271   7.284  0.0373  2.3041  1.5375
 4213SOL    HW224273   2.971   2.257   7.422  1.2629  0.4219  1.6613
 4214SOL     OW24274   2.862   2.384   8.566 -0.5645 -0.3267  0.0350
 4214SOL    HW124275   2.773   2.382   8.600  0.3198 -0.1162  2.3607
 4214SOL    HW224276   2.858   2.470   8.523 -1.0805 -0.0287  0.6680
 4215SOL     OW24277   3.695   3.669   2.107  0.0910 -0.2100 -0.0820
 4215SOL    HW124278   3.642   3.622   2.042 -0.3567  0.0730  0.0826
 4215SOL    HW224279   3.707   3.753   2.062  1.1002  0.1448  0.8592
 4216SOL     OW24280   1.666   0.635  10.743 -0.1754  0.2455 -0.6600
 4216SOL    HW124281   1.750   0.593  10.728  0.1789  0.8733 -0.4190
 4216SOL    HW224282   1.691   0.722  10.712 -0.5796  0.2715 -0.9263
 4217SOL     OW24283   2.685   2.031   3.125 -0.2278  0.0142  0.1585
 4217SOL    HW124284   2.683   2.122   3.093  0.1644 -1.1595 -3.2532
 4217SOL    HW224285   2.666   1.990   3.040 -1.3740  0.0569  0.3940
 4218SOL     OW24286   3.507   0.074   6.777 -0.1009  0.1410 -0.0892
 4218SOL    HW124287   3.563   4.740   6.795 -0.8782 -0.9299 -2.1885
 4218SOL    HW224288   3.571   0.142   6.799  0.2458 -0.7552  1.7042
 4219SOL     OW24289   0.445   1.000   8.800 -0.5647 -0.3088 -0.2409
 4219SOL    HW124290   0.513   0.974   8.738 -0.8355 -0.5538 -0.4352
 4219SOL    HW224291   0.493   1.001   8.882 -1.4403 -1.8413  0.2714
 4220SOL     OW24292   1.052   3.966   3.779  0.1252  0.2741  0.5037
 4220SOL    HW124293   1.049   4.021   3.858  0.8343 -2.2368  2.2634
 4220SOL    HW224294   1.062   3.880   3.819 -0.5114 -0.2629 -0.4883
 4221SOL     OW24295   1.496   0.539  12.060  0.1205  0.1502  0.9257
 4221SOL    HW124296   1.451   0.535  12.145  0.2508  0.2940  1.0025
 4221SOL    HW224297   1.432   0.579  12.001  1.0120 -1.3746 -1.0688
 4222SOL     OW24298   2.095   0.686   6.495  0.2702  0.3697 -0.4483
 4222SOL    HW124299   2.186   0.714   6.504  0.0071  1.2565 -0.5551
 4222SOL    HW224300   2.053   0.763   6.531  0.5946  0.9323 -1.2687
 4223SOL     OW24301   1.729   0.704   3.205 -0.5982  0.9639 -0.3835
 4223SOL    HW124302   1.802   0.738   3.256  0.5716 -1.8333 -0.1570
 4223SOL    HW224303   1.706   0.633   3.265  1.4289  0.0732 -0.6559
 4224SOL     OW24304   1.347   1.087  13.612  0.0428  0.2112  0.3269
 4224SOL    HW124305   1.327   1.178  13.638  1.3424  0.2262  1.3016
 4224SOL    HW224306   1.333   1.097  13.518  1.3768 -0.1022  0.0986
 4225SOL     OW24307   2.263   2.993   7.091 -0.5861 -0.3656  0.3967
 4225SOL    HW124308   2.302   2.940   7.160  2.4814  1.4619  0.0462
 4225SOL    HW224309   2.291   2.951   7.010 -0.2652  3.3826 -1.4382
 4226SOL     OW24310   0.911   4.359   3.572 -0.3289  0.2664  0.6191
 4226SOL    HW124311   0.831   4.413   3.578 -0.7603 -0.3271  0.2216
 4226SOL    HW224312   0.925   4.350   3.478 -0.7654 -0.9458  0.6681
 4227SOL     OW24313   0.221   4.629   7.949 -0.1661  0.2848 -0.1348
 4227SOL    HW124314   0.266   4.708   7.919 -3.8303  1.9220 -1.4234
 4227SOL    HW224315   0.273   4.559   7.910 -1.6025 -2.1344  2.3157
 4228SOL     OW24316   0.787   1.350   7.179 -0.5081  0.0972  0.3454
 4228SOL    HW124317   0.780   1.391   7.092  1.2230  0.0476  0.1688
 4228SOL    HW224318   0.882   1.341   7.184 -0.7297 -2.9932 -0.9583
 4229SOL     OW24319   2.081   1.365   2.987  0.6328  0.0932  0.3856
 4229SOL    HW124320   1.997   1.320   2.987  0.9557 -0.5114  4.0512
 4229SOL    HW224321   2.049   1.442   3.034 -1.5560 -1.4832  1.4412
 4230SOL     OW24322   4.595   0.318  10.132  0.0413  0.1233  0.2148
 4230SOL    HW124323   4.570   0.341  10.222  0.3038 -0.1766  0.3682
 4230SOL    HW224324   4.648   0.396  10.115 -0.9351  0.8942  0.7069
 4231SOL     OW24325   3.768   4.571   8.684 -0.0957  0.1889  0.0038
 4231SOL    HW124326   3.730   4.648   8.643 -0.1110  0.2932  0.2153
 4231SOL    HW224327   3.733   4.500   8.631  0.1978 -0.3588  0.5338
 4232SOL     OW24328   2.724   1.976   1.473  0.4902  0.3061 -0.0769
 4232SOL    HW124329   2.797   2.008   1.526 -0.0709 -1.0619  1.5192
 4232SOL    HW224330   2.646   1.992   1.526  1.3236  1.8700  0.6710
 4233SOL     OW24331   3.104   4.262   6.786  0.3933  0.0649 -0.2746
 4233SOL    HW124332   3.191   4.273   6.749  1.7328  0.2409  2.8917
 4233SOL    HW224333   3.049   4.315   6.729 -1.6609 -2.8039 -0.9819
 4234SOL     OW24334   4.126   4.607   5.352 -0.4259  0.6038  0.9768
 4234SOL    HW124335   4.103   4.515   5.340  1.0855  0.3265  0.1068
 4234SOL    HW224336   4.161   4.608   5.263 -1.3988 -0.4926  0.5877
 4235SOL     OW24337   3.065   1.928   3.918 -0.1036 -0.3703 -0.0845
 4235SOL    HW124338   3.113   1.970   3.847  0.5655  2.6586  2.1598
 4235SOL    HW224339   3.077   2.002   3.977  1.1470 -1.3119  0.8468
 4236SOL     OW24340   1.631   1.203   8.212 -0.8193 -0.1733 -0.2780
 4236SOL    HW124341   1.629   1.288   8.256  0.3008 -0.9933  1.3615
 4236SOL    HW224342   1.609   1.223   8.121 -0.9264 -0.1596 -0.2489
 4237SOL     OW24343   2.610   0.975   6.323 -0.0537 -0.4984 -0.1421
 4237SOL    HW124344   2.569   0.918   6.259 -0.6652 -0.6043  0.3463
 4237SOL    HW224345   2.534   1.032   6.327  1.0254  0.8940  0.8510
 4238SOL     OW24346   2.369   0.715   2.763  0.2069  0.0832 -0.1467
 4238SOL    HW124347   2.351   0.808   2.747 -3.6914 -0.7933 -0.8833
 4238SOL    HW224348   2.464   0.726   2.759  0.3783 -2.4347 -2.4193
 4239SOL     OW24349   3.420   4.202   1.830 -0.0641  0.2421 -0.0243
 4239SOL    HW124350   3.424   4.165   1.742 -0.2002  0.6668 -0.2057
 4239SOL    HW224351   3.345   4.260   1.826  0.5229  0.8269 -2.3557
 4240SOL     OW24352   2.375   3.273  11.180 -0.1105  0.4739 -0.0407
 4240SOL    HW124353   2.413   3.360  11.185 -0.1198  0.3264  2.2785
 4240SOL    HW224354   2.434   3.253  11.108 -0.1762  0.1730 -0.0103
 4241SOL     OW24355   0.931   1.500   4.742  0.6812  0.1309 -0.3909
 4241SOL    HW124356   0.877   1.494   4.821 -0.2384 -1.7637 -1.1648
 4241SOL    HW224357   1.002   1.438   4.759  2.1024  2.0080  0.4818
 4242SOL     OW24358   0.698   0.188   6.941 -0.0372  0.3356 -0.2356
 4242SOL    HW124359   0.633   0.211   7.007  0.0639 -0.5566  0.1826
 4242SOL    HW224360   0.644   0.119   6.901  0.1067 -1.1306  2.1095
 4243SOL     OW24361   0.879   4.515   1.134 -0.0954  0.0286 -0.1838
 4243SOL    HW124362   0.879   4.431   1.180 -1.9338 -1.1217 -2.2698
 4243SOL    HW224363   0.936   4.496   1.060  0.5242  0.3993  0.1993
 4244SOL     OW24364   0.734   2.388   7.928  0.5577  0.2937  0.0417
 4244SOL    HW124365   0.709   2.369   7.837  1.1072  0.5473 -0.1655
 4244SOL    HW224366   0.718   2.482   7.937  1.9615  0.4876  0.5370
 4245SOL     OW24367   0.719   3.154   8.632 -0.2001  0.3220  0.6952
 4245SOL    HW124368   0.720   3.237   8.585 -0.1839 -1.8411 -3.0891
 4245SOL    HW224369   0.794   3.169   8.689  2.1796 -1.2956 -2.0290
 4246SOL     OW24370   1.809   1.315   9.734  0.0112  0.2215  0.0006
 4246SOL    HW124371   1.841   1.404   9.745  0.2758  0.0783  0.3720
 4246SOL    HW224372   1.719   1.344   9.721  0.2866  1.3238  0.5706
 4247SOL     OW24373   1.053   0.967   8.408 -0.4058  0.2752 -0.3153
 4247SOL    HW124374   1.022   1.049   8.447 -0.6029 -0.1316  0.3813
 4247SOL    HW224375   1.123   0.994   8.349 -0.2421  0.1328 -0.1849
 4248SOL     OW24376   3.200   4.008   7.489 -0.0791  0.8186 -0.7081
 4248SOL    HW124377   3.151   4.031   7.409 -2.2072 -0.4968  0.2092
 4248SOL    HW224378   3.272   3.959   7.450  1.2000  2.6302 -0.5833
 4249SOL     OW24379   4.573   0.347   8.584  0.7095 -0.2441 -0.4584
 4249SOL    HW124380   4.603   0.324   8.672 -3.3266  0.2279  1.0222
 4249SOL    HW224381   4.535   0.263   8.559 -0.9833 -0.3492  2.5515
 4250SOL     OW24382   1.186   1.950   1.687  0.6169 -0.1642 -0.0699
 4250SOL    HW124383   1.193   2.009   1.762  2.4527  2.4216 -2.2402
 4250SOL    HW224384   1.141   1.873   1.720 -3.6598  4.0273  3.8623
 4251SOL     OW24385   1.967   3.295   3.330 -0.2490 -0.2605  0.4403
 4251SOL    HW124386   1.936   3.355   3.398 -3.5310  1.3118 -2.4470
 4251SOL    HW224387   1.890   3.238   3.322 -1.5941  1.4904  0.8603
 4252SOL     OW24388   2.662   4.276   4.467  0.1178  0.1992 -0.1441
 4252SOL    HW124389   2.655   4.213   4.395 -0.6074  0.1550 -0.0319
 4252SOL    HW224390   2.691   4.352   4.417 -1.2623  0.5898 -0.3447
 4253SOL     OW24391   1.699   1.932   4.401 -0.6065 -0.0828 -0.0251
 4253SOL    HW124392   1.762   2.003   4.391 -0.2376 -0.7494 -2.3113
 4253SOL    HW224393   1.655   1.965   4.480  2.1067 -0.4538  1.6350
 4254SOL     OW24394   3.533   0.273   3.683 -0.0939  0.1101  0.1550
 4254SOL    HW124395   3.610   0.218   3.701  0.6766  0.0460 -3.2655
 4254SOL    HW224396   3.521   0.256   3.590  2.7462 -1.5114  0.0913
 4255SOL     OW24397   1.386   1.770   0.663 -0.0714 -0.3366 -0.3718
 4255SOL    HW124398   1.386   1.793   0.756  0.2985 -3.2907  0.3814
 4255SOL    HW224399   1.466   1.718   0.656  0.5601  0.6912 -0.7414
 4256SOL     OW24400   3.427   4.073   3.252 -0.4522  0.1862 -0.2176
 4256SOL    HW124401   3.346   4.083   3.302 -1.2469  0.6829 -1.5895
 4256SOL    HW224402   3.487   4.032   3.315 -1.3347  0.9365  1.0995
 4257SOL     OW24403   1.747   2.579   7.779 -0.1360 -1.3065  0.0854
 4257SOL    HW124404   1.832   2.547   7.811  0.1609 -1.2406 -0.6239
 4257SOL    HW224405   1.713   2.605   7.865 -0.3095  1.9187 -0.9360
 4258SOL     OW24406   0.869   0.285   0.848  0.5359 -0.6276  0.4311
 4258SOL    HW124407   0.828   0.318   0.769  1.9385 -0.0990 -0.0794
 4258SOL    HW224408   0.913   0.364   0.879 -0.6263  0.0867  0.2651
 4259SOL     OW24409   0.674   4.646   6.464  0.1782 -0.1693  0.3138
 4259SOL    HW124410   0.647   4.566   6.508  1.0722  0.0976  1.3494
 4259SOL    HW224411   0.658   4.621   6.373  0.7152 -2.7152  0.9352
 4260SOL     OW24412   4.648   2.421  15.579  0.0993 -0.3029  0.0663
 4260SOL    HW124413   4.626   2.371  15.501  1.5078  1.5565 -1.5389
 4260SOL    HW224414   4.666   2.509  15.545  0.5279 -1.0807 -1.6742
 4261SOL     OW24415   3.233   0.538   2.420  0.3100  0.2846  0.5155
 4261SOL    HW124416   3.233   0.567   2.511  1.9083 -1.9139  1.1894
 4261SOL    HW224417   3.152   0.488   2.413  0.2684  0.5221 -0.6539
 4262SOL     OW24418   1.334   1.077   3.327  0.0886  0.3751 -0.1899
 4262SOL    HW124419   1.293   1.101   3.410  1.6641 -1.0752  1.0136
 4262SOL    HW224420   1.256   1.068   3.271 -0.1115 -2.1304  0.4704
 4263SOL     OW24421   1.398   4.267  15.292 -0.5760  0.4110  0.0111
 4263SOL    HW124422   1.333   4.333  15.268 -1.6051  0.2239  2.3619
 4263SOL    HW224423   1.422   4.226  15.208 -0.4682 -2.5387  1.4860
 4264SOL     OW24424   3.602   0.100   3.213 -0.4083  0.4696 -0.1010
 4264SOL    HW124425   3.637   0.068   3.296 -0.0187 -0.1458 -0.5084
 4264SOL    HW224426   3.551   0.177   3.240 -1.2329  0.2057 -0.9021
 4265SOL     OW24427   2.415   4.741   4.322 -0.1890 -0.3058  0.3837
 4265SOL    HW124428   2.463   0.031   4.399  1.1183 -1.1273 -0.0987
 4265SOL    HW224429   2.440   4.649   4.329 -0.8109 -0.3881  1.5929
 4266SOL     OW24430   4.288   1.463   2.224 -0.1418 -0.8613 -0.4997
 4266SOL    HW124431   4.328   1.377   2.229  0.6731 -0.4233  0.5428
 4266SOL    HW224432   4.323   1.503   2.144 -1.8859  3.4137  0.8312
 4267SOL     OW24433   1.972   1.414  11.895 -0.7895 -0.4747 -0.3852
 4267SOL    HW124434   2.007   1.440  11.980  2.9576  0.4118 -2.1848
 4267SOL    HW224435   2.049   1.405  11.838 -0.2782 -3.0558  0.7116
 4268SOL     OW24436   1.218   4.331  16.365 -0.4350 -0.3229  0.3446
 4268SOL    HW124437   1.252   4.257  16.415  0.3132  0.4941  1.0625
 4268SOL    HW224438   1.163   4.281  16.305 -0.3841 -0.0522  0.0712
 4269SOL     OW24439   3.133   4.199   6.271  0.5738  0.1243 -0.2791
 4269SOL    HW124440   3.131   4.160   6.183  2.5562  1.7854 -1.0788
 4269SOL    HW224441   3.199   4.146   6.313  2.2414  0.9760 -1.8186
 4270SOL     OW24442   0.151   2.764   4.769 -0.0743  0.0029 -0.0383
 4270SOL    HW124443   0.080   2.727   4.822 -0.0831  0.3576  0.2004
 4270SOL    HW224444   0.108   2.841   4.730 -2.0338 -2.0547 -1.9018
 4271SOL     OW24445   2.874   0.239   1.838  0.3053 -1.2143 -0.1595
 4271SOL    HW124446   2.957   0.285   1.823 -0.2933 -0.5851 -1.6393
 4271SOL    HW224447   2.836   0.308   1.892 -2.1817 -2.1921 -0.6874
 4272SOL     OW24448   4.240   2.760   2.057 -0.1037 -0.8843 -0.0436
 4272SOL    HW124449   4.259   2.745   2.149 -1.1482 -0.1495  0.2985
 4272SOL    HW224450   4.274   2.679   2.020  0.4938 -0.2747 -0.8443
 4273SOL     OW24451   1.601   0.886   4.945 -0.4797 -0.1591 -0.2328
 4273SOL    HW124452   1.634   0.866   4.857 -0.8273 -2.7101  0.2162
 4273SOL    HW224453   1.529   0.939   4.911 -2.2986 -1.8785  0.9633
 4274SOL     OW24454   4.611   1.964   3.957 -0.2166 -0.4050  0.2201
 4274SOL    HW124455   4.646   1.934   3.873  0.8406  2.3200 -0.3267
 4274SOL    HW224456   4.689   2.009   3.991 -0.0362 -1.1254  0.7737
 4275SOL     OW24457   3.360   2.750   9.549  0.6158  0.2729  0.4392
 4275SOL    HW124458   3.316   2.664   9.550 -0.8355  1.0210  0.6866
 4275SOL    HW224459   3.369   2.773   9.456  1.3903 -1.0906  0.1702
 4276SOL     OW24460   2.568   1.843  13.718  0.0391 -0.1643 -0.0587
 4276SOL    HW124461   2.596   1.812  13.632 -0.3812  1.3325 -0.7364
 4276SOL    HW224462   2.493   1.896  13.690 -0.5079 -0.2907  1.1280
 4277SOL     OW24463   0.189   1.391   7.659 -0.0763 -0.0541  0.2838
 4277SOL    HW124464   0.145   1.366   7.578 -0.1817  0.9084  0.0381
 4277SOL    HW224465   0.237   1.469   7.630 -0.6531  0.3249  0.3624
 4278SOL     OW24466   0.321   2.894   9.003 -0.5430 -0.3106 -0.5567
 4278SOL    HW124467   0.235   2.852   9.000 -1.1643  0.9873 -0.9138
 4278SOL    HW224468   0.324   2.937   8.918 -1.0464  0.8205  0.0020
 4279SOL     OW24469   2.034   4.192   2.401  0.0179  0.2828  0.0200
 4279SOL    HW124470   2.066   4.158   2.485 -1.1999  0.9211  0.7450
 4279SOL    HW224471   2.093   4.267   2.403  0.7896 -0.3727  1.9728
 4280SOL     OW24472   3.083   1.992   7.515 -0.3410 -0.1026  0.6530
 4280SOL    HW124473   3.178   1.994   7.505 -0.2743 -1.2406  1.0034
 4280SOL    HW224474   3.074   2.057   7.445 -3.2314 -0.0233  1.1014
 4281SOL     OW24475   2.159   4.034   2.614 -0.6628 -0.1264  0.5872
 4281SOL    HW124476   2.249   4.065   2.607  0.0445 -2.7237 -1.7058
 4281SOL    HW224477   2.157   3.948   2.573 -1.1843  0.4372 -0.5543
 4282SOL     OW24478   0.350   2.619   4.601 -0.2872 -0.3325  0.2949
 4282SOL    HW124479   0.267   2.658   4.627  0.2868  0.2087  1.3171
 4282SOL    HW224480   0.355   2.553   4.670  2.3056 -0.0734  0.3594
 4283SOL     OW24481   0.106   2.893   8.232  0.0039  0.1704  0.1266
 4283SOL    HW124482   0.099   2.947   8.154 -1.8550  0.0848  0.2389
 4283SOL    HW224483   0.016   2.860   8.236 -0.7449  2.0455 -1.4873
 4284SOL     OW24484   2.136   4.679  17.481  0.1220 -0.7547 -0.3385
 4284SOL    HW124485   2.218   4.667  17.431 -0.1361 -0.1900 -0.8955
 4284SOL    HW224486   2.100   4.593  17.460  0.2273 -0.5614 -1.3241
 4285SOL     OW24487   4.265   2.088   7.221 -0.6439 -0.0352  0.6383
 4285SOL    HW124488   4.334   2.152   7.203 -0.9587  0.3690  0.8504
 4285SOL    HW224489   4.294   2.057   7.307  0.8878 -0.2747  0.0312
 4286SOL     OW24490   0.816   0.342   5.281 -0.3269 -0.0737 -0.2301
 4286SOL    HW124491   0.779   0.313   5.365 -0.2482  2.6712  0.7522
 4286SOL    HW224492   0.814   0.263   5.226  0.2243  0.4627 -1.0174
 4287SOL     OW24493   1.063   2.776   3.625  0.3556  0.1722 -0.1513
 4287SOL    HW124494   1.027   2.853   3.581  1.2122  0.6784  0.0086
 4287SOL    HW224495   1.152   2.804   3.650  0.3809  1.1851 -1.3350
 4288SOL     OW24496   1.291   1.838  14.226 -0.4736 -0.8020 -0.0480
 4288SOL    HW124497   1.306   1.806  14.137 -0.0015 -1.6667  0.3456
 4288SOL    HW224498   1.304   1.932  14.215 -1.0748 -0.9463 -1.9906
 4289SOL     OW24499   4.662   3.782  14.156  0.1419  0.3705 -0.5807
 4289SOL    HW124500   4.672   3.771  14.250 -0.1801  0.1074 -0.5755
 4289SOL    HW224501   4.731   3.847  14.144 -0.3240  0.8943 -0.3968
 4290SOL     OW24502   2.545   4.192   9.997  0.1127 -0.0129 -0.2445
 4290SOL    HW124503   2.569   4.132  10.067 -2.3089 -0.6914 -0.0004
 4290SOL    HW224504   2.461   4.228  10.025 -0.2770 -0.6386 -0.6036
 4291SOL     OW24505   1.507   2.868   4.961 -0.2333 -0.3718 -0.2780
 4291SOL    HW124506   1.464   2.932   5.017 -2.1030  0.1021 -2.2264
 4291SOL    HW224507   1.435   2.856   4.899 -1.7011 -1.8626  1.7253
 4292SOL     OW24508   3.386   1.322  14.595 -0.2117  0.1933  0.0391
 4292SOL    HW124509   3.312   1.325  14.535 -0.7999  1.1148  0.8029
 4292SOL    HW224510   3.398   1.229  14.614 -1.7869 -0.4259 -2.1049
 4293SOL     OW24511   2.219   0.982   6.336  0.4085  0.3485 -0.3936
 4293SOL    HW124512   2.146   1.006   6.278  1.4875  1.9990 -1.0681
 4293SOL    HW224513   2.260   1.068   6.346  2.8541 -0.8419 -0.4007
 4294SOL     OW24514   4.036   2.422   1.170 -0.3280 -0.3102 -0.1299
 4294SOL    HW124515   3.977   2.351   1.147  2.9234 -2.7895 -0.8038
 4294SOL    HW224516   4.056   2.393   1.258  2.0061  0.1941 -0.4847
 4295SOL     OW24517   2.816   2.704   3.595  0.1412 -0.8135 -0.3406
 4295SOL    HW124518   2.729   2.739   3.615  0.1440 -0.3731 -1.1002
 4295SOL    HW224519   2.840   2.685   3.686 -0.0871 -0.8820 -0.2937
 4296SOL     OW24520   4.159   0.405  13.576  0.3467 -0.0568 -0.5537
 4296SOL    HW124521   4.067   0.408  13.548  0.6372  2.7668 -1.2140
 4296SOL    HW224522   4.201   0.346  13.514 -0.7562 -2.3935  0.9300
 4297SOL     OW24523   3.442   1.842  16.637 -0.0585 -0.2355  0.1295
 4297SOL    HW124524   3.437   1.915  16.576  1.9237 -0.5308 -0.3873
 4297SOL    HW224525   3.401   1.773  16.585 -2.6773  1.2733  0.2205
 4298SOL     OW24526   2.484   1.058   0.945 -0.1018  0.0830 -0.8747
 4298SOL    HW124527   2.481   1.153   0.959 -0.1828 -0.0904  0.2788
 4298SOL    HW224528   2.536   1.048   0.866 -0.6793  0.0617 -1.2488
 4299SOL     OW24529   2.957   2.466  16.676  0.3207  0.1050 -0.2874
 4299SOL    HW124530   2.969   2.527  16.750 -1.1083 -0.4769  0.4160
 4299SOL    HW224531   2.937   2.379  16.710  1.1031 -0.6292 -1.7148
 4300SOL     OW24532   0.323   3.786  17.672  0.9248 -0.3866  0.3330
 4300SOL    HW124533   0.236   3.762  17.705  0.5652  2.7584  1.7127
 4300SOL    HW224534   0.358   3.853  17.732  1.0666 -1.8292  1.8417
 4301SOL     OW24535   0.710   3.218   3.636 -0.3788 -0.1833  0.0768
 4301SOL    HW124536   0.748   3.305   3.646 -2.7519  0.5533  2.6851
 4301SOL    HW224537   0.785   3.161   3.654  1.1563  1.8746  0.1253
 4302SOL     OW24538   2.926   3.366   6.045 -0.1192 -0.1274 -0.1006
 4302SOL    HW124539   3.012   3.325   6.059 -0.7671 -1.2349  0.6214
 4302SOL    HW224540   2.958   3.453   6.020  0.6549 -0.7241 -1.1720
 4303SOL     OW24541   1.120   2.291   6.557 -0.1312  0.2446 -0.0725
 4303SOL    HW124542   1.093   2.285   6.466 -0.1801  0.7356 -0.0932
 4303SOL    HW224543   1.060   2.239   6.611  0.1541  0.1247  0.1282
 4304SOL     OW24544   2.056   0.139   3.085  0.4384  0.9712 -0.2957
 4304SOL    HW124545   2.108   0.118   3.163  0.7954 -1.6531 -1.2510
 4304SOL    HW224546   2.080   0.077   3.017 -2.9424  1.0711 -1.6151
 4305SOL     OW24547   3.075   3.911   9.562  0.4859  0.4697  0.0848
 4305SOL    HW124548   3.155   3.963   9.570 -0.6173  1.9733  1.3426
 4305SOL    HW224549   3.021   3.972   9.510  2.8894  0.8309 -2.0161
 4306SOL     OW24550   0.650   2.064   5.709  0.3626  0.5704  0.3186
 4306SOL    HW124551   0.667   2.025   5.623  0.0442 -0.1679  0.5890
 4306SOL    HW224552   0.581   2.008   5.745  1.0058  0.1240  0.8369
 4307SOL     OW24553   1.876   0.580   7.243 -0.1189 -0.1359 -0.1207
 4307SOL    HW124554   1.940   0.518   7.279  0.4057 -0.5943 -1.8306
 4307SOL    HW224555   1.856   0.638   7.316  0.9567 -1.4160  1.1940
 4308SOL     OW24556   2.400   1.855   2.951  0.5332  0.1852  0.0742
 4308SOL    HW124557   2.351   1.774   2.936  0.8782 -0.0652  0.3172
 4308SOL    HW224558   2.331   1.919   2.970 -0.4147 -0.0144 -2.8069
 4309SOL     OW24559   4.363   1.556  13.789  0.1041  0.1095  0.5522
 4309SOL    HW124560   4.400   1.482  13.839 -1.6010 -0.5065  0.8920
 4309SOL    HW224561   4.423   1.549  13.715  0.7380  0.0303  1.0680
 4310SOL     OW24562   3.683   3.957   7.559  1.1716  0.0106 -0.0971
 4310SOL    HW124563   3.637   3.873   7.563 -0.5009  0.9024 -0.5964
 4310SOL    HW224564   3.659   3.984   7.470  2.8503  0.2062 -0.5094
 4311SOL     OW24565   2.383   1.709   7.648 -0.1711  0.3544 -0.0876
 4311SOL    HW124566   2.366   1.799   7.619 -1.2775  0.5901  1.2979
 4311SOL    HW224567   2.294   1.675   7.635 -0.4865  1.5627 -1.0507
 4312SOL     OW24568   0.782   4.066  16.266 -0.1228 -0.3966 -0.4900
 4312SOL    HW124569   0.728   4.051  16.189  0.9275  2.1961 -1.7491
 4312SOL    HW224570   0.718   4.121  16.311 -0.0901 -1.3780  0.7483
 4313SOL     OW24571   0.690   3.641  17.598 -0.0835  0.3687 -0.4475
 4313SOL    HW124572   0.632   3.577  17.639  0.1379  0.1922 -0.4075
 4313SOL    HW224573   0.699   3.598  17.513  2.0885 -0.7440  0.3283
 4314SOL     OW24574   1.617   1.322  11.440 -0.0697 -0.1520  0.0903
 4314SOL    HW124575   1.546   1.268  11.473  0.9146 -1.1587  0.5560
 4314SOL    HW224576   1.654   1.356  11.522  0.7446  0.6047 -0.5807
 4315SOL     OW24577   1.818   4.623   0.743  0.0836  0.9861 -0.2760
 4315SOL    HW124578   1.790   4.614   0.834 -1.4415 -2.0421 -1.0668
 4315SOL    HW224579   1.911   4.608   0.759 -0.7672 -2.8835  0.9269
 4316SOL     OW24580   4.391   1.556   6.891  0.2092  0.0501  0.3752
 4316SOL    HW124581   4.439   1.533   6.970  0.0286  0.5773  0.6425
 4316SOL    HW224582   4.377   1.472   6.848  3.1348  0.3285 -1.0693
 4317SOL     OW24583   0.955   0.183   8.429  0.1885 -0.5212  0.1301
 4317SOL    HW124584   0.873   0.166   8.475  0.4215 -0.3721  0.6025
 4317SOL    HW224585   0.926   0.226   8.349  1.5781  0.0776 -0.0596
 4318SOL     OW24586   4.123   4.176   6.161  0.1745  0.1084 -0.2869
 4318SOL    HW124587   4.200   4.178   6.219  0.8185 -0.1124 -1.1404
 4318SOL    HW224588   4.095   4.085   6.159 -0.6747  0.4105 -2.5448
 4319SOL     OW24589   1.856   2.238  13.106 -0.1183  0.6336  0.2864
 4319SOL    HW124590   1.877   2.268  13.018 -0.6013  1.5577  0.4933
 4319SOL    HW224591   1.888   2.147  13.106 -2.5293 -0.2252 -1.7416
 4320SOL     OW24592   4.099   2.019   1.079  0.0819  0.4809 -0.2064
 4320SOL    HW124593   4.168   2.076   1.111  0.0530 -0.7742  2.0827
 4320SOL    HW224594   4.127   1.999   0.990 -0.0655 -1.0671  0.0845
 4321SOL     OW24595   1.746   1.937   3.056 -0.2337  0.3685  0.5663
 4321SOL    HW124596   1.790   2.021   3.065 -1.0288  1.0093 -1.6417
 4321SOL    HW224597   1.655   1.961   3.078 -0.0789  1.3522  0.1207
 4322SOL     OW24598   4.553   0.948   8.318 -0.2345 -0.3818  0.4508
 4322SOL    HW124599   4.520   1.037   8.304  0.4163 -0.1044  0.7137
 4322SOL    HW224600   4.503   0.924   8.397 -1.1602 -1.0213 -0.3361
 4323SOL     OW24601   3.418   0.360   1.265  0.2938  0.0082  0.0846
 4323SOL    HW124602   3.466   0.278   1.251  1.8890  0.6262  1.8874
 4323SOL    HW224603   3.492   0.420   1.272  0.3069  0.1932 -1.6721
 4324SOL     OW24604   1.371   1.409   5.647 -0.4909 -0.1937 -0.3095
 4324SOL    HW124605   1.375   1.499   5.680  1.6450  0.5332 -2.5884
 4324SOL    HW224606   1.299   1.402   5.584 -0.0980 -0.5488 -0.7211
 4325SOL     OW24607   1.749   1.498   0.402 -0.1069 -0.1838 -0.8170
 4325SOL    HW124608   1.821   1.559   0.391 -0.1351 -0.1124 -0.6093
 4325SOL    HW224609   1.722   1.471   0.315  0.8209 -0.0684 -1.1376
 4326SOL     OW24610   2.645   4.168  11.216  0.1326 -0.7351  0.4546
 4326SOL    HW124611   2.708   4.152  11.146 -1.0875  0.1493 -0.8477
 4326SOL    HW224612   2.618   4.257  11.195  0.9452 -0.6956 -0.4047
 4327SOL     OW24613   4.162   3.010   7.825 -0.4597 -0.4194  0.4047
 4327SOL    HW124614   4.215   2.934   7.802 -0.4734 -0.1414 -0.5590
 4327SOL    HW224615   4.075   2.984   7.853 -0.6499 -0.7457 -0.4996
 4328SOL     OW24616   0.102   4.497   2.252  0.6189 -0.4022 -0.1769
 4328SOL    HW124617   0.138   4.577   2.213  1.1187 -0.3769  0.3280
 4328SOL    HW224618   0.183   4.447   2.255  1.4729  1.0686  1.5272
 4329SOL     OW24619   3.457   0.547   5.992 -0.2832 -0.3351  0.5163
 4329SOL    HW124620   3.388   0.560   5.927  0.6601  1.4095 -0.1383
 4329SOL    HW224621   3.431   0.468   6.040  0.3164 -1.0566 -0.3442
 4330SOL     OW24622   4.721   2.080   4.852 -0.4404  0.4940 -0.1058
 4330SOL    HW124623   0.026   2.075   4.935 -1.2341  0.0677  0.3218
 4330SOL    HW224624   4.728   1.991   4.816 -1.8535  0.7431 -1.0035
 4331SOL     OW24625   0.667   0.058   5.929 -0.6223 -0.3590 -0.1309
 4331SOL    HW124626   0.599   0.041   5.863 -1.7720 -1.1850  1.2750
 4331SOL    HW224627   0.642   0.145   5.959 -1.0241 -1.1876  1.9353
 4332SOL     OW24628   0.230   0.782   1.566  0.4927 -0.2271  0.0963
 4332SOL    HW124629   0.274   0.791   1.651  1.0285  2.7098 -0.5178
 4332SOL    HW224630   0.153   0.836   1.581  0.5739  0.7773 -3.2601
 4333SOL     OW24631   3.682   4.514  16.898 -0.6149  0.3739  0.4396
 4333SOL    HW124632   3.693   4.537  16.806 -2.1152 -2.4757 -0.4497
 4333SOL    HW224633   3.601   4.560  16.917 -0.0813  0.3506  2.7958
 4334SOL     OW24634   2.668   0.371   6.845 -0.2329 -0.0876  0.0655
 4334SOL    HW124635   2.722   0.295   6.825 -0.9007 -0.6695  0.4721
 4334SOL    HW224636   2.686   0.417   6.763  2.6815  0.1837  0.8668
 4335SOL     OW24637   2.703   0.831   9.415  0.5755  0.0401 -0.0929
 4335SOL    HW124638   2.618   0.867   9.392  0.7359  0.5395  0.0811
 4335SOL    HW224639   2.691   0.771   9.489 -5.1439  0.1908 -0.9553
 4336SOL     OW24640   2.902   4.720  16.672  0.0397 -0.5103 -0.5209
 4336SOL    HW124641   2.992   0.011  16.680 -0.3747  0.4390  0.2220
 4336SOL    HW224642   2.914   4.626  16.657 -0.1887 -0.5973 -0.1361
 4337SOL     OW24643   3.235   4.532   8.301 -0.4602  0.0450  0.4671
 4337SOL    HW124644   3.224   4.482   8.219 -0.9080 -1.4290  1.4218
 4337SOL    HW224645   3.312   4.588   8.296 -0.6685  0.1989 -0.9519
 4338SOL     OW24646   2.959   4.577   0.565  0.2645  0.6097  0.2142
 4338SOL    HW124647   3.021   4.504   0.564 -1.9594 -1.2802  0.8108
 4338SOL    HW224648   2.973   4.610   0.477 -0.1950 -1.0391 -0.4713
 4339SOL     OW24649   4.130   4.139   9.325 -0.4457  0.1639 -0.4181
 4339SOL    HW124650   4.213   4.173   9.359 -1.2022  2.0895 -0.5306
 4339SOL    HW224651   4.152   4.124   9.233  0.8220  0.7248 -0.2182
 4340SOL     OW24652   3.234   4.613   9.556 -0.7247  0.2173  0.2742
 4340SOL    HW124653   3.205   4.541   9.499 -3.7632  3.2544 -1.9867
 4340SOL    HW224654   3.322   4.630   9.520  0.1866 -1.0274  1.9181
 4341SOL     OW24655   2.305   4.032   3.549 -0.1431  0.0055  0.1620
 4341SOL    HW124656   2.334   4.079   3.471  1.2415 -1.0811  0.0170
 4341SOL    HW224657   2.230   3.994   3.505  0.4925 -0.3734 -0.5964
 4342SOL     OW24658   0.729   3.346   2.393 -0.0968  0.3610 -0.4517
 4342SOL    HW124659   0.716   3.415   2.327 -2.7636 -0.0359 -0.3665
 4342SOL    HW224660   0.819   3.361   2.423 -0.2963 -1.1403  0.9023
 4343SOL     OW24661   4.615   3.989   2.403 -0.1605  0.1698 -0.5165
 4343SOL    HW124662   4.619   3.989   2.499  2.3425 -1.2621 -0.6080
 4343SOL    HW224663   4.690   4.043   2.378 -1.2330  2.3227  0.9150
 4344SOL     OW24664   4.670   3.602   4.210  0.0831 -0.3664  0.1903
 4344SOL    HW124665   4.585   3.581   4.249 -0.5127 -2.2400 -2.1308
 4344SOL    HW224666   4.738   3.561   4.264  0.8938 -0.0584 -0.5987
 4345SOL     OW24667   2.265   2.621   8.162 -0.6004  0.4200  0.1273
 4345SOL    HW124668   2.274   2.712   8.133  1.2768 -0.5397 -2.2732
 4345SOL    HW224669   2.225   2.639   8.247  1.5195  0.6556  1.0647
 4346SOL     OW24670   2.886   0.038   2.810 -0.3000  0.1125 -0.2167
 4346SOL    HW124671   2.960   4.724   2.833 -1.0091 -0.8091 -0.1270
 4346SOL    HW224672   2.926   0.124   2.821 -2.7981  1.2550 -0.1337
 4347SOL     OW24673   4.460   0.862  14.954  0.1399  0.0328 -0.2354
 4347SOL    HW124674   4.437   0.921  14.882 -0.0532 -1.8703 -1.7320
 4347SOL    HW224675   4.390   0.798  14.954 -0.1272  0.3213 -0.7614
 4348SOL     OW24676   3.396   2.124  15.201  0.2940  0.2797 -0.9597
 4348SOL    HW124677   3.482   2.142  15.240 -0.5658  2.2952  0.0027
 4348SOL    HW224678   3.405   2.149  15.109 -0.9918 -0.5117 -1.3007
 4349SOL     OW24679   3.964   1.846  15.142  0.5473  0.2873 -0.1903
 4349SOL    HW124680   3.954   1.752  15.134  0.4339  0.3928 -1.3789
 4349SOL    HW224681   3.976   1.881  15.053 -4.9001 -0.6979 -1.2993
 4350SOL     OW24682   3.204   3.620   2.628 -0.5756  0.1355 -0.1091
 4350SOL    HW124683   3.138   3.563   2.667  1.4686 -2.1714 -0.0247
 4350SOL    HW224684   3.253   3.651   2.704 -2.6447 -0.9684  1.6742
 4351SOL     OW24685   4.471   1.798   1.162 -0.3603 -0.3308  0.1351
 4351SOL    HW124686   4.459   1.890   1.185 -1.1860 -0.1532 -0.9766
 4351SOL    HW224687   4.566   1.798   1.168 -0.5638 -0.0106  3.1342
 4352SOL     OW24688   3.955   0.817  12.495  0.1712 -0.3699  0.1656
 4352SOL    HW124689   3.870   0.789  12.527  0.2811 -1.5103 -0.5268
 4352SOL    HW224690   3.949   0.785  12.405  0.0604  0.5174 -0.1413
 4353SOL     OW24691   1.185   1.752   7.966  0.0389  0.4749  0.4659
 4353SOL    HW124692   1.264   1.792   7.932 -0.1455  1.2855  0.9766
 4353SOL    HW224693   1.214   1.664   7.943 -0.2624 -0.0487  2.0578
 4354SOL     OW24694   3.518   4.656   4.474  0.6856  0.2186  0.4127
 4354SOL    HW124695   3.609   4.647   4.499  0.5358  1.2323  1.3159
 4354SOL    HW224696   3.525   0.004   4.440 -2.2767  0.0751 -0.5840
 4355SOL     OW24697   1.935   0.344   3.809  0.0188 -0.2878 -0.8624
 4355SOL    HW124698   1.863   0.398   3.841  2.6525  2.6864  0.0750
 4355SOL    HW224699   1.898   0.256   3.807 -1.1090  0.1761 -0.5652
 4356SOL     OW24700   2.905   4.033  15.389 -0.0316 -0.3579  0.1725
 4356SOL    HW124701   2.863   4.112  15.423 -0.8107 -0.6399 -0.1258
 4356SOL    HW224702   2.849   3.998  15.320 -1.2508 -0.0309  0.9880
 4357SOL     OW24703   0.828   0.559  14.108  0.0520 -0.8107 -0.3830
 4357SOL    HW124704   0.753   0.608  14.075 -0.7085 -1.6841  0.0335
 4357SOL    HW224705   0.861   0.523  14.026  0.2176 -0.1570 -0.5946
 4358SOL     OW24706   2.231   1.953   4.565  0.3085 -0.7018 -0.5403
 4358SOL    HW124707   2.165   1.891   4.535  0.2202 -0.8152 -0.1134
 4358SOL    HW224708   2.208   2.021   4.502 -0.9118 -1.1788 -0.6104
 4359SOL     OW24709   2.026   2.615  10.467 -0.6874  0.9731 -0.2242
 4359SOL    HW124710   2.089   2.617  10.394  1.2337  2.1091  1.4958
 4359SOL    HW224711   1.991   2.704  10.464  0.1893  1.2940 -1.0830
 4360SOL     OW24712   4.116   0.134   1.761  0.6213  0.1219 -0.6256
 4360SOL    HW124713   4.182   0.086   1.811  2.0691 -0.6326 -3.2546
 4360SOL    HW224714   4.053   0.062   1.763 -2.4512  2.8911  3.7650
 4361SOL     OW24715   1.143   2.138  10.015  0.0547 -0.4216 -0.2010
 4361SOL    HW124716   1.129   2.111   9.924  0.7612 -1.0012 -0.1390
 4361SOL    HW224717   1.050   2.134  10.038 -0.5650  1.8513 -2.2764
 4362SOL     OW24718   2.206   3.903   4.042 -0.2801 -0.7510  0.3942
 4362SOL    HW124719   2.230   3.928   3.953 -0.2283  1.7886  1.1292
 4362SOL    HW224720   2.287   3.865   4.076 -1.0379  0.3991  3.4866
 4363SOL     OW24721   2.963   1.990  15.532 -0.0912 -0.2259  0.2290
 4363SOL    HW124722   2.967   2.083  15.555  2.3778 -0.1716 -0.3507
 4363SOL    HW224723   3.029   1.992  15.462  0.9196  0.1154  1.1881
 4364SOL     OW24724   4.087   1.873  13.173 -0.0631  0.2704 -0.4315
 4364SOL    HW124725   4.017   1.935  13.194  1.1973  1.3705  0.5368
 4364SOL    HW224726   4.102   1.885  13.079 -1.7427 -1.5873 -0.9405
 4365SOL     OW24727   0.733   0.515   6.265  0.2464  0.1201  0.0434
 4365SOL    HW124728   0.657   0.471   6.303  0.3913  0.1792  0.3993
 4365SOL    HW224729   0.784   0.436   6.285  0.5677  0.5031  0.7160
 4366SOL     OW24730   1.874   4.583   3.767  0.2234 -0.3791  0.7445
 4366SOL    HW124731   1.808   4.532   3.815  0.0532 -0.5077  0.3787
 4366SOL    HW224732   1.829   4.576   3.682 -0.2005  0.8375  0.8801
 4367SOL     OW24733   0.271   0.261  15.084 -0.2031  0.1270 -0.4766
 4367SOL    HW124734   0.366   0.274  15.090 -0.6946  2.1317  3.2268
 4367SOL    HW224735   0.243   0.271  15.175  0.5616 -2.5217  0.0678
 4368SOL     OW24736   1.258   0.187   9.392  0.0793 -0.4116 -0.4657
 4368SOL    HW124737   1.303   0.182   9.477  1.0704 -0.1570 -0.9802
 4368SOL    HW224738   1.246   0.093   9.380 -1.4811 -0.4460  1.3456
 4369SOL     OW24739   3.665   0.420  13.757  0.1760 -0.5278 -0.3625
 4369SOL    HW124740   3.617   0.483  13.811  1.2879 -0.3655  0.4401
 4369SOL    HW224741   3.754   0.441  13.784  1.0432 -2.7774 -1.5516
 4370SOL     OW24742   3.314   4.551   3.606  0.6092  0.2187 -0.5298
 4370SOL    HW124743   3.307   4.647   3.601 -0.5219  0.2308  1.6134
 4370SOL    HW224744   3.370   4.524   3.533 -0.5453 -0.1841 -1.2591
 4371SOL     OW24745   2.504   3.172   3.019 -0.1062 -0.5089 -0.1086
 4371SOL    HW124746   2.413   3.142   3.016  0.4690 -2.2699  0.0015
 4371SOL    HW224747   2.546   3.088   3.003 -0.3442 -0.6383 -0.0614
 4372SOL     OW24748   3.590   1.657  17.293  0.3806  0.4214 -0.3901
 4372SOL    HW124749   3.525   1.720  17.261  1.9264  2.0089 -0.4553
 4372SOL    HW224750   3.597   1.685  17.385 -3.0912  1.6821 -0.4959
 4373SOL     OW24751   0.360   0.462   4.361  0.0548 -0.0632 -0.0545
 4373SOL    HW124752   0.294   0.394   4.349  0.9607 -0.7915 -0.8906
 4373SOL    HW224753   0.309   0.534   4.324 -0.4015  0.6178  1.9039
 4374SOL     OW24754   2.407   1.679  13.259  0.1423  0.1041 -0.4495
 4374SOL    HW124755   2.394   1.768  13.291  0.2824 -0.9027  2.3944
 4374SOL    HW224756   2.407   1.626  13.339  0.1987  0.7586 -0.0219
 4375SOL     OW24757   4.125   3.922   6.831 -0.1341 -0.4656 -0.3780
 4375SOL    HW124758   4.043   3.902   6.786  0.8775  1.0356 -2.8602
 4375SOL    HW224759   4.116   3.891   6.921  1.6036  0.6659  0.1853
 4376SOL     OW24760   2.549   3.464   7.380  0.5564 -0.1948 -0.5807
 4376SOL    HW124761   2.455   3.461   7.401  0.4093 -0.7841 -1.3276
 4376SOL    HW224762   2.580   3.399   7.443  0.5145 -1.2086 -1.6028
 4377SOL     OW24763   4.182   2.741   6.586 -1.0082 -0.1909  0.0984
 4377SOL    HW124764   4.098   2.753   6.629 -0.4605 -0.8716  1.3430
 4377SOL    HW224765   4.155   2.726   6.495  2.8369 -0.7827 -0.9640
 4378SOL     OW24766   3.251   0.424   7.383 -0.1631  0.3771 -0.3405
 4378SOL    HW124767   3.309   0.385   7.448 -0.4357  0.4327 -0.0621
 4378SOL    HW224768   3.284   0.513   7.392  0.3777  0.0738  0.7218
 4379SOL     OW24769   4.007   4.088   0.810  0.1569 -0.3373 -0.2222
 4379SOL    HW124770   3.986   4.029   0.738 -0.8838 -0.4477  0.1813
 4379SOL    HW224771   4.102   4.084   0.799  0.0340 -2.3611 -0.5592
 4380SOL     OW24772   4.582   4.580   9.505  0.5754  0.2201 -0.4406
 4380SOL    HW124773   4.597   4.633   9.583 -0.2946 -0.6143  0.2988
 4380SOL    HW224774   4.510   4.521   9.528  0.6725 -0.8586 -2.9061
 4381SOL     OW24775   4.313   1.063  11.021 -0.2670 -0.5556  0.1899
 4381SOL    HW124776   4.254   1.092  10.952  0.6815 -2.7657 -1.5459
 4381SOL    HW224777   4.393   1.114  11.011 -0.8375  0.5276  1.2274
 4382SOL     OW24778   2.348   2.555   4.253 -0.6854  0.2005  0.0180
 4382SOL    HW124779   2.303   2.473   4.234 -0.4583 -0.0964  0.7769
 4382SOL    HW224780   2.429   2.540   4.204 -1.3816  1.1426 -1.4183
 4383SOL     OW24781   4.126   3.894  10.917 -0.0482 -0.0895  0.1355
 4383SOL    HW124782   4.092   3.805  10.922 -2.1263  0.9241  4.6024
 4383SOL    HW224783   4.210   3.885  10.872 -0.2504 -1.6770  0.0734
 4384SOL     OW24784   4.734   2.593  15.379 -0.5230 -0.0507 -0.1978
 4384SOL    HW124785   0.054   2.532  15.337  0.6904 -0.3085  1.9461
 4384SOL    HW224786   0.044   2.672  15.395 -0.4779 -0.0856 -0.1692
 4385SOL     OW24787   3.265   3.277   0.866  0.3373 -0.8887 -0.2110
 4385SOL    HW124788   3.214   3.276   0.786 -2.4064  1.0690  1.5008
 4385SOL    HW224789   3.318   3.355   0.852 -0.5886  0.4353  3.5965
 4386SOL     OW24790   2.381   3.932   6.090 -0.1801  0.6745 -0.1072
 4386SOL    HW124791   2.476   3.941   6.081 -0.2414  1.0177 -0.4320
 4386SOL    HW224792   2.351   3.894   6.007 -1.0190 -0.4064  0.6948
 4387SOL     OW24793   1.611   1.542   8.815  0.0615 -0.3443  0.1343
 4387SOL    HW124794   1.559   1.600   8.870 -1.3273 -0.0754 -1.4747
 4387SOL    HW224795   1.560   1.523   8.736 -0.0423 -0.6114  0.2666
 4388SOL     OW24796   2.808   4.624   1.983 -0.0346 -0.1474 -0.4740
 4388SOL    HW124797   2.877   4.665   2.034 -0.4308  0.5102 -0.4683
 4388SOL    HW224798   2.772   4.564   2.049 -0.3008  1.4939  0.8709
 4389SOL     OW24799   1.239   0.935   9.387 -0.2360 -0.0202 -0.2781
 4389SOL    HW124800   1.300   0.940   9.314 -0.4499  1.3289 -0.3722
 4389SOL    HW224801   1.255   0.844   9.411 -0.6711 -0.4437 -1.6369
 4390SOL     OW24802   3.113   1.963   5.984 -0.3140 -0.4934 -0.0397
 4390SOL    HW124803   3.054   1.889   5.976 -1.0872 -0.0347  1.3959
 4390SOL    HW224804   3.060   2.025   6.035  0.3791 -1.4357  1.8070
 4391SOL     OW24805   3.702   1.510   0.667  0.3094  0.6146  0.4407
 4391SOL    HW124806   3.746   1.425   0.670 -1.1153 -0.1541 -0.3459
 4391SOL    HW224807   3.772   1.571   0.642 -0.3507  1.1872 -0.0030
 4392SOL     OW24808   4.169   1.677   6.987  0.2296  0.3322  0.0728
 4392SOL    HW124809   4.235   1.621   6.947  1.5290  1.4049  0.7099
 4392SOL    HW224810   4.213   1.762   6.992 -0.2814  0.5445  1.0543
 4393SOL     OW24811   1.472   2.015   3.109 -0.2622  0.6541 -0.0708
 4393SOL    HW124812   1.423   2.078   3.162 -1.3044 -0.4261  0.2533
 4393SOL    HW224813   1.440   2.039   3.022 -0.5908  1.6965  0.3308
 4394SOL     OW24814   1.229   0.498   6.207  0.3837 -0.2209 -0.4412
 4394SOL    HW124815   1.237   0.453   6.291 -1.0375 -2.4561 -1.5209
 4394SOL    HW224816   1.253   0.433   6.141  0.0794 -0.0948 -0.6732
 4395SOL     OW24817   2.124   1.557   7.357  0.5242 -0.4698 -0.1853
 4395SOL    HW124818   2.118   1.629   7.420 -1.0236 -0.3418 -0.4958
 4395SOL    HW224819   2.077   1.482   7.394  0.0332  0.0169  0.1661
 4396SOL     OW24820   4.698   2.571   4.580 -0.2957 -0.3882 -0.0116
 4396SOL    HW124821   4.703   2.476   4.594 -1.8207 -0.4155  0.3027
 4396SOL    HW224822   4.608   2.592   4.604 -0.3299  1.0331 -1.4384
 4397SOL     OW24823   1.243   1.482  17.437  0.2565  0.3478  0.3283
 4397SOL    HW124824   1.236   1.543  17.511  3.8191  1.2038 -0.0535
 4397SOL    HW224825   1.336   1.464  17.435 -0.0098 -0.6496 -3.1721
 4398SOL     OW24826   3.156   0.061  16.753 -0.0686 -0.0305 -0.6426
 4398SOL    HW124827   3.190   4.727  16.800  0.0730 -0.1253 -0.8963
 4398SOL    HW224828   3.142   0.119  16.828 -2.3735 -0.2035 -0.9147
 4399SOL     OW24829   3.972   1.454   3.495  0.2823 -0.0128 -0.2930
 4399SOL    HW124830   4.017   1.445   3.411  1.1991 -1.5559  0.3601
 4399SOL    HW224831   3.912   1.526   3.473 -0.0991 -0.2571 -0.0558
 4400SOL     OW24832   2.602   0.735   4.401 -0.2099 -0.0403 -0.4487
 4400SOL    HW124833   2.638   0.813   4.443  0.3276 -0.9602  0.7714
 4400SOL    HW224834   2.657   0.726   4.323  0.8365 -0.2397  0.3310
 4401SOL     OW24835   3.909   2.412   3.754 -0.4623  0.1700 -0.4470
 4401SOL    HW124836   3.813   2.413   3.745 -0.5342  2.1282  0.7477
 4401SOL    HW224837   3.918   2.319   3.731 -2.2270 -0.2542  0.6101
 4402SOL     OW24838   3.686   4.555   1.862  0.5537 -0.4703 -0.1398
 4402SOL    HW124839   3.684   4.477   1.807 -0.9218 -1.8151  1.8056
 4402SOL    HW224840   3.620   4.529   1.926  0.0595  2.0194  0.3703
 4403SOL     OW24841   2.766   0.874  16.333 -0.2933  0.1010  0.1241
 4403SOL    HW124842   2.784   0.789  16.373 -0.3052 -0.5500 -1.2481
 4403SOL    HW224843   2.692   0.857  16.273 -0.1488  0.1262 -0.0610
 4404SOL     OW24844   2.426   1.395   8.837 -0.3653 -0.8962  0.2719
 4404SOL    HW124845   2.484   1.465   8.807 -1.4013 -1.4052 -2.9624
 4404SOL    HW224846   2.353   1.451   8.862  0.2337 -0.5759  1.3011
 4405SOL     OW24847   0.216   4.686   3.069 -0.2368  0.0010 -0.1327
 4405SOL    HW124848   0.215   4.738   2.989  0.7807 -0.7701 -0.6432
 4405SOL    HW224849   0.280   4.732   3.124 -0.9959 -2.3508  2.7130
 4406SOL     OW24850   1.750   3.799  12.901  0.0878  0.1695  0.1674
 4406SOL    HW124851   1.733   3.851  12.979 -0.8158  0.2745 -0.0924
 4406SOL    HW224852   1.799   3.729  12.944 -0.7655  1.0598  2.5810
 4407SOL     OW24853   4.043   2.298   1.391 -0.1990 -0.3548  0.2520
 4407SOL    HW124854   4.021   2.362   1.459  1.4027 -0.2545  0.6745
 4407SOL    HW224855   4.099   2.237   1.438  0.2080  0.0791  0.3275
 4408SOL     OW24856   2.606   2.483   5.510 -0.5834  0.2002  0.0491
 4408SOL    HW124857   2.564   2.488   5.596 -0.5178  1.3325  0.0193
 4408SOL    HW224858   2.529   2.468   5.456 -0.2405  2.0108 -0.9704
 4409SOL     OW24859   3.376   0.767   0.005  0.3732 -0.0958 -0.0090
 4409SOL    HW124860   3.458   0.719  17.756  1.3989  0.9442  2.6238
 4409SOL    HW224861   3.391   0.860  17.750 -0.0552 -0.4148 -1.9010
 4410SOL     OW24862   2.961   0.856   9.265 -0.1210  0.6199 -0.7059
 4410SOL    HW124863   3.022   0.861   9.339  2.7815 -4.6988 -2.7670
 4410SOL    HW224864   2.883   0.872   9.318  0.8798  1.4295  0.5371
 4411SOL     OW24865   2.942   1.749  15.221 -0.3125  0.4366  0.3451
 4411SOL    HW124866   3.034   1.760  15.195 -0.5395 -0.5658 -0.9052
 4411SOL    HW224867   2.892   1.787  15.149  1.5946 -0.8370 -1.6613
 4412SOL     OW24868   1.311   3.759   9.750  0.1060 -0.0030  0.5849
 4412SOL    HW124869   1.291   3.801   9.834 -1.1902 -0.4183  0.4808
 4412SOL    HW224870   1.355   3.828   9.699  2.6858 -0.3578  2.3250
 4413SOL     OW24871   2.146   0.253   2.770  0.3828 -0.0445 -0.4389
 4413SOL    HW124872   2.069   0.308   2.754 -0.7852 -1.6719 -0.3891
 4413SOL    HW224873   2.099   0.175   2.798 -4.6410  2.4913 -1.7426
 4414SOL     OW24874   4.461   2.146   1.477  0.0453  0.6349 -0.1738
 4414SOL    HW124875   4.510   2.133   1.558  0.1350  0.9263 -0.1810
 4414SOL    HW224876   4.522   2.193   1.420  0.5715  0.2264  0.0548
 4415SOL     OW24877   0.994   1.844   9.990 -0.1389 -0.2668 -0.1054
 4415SOL    HW124878   0.901   1.867   9.999  0.1521  1.0169 -0.3052
 4415SOL    HW224879   1.005   1.836   9.895 -1.0082 -2.4232 -0.0280
 4416SOL     OW24880   4.630   0.329   8.864 -0.0349 -0.6059 -0.5124
 4416SOL    HW124881   4.701   0.265   8.872 -0.0472 -0.6118 -0.4530
 4416SOL    HW224882   4.669   0.404   8.908 -0.0412  0.3621 -2.1402
 4417SOL     OW24883   1.061   3.673  16.331  0.7836 -0.5819 -0.0607
 4417SOL    HW124884   1.115   3.602  16.298  0.4769 -1.2253  0.8227
 4417SOL    HW224885   1.059   3.658  16.425 -0.8854 -1.2648 -0.2067
 4418SOL     OW24886   2.802   0.369   2.353 -0.3521 -0.4040 -0.1258
 4418SOL    HW124887   2.828   0.443   2.407  0.6944  0.7395 -2.1757
 4418SOL    HW224888   2.723   0.412   2.318  0.8866  2.3492  0.4916
 4419SOL     OW24889   3.055   3.127   5.053  0.3542 -0.1025 -0.5873
 4419SOL    HW124890   3.115   3.080   5.111 -1.9103 -0.6680  1.3201
 4419SOL    HW224891   2.987   3.151   5.115 -0.9804  0.1085 -2.1364
 4420SOL     OW24892   4.419   4.395   1.684  0.0143 -0.2811  0.0420
 4420SOL    HW124893   4.447   4.487   1.684 -1.6014  0.2123  0.7850
 4420SOL    HW224894   4.441   4.379   1.776 -2.2568 -1.4920  0.3830
 4421SOL     OW24895   0.931   2.623   6.775  0.6523 -0.0169 -0.4054
 4421SOL    HW124896   0.977   2.563   6.834 -1.2701 -0.6666  0.4426
 4421SOL    HW224897   0.991   2.694   6.754  0.5078  0.0783 -0.5014
 4422SOL     OW24898   3.129   0.213   7.231 -0.5676  1.0327 -0.1874
 4422SOL    HW124899   3.188   0.254   7.294  1.2904 -1.5745 -0.2039
 4422SOL    HW224900   3.045   0.237   7.268 -0.1503 -0.0670  1.4585
 4423SOL     OW24901   4.701   3.693   2.360 -0.1202 -0.2808 -0.3108
 4423SOL    HW124902   4.663   3.773   2.396 -1.8301  0.0934 -2.9529
 4423SOL    HW224903   4.739   3.657   2.441 -1.0139  0.8259  0.5991
 4424SOL     OW24904   2.628   4.415   7.640  1.0159 -0.4818  0.5840
 4424SOL    HW124905   2.547   4.400   7.591  0.4099  0.6112  1.2685
 4424SOL    HW224906   2.677   4.338   7.611 -2.7382 -2.1328 -1.4161
 4425SOL     OW24907   3.653   2.620   9.059  0.5951  0.2047 -0.0314
 4425SOL    HW124908   3.578   2.588   9.108  1.0908 -0.5495  0.2305
 4425SOL    HW224909   3.716   2.626   9.131  1.4355 -2.4161 -0.5399
 4426SOL     OW24910   0.030   1.976  15.809 -0.0684  0.3151  0.2603
 4426SOL    HW124911   4.698   2.012  15.759 -0.8557 -1.6145  0.0305
 4426SOL    HW224912   0.003   1.889  15.839 -1.7086 -0.2824 -2.9599
 4427SOL     OW24913   4.058   0.729   7.953 -0.3838  0.4034 -0.1602
 4427SOL    HW124914   4.153   0.721   7.941  0.0374  1.7276  2.2774
 4427SOL    HW224915   4.055   0.813   7.999  0.2110 -0.2727  1.0823
 4428SOL     OW24916   0.991   3.844   4.636 -0.1034 -0.4184  0.0129
 4428SOL    HW124917   0.999   3.846   4.540  0.4329 -0.8150  0.0480
 4428SOL    HW224918   0.965   3.755   4.658 -0.2120 -0.9200 -2.1301
 4429SOL     OW24919   1.713   4.456   2.481  0.0983 -0.3509 -0.6794
 4429SOL    HW124920   1.729   4.377   2.428 -2.6040 -1.4218  0.1145
 4429SOL    HW224921   1.672   4.512   2.415  0.9440 -0.1329 -1.0212
 4430SOL     OW24922   3.212   0.166  11.978  0.6020  0.5213  0.3069
 4430SOL    HW124923   3.210   0.180  11.884 -1.2909 -1.1617  0.0940
 4430SOL    HW224924   3.215   0.072  11.995 -0.0027  0.6794  1.3337
 4431SOL     OW24925   3.732   2.900   1.857  0.1982 -0.2701 -0.1663
 4431SOL    HW124926   3.694   2.857   1.934  2.3598  1.5795  1.9123
 4431SOL    HW224927   3.823   2.888   1.884  0.6749  1.8695 -0.8393
 4432SOL     OW24928   1.349   1.192   5.327 -0.1260  0.1984 -0.4132
 4432SOL    HW124929   1.417   1.179   5.260 -0.4263  1.3382 -0.9416
 4432SOL    HW224930   1.388   1.164   5.410  0.4176 -0.1363 -0.7790
 4433SOL     OW24931   0.030   0.522   3.315  0.1484 -0.0017  0.5347
 4433SOL    HW124932   0.051   0.530   3.408  0.1116  3.2253  0.2545
 4433SOL    HW224933   0.024   0.617   3.303  1.5940  0.1842  1.2914
 4434SOL     OW24934   4.382   3.162   6.260  0.3436  0.1083 -0.2479
 4434SOL    HW124935   4.437   3.087   6.239 -0.9366 -1.6081  2.5913
 4434SOL    HW224936   4.326   3.135   6.333  2.5000 -2.8510  0.2696
 4435SOL     OW24937   4.424   3.030   5.822 -0.2689  0.3254 -0.1823
 4435SOL    HW124938   4.457   2.966   5.759 -0.2811  0.1534 -0.0165
 4435SOL    HW224939   4.359   2.982   5.874  0.6244 -0.7937 -0.0856
 4436SOL     OW24940   0.102   0.784  17.437 -0.1891 -0.8437 -0.1550
 4436SOL    HW124941   0.095   0.777  17.342  1.3424  0.4587 -0.3585
 4436SOL    HW224942   0.010   0.784  17.465 -0.0086 -1.5796  0.4363
 4437SOL     OW24943   0.960   2.186   0.929 -0.0062  0.0014  0.2713
 4437SOL    HW124944   0.998   2.268   0.960  1.5054 -0.2171 -0.9815
 4437SOL    HW224945   0.962   2.193   0.834 -0.3022 -0.8558  0.2015
 4438SOL     OW24946   1.436   4.376  16.690 -0.4763 -0.0758 -0.6499
 4438SOL    HW124947   1.430   4.282  16.706 -3.8427  0.0212 -1.2892
 4438SOL    HW224948   1.408   4.404  16.777 -0.6213  1.1758 -1.0870
 4439SOL     OW24949   1.362   3.181  11.192  0.1424  0.0211  0.7230
 4439SOL    HW124950   1.396   3.094  11.212  0.8961 -0.2432 -1.6342
 4439SOL    HW224951   1.376   3.193  11.098  2.4124  0.6666  1.1565
 4440SOL     OW24952   1.416   4.054  13.310  0.4536 -0.0809  0.2495
 4440SOL    HW124953   1.378   4.007  13.385 -0.8526  1.3224  0.4718
 4440SOL    HW224954   1.338   4.084  13.264  0.8484 -0.1752 -0.4775
 4441SOL     OW24955   0.868   3.813   5.521 -0.3524  0.0337 -0.1360
 4441SOL    HW124956   0.956   3.816   5.559 -0.1600 -0.3773 -0.5562
 4441SOL    HW224957   0.865   3.888   5.462  0.2489  0.3279  0.2010
 4442SOL     OW24958   1.406   1.483   8.592 -0.4001  0.0986  0.0769
 4442SOL    HW124959   1.415   1.397   8.551 -0.1075  0.1227  0.0965
 4442SOL    HW224960   1.401   1.532   8.509 -1.7753 -1.4767 -0.7684
 4443SOL     OW24961   1.908   4.044   2.171  0.1968 -0.3943  0.4704
 4443SOL    HW124962   1.856   4.100   2.113  1.2742  2.5062  2.2847
 4443SOL    HW224963   1.907   4.097   2.251  1.0074  1.7613 -0.9568
 4444SOL     OW24964   1.090   1.625   8.499  0.0897  0.1485 -0.1513
 4444SOL    HW124965   1.106   1.624   8.405 -1.7369  1.4677 -0.4822
 4444SOL    HW224966   1.165   1.672   8.537  0.2874 -0.4513  0.2045
 4445SOL     OW24967   0.806   4.291   0.886  0.0545  0.2433  0.0498
 4445SOL    HW124968   0.891   4.328   0.861  0.2779  0.1800  0.7293
 4445SOL    HW224969   0.775   4.336   0.964 -0.1453  1.6885 -0.8571
 4446SOL     OW24970   4.710   2.359  10.060 -0.2253  0.2736  0.1870
 4446SOL    HW124971   0.032   2.431  10.068 -0.4884  0.4821  0.4156
 4446SOL    HW224972   0.016   2.295  10.008 -0.5014  0.5607 -0.4289
 4447SOL     OW24973   1.467   4.027   4.260  0.3184 -0.0471  0.5455
 4447SOL    HW124974   1.540   4.074   4.301  2.3380  0.1686 -3.2742
 4447SOL    HW224975   1.519   3.998   4.185  1.1799  0.9947  0.7410
 4448SOL     OW24976   0.415   1.013   5.776 -0.1851 -0.6066 -0.1857
 4448SOL    HW124977   0.411   1.032   5.682  1.5574  0.0593 -0.1320
 4448SOL    HW224978   0.327   0.978   5.791  0.8463 -3.5828 -0.9236
 4449SOL     OW24979   3.069   1.229   9.298 -0.1965 -0.9313 -0.0489
 4449SOL    HW124980   3.067   1.259   9.389 -1.5181 -1.9817  0.2679
 4449SOL    HW224981   3.094   1.308   9.249  0.6871 -0.1442  1.6824
 4450SOL     OW24982   2.587   2.452   3.712  0.0401  0.0057 -0.1505
 4450SOL    HW124983   2.536   2.380   3.677  1.1404 -1.4811  1.2656
 4450SOL    HW224984   2.518   2.504   3.753 -1.2584 -2.1839  0.4494
 4451SOL     OW24985   4.478   2.135  12.785 -0.5652 -0.0407 -0.4512
 4451SOL    HW124986   4.403   2.173  12.739 -1.2765 -1.5187 -0.4951
 4451SOL    HW224987   4.477   2.048  12.745 -1.9150 -0.3679  0.2952
 4452SOL     OW24988   3.342   0.759   4.237 -0.8198 -0.1595  0.1899
 4452SOL    HW124989   3.349   0.854   4.243 -0.2636 -0.1722 -0.2778
 4452SOL    HW224990   3.291   0.737   4.159  0.1952 -1.1305 -0.2235
 4453SOL     OW24991   4.071   2.607   9.685  0.5465  0.2574 -1.0919
 4453SOL    HW124992   3.979   2.582   9.677  0.8472 -0.3281 -2.7147
 4453SOL    HW224993   4.074   2.676   9.618  1.8501 -0.3422 -1.6426
 4454SOL     OW24994   2.534   3.787   4.687 -0.1618 -0.0402 -0.4642
 4454SOL    HW124995   2.569   3.727   4.752  0.8603  1.8153  0.7075
 4454SOL    HW224996   2.616   3.829   4.662  0.8623 -0.3352  2.4107
 4455SOL     OW24997   0.578   3.756  16.226 -0.1347 -0.1193  0.0287
 4455SOL    HW124998   0.598   3.827  16.166  0.8504  0.0172  0.5082
 4455SOL    HW224999   0.589   3.683  16.165 -0.6693  0.6900 -1.0314
 4456SOL     OW25000   1.928   1.581   5.102 -0.3187  0.0909  0.0731
 4456SOL    HW125001   2.005   1.601   5.048  0.0965 -0.3037  0.5187
 4456SOL    HW225002   1.924   1.487   5.084  0.7769  0.4837 -2.2630
 4457SOL     OW25003   3.629   2.859  16.856  0.5993  0.4406  0.2949
 4457SOL    HW125004   3.678   2.783  16.824 -0.2255  0.8679 -2.0523
 4457SOL    HW225005   3.633   2.847  16.950  0.0664 -0.0713  0.2547
 4458SOL     OW25006   4.346   4.004   8.606  0.1497  0.2407 -0.4997
 4458SOL    HW125007   4.267   3.963   8.642  0.6614 -0.2627  0.0502
 4458SOL    HW225008   4.369   3.927   8.555 -1.4400 -0.1758 -0.6020
 4459SOL     OW25009   2.196   3.156   3.248  0.3714  0.3183  0.1142
 4459SOL    HW125010   2.119   3.206   3.273  0.1659  0.2758 -0.4318
 4459SOL    HW225011   2.178   3.078   3.300 -1.4734  0.2388 -0.6697
 4460SOL     OW25012   2.505   0.934  11.873 -0.3101  0.1445 -0.3004
 4460SOL    HW125013   2.584   0.941  11.927 -2.0592  0.1807  2.2611
 4460SOL    HW225014   2.509   0.840  11.853 -1.3284 -0.0579  0.4438
 4461SOL     OW25015   4.570   0.310   1.633 -0.5679 -0.0459  0.1014
 4461SOL    HW125016   4.527   0.374   1.576  2.0795  1.7179  0.0800
 4461SOL    HW225017   4.516   0.231   1.626 -0.7757  0.3380 -2.7094
 4462SOL     OW25018   1.084   2.557   9.175 -0.7192  0.2637  0.1788
 4462SOL    HW125019   1.014   2.590   9.118 -0.0869 -1.8196 -1.7945
 4462SOL    HW225020   1.063   2.607   9.254  0.1556  2.0429 -0.7221
 4463SOL     OW25021   0.685   3.936  14.142 -0.5927  0.1487 -0.5614
 4463SOL    HW125022   0.741   3.935  14.220  0.2577  1.4911 -1.1658
 4463SOL    HW225023   0.751   3.956  14.076  1.1880  0.3937  1.2948
 4464SOL     OW25024   2.779   2.739  11.626 -0.6277 -0.1545  0.8630
 4464SOL    HW125025   2.844   2.723  11.695 -2.5630 -1.2084  2.4284
 4464SOL    HW225026   2.723   2.667  11.655 -1.7065  1.3437  2.4454
 4465SOL     OW25027   2.082   1.571   1.845  0.4048  0.1873  0.2778
 4465SOL    HW125028   2.008   1.604   1.896  0.9484  2.4342 -0.3896
 4465SOL    HW225029   2.153   1.546   1.904  1.0154  0.1626 -0.4711
 4466SOL     OW25030   0.609   1.178   5.875 -0.1991  0.4690  0.3141
 4466SOL    HW125031   0.562   1.211   5.951 -1.0903  0.6142 -0.2961
 4466SOL    HW225032   0.525   1.168   5.830 -0.4283  0.1025  0.8177
 4467SOL     OW25033   4.490   0.161   7.316  0.0583  0.2325 -0.4853
 4467SOL    HW125034   4.564   0.113   7.355 -0.6409 -0.0261  0.5105
 4467SOL    HW225035   4.478   0.239   7.369 -0.5761 -0.4306  0.3439
 4468SOL     OW25036   2.565   3.980   5.127 -0.4683  0.1995  0.1352
 4468SOL    HW125037   2.610   4.057   5.093 -0.4938  0.2051  0.1136
 4468SOL    HW225038   2.484   3.967   5.076  0.4168  1.7391 -1.6594
 4469SOL     OW25039   3.015   0.061   1.659 -0.1662  0.2273  0.0417
 4469SOL    HW125040   2.967   0.112   1.725 -0.2711 -1.1280  1.0258
 4469SOL    HW225041   2.948   0.029   1.598  1.1347 -3.5389  0.5560
 4470SOL     OW25042   1.408   0.703   1.620 -0.1536  0.4260  0.5420
 4470SOL    HW125043   1.364   0.681   1.538 -1.3772  1.4256  0.9373
 4470SOL    HW225044   1.477   0.760   1.586  0.2542  0.3096  1.1863
 4471SOL     OW25045   1.706   1.106  13.553  0.4104  0.0647  1.0086
 4471SOL    HW125046   1.637   1.171  13.539  1.3441  0.4414 -1.8214
 4471SOL    HW225047   1.683   1.056  13.631  3.1285 -0.5890  1.3927
 4472SOL     OW25048   0.538   0.270   1.228  0.1762  0.6344 -0.3705
 4472SOL    HW125049   0.583   0.205   1.283 -0.5768  0.4244 -0.0010
 4472SOL    HW225050   0.549   0.356   1.269  0.9162 -0.3459  1.4831
 4473SOL     OW25051   2.185   4.722   1.510  0.3607  0.2116 -0.4778
 4473SOL    HW125052   2.166   0.046   1.578  0.2023  1.2420 -1.5197
 4473SOL    HW225053   2.167   0.039   1.437 -0.0889  3.0135  1.8595
 4474SOL     OW25054   2.681   3.912   2.149 -0.4712  0.3321 -0.5611
 4474SOL    HW125055   2.761   3.961   2.163  0.4078 -0.9769 -1.0128
 4474SOL    HW225056   2.613   3.977   2.166 -0.5609 -0.3036  1.4857
 4475SOL     OW25057   3.852   0.468  17.465  0.2617 -1.0991 -0.0325
 4475SOL    HW125058   3.892   0.479  17.379 -0.8655  3.1939 -0.0138
 4475SOL    HW225059   3.791   0.542  17.467  1.3591 -0.2046  0.2225
 4476SOL     OW25060   2.211   3.019  10.056 -0.8020 -0.0102 -0.0444
 4476SOL    HW125061   2.267   3.096  10.048 -0.9438 -0.1207 -2.2941
 4476SOL    HW225062   2.286   2.959  10.061 -1.2664 -0.6796 -1.0161
 4477SOL     OW25063   0.460   1.710   3.576  0.5755 -0.1002 -0.0584
 4477SOL    HW125064   0.495   1.733   3.663 -1.4944 -0.9882  1.0008
 4477SOL    HW225065   0.538   1.713   3.521 -1.0452  1.4901 -2.2549
 4478SOL     OW25066   0.322   1.411  10.456 -0.1137 -0.0635  0.2314
 4478SOL    HW125067   0.389   1.344  10.439  1.9328  1.4139  2.6313
 4478SOL    HW225068   0.346   1.494  10.415 -1.1945  0.3736  0.4910
 4479SOL     OW25069   4.535   1.527   7.142 -0.1626 -0.3392  0.3120
 4479SOL    HW125070   4.565   1.617   7.150 -0.6125 -0.0728 -1.0634
 4479SOL    HW225071   4.613   1.471   7.146 -0.2891 -0.6374 -1.3128
 4480SOL     OW25072   4.301   1.638   7.985 -0.2512  0.7522  0.2965
 4480SOL    HW125073   4.363   1.708   7.965 -1.1210  0.8786 -1.9829
 4480SOL    HW225074   4.323   1.576   7.915  4.4231  0.3218  2.1928
 4481SOL     OW25075   2.995   1.589   8.072 -0.2552  0.6071 -0.1620
 4481SOL    HW125076   3.060   1.537   8.120 -0.9876 -0.5909 -0.4983
 4481SOL    HW225077   2.914   1.555   8.109 -0.1107 -0.2176 -0.6086
 4482SOL     OW25078   1.230   4.384   3.182  1.0054 -0.1169 -0.1607
 4482SOL    HW125079   1.244   4.450   3.114  3.0238 -0.0971  0.2913
 4482SOL    HW225080   1.219   4.304   3.130 -0.4856  0.6913 -1.0922
 4483SOL     OW25081   0.460   0.526   6.663 -0.1587  0.0937 -0.1935
 4483SOL    HW125082   0.386   0.524   6.603 -0.2114 -1.7632 -0.0740
 4483SOL    HW225083   0.532   0.569   6.616 -0.2862 -0.3444 -0.7896
 4484SOL     OW25084   3.766   2.824   4.813 -0.1782 -0.2315 -0.3771
 4484SOL    HW125085   3.845   2.804   4.763  1.1212  1.2878  1.0771
 4484SOL    HW225086   3.788   2.775   4.893 -2.3416  0.2710  0.5126
 4485SOL     OW25087   2.656   1.258  10.960 -0.0741 -0.0775  0.4907
 4485SOL    HW125088   2.610   1.238  10.879 -1.5860 -2.0147  1.8104
 4485SOL    HW225089   2.742   1.274  10.921 -1.2777  1.9045 -1.2971
 4486SOL     OW25090   2.039   1.782  13.965  0.2992  0.3581  0.6362
 4486SOL    HW125091   1.998   1.719  13.907  0.0107  0.0699  1.1539
 4486SOL    HW225092   2.130   1.758  13.948  0.2218 -0.4277  1.3346
 4487SOL     OW25093   0.931   0.990  12.425 -0.3006 -0.2993 -0.0349
 4487SOL    HW125094   0.940   1.070  12.372  1.0352  1.0339  2.2218
 4487SOL    HW225095   0.943   0.928  12.353 -1.8981 -0.9108  0.2238
 4488SOL     OW25096   1.631   2.513   1.734 -1.1480 -0.3325  0.2043
 4488SOL    HW125097   1.682   2.461   1.797 -0.1166  0.5026  0.0489
 4488SOL    HW225098   1.654   2.478   1.648 -1.6209  1.0792 -0.4937
 4489SOL     OW25099   1.741   4.257   4.916  0.0207  0.0121 -0.2675
 4489SOL    HW125100   1.676   4.237   4.983 -1.6790 -0.4602 -2.0437
 4489SOL    HW225101   1.720   4.349   4.900 -0.0631 -0.1244 -0.9655
 4490SOL     OW25102   0.787   3.788   8.462 -0.5632 -0.3154 -0.1213
 4490SOL    HW125103   0.724   3.810   8.394 -1.0368  1.1217  0.7815
 4490SOL    HW225104   0.726   3.729   8.508  0.3731 -0.4809  0.8933
 4491SOL     OW25105   1.117   0.168  16.574 -0.5690 -0.0466 -0.0079
 4491SOL    HW125106   1.091   0.103  16.640  2.0514 -1.1608 -0.1167
 4491SOL    HW225107   1.168   0.229  16.628  0.9527 -1.0547 -0.3458
 4492SOL     OW25108   1.755   4.152   0.735  0.1290 -0.0611  0.3242
 4492SOL    HW125109   1.843   4.173   0.767 -0.6869 -0.9571  3.1451
 4492SOL    HW225110   1.709   4.154   0.819 -0.7788 -0.0944 -0.1779
 4493SOL     OW25111   3.830   1.165  15.355 -0.1286  0.4731 -0.1816
 4493SOL    HW125112   3.738   1.139  15.350  0.0764  0.0041 -1.4521
 4493SOL    HW225113   3.856   1.174  15.446  0.1319  1.5681 -0.3584
 4494SOL     OW25114   1.182   3.897  14.478  0.3332 -0.3072 -0.5214
 4494SOL    HW125115   1.210   3.927  14.392  0.2948  0.0138 -0.4203
 4494SOL    HW225116   1.138   3.818  14.445 -0.6322  0.3537 -0.8042
 4495SOL     OW25117   3.176   4.307  16.835 -0.3373 -0.4205  0.1859
 4495SOL    HW125118   3.189   4.217  16.865 -0.3209 -0.8922 -1.2383
 4495SOL    HW225119   3.147   4.299  16.744  0.8525  0.6775 -0.2899
 4496SOL     OW25120   0.005   3.621   3.586  0.4466  0.3701 -0.4066
 4496SOL    HW125121   4.726   3.533   3.554  1.8441 -0.2649  0.3938
 4496SOL    HW225122   4.715   3.682   3.520 -0.3994  0.7361  0.3361
 4497SOL     OW25123   1.865   2.925   6.421 -0.2275  0.4644 -0.4887
 4497SOL    HW125124   1.834   2.997   6.475  0.3259  1.6128 -1.6791
 4497SOL    HW225125   1.860   2.958   6.331 -1.1341 -0.4471 -0.7807
 4498SOL     OW25126   4.201   2.819  17.451 -0.0833  0.9286 -0.7797
 4498SOL    HW125127   4.227   2.728  17.433  1.2464  0.7968  1.8889
 4498SOL    HW225128   4.138   2.833  17.380 -0.7639  0.0293 -0.3637
 4499SOL     OW25129   0.586   0.493   1.647 -0.3633  0.6447  0.2666
 4499SOL    HW125130   0.668   0.455   1.618  0.6232  1.8416  1.4672
 4499SOL    HW225131   0.543   0.421   1.600  0.5157  0.2036  0.1395
 4500SOL     OW25132   1.899   1.386   8.048  0.5288 -0.0871  0.1947
 4500SOL    HW125133   1.932   1.340   7.972  0.4070  0.7114 -0.3452
 4500SOL    HW225134   1.822   1.435   8.019 -0.1927 -1.1066  0.4120
 4501SOL     OW25135   3.066   0.267   6.619  0.3799 -0.5788 -0.5417
 4501SOL    HW125136   3.010   0.250   6.542 -0.0901 -0.2922 -0.2589
 4501SOL    HW225137   3.094   0.357   6.608 -1.1666  0.0379  0.5984
 4502SOL     OW25138   4.455   2.022   9.020 -0.0925 -0.2527  0.2502
 4502SOL    HW125139   4.534   2.051   8.975  1.1893 -2.3337  1.1651
 4502SOL    HW225140   4.468   1.928   9.010  0.3049 -0.1459 -0.2467
 4503SOL     OW25141   1.246   2.490   9.906 -0.0190  0.2334 -0.4968
 4503SOL    HW125142   1.170   2.456   9.952  1.7233 -1.4980  1.1278
 4503SOL    HW225143   1.210   2.487   9.818 -0.7355  0.6624 -0.2161
 4504SOL     OW25144   3.350   2.017   3.250 -0.1768  0.0463  0.0593
 4504SOL    HW125145   3.367   1.997   3.158  1.0905  1.1951  0.0470
 4504SOL    HW225146   3.308   2.104   3.246  1.5973  0.9536  1.4999
 4505SOL     OW25147   0.523   2.461   9.025  0.2086 -0.2906  0.1741
 4505SOL    HW125148   0.452   2.476   9.087 -0.4275 -1.4173 -0.2846
 4505SOL    HW225149   0.589   2.446   9.094 -0.7395 -2.1492  0.6717
 4506SOL     OW25150   4.585   1.237   8.588 -0.0969 -0.3946  0.5647
 4506SOL    HW125151   4.540   1.320   8.571  1.7490  1.4580  4.4787
 4506SOL    HW225152   4.525   1.171   8.555 -1.1359  1.0024 -0.3479
 4507SOL     OW25153   2.712   1.780  16.390  0.1760  0.0697  0.3258
 4507SOL    HW125154   2.779   1.723  16.353  1.2702  0.6872  1.3424
 4507SOL    HW225155   2.707   1.849  16.325 -2.1341 -1.0898 -0.7107
 4508SOL     OW25156   2.374   4.708   9.716 -0.2243  0.0113  0.2428
 4508SOL    HW125157   2.318   4.693   9.640 -0.2438  1.1343  0.0290
 4508SOL    HW225158   2.306   4.701   9.783  0.7088  1.5247  1.3446
 4509SOL     OW25159   2.668   1.953   4.287 -0.0333  0.2871  0.1286
 4509SOL    HW125160   2.642   1.869   4.325  0.0468  0.0225 -0.4005
 4509SOL    HW225161   2.717   1.920   4.212 -0.2203  2.4871 -0.9504
 4510SOL     OW25162   3.321   3.694   1.655  0.3203  0.3074  0.5412
 4510SOL    HW125163   3.385   3.652   1.598 -1.5546 -1.1018 -0.5341
 4510SOL    HW225164   3.329   3.782   1.618  1.5577 -0.2107 -0.4257
 4511SOL     OW25165   3.471   3.118   7.707 -0.5182  0.2383  0.0629
 4511SOL    HW125166   3.514   3.035   7.688 -1.5009 -0.2694  0.0682
 4511SOL    HW225167   3.449   3.140   7.617 -0.4814  2.9098  0.7167
 4512SOL     OW25168   1.163   1.672   8.852  0.4126 -0.4475 -0.0427
 4512SOL    HW125169   1.201   1.716   8.776  2.5968 -1.6602  0.3243
 4512SOL    HW225170   1.071   1.689   8.835 -0.4450 -2.1555  2.8503
 4513SOL     OW25171   2.496   4.157   3.106  0.0067 -0.1481 -0.1931
 4513SOL    HW125172   2.457   4.146   3.020  0.0197 -1.4198 -0.0327
 4513SOL    HW225173   2.566   4.218   3.085 -1.0371  0.5029 -1.7875
 4514SOL     OW25174   1.580   4.034  14.465 -0.3943 -0.3784 -0.1360
 4514SOL    HW125175   1.541   3.947  14.465 -1.2371  0.0028 -0.2938
 4514SOL    HW225176   1.666   4.022  14.426  0.9459 -1.0720  3.0406
 4515SOL     OW25177   4.261   4.200   0.760 -0.0697  0.4470 -0.1872
 4515SOL    HW125178   4.246   4.211   0.666 -0.6341  1.5243  0.0170
 4515SOL    HW225179   4.247   4.290   0.791 -0.8437  0.3184 -0.1495
 4516SOL     OW25180   4.670   2.131  13.795  0.0789 -0.0918  0.0601
 4516SOL    HW125181   4.633   2.190  13.861  0.2206 -2.2399  2.0648
 4516SOL    HW225182   4.617   2.051  13.799 -0.2516  0.1393  0.2976
 4517SOL     OW25183   0.949   0.904   0.200 -0.4853 -0.2274  0.4519
 4517SOL    HW125184   0.961   0.948   0.116 -0.9606 -2.0133 -0.5490
 4517SOL    HW225185   1.036   0.883   0.234  1.1418  1.0131 -2.9322
 4518SOL     OW25186   2.728   0.439   4.430 -0.3613 -0.0325  0.1735
 4518SOL    HW125187   2.676   0.509   4.470  0.2941 -0.2070  1.3391
 4518SOL    HW225188   2.679   0.441   4.348 -0.2492 -1.3624  0.0726
 4519SOL     OW25189   3.634   2.101   8.161 -0.3889  0.9090  0.4323
 4519SOL    HW125190   3.644   2.006   8.151 -0.3507  0.9837 -0.1900
 4519SOL    HW225191   3.673   2.131   8.080 -0.4151  0.0520  0.1026
 4520SOL     OW25192   2.484   4.070   5.362 -0.2427 -0.1753 -0.3089
 4520SOL    HW125193   2.522   4.041   5.279  0.6263  1.0009 -0.3234
 4520SOL    HW225194   2.415   4.004   5.363  1.5563 -2.0272  0.3990
 4521SOL     OW25195   2.912   4.375   0.030  0.4673 -0.1890 -0.3095
 4521SOL    HW125196   2.878   4.460   0.058  1.8295 -0.0859  1.0563
 4521SOL    HW225197   2.914   4.393  17.700 -3.0729  1.6292 -0.0289
 4522SOL     OW25198   1.648   2.077  11.241 -0.1043  0.0379 -0.1738
 4522SOL    HW125199   1.672   1.986  11.222  0.2945 -0.0239  0.6574
 4522SOL    HW225200   1.731   2.122  11.225  0.0595  0.2951  1.4393
 4523SOL     OW25201   2.584   4.544  14.356  0.0066 -0.3563 -0.0651
 4523SOL    HW125202   2.559   4.519  14.267 -4.0414 -4.3394  2.1708
 4523SOL    HW225203   2.644   4.618  14.362  1.4512 -1.2200 -3.6361
 4524SOL     OW25204   0.766   4.025  15.144  0.5547 -0.1724 -0.2899
 4524SOL    HW125205   0.820   3.997  15.217  0.1877  1.8006  0.7433
 4524SOL    HW225206   0.680   4.037  15.185 -0.0524  0.1051 -1.6171
 4525SOL     OW25207   2.624   3.227  16.048  0.3439  0.2750  0.2315
 4525SOL    HW125208   2.648   3.143  16.086 -1.8017  0.1151  1.2160
 4525SOL    HW225209   2.661   3.207  15.962  1.1174 -0.4791  0.7389
 4526SOL     OW25210   0.133   1.486   8.860 -0.3775 -0.6298 -0.1171
 4526SOL    HW125211   0.168   1.415   8.913 -0.6778 -1.8986 -1.6095
 4526SOL    HW225212   0.182   1.470   8.779 -0.1438 -1.6743  0.2382
 4527SOL     OW25213   3.266   3.004   0.625  0.6150  0.1056 -0.1134
 4527SOL    HW125214   3.200   3.053   0.675  0.2859 -0.4067 -0.0433
 4527SOL    HW225215   3.302   2.944   0.690  0.3094 -0.7332 -0.7159
 4528SOL     OW25216   1.489   2.517  15.227 -0.3218  0.4520  0.2659
 4528SOL    HW125217   1.523   2.591  15.177 -1.8490  0.6573 -0.4598
 4528SOL    HW225218   1.399   2.539  15.250  0.1341  2.2669  0.3264
 4529SOL     OW25219   3.194   2.577  14.064  0.4054  0.1534  0.0823
 4529SOL    HW125220   3.124   2.636  14.034 -1.6563 -1.6739  1.2455
 4529SOL    HW225221   3.141   2.498  14.079  0.2364  0.2365 -0.0738
 4530SOL     OW25222   3.612   1.005   5.258 -0.3721 -0.4126 -0.1167
 4530SOL    HW125223   3.596   0.964   5.173  1.0736 -2.2852  0.5112
 4530SOL    HW225224   3.623   1.096   5.230 -1.1166  0.3198  1.9898
 4531SOL     OW25225   0.278   1.631   9.170 -0.3276 -0.3812  0.3643
 4531SOL    HW125226   0.236   1.714   9.147 -0.3282 -0.3479  0.4869
 4531SOL    HW225227   0.205   1.598   9.223 -1.2166 -0.5045 -0.9325
 4532SOL     OW25228   3.146   2.315   8.585  0.1826  0.9891 -0.1371
 4532SOL    HW125229   3.055   2.337   8.567 -0.5076 -0.0022  2.1686
 4532SOL    HW225230   3.150   2.291   8.677  0.5500  0.5542 -0.2650
 4533SOL     OW25231   2.650   0.067   1.820 -0.4947  0.8569 -0.5475
 4533SOL    HW125232   2.660   4.736   1.881  0.4894 -0.5501 -2.3786
 4533SOL    HW225233   2.727   0.118   1.843 -0.0765 -0.7887  1.7504
 4534SOL     OW25234   4.372   0.248   2.193 -0.2206 -0.3146  0.8014
 4534SOL    HW125235   4.305   0.191   2.232 -0.4812 -0.5155  0.0463
 4534SOL    HW225236   4.441   0.246   2.259 -1.1265 -2.3147  1.7043
 4535SOL     OW25237   1.721   0.195  15.875  0.2499 -0.3997  0.0278
 4535SOL    HW125238   1.648   0.251  15.848  2.2514  1.4772 -1.5062
 4535SOL    HW225239   1.776   0.184  15.798 -0.8015 -1.3636 -0.5970
 4536SOL     OW25240   4.095   2.225   9.348  0.6497  1.1246 -0.2816
 4536SOL    HW125241   4.148   2.286   9.398  0.6011 -0.6109  1.8598
 4536SOL    HW225242   4.142   2.195   9.270  0.8348  1.0505 -0.1419
 4537SOL     OW25243   1.212   1.084   4.674  0.6413  0.2552 -0.0884
 4537SOL    HW125244   1.187   1.001   4.635 -0.3656  0.6149 -0.2122
 4537SOL    HW225245   1.129   1.131   4.665  0.4888 -0.2668 -1.3478
 4538SOL     OW25246   4.242   1.005   5.345 -0.2441 -0.2223  0.2268
 4538SOL    HW125247   4.273   0.976   5.431 -3.2530 -1.6321  0.8254
 4538SOL    HW225248   4.290   1.088   5.342 -1.3777  0.4659  1.1417
 4539SOL     OW25249   0.211   3.925   1.101 -0.5087 -0.1099 -0.0935
 4539SOL    HW125250   0.275   3.862   1.133  1.1850  1.8435  0.2927
 4539SOL    HW225251   0.184   3.967   1.182 -1.2150 -1.3304  0.3086
 4540SOL     OW25252   2.349   1.937  13.292 -0.5067  0.3926  0.0016
 4540SOL    HW125253   2.265   1.906  13.257  1.0445 -2.2498 -1.4052
 4540SOL    HW225254   2.324   1.976  13.375 -3.4833  1.6567 -1.5033
 4541SOL     OW25255   3.105   3.575   1.777  0.3157  0.2834  0.3174
 4541SOL    HW125256   3.187   3.615   1.748  0.3484  0.1397  0.2121
 4541SOL    HW225257   3.152   3.493   1.787  1.5161  0.9828  0.4418
 4542SOL     OW25258   3.137   3.480  16.059 -0.5801  0.2283 -0.7809
 4542SOL    HW125259   3.155   3.568  16.092  0.1545  0.2972 -1.3623
 4542SOL    HW225260   3.083   3.498  15.982 -1.7471  0.6660  0.1486
 4543SOL     OW25261   0.998   1.258   2.646  0.2135 -0.3036 -0.7775
 4543SOL    HW125262   1.036   1.238   2.560 -1.1107  0.4441 -1.5320
 4543SOL    HW225263   1.075   1.248   2.703  0.7680 -1.6356 -1.7415
 4544SOL     OW25264   3.619   1.318  16.175  0.0108  0.1588 -0.1031
 4544SOL    HW125265   3.554   1.312  16.245  0.5884 -2.1207  0.2347
 4544SOL    HW225266   3.697   1.342  16.226  0.4083 -0.7176 -0.2963
 4545SOL     OW25267   4.608   2.346   8.199 -0.4188 -0.5507 -0.2808
 4545SOL    HW125268   4.673   2.363   8.268 -0.9359  2.7325 -0.5764
 4545SOL    HW225269   4.562   2.267   8.226 -1.4694 -0.8828 -3.0344
 4546SOL     OW25270   4.555   2.546  14.925 -0.5606  0.3014 -0.6489
 4546SOL    HW125271   4.536   2.581  15.012 -0.2450 -2.4026  0.5124
 4546SOL    HW225272   4.492   2.589  14.866 -2.0304 -0.1789  0.5791
 4547SOL     OW25273   2.967   2.768   2.575  0.4544  0.1885  0.9628
 4547SOL    HW125274   2.930   2.759   2.487  1.0898  0.5516  0.6642
 4547SOL    HW225275   2.960   2.679   2.608 -1.6070  0.3998  1.1262
 4548SOL     OW25276   4.705   0.142   3.042 -0.5545 -0.0274  0.2584
 4548SOL    HW125277   0.048   0.186   3.054  0.3674 -1.3606 -1.2496
 4548SOL    HW225278   4.673   0.174   2.958 -2.0956  0.8711  1.1970
 4549SOL     OW25279   1.609   4.612   2.284  0.9396  0.7804  0.1818
 4549SOL    HW125280   1.638   4.702   2.267 -3.1117  1.9950 -0.1227
 4549SOL    HW225281   1.600   4.576   2.196 -4.9535  0.9078  0.7526
 4550SOL     OW25282   1.424   4.670  15.830  0.7737  0.3491  0.3199
 4550SOL    HW125283   1.367   4.676  15.907  1.3882  1.6663  0.6750
 4550SOL    HW225284   1.436   4.575  15.825  0.0813  0.2846 -0.1175
 4551SOL     OW25285   0.440   0.630  12.208  0.1003 -0.1855  0.4780
 4551SOL    HW125286   0.489   0.709  12.230  0.5530  0.8093 -4.1257
 4551SOL    HW225287   0.500   0.563  12.240  0.9606  0.8196  0.9486
 4552SOL     OW25288   1.589   4.169  13.155  0.5261 -0.3107 -0.0789
 4552SOL    HW125289   1.539   4.134  13.228 -1.7482 -0.4379 -1.7162
 4552SOL    HW225290   1.602   4.258  13.186  0.5932 -0.2120 -0.3896
 4553SOL     OW25291   1.096   2.238  10.607  0.2719 -0.0297  0.1401
 4553SOL    HW125292   1.181   2.220  10.646 -0.2663  1.2030  1.9203
 4553SOL    HW225293   1.059   2.295  10.675 -1.1413  0.1422 -0.7757
 4554SOL     OW25294   3.125   1.122   7.678  0.6081 -0.6228  0.4842
 4554SOL    HW125295   3.113   1.129   7.583  0.3972  1.9023  0.7239
 4554SOL    HW225296   3.157   1.031   7.678  0.8155 -0.5482  0.9471
 4555SOL     OW25297   1.840   3.921   2.520 -0.5667 -0.2980  0.3336
 4555SOL    HW125298   1.792   4.002   2.501  1.0684  1.1006  2.1906
 4555SOL    HW225299   1.902   3.954   2.586 -0.6484 -1.5685  1.0449
 4556SOL     OW25300   4.710   3.748   9.278  0.2971 -0.1211  0.2161
 4556SOL    HW125301   0.003   3.765   9.366  1.8004 -0.6452 -0.2704
 4556SOL    HW225302   4.635   3.697   9.308  0.5421  0.3097  1.5543
 4557SOL     OW25303   3.096   0.924   7.975  0.2533  0.7552 -0.1517
 4557SOL    HW125304   3.111   0.923   7.880  1.4243  1.4923  0.0364
 4557SOL    HW225305   3.002   0.940   7.988  0.1973  0.8094 -0.6195
 4558SOL     OW25306   0.248   4.637   0.075 -0.0302  0.2076 -0.4530
 4558SOL    HW125307   0.334   4.604   0.051  0.1603  1.1312 -1.0050
 4558SOL    HW225308   0.237   4.618   0.168  2.2839 -1.4830 -0.5389
 4559SOL     OW25309   1.346   4.552   5.324 -0.0139  0.3355 -0.9697
 4559SOL    HW125310   1.297   4.613   5.379  1.3798 -0.5269  1.2346
 4559SOL    HW225311   1.436   4.564   5.352 -0.3920  1.1891 -0.1522
 4560SOL     OW25312   1.545   4.357   0.469  0.0695  0.1769  0.4941
 4560SOL    HW125313   1.571   4.411   0.394 -1.4231  1.0316  0.5869
 4560SOL    HW225314   1.542   4.427   0.534  0.5471  0.3309  0.3517
 4561SOL     OW25315   2.375   4.419   8.329 -0.0653  0.1220  0.7012
 4561SOL    HW125316   2.416   4.487   8.384  1.8725 -1.1633  0.8363
 4561SOL    HW225317   2.289   4.459   8.312  0.3745  0.3052 -1.0276
 4562SOL     OW25318   3.577   3.314   2.238 -0.9191  0.2142 -0.9436
 4562SOL    HW125319   3.643   3.269   2.290 -2.9394 -0.2445  1.2325
 4562SOL    HW225320   3.580   3.256   2.162 -1.5324 -0.2555 -0.6044
 4563SOL     OW25321   4.495   1.007   3.364 -0.1522 -0.8770  0.1904
 4563SOL    HW125322   4.416   0.977   3.408  0.5413 -0.6662  1.5682
 4563SOL    HW225323   4.470   0.972   3.278 -0.0981  0.1232 -0.2406
 4564SOL     OW25324   0.972   3.152   5.251 -0.3122 -0.0964 -0.4655
 4564SOL    HW125325   0.894   3.098   5.263 -0.5000  0.3056  0.0597
 4564SOL    HW225326   1.021   3.099   5.314 -1.9832 -1.7806 -0.5818
 4565SOL     OW25327   2.176   1.118   8.716 -0.2363 -0.1817 -0.1010
 4565SOL    HW125328   2.162   1.067   8.796 -0.6694 -0.6763 -0.4917
 4565SOL    HW225329   2.255   1.170   8.733  1.5144 -2.6625 -0.5613
 4566SOL     OW25330   3.038   3.914   5.305 -0.1801  0.2502 -0.2754
 4566SOL    HW125331   2.971   3.983   5.305  0.5031  0.9119 -1.0686
 4566SOL    HW225332   3.109   3.963   5.346  1.5675 -3.2286  0.8790
 4567SOL     OW25333   2.539   3.555   8.829  0.6505 -0.2740 -0.4554
 4567SOL    HW125334   2.497   3.636   8.801  1.3070  1.0329  2.3460
 4567SOL    HW225335   2.614   3.554   8.769  1.1478 -1.7282  0.1857
 4568SOL     OW25336   2.130   1.090   9.856 -0.3871  0.1112 -0.1683
 4568SOL    HW125337   2.042   1.076   9.821 -0.2379  0.2414 -0.5939
 4568SOL    HW225338   2.113   1.098   9.950 -1.6975  1.9248 -0.5731
 4569SOL     OW25339   4.062   3.142   4.333  0.4840 -0.0657 -0.4608
 4569SOL    HW125340   3.971   3.111   4.344  0.5515 -0.7845 -1.8806
 4569SOL    HW225341   4.065   3.200   4.409  0.7272  1.7047 -1.8307
 4570SOL     OW25342   3.203   2.309  15.713  0.3524 -0.1012 -0.4296
 4570SOL    HW125343   3.220   2.344  15.800 -1.9249 -1.1834  0.4613
 4570SOL    HW225344   3.247   2.225  15.725  0.3851  0.2491  1.7509
 4571SOL     OW25345   4.061   0.223  15.593 -0.1481  0.3147 -0.2438
 4571SOL    HW125346   3.981   0.254  15.635 -0.0301  0.4628 -0.1269
 4571SOL    HW225347   4.085   0.300  15.541 -2.3459  0.8467 -0.4525
 4572SOL     OW25348   2.642   4.272  12.965 -0.4736 -0.2792 -0.2739
 4572SOL    HW125349   2.600   4.198  12.920 -1.2240 -0.8152  1.3201
 4572SOL    HW225350   2.595   4.340  12.918  0.3747  1.1661  0.9856
 4573SOL     OW25351   0.194   3.566  17.455 -0.1565  0.4712 -0.4971
 4573SOL    HW125352   0.211   3.630  17.524  3.2893 -0.9149 -0.0605
 4573SOL    HW225353   0.275   3.557  17.405 -1.6751  0.3451 -2.9215
 4574SOL     OW25354   1.253   2.945   3.446  0.0384 -0.6417  0.4640
 4574SOL    HW125355   1.199   2.927   3.369  1.5705 -0.3082 -0.6725
 4574SOL    HW225356   1.293   2.861   3.468  0.0111 -0.6646  0.4263
 4575SOL     OW25357   3.232   1.278   7.891  0.1411  0.1627  0.4822
 4575SOL    HW125358   3.289   1.202   7.901 -2.4755 -1.9071 -0.6884
 4575SOL    HW225359   3.170   1.243   7.827 -0.1353  1.1121  0.2288
 4576SOL     OW25360   1.243   2.919  10.432 -0.0080  0.1398 -0.3054
 4576SOL    HW125361   1.253   3.010  10.403  0.0250  0.2934  0.1851
 4576SOL    HW225362   1.331   2.883  10.448  0.6985  2.3739  0.8262
 4577SOL     OW25363   4.151   4.261   2.563  0.3256 -0.7441 -0.4619
 4577SOL    HW125364   4.110   4.335   2.608  0.6540 -0.0312 -1.3350
 4577SOL    HW225365   4.086   4.191   2.574 -1.6963  1.6417  2.7257
 4578SOL     OW25366   4.166   1.205   5.142  0.0844  0.3103  0.6466
 4578SOL    HW125367   4.195   1.265   5.210  2.0057  1.2575 -1.0047
 4578SOL    HW225368   4.100   1.163   5.198 -1.7468  1.4143 -0.6720
 4579SOL     OW25369   0.365   2.146   5.623  0.1798  0.0671 -0.9976
 4579SOL    HW125370   0.444   2.133   5.676  0.1689  0.2778 -0.9281
 4579SOL    HW225371   0.375   2.234   5.588 -0.9947  0.7671  0.4115
 4580SOL     OW25372   2.415   3.314   8.844  0.1452 -0.7619  0.2458
 4580SOL    HW125373   2.474   3.298   8.918  1.0973 -1.1161 -0.5737
 4580SOL    HW225374   2.451   3.399   8.821  1.2828 -1.3466 -0.1780
 4581SOL     OW25375   3.328   0.714   6.339 -0.1612 -0.7817  0.1160
 4581SOL    HW125376   3.361   0.767   6.266  0.1951  0.7335  1.3702
 4581SOL    HW225377   3.300   0.785   6.397  2.5238  0.2772  0.1273
 4582SOL     OW25378   2.142   1.959   2.359 -0.2576 -0.0405  0.5268
 4582SOL    HW125379   2.216   2.017   2.342  0.9688 -1.3528  1.3683
 4582SOL    HW225380   2.077   2.015   2.402  0.8543  0.3534  1.6938
 4583SOL     OW25381   1.560   0.328   6.611 -0.1778  0.0831 -0.1272
 4583SOL    HW125382   1.655   0.321   6.616  0.0689  2.0345 -2.1493
 4583SOL    HW225383   1.548   0.405   6.666  2.4563  0.9971 -0.8599
 4584SOL     OW25384   3.888   0.015   0.174  0.1021 -1.0126 -0.3696
 4584SOL    HW125385   3.877   4.683   0.115  0.0590 -2.1835  1.1037
 4584SOL    HW225386   3.892   4.724   0.264 -1.0512  0.7225  0.3138
 4585SOL     OW25387   3.200   3.960  14.725 -0.3128 -0.1605 -0.2381
 4585SOL    HW125388   3.152   4.026  14.676 -0.3139  0.1080  0.1231
 4585SOL    HW225389   3.252   3.912  14.660 -0.3093  1.8043 -1.6831
 4586SOL     OW25390   3.543   1.169   8.605 -0.5495  0.5005  0.4572
 4586SOL    HW125391   3.464   1.149   8.656 -1.4751  2.4621 -0.1948
 4586SOL    HW225392   3.506   1.220   8.533 -1.3632 -0.0864  0.4698
 4587SOL     OW25393   2.953   2.238   5.158  0.1413  0.4388  0.4093
 4587SOL    HW125394   2.978   2.299   5.089  0.4982 -1.3461 -1.0588
 4587SOL    HW225395   2.882   2.294   5.192 -1.5403 -2.8126  2.2586
 4588SOL     OW25396   0.251   1.844   3.301  0.5978 -0.2086 -0.2747
 4588SOL    HW125397   0.215   1.894   3.228  3.3416  0.0000 -1.4860
 4588SOL    HW225398   0.332   1.815   3.259  1.1690  0.2067  0.5485
 4589SOL     OW25399   0.491   2.356  10.461  0.3068  0.3668 -0.0521
 4589SOL    HW125400   0.396   2.366  10.459  0.2047 -0.7127 -0.6274
 4589SOL    HW225401   0.502   2.261  10.461 -1.8840  0.1014  0.0208
 4590SOL     OW25402   1.552   4.089   0.569  0.0725 -0.1328 -0.0105
 4590SOL    HW125403   1.608   4.100   0.646 -3.3710 -0.2372  2.5449
 4590SOL    HW225404   1.541   4.181   0.546  2.5196 -0.1601 -1.1913
 4591SOL     OW25405   2.245   1.020   9.538 -0.3242 -0.3635  0.1318
 4591SOL    HW125406   2.209   1.067   9.613 -1.0266  1.0849 -1.1196
 4591SOL    HW225407   2.162   1.013   9.489 -1.0121 -0.6274  1.3344
 4592SOL     OW25408   0.756   2.503  11.876  0.5388  0.3208  0.0375
 4592SOL    HW125409   0.671   2.538  11.901  0.6782 -0.2527  1.3027
 4592SOL    HW225410   0.752   2.414  11.911 -0.5506  0.4429  0.2289
 4593SOL     OW25411   1.704   4.219  11.017  0.4198 -0.2036  0.1939
 4593SOL    HW125412   1.738   4.292  10.965 -0.9773  0.1416 -0.2204
 4593SOL    HW225413   1.772   4.212  11.084  1.9169 -0.9044 -1.3928
 4594SOL     OW25414   2.727   2.810  14.578  0.2065 -0.0016  0.2502
 4594SOL    HW125415   2.753   2.865  14.505 -0.2120  0.6651  0.5986
 4594SOL    HW225416   2.644   2.853  14.599 -0.0612 -0.0218 -0.7918
 4595SOL     OW25417   0.543   1.354  12.312  0.8182  0.1724  0.5840
 4595SOL    HW125418   0.619   1.406  12.286  1.1992 -0.6179  0.1424
 4595SOL    HW225419   0.515   1.340  12.221  1.5450 -1.2180  0.5801
 4596SOL     OW25420   4.637   4.014   4.461  0.1849  0.3276 -0.9525
 4596SOL    HW125421   4.549   3.976   4.455 -0.8730  2.7878 -0.9855
 4596SOL    HW225422   4.616   4.105   4.480 -1.2238 -0.8637  3.0031
 4597SOL     OW25423   0.200   3.120  15.288 -0.0241 -0.0771 -0.2481
 4597SOL    HW125424   0.288   3.139  15.256  0.3863 -0.6521  0.5212
 4597SOL    HW225425   0.163   3.093  15.204  1.1779 -1.2298 -0.3998
 4598SOL     OW25426   2.554   1.848   8.769  0.0783  0.0178 -0.7679
 4598SOL    HW125427   2.555   1.799   8.686 -0.0316 -1.7332  0.2588
 4598SOL    HW225428   2.599   1.782   8.822  0.1753 -0.0459 -0.9274
 4599SOL     OW25429   1.759   2.444  12.616 -0.2115  0.3782 -0.6021
 4599SOL    HW125430   1.809   2.364  12.599 -0.7102  0.3743 -2.0782
 4599SOL    HW225431   1.795   2.461  12.703  0.7426 -1.1664 -0.6870
 4600SOL     OW25432   4.497   4.538   0.539  0.1790 -0.2692  0.1655
 4600SOL    HW125433   4.454   4.609   0.586 -0.5295 -0.2486 -0.5100
 4600SOL    HW225434   4.584   4.578   0.534  0.0436  0.1147  0.9390
 4601SOL     OW25435   1.394   0.409   6.411  0.2837 -0.0765  0.4734
 4601SOL    HW125436   1.449   0.365   6.477  0.8624 -2.6606 -1.7610
 4601SOL    HW225437   1.474   0.447   6.374 -0.1385 -1.4776 -1.8665
 4602SOL     OW25438   0.278   0.908   3.580  0.3400 -0.2953 -0.3396
 4602SOL    HW125439   0.204   0.912   3.641  0.8178 -0.6583  0.2660
 4602SOL    HW225440   0.346   0.879   3.641  0.1557 -0.8328 -0.3965
 4603SOL     OW25441   0.749   3.598   6.331  0.2628  0.0649 -0.5012
 4603SOL    HW125442   0.830   3.619   6.377 -0.3179 -0.3041  0.7013
 4603SOL    HW225443   0.780   3.535   6.266 -1.0009 -0.2095 -0.8404
 4604SOL     OW25444   0.486   3.221   5.029  0.1396 -0.2882  0.1912
 4604SOL    HW125445   0.491   3.198   4.936 -2.0115  2.1573 -0.5247
 4604SOL    HW225446   0.396   3.189   5.037  0.2983 -1.4602 -2.6274
 4605SOL     OW25447   2.729   2.022  17.737 -0.5588  0.1843 -0.1757
 4605SOL    HW125448   2.824   2.023  17.725 -0.6146  0.7915 -0.5630
 4605SOL    HW225449   2.731   2.031   0.069 -1.1007  0.9694 -0.2352
 4606SOL     OW25450   0.096   0.933   7.296  0.2568  0.2688  0.2157
 4606SOL    HW125451   0.173   0.939   7.353 -0.0395 -0.2240  0.6684
 4606SOL    HW225452   0.032   0.988   7.341  0.7183  1.6894 -0.8426
 4607SOL     OW25453   0.851   4.138  17.023  0.1081 -0.1158  0.6683
 4607SOL    HW125454   0.776   4.081  17.002 -1.6034  1.6657  1.9212
 4607SOL    HW225455   0.913   4.101  16.961 -1.1964  0.1001 -0.7534
 4608SOL     OW25456   0.805   0.709  17.080  0.0536 -0.0038  0.1405
 4608SOL    HW125457   0.744   0.701  17.007  0.8314  2.7341 -0.7938
 4608SOL    HW225458   0.803   0.805  17.082  1.1301  0.0374 -1.1444
 4609SOL     OW25459   1.704   2.964   8.469  0.8815 -0.0649 -0.0856
 4609SOL    HW125460   1.705   2.918   8.385  1.3189 -1.8321  0.8995
 4609SOL    HW225461   1.748   3.047   8.452  2.0769 -0.4138  1.3847
 4610SOL     OW25462   2.131   2.720   3.662  0.4442  0.4579  0.3658
 4610SOL    HW125463   2.219   2.757   3.669  0.2422  1.2868 -1.4714
 4610SOL    HW225464   2.117   2.709   3.756  1.4562 -1.1709  0.3210
 4611SOL     OW25465   4.538   4.562   2.566 -0.2827  0.0180 -0.3127
 4611SOL    HW125466   4.530   4.487   2.624  0.1581  0.5225  0.3985
 4611SOL    HW225467   4.469   4.547   2.501 -0.1458 -1.2531 -0.1496
 4612SOL     OW25468   2.729   1.935  11.241 -0.0302  0.3060  0.7714
 4612SOL    HW125469   2.734   1.959  11.149 -1.3780 -0.6647  0.4456
 4612SOL    HW225470   2.662   1.867  11.243  0.2956 -0.0041  1.0368
 4613SOL     OW25471   3.915   3.817   4.135  0.3628  0.2562 -0.2584
 4613SOL    HW125472   3.998   3.782   4.103  1.7177  1.9338  1.4129
 4613SOL    HW225473   3.889   3.735   4.176 -0.3055  0.3651 -0.4631
 4614SOL     OW25474   2.675   3.557  17.495 -0.2031  0.1718  0.3300
 4614SOL    HW125475   2.642   3.642  17.465  3.3429  1.1827 -0.7107
 4614SOL    HW225476   2.662   3.556  17.590  0.5622  2.7923  0.4501
 4615SOL     OW25477   0.993   2.650   7.615 -0.3570 -0.3698  0.1505
 4615SOL    HW125478   1.034   2.564   7.608 -0.6832 -0.7092  2.2873
 4615SOL    HW225479   0.901   2.626   7.626 -0.8048  1.0221 -0.5819
 4616SOL     OW25480   0.550   0.224  16.419  0.5871 -0.5539 -0.0650
 4616SOL    HW125481   0.546   0.138  16.377 -1.2474 -1.5771  2.2240
 4616SOL    HW225482   0.473   0.228  16.476 -0.3323 -1.9405 -1.2119
 4617SOL     OW25483   2.550   1.557   2.984 -0.2648 -0.1233 -0.4513
 4617SOL    HW125484   2.480   1.584   2.924  0.8379  0.7012 -1.3663
 4617SOL    HW225485   2.525   1.465   2.993  1.1241 -0.3959  0.5431
 4618SOL     OW25486   4.392   1.636   4.917 -0.0126 -0.0770  0.2213
 4618SOL    HW125487   4.355   1.681   4.842  0.0631  0.7430  0.6833
 4618SOL    HW225488   4.451   1.700   4.956 -0.0512 -0.4827  0.9436
 4619SOL     OW25489   0.521   4.175  16.373 -0.0677 -0.4798  0.1157
 4619SOL    HW125490   0.470   4.170  16.454 -0.3505  0.4620  0.0013
 4619SOL    HW225491   0.468   4.127  16.310 -0.0172 -0.8199  0.3355
 4620SOL     OW25492   2.962   1.597   2.526 -0.0430 -0.0433  0.1295
 4620SOL    HW125493   2.889   1.535   2.520  1.3987 -1.7713  0.7022
 4620SOL    HW225494   3.004   1.565   2.606  0.4246  2.6492  0.9638
 4621SOL     OW25495   4.104   3.161   9.280  0.6342 -0.6269  0.0471
 4621SOL    HW125496   4.012   3.154   9.308  0.6000 -0.4447 -0.0198
 4621SOL    HW225497   4.102   3.256   9.275 -2.2183 -0.6807 -0.2108
 4622SOL     OW25498   3.923   0.139   3.928 -0.3402 -0.2794 -0.7153
 4622SOL    HW125499   3.858   0.195   3.971  1.4226  2.8775 -2.1200
 4622SOL    HW225500   3.879   0.114   3.847 -0.2967  2.4802 -1.5904
 4623SOL     OW25501   1.654   1.697   6.198  0.3342 -0.7077  0.0951
 4623SOL    HW125502   1.573   1.647   6.201 -0.0600  0.0128  1.2181
 4623SOL    HW225503   1.657   1.749   6.278  1.3909 -1.2444  0.4099
 4624SOL     OW25504   3.679   0.842  15.209  0.0040 -0.5887  0.2362
 4624SOL    HW125505   3.719   0.886  15.135 -3.4134  1.3237 -0.4490
 4624SOL    HW225506   3.634   0.921  15.240  1.9698 -0.6580  3.3280
 4625SOL     OW25507   3.945   0.871  17.013 -0.1698  0.2567 -0.7277
 4625SOL    HW125508   4.040   0.881  17.018 -0.4226  1.5286  1.4674
 4625SOL    HW225509   3.934   0.842  16.923 -0.7830 -0.4137 -0.4400
 4626SOL     OW25510   2.707   0.020   2.263 -0.0636  0.7397 -0.2392
 4626SOL    HW125511   2.783   0.078   2.274  1.5704 -1.3876 -0.3854
 4626SOL    HW225512   2.677   0.008   2.353  0.1641  2.4866  0.0716
 4627SOL     OW25513   1.605   1.428  14.839  0.2757  0.2177  0.2612
 4627SOL    HW125514   1.690   1.465  14.817  0.4856 -0.9695 -0.9300
 4627SOL    HW225515   1.569   1.429  14.750  3.2848 -0.9922 -0.9446
 4628SOL     OW25516   2.279   3.571   7.152 -0.3795 -0.3278 -0.4540
 4628SOL    HW125517   2.269   3.641   7.217  0.7645 -1.6687  1.1756
 4628SOL    HW225518   2.238   3.493   7.190 -1.3551  1.5974  2.4877
 4629SOL     OW25519   0.568   2.305  16.995  0.2461  0.1504  0.2261
 4629SOL    HW125520   0.533   2.392  16.972  0.6648  0.2247 -0.1264
 4629SOL    HW225521   0.517   2.242  16.944  0.8381 -1.1058  1.2210
 4630SOL     OW25522   2.480   4.503   3.977  0.3795  0.2296 -0.2345
 4630SOL    HW125523   2.385   4.510   3.990  0.3587  1.8388 -1.2531
 4630SOL    HW225524   2.508   4.592   3.998  1.5169  0.3884 -2.4604
 4631SOL     OW25525   2.267   4.379  15.089 -0.4613 -0.2629  0.2051
 4631SOL    HW125526   2.223   4.443  15.033  0.2875  0.9088  0.9457
 4631SOL    HW225527   2.353   4.418  15.107  0.0954 -0.8908 -1.1074
 4632SOL     OW25528   3.197   4.710  11.218  0.3551  0.2320  0.0589
 4632SOL    HW125529   3.287   4.689  11.196  0.3108 -0.4978  0.5443
 4632SOL    HW225530   3.150   4.641  11.170 -0.8675  1.0008  0.1473
 4633SOL     OW25531   0.927   2.945   3.504 -0.8602  0.4249  0.0653
 4633SOL    HW125532   0.881   3.009   3.450  0.4743  0.6821 -0.7469
 4633SOL    HW225533   0.900   2.866   3.456 -0.9245 -0.8504  2.1753
 4634SOL     OW25534   2.233   2.149   9.536  0.2739  0.1238 -0.2175
 4634SOL    HW125535   2.311   2.200   9.514  1.6146 -1.2139  1.4158
 4634SOL    HW225536   2.268   2.113   9.617 -0.9573  2.2421  1.2530
 4635SOL     OW25537   1.608   1.665  15.029  0.2035  0.2613 -0.2432
 4635SOL    HW125538   1.629   1.664  14.935 -0.0657 -0.4406 -0.2959
 4635SOL    HW225539   1.665   1.593  15.056 -0.7262 -1.1606 -1.9804
 4636SOL     OW25540   4.260   3.444   2.109 -0.7280  0.2230 -0.9659
 4636SOL    HW125541   4.168   3.419   2.111 -0.4288 -1.0797 -3.4702
 4636SOL    HW225542   4.266   3.493   2.027  3.5020 -0.5600 -1.1377
 4637SOL     OW25543   3.436   0.165   7.389 -0.0806 -0.1690 -0.3633
 4637SOL    HW125544   3.453   0.132   7.300  0.5232 -1.6716  0.3143
 4637SOL    HW225545   3.500   0.109   7.433  0.8667  2.4348  1.5050
 4638SOL     OW25546   2.105   1.252   4.826 -0.7485  0.2297 -0.2516
 4638SOL    HW125547   2.151   1.194   4.886  0.7291  0.0154 -1.5970
 4638SOL    HW225548   2.140   1.214   4.745  0.1764  2.1377 -0.7478
 4639SOL     OW25549   1.500   2.857  10.476 -0.2271 -0.1421  0.4829
 4639SOL    HW125550   1.555   2.778  10.478 -1.3106 -0.8876  1.0076
 4639SOL    HW225551   1.556   2.915  10.526 -0.0134 -0.3339  0.4668
 4640SOL     OW25552   1.466   0.073   6.634  0.0011 -0.3681  0.0659
 4640SOL    HW125553   1.372   0.089   6.638  0.3020  1.1663  0.6660
 4640SOL    HW225554   1.491   0.161   6.607 -2.8085  0.0788 -1.0740
 4641SOL     OW25555   3.362   3.729   5.000 -0.1565  0.3039  0.2124
 4641SOL    HW125556   3.438   3.755   4.949 -1.2026  1.7315 -0.6121
 4641SOL    HW225557   3.353   3.815   5.040  0.9303  0.1521  0.7718
 4642SOL     OW25558   1.621   1.001   5.878  0.1033  0.1523  0.5835
 4642SOL    HW125559   1.536   0.958   5.893  1.1929 -2.3853 -0.5550
 4642SOL    HW225560   1.613   1.081   5.930 -0.4146 -0.9237  2.1804
 4643SOL     OW25561   1.929   0.434   1.284  0.5632 -0.3193 -0.0606
 4643SOL    HW125562   1.973   0.418   1.367 -1.3339 -1.6139  0.7024
 4643SOL    HW225563   2.005   0.444   1.227  0.0226  0.9925 -0.5655
 4644SOL     OW25564   2.699   3.745   7.006  0.2666 -0.2578  0.4591
 4644SOL    HW125565   2.607   3.767   6.994  0.0561 -1.6742 -0.4711
 4644SOL    HW225566   2.730   3.771   6.919 -2.0314  4.5242  1.0409
 4645SOL     OW25567   4.599   1.523  13.589  0.1839  0.7099  0.1279
 4645SOL    HW125568   4.678   1.516  13.535  1.6577  1.3710  2.1938
 4645SOL    HW225569   4.547   1.594  13.552 -3.3871 -1.3906  1.0784
 4646SOL     OW25570   0.265   2.365  11.675  0.2546 -0.0644  0.2003
 4646SOL    HW125571   0.232   2.276  11.692 -1.7131  0.3929 -1.1049
 4646SOL    HW225572   0.358   2.343  11.676  0.5762  1.4085  1.5310
 4647SOL     OW25573   3.004   0.456  16.875 -0.2246 -1.0853  0.2297
 4647SOL    HW125574   2.941   0.421  16.811  0.1728 -1.4734  0.0484
 4647SOL    HW225575   2.991   0.548  16.856  2.1036 -0.2181  2.8899
 4648SOL     OW25576   3.073   0.549   4.798 -0.3219  0.0142  1.2215
 4648SOL    HW125577   3.055   0.611   4.727 -3.0781  0.0088  1.8896
 4648SOL    HW225578   2.983   0.518   4.813 -0.8538  2.0627  2.2604
 4649SOL     OW25579   3.565   1.967   2.297  0.3332  0.0235 -0.3439
 4649SOL    HW125580   3.649   2.007   2.276 -0.5530  0.8852 -2.2840
 4649SOL    HW225581   3.527   2.044   2.339  1.1617  1.6116 -2.4788
 4650SOL     OW25582   3.411   3.488  15.977  0.0906 -0.4687 -0.3924
 4650SOL    HW125583   3.317   3.501  15.986  0.3454  0.9751  0.0667
 4650SOL    HW225584   3.448   3.555  15.919  0.4212  1.1441  1.6947
 4651SOL     OW25585   3.280   0.357  10.702 -0.0212  0.1620 -0.2780
 4651SOL    HW125586   3.292   0.350  10.797  0.2872  0.2176 -0.3124
 4651SOL    HW225587   3.185   0.350  10.696 -0.1352  0.5122  0.9421
 4652SOL     OW25588   3.850   3.677   4.959 -0.1579 -0.3864  0.6385
 4652SOL    HW125589   3.827   3.584   4.962 -0.4322 -0.2919  1.4985
 4652SOL    HW225590   3.769   3.724   4.938 -0.8668 -0.7134  2.5795
 4653SOL     OW25591   2.911   1.245   8.061  0.0200  0.3674 -0.2173
 4653SOL    HW125592   2.886   1.153   8.067  0.7916  0.1496 -0.3838
 4653SOL    HW225593   2.908   1.263   7.967  1.8161  1.7177 -0.0066
 4654SOL     OW25594   0.558   1.744   2.472 -0.0450  0.1207 -0.1380
 4654SOL    HW125595   0.592   1.670   2.522  0.7240  1.2283  0.9818
 4654SOL    HW225596   0.462   1.745   2.478 -0.0090  0.2133  0.3803
 4655SOL     OW25597   3.495   4.338   2.532  0.0814 -0.1875 -0.2299
 4655SOL    HW125598   3.576   4.286   2.536  0.4033  0.2908 -0.5645
 4655SOL    HW225599   3.450   4.299   2.606 -1.1333 -1.3124 -1.5560
 4656SOL     OW25600   4.105   1.052   7.001  0.5261 -0.2963 -0.1206
 4656SOL    HW125601   4.115   1.051   7.096 -3.3726 -1.1400  0.2728
 4656SOL    HW225602   4.045   1.125   6.987  1.0492  0.1941  0.2041
 4657SOL     OW25603   0.829   0.093   6.170 -0.4700  0.4550 -0.2227
 4657SOL    HW125604   0.877   0.171   6.142 -0.1883  0.5624  0.5612
 4657SOL    HW225605   0.808   0.062   6.082  0.4003  0.4305 -0.4226
 4658SOL     OW25606   0.385   4.610   4.586 -0.3725 -0.0933  0.1368
 4658SOL    HW125607   0.341   4.671   4.527 -1.3957 -0.1275  0.8521
 4658SOL    HW225608   0.323   4.537   4.587 -0.5470  0.0579  0.8798
 4659SOL     OW25609   2.994   2.126   2.229  0.1301  0.0745  0.5187
 4659SOL    HW125610   2.997   2.059   2.297  1.1707  1.0721  1.4526
 4659SOL    HW225611   3.068   2.178   2.258  0.4295 -0.6830  1.0930
 4660SOL     OW25612   2.246   0.406   9.561 -0.3351 -0.7979 -0.7341
 4660SOL    HW125613   2.225   0.474   9.626  1.5223  0.0095 -0.9672
 4660SOL    HW225614   2.253   0.454   9.479 -0.4667 -1.7132 -1.2729
 4661SOL     OW25615   0.466   3.812   8.239 -0.2216  0.2515 -0.3932
 4661SOL    HW125616   0.544   3.865   8.224  0.4515 -0.7325 -0.3367
 4661SOL    HW225617   0.423   3.826   8.154 -0.0299  1.2276 -0.3270
 4662SOL     OW25618   3.973   4.539  12.346 -0.2779  0.0614  0.2813
 4662SOL    HW125619   3.969   4.632  12.371  0.5931  0.1915 -0.0515
 4662SOL    HW225620   4.065   4.512  12.349 -0.7083 -1.3716  0.5643
 4663SOL     OW25621   2.638   3.483   5.418  0.7683 -0.5101  0.4004
 4663SOL    HW125622   2.662   3.407   5.471  0.8500 -1.3889 -0.8925
 4663SOL    HW225623   2.558   3.457   5.371  0.3365 -0.0644  0.8940
 4664SOL     OW25624   0.065   1.876  13.061  0.6540  0.0787  0.8997
 4664SOL    HW125625   0.017   1.959  13.056  0.3722 -0.1047  0.5236
 4664SOL    HW225626   0.021   1.799  13.023  2.1454  0.1433 -0.9640
 4665SOL     OW25627   4.028   3.674  11.840  0.2444 -0.4997 -0.5111
 4665SOL    HW125628   4.081   3.750  11.819  1.5724 -0.8797  1.4370
 4665SOL    HW225629   3.954   3.716  11.882  0.1831 -0.4902 -0.6303
 4666SOL     OW25630   2.396   1.177   4.653  0.4451  0.0136  0.0751
 4666SOL    HW125631   2.389   1.273   4.651  0.8631  0.0238 -1.0337
 4666SOL    HW225632   2.482   1.180   4.695 -0.7812  2.5357  2.3982
 4667SOL     OW25633   1.605   3.721   5.022 -0.4350 -0.2204  0.4354
 4667SOL    HW125634   1.592   3.654   4.954  1.2918  2.1970 -2.2399
 4667SOL    HW225635   1.519   3.724   5.064 -0.2991 -0.5237  0.7406
 4668SOL     OW25636   1.121   1.618   8.234 -0.3912 -0.4638 -0.2193
 4668SOL    HW125637   1.033   1.582   8.252 -1.2042  0.8983 -1.5163
 4668SOL    HW225638   1.113   1.650   8.145 -1.0345 -0.2499 -0.0905
 4669SOL     OW25639   0.240   3.220   5.713  0.1900 -0.1288  0.8157
 4669SOL    HW125640   0.201   3.143   5.756 -3.6946  1.5866  0.3793
 4669SOL    HW225641   0.323   3.184   5.682 -0.3747 -0.6942 -0.0554
 4670SOL     OW25642   1.340   4.316   8.719  0.4709  0.3141  0.4463
 4670SOL    HW125643   1.337   4.404   8.754  1.1766  0.5136  0.0101
 4670SOL    HW225644   1.389   4.268   8.786 -1.2762  0.8777  2.1036
 4671SOL     OW25645   1.171   1.712  10.153 -0.2143 -0.0779 -0.0741
 4671SOL    HW125646   1.105   1.744  10.092 -0.7509 -1.4797 -0.2343
 4671SOL    HW225647   1.239   1.778  10.140  0.1326 -0.1428  1.3581
 4672SOL     OW25648   2.549   1.839   6.978  0.3524 -0.0317 -0.2423
 4672SOL    HW125649   2.553   1.933   6.992  1.2302 -0.2192  0.7866
 4672SOL    HW225650   2.631   1.806   7.015  0.2214 -1.9041 -1.6174
 4673SOL     OW25651   0.594   3.734   0.162 -0.2695  0.7354  0.6961
 4673SOL    HW125652   0.558   3.742   0.250  1.2970 -0.2267  1.4385
 4673SOL    HW225653   0.586   3.823   0.130  0.8795 -0.3718 -2.7441
 4674SOL     OW25654   2.264   2.237   1.462  0.4035 -0.0438 -0.0032
 4674SOL    HW125655   2.218   2.292   1.399  0.5885 -0.4419 -0.4828
 4674SOL    HW225656   2.260   2.153   1.417  0.0287 -0.8807  1.5926
 4675SOL     OW25657   3.789   0.469  16.391 -0.5398  0.3829 -0.0239
 4675SOL    HW125658   3.788   0.381  16.427  1.3881  0.1736 -0.4952
 4675SOL    HW225659   3.745   0.513  16.465 -1.5399  1.4746 -1.2750
 4676SOL     OW25660   3.297   4.000   5.008  0.3755 -0.3224 -0.3970
 4676SOL    HW125661   3.211   4.028   5.040 -0.6420 -1.5162 -2.0930
 4676SOL    HW225662   3.296   4.046   4.924  0.5809  0.8390  0.2341
 4677SOL     OW25663   3.067   2.975   6.903  0.2942 -0.2779  0.4755
 4677SOL    HW125664   3.085   2.923   6.981  0.0802 -0.7213  0.2314
 4677SOL    HW225665   3.159   2.997   6.889  0.0861  0.2601 -0.0587
 4678SOL     OW25666   0.078   1.004   4.962  0.5684  0.0906 -0.5801
 4678SOL    HW125667   0.085   0.916   4.999  0.1088 -0.1112 -0.9752
 4678SOL    HW225668   4.734   1.008   4.920 -0.3005  0.1543  1.1970
 4679SOL     OW25669   1.512   4.301   9.628 -0.2389 -0.0854 -0.3615
 4679SOL    HW125670   1.494   4.220   9.580 -0.8796 -0.1534 -0.0050
 4679SOL    HW225671   1.601   4.286   9.658  0.1442 -0.3514 -1.6246
 4680SOL     OW25672   3.944   1.256  12.244  0.7378 -0.2224  0.0152
 4680SOL    HW125673   3.932   1.174  12.293  1.1284 -0.5733 -0.4751
 4680SOL    HW225674   4.034   1.281  12.265  0.3027 -0.4929  2.2870
 4681SOL     OW25675   2.594   0.958  12.418  0.3156  0.1120 -0.1302
 4681SOL    HW125676   2.667   0.991  12.364 -0.1795  0.0131 -0.8641
 4681SOL    HW225677   2.531   0.996  12.356 -0.7547 -2.4047 -0.5735
 4682SOL     OW25678   2.031   0.978   1.835  0.1497 -0.0970  0.1301
 4682SOL    HW125679   2.038   0.894   1.881 -1.9192 -0.4380 -0.1357
 4682SOL    HW225680   1.977   1.027   1.897  0.0967  0.0847 -0.0619
 4683SOL     OW25681   0.513   4.487  13.125  0.1252  0.7374 -0.2280
 4683SOL    HW125682   0.593   4.531  13.154  0.4051 -1.1339  1.8397
 4683SOL    HW225683   0.530   4.470  13.032 -3.0682  4.5190 -1.5178
 4684SOL     OW25684   0.805   0.733  17.396 -0.2288  0.9238 -0.3746
 4684SOL    HW125685   0.729   0.676  17.406 -1.1951  2.1930 -0.4937
 4684SOL    HW225686   0.803   0.728  17.300 -2.2260 -1.6416 -0.1869
 4685SOL     OW25687   2.968   3.775   7.090 -0.1152  0.6102  0.2025
 4685SOL    HW125688   2.982   3.689   7.130  1.3394  0.7648  0.0143
 4685SOL    HW225689   2.872   3.776   7.092 -0.0623  0.9298  2.7452
 4686SOL     OW25690   1.032   2.728   5.925 -0.3870  0.5118 -0.0294
 4686SOL    HW125691   1.096   2.712   5.856 -0.4280 -2.1894  0.5380
 4686SOL    HW225692   0.962   2.671   5.891 -2.1336  2.8936 -0.4028
 4687SOL     OW25693   0.075   2.501  13.365 -0.6275  0.2672 -0.7429
 4687SOL    HW125694   0.160   2.460  13.381 -0.9020 -0.1091 -0.2372
 4687SOL    HW225695   0.085   2.583  13.413 -2.2193 -1.0819  1.8845
 4688SOL     OW25696   3.322   0.066   8.025  0.5380 -0.0119  0.3628
 4688SOL    HW125697   3.409   0.091   8.057  1.8857 -1.0622 -2.5584
 4688SOL    HW225698   3.270   0.086   8.103  1.7300  3.1243  0.3477
 4689SOL     OW25699   4.667   0.026   3.653 -0.1057  0.4339  0.2790
 4689SOL    HW125700   4.606   0.043   3.582 -0.4099 -1.9235 -0.0481
 4689SOL    HW225701   4.680   0.112   3.693 -2.1617  0.9379 -0.1784
 4690SOL     OW25702   3.162   0.609   4.404  0.0358  0.1186 -0.2966
 4690SOL    HW125703   3.141   0.682   4.462 -0.7031  1.4170 -2.2200
 4690SOL    HW225704   3.201   0.653   4.329  0.3907  1.9811  0.9913
 4691SOL     OW25705   3.173   3.172   3.249  0.1761  0.1333  0.2857
 4691SOL    HW125706   3.188   3.221   3.168  1.3007 -0.5345  0.1019
 4691SOL    HW225707   3.240   3.212   3.305 -0.0674 -2.0621  2.1438
 4692SOL     OW25708   0.277   4.723   7.337 -0.0495  0.6634 -0.1260
 4692SOL    HW125709   0.344   4.692   7.277  0.1550 -3.1410  2.1125
 4692SOL    HW225710   0.264   0.074   7.313 -1.4786  0.3746 -0.4649
 4693SOL     OW25711   0.387   0.237   3.941  0.2176 -0.2685  0.3984
 4693SOL    HW125712   0.401   0.328   3.916 -2.1159 -0.1413 -0.4532
 4693SOL    HW225713   0.417   0.245   4.031  1.5095  1.2522 -0.1613
 4694SOL     OW25714   1.949   4.265   5.083  0.6124  0.8366 -0.0056
 4694SOL    HW125715   2.037   4.253   5.046  1.6485 -0.2413  2.7564
 4694SOL    HW225716   1.902   4.231   5.007  0.3525  1.1230  0.0302
 4695SOL     OW25717   1.986   3.793   2.223 -0.0230 -0.2924  0.4285
 4695SOL    HW125718   1.939   3.876   2.226 -2.3527 -1.5977  0.4182
 4695SOL    HW225719   1.920   3.723   2.227 -0.7284  0.2696 -1.6412
 4696SOL     OW25720   4.544   0.041   7.686  0.0938  0.1866  0.1632
 4696SOL    HW125721   4.591   0.051   7.768 -1.4806 -1.4537  1.2614
 4696SOL    HW225722   4.591   4.710   7.645 -1.8389 -0.5806 -0.7082
 4697SOL     OW25723   1.357   0.166  12.598  0.2888 -0.0314 -0.2628
 4697SOL    HW125724   1.402   0.237  12.551  1.0652 -1.1928 -1.2750
 4697SOL    HW225725   1.430   0.129  12.647  0.6150  0.6562 -0.2258
 4698SOL     OW25726   2.341   1.350  10.602 -0.0182 -0.0351  0.2167
 4698SOL    HW125727   2.284   1.417  10.639  1.4128  2.1357 -1.5024
 4698SOL    HW225728   2.290   1.269  10.612 -0.0239 -0.3362 -2.1947
 4699SOL     OW25729   1.508   0.756   5.478  0.4440  0.0568 -0.2935
 4699SOL    HW125730   1.510   0.737   5.384  0.2491 -2.7156  0.2590
 4699SOL    HW225731   1.595   0.725   5.504  0.9373 -0.2756 -2.2779
 4700SOL     OW25732   4.177   2.128  13.467 -0.0169  0.5601 -0.1956
 4700SOL    HW125733   4.169   2.042  13.507 -0.3926  0.5706 -0.2524
 4700SOL    HW225734   4.244   2.168  13.522 -1.1646  2.6459 -0.3034
 4701SOL     OW25735   1.145   2.443   5.337 -0.6034  0.6598 -0.1134
 4701SOL    HW125736   1.169   2.400   5.255  0.9606 -1.3672  1.4081
 4701SOL    HW225737   1.067   2.494   5.315 -0.9477  0.0464 -0.2983
 4702SOL     OW25738   0.733   2.375  10.647  0.1920  0.0869 -0.1555
 4702SOL    HW125739   0.654   2.371  10.594 -0.9404 -0.1501  1.5315
 4702SOL    HW225740   0.793   2.436  10.605  1.3463 -0.5361  0.5790
 4703SOL     OW25741   4.315   3.918   3.746 -0.3422  0.4719  0.0364
 4703SOL    HW125742   4.356   3.856   3.685  0.4617  0.3734  0.6767
 4703SOL    HW225743   4.319   3.876   3.832  0.7908 -1.8000 -1.1178
 4704SOL     OW25744   1.174   2.932   5.261 -0.2710 -0.5728  0.2083
 4704SOL    HW125745   1.201   2.853   5.214 -0.1290 -0.1601 -0.4130
 4704SOL    HW225746   1.188   2.911   5.353  0.3557  1.8943  0.6728
 4705SOL     OW25747   4.483   4.062   3.020 -0.2004  0.4773 -0.2114
 4705SOL    HW125748   4.400   4.017   3.001 -0.1578  1.3616 -2.5095
 4705SOL    HW225749   4.447   4.147   3.044 -1.8486 -0.5028  0.7878
 4706SOL     OW25750   1.149   3.881   6.105 -0.6556 -0.7377 -0.2589
 4706SOL    HW125751   1.210   3.854   6.174 -0.7795 -0.3428  0.0080
 4706SOL    HW225752   1.115   3.964   6.139 -0.5501 -1.3521  1.3425
 4707SOL     OW25753   3.535   0.868  16.264  0.7282 -0.3630  0.2262
 4707SOL    HW125754   3.536   0.776  16.238  0.1316 -0.1643 -0.5007
 4707SOL    HW225755   3.599   0.907  16.205 -0.7974  1.7852  0.0071
 4708SOL     OW25756   1.204   1.700   5.484  0.4371 -0.5586  0.3421
 4708SOL    HW125757   1.206   1.607   5.508  0.1801 -0.4389  0.8418
 4708SOL    HW225758   1.129   1.699   5.425 -1.1014  1.4184  2.2634
 4709SOL     OW25759   0.703   3.651  13.326  0.1076 -0.3018  0.1753
 4709SOL    HW125760   0.763   3.613  13.262 -1.9571  0.7165 -2.3842
 4709SOL    HW225761   0.689   3.741  13.296 -0.0622 -0.2255  0.4875
 4710SOL     OW25762   1.548   1.021   5.600  0.0715  0.0319 -0.2386
 4710SOL    HW125763   1.579   1.013   5.690 -0.4589 -1.0897 -0.1498
 4710SOL    HW225764   1.509   0.935   5.582 -0.1068 -0.0943  0.7696
 4711SOL     OW25765   4.528   2.738   7.654  0.1149  0.0372 -0.5098
 4711SOL    HW125766   4.482   2.798   7.595  0.0986  0.7160  0.1854
 4711SOL    HW225767   4.537   2.661   7.599  2.9306 -1.0763  1.5240
 4712SOL     OW25768   0.287   3.178   6.029 -0.0071 -0.1457  0.0218
 4712SOL    HW125769   0.350   3.154   6.098 -1.1218 -0.5976  0.8854
 4712SOL    HW225770   0.345   3.226   5.971 -1.4307  0.2920 -1.0338
 4713SOL     OW25771   0.224   2.399  17.117 -0.0167 -0.4222 -0.5101
 4713SOL    HW125772   0.226   2.424  17.210 -1.9793 -0.9653 -0.3359
 4713SOL    HW225773   0.278   2.464  17.071  0.8214  0.0836  1.1680
 4714SOL     OW25774   2.282   1.539   6.940  0.2009 -0.4393 -0.1564
 4714SOL    HW125775   2.321   1.518   7.025 -0.0216 -2.0956 -0.4579
 4714SOL    HW225776   2.283   1.635   6.936  1.7060 -0.4008  1.4411
 4715SOL     OW25777   3.767   2.212   7.911 -0.2288  0.0262  0.5718
 4715SOL    HW125778   3.855   2.224   7.877  0.1005  0.2486  1.5236
 4715SOL    HW225779   3.738   2.190   7.822 -0.9378  1.0404  0.5561
 4716SOL     OW25780   0.678   0.408   2.801  0.1950  0.3575  0.4402
 4716SOL    HW125781   0.609   0.397   2.736  0.8721 -0.7837 -0.0913
 4716SOL    HW225782   0.742   0.453   2.745 -0.7653  0.0394 -0.9056
 4717SOL     OW25783   1.116   3.065   1.639  0.2992  0.1829 -0.4240
 4717SOL    HW125784   1.032   3.020   1.648 -0.8230  2.1830 -1.0776
 4717SOL    HW225785   1.159   3.024   1.714  1.6214  2.6008  0.1289
 4718SOL     OW25786   2.062   3.004  16.753 -0.6251  0.4302  0.4539
 4718SOL    HW125787   2.026   3.089  16.730 -0.0141 -0.2376 -3.0164
 4718SOL    HW225788   2.149   3.010  16.713 -1.6177 -0.5633 -1.8446
 4719SOL     OW25789   2.051   1.720   8.544 -0.4730 -0.4969 -0.4121
 4719SOL    HW125790   2.120   1.758   8.600 -1.2359  0.1118  0.1269
 4719SOL    HW225791   2.108   1.681   8.479 -1.3984 -1.3112 -0.7383
 4720SOL     OW25792   2.891   3.071   2.988  0.1788 -0.0689 -0.3724
 4720SOL    HW125793   2.916   3.153   2.944  1.0269 -0.1946 -0.1157
 4720SOL    HW225794   2.880   3.103   3.077 -0.3756 -3.4150  0.7361
 4721SOL     OW25795   3.339   1.677  14.357  0.2149 -0.0735  0.8521
 4721SOL    HW125796   3.290   1.690  14.439 -1.4069 -1.0150  0.0332
 4721SOL    HW225797   3.280   1.719  14.294  0.4248 -0.6937  0.2450
 4722SOL     OW25798   0.908   3.008  17.144 -0.4537 -1.0580  0.2882
 4722SOL    HW125799   0.848   3.070  17.103  0.6081 -2.2719 -3.1895
 4722SOL    HW225800   0.930   2.953  17.068 -4.1079 -0.0722 -1.5142
 4723SOL     OW25801   2.846   0.511   3.767 -0.5353 -0.4389  1.2574
 4723SOL    HW125802   2.811   0.598   3.748 -1.5589 -0.7833  1.5218
 4723SOL    HW225803   2.772   0.473   3.816 -0.1568  0.8212  2.7804
 4724SOL     OW25804   1.278   0.817   5.046  0.2806 -0.1142 -0.0302
 4724SOL    HW125805   1.325   0.736   5.028 -1.9811 -0.9830 -2.0022
 4724SOL    HW225806   1.329   0.877   4.992  2.3539 -1.5421  0.3252
 4725SOL     OW25807   1.787   1.308   2.974 -0.1755 -0.2728  0.4124
 4725SOL    HW125808   1.760   1.397   2.952 -1.5271 -1.0143 -1.0120
 4725SOL    HW225809   1.760   1.284   3.063 -1.1773 -1.4033 -0.1775
 4726SOL     OW25810   2.941   0.605   4.136  0.1280  0.7762  0.0693
 4726SOL    HW125811   2.988   0.534   4.179 -1.3498 -0.5617 -0.5077
 4726SOL    HW225812   2.975   0.610   4.046 -1.2449 -1.4500 -0.5740
 4727SOL     OW25813   3.765   2.241  14.109 -0.5219  0.1405 -0.1208
 4727SOL    HW125814   3.674   2.259  14.087 -0.1943 -2.2000 -3.3261
 4727SOL    HW225815   3.792   2.322  14.154  0.3560 -0.6701  0.8104
 4728SOL     OW25816   3.914   3.651   8.119  0.7835 -0.4839  0.3396
 4728SOL    HW125817   3.925   3.559   8.143  0.8265 -0.4876  0.3067
 4728SOL    HW225818   3.916   3.697   8.202  1.4061  3.0795 -1.6567
 4729SOL     OW25819   3.918   0.827  17.278 -0.0173  0.5568 -0.7653
 4729SOL    HW125820   3.917   0.839  17.183 -0.6490 -0.3997 -0.8843
 4729SOL    HW225821   3.845   0.883  17.305 -0.0571 -0.4778  1.2872
 4730SOL     OW25822   3.583   4.487  17.186 -0.2080  0.8622  0.0532
 4730SOL    HW125823   3.601   4.488  17.092 -0.8466  0.1894 -0.0687
 4730SOL    HW225824   3.571   4.579  17.210  0.2082  0.9033  0.1019
 4731SOL     OW25825   3.387   1.069  14.695  0.3850  0.2289 -0.2073
 4731SOL    HW125826   3.448   1.063  14.767  0.9066 -2.9063 -0.9170
 4731SOL    HW225827   3.354   0.979  14.693 -1.0062  0.7443 -0.6674
 4732SOL     OW25828   4.475   4.021  16.431  0.1707 -0.2133  0.1532
 4732SOL    HW125829   4.429   3.989  16.354  0.2699 -0.5067  0.2180
 4732SOL    HW225830   4.417   4.000  16.505 -1.5264 -0.4849 -1.2576
 4733SOL     OW25831   1.240   1.066   9.650 -0.4586  0.0202 -0.1816
 4733SOL    HW125832   1.328   1.038   9.676  0.3157  3.0293  0.4781
 4733SOL    HW225833   1.225   1.018   9.569  1.8565 -1.2828  0.1828
 4734SOL     OW25834   4.548   3.653  12.085  0.4724 -0.1377  0.1724
 4734SOL    HW125835   4.454   3.662  12.072  0.9110  1.4928 -1.9266
 4734SOL    HW225836   4.548   3.558  12.080  0.1379  0.1020 -4.0391
 4735SOL     OW25837   0.888   2.417   6.384  0.0105 -0.3012 -0.0038
 4735SOL    HW125838   0.943   2.461   6.449 -1.1150  1.2885 -0.1325
 4735SOL    HW225839   0.951   2.356   6.346  0.4583 -0.9509  1.7502
 4736SOL     OW25840   2.936   1.748   5.974 -0.0243 -0.5731 -0.6847
 4736SOL    HW125841   2.875   1.712   6.038  0.7692 -0.3916  0.1791
 4736SOL    HW225842   2.908   1.711   5.890  1.7479 -0.6686 -1.2374
 4737SOL     OW25843   0.269   0.009   7.592  0.0304  0.0337 -0.0382
 4737SOL    HW125844   0.359   0.026   7.619 -0.3490  1.6110  0.1886
 4737SOL    HW225845   0.268   4.737   7.497  0.1840  0.2567 -0.0708
 4738SOL     OW25846   1.151   1.233   4.269  0.1748  0.0240 -0.0350
 4738SOL    HW125847   1.115   1.164   4.212  0.6365 -0.7055  0.5540
 4738SOL    HW225848   1.239   1.231   4.231 -0.3993 -0.8912 -1.3465
 4739SOL     OW25849   3.500   3.894  12.996  0.0307  0.4478  0.2286
 4739SOL    HW125850   3.538   3.982  12.991 -0.1051  0.5288  0.5862
 4739SOL    HW225851   3.566   3.853  13.052  0.7501  1.0137 -0.2078
 4740SOL     OW25852   4.341   0.883   3.160  0.1636  0.0066 -0.3286
 4740SOL    HW125853   4.335   0.899   3.065  3.0039 -2.5066 -0.9273
 4740SOL    HW225854   4.414   0.823   3.170  1.0580  1.4545  1.7698
 4741SOL     OW25855   4.227   3.853   5.107  0.3652  0.0627 -0.4827
 4741SOL    HW125856   4.161   3.922   5.116  0.7490  0.2111  1.1672
 4741SOL    HW225857   4.298   3.884   5.164  2.2911 -1.7010 -1.9184
 4742SOL     OW25858   3.556   3.252   8.217 -0.3898  0.0530 -0.2065
 4742SOL    HW125859   3.503   3.177   8.246  2.0507 -1.0240  1.4930
 4742SOL    HW225860   3.492   3.311   8.179 -0.1816 -0.2868 -1.0828
 4743SOL     OW25861   0.446   1.288   2.803 -0.2115  0.3110  0.3202
 4743SOL    HW125862   0.441   1.273   2.709 -1.1986 -1.3789  0.6454
 4743SOL    HW225863   0.442   1.383   2.813  1.8090  0.5698 -1.3376
 4744SOL     OW25864   0.146   3.497  11.749 -0.1627 -0.4714  0.2351
 4744SOL    HW125865   0.100   3.527  11.827  0.5358 -1.8229  1.1711
 4744SOL    HW225866   0.236   3.510  11.780  1.0168 -0.6586 -3.0443
 4745SOL     OW25867   1.493   3.523   8.358 -0.3382  0.2958 -0.3203
 4745SOL    HW125868   1.521   3.591   8.296 -0.4763  0.5937 -0.0557
 4745SOL    HW225869   1.540   3.530   8.442 -0.7910  0.0546 -0.0484
 4746SOL     OW25870   2.016   0.146   2.449 -0.2083  0.2660  0.0773
 4746SOL    HW125871   1.978   0.107   2.370  1.6171  1.1299 -1.2210
 4746SOL    HW225872   1.976   0.231   2.435 -0.0906  0.4207  0.6891
 4747SOL     OW25873   0.809   0.547   5.800  0.3936  0.1826 -0.3134
 4747SOL    HW125874   0.797   0.633   5.840  2.9603  0.6048 -0.4560
 4747SOL    HW225875   0.791   0.563   5.707  0.9087  3.4323  0.1246
 4748SOL     OW25876   3.536   1.591   0.869  0.4627 -0.2655  0.1671
 4748SOL    HW125877   3.463   1.595   0.807  0.8628 -2.4375 -0.4593
 4748SOL    HW225878   3.606   1.559   0.812  0.2482  0.8647 -0.7309
 4749SOL     OW25879   3.798   3.976   0.941 -0.5545  0.0967  0.2844
 4749SOL    HW125880   3.847   3.941   1.015 -0.0305  2.1237  0.8997
 4749SOL    HW225881   3.866   4.005   0.880  0.4251 -2.1579  0.3210
 4750SOL     OW25882   1.585   0.692   9.744  0.0453 -0.1204 -0.4122
 4750SOL    HW125883   1.613   0.665   9.832  0.3256  1.2195 -0.0935
 4750SOL    HW225884   1.551   0.610   9.710  0.7445  0.5752 -2.7467
 4751SOL     OW25885   1.613   0.172  17.036 -0.0219  0.8668  0.4345
 4751SOL    HW125886   1.556   0.249  17.040 -1.3119 -0.2338  3.7152
 4751SOL    HW225887   1.643   0.183  16.946 -0.3931 -0.5875  0.1307
 4752SOL     OW25888   2.585   1.333  15.160  0.3188 -0.4331 -0.1332
 4752SOL    HW125889   2.680   1.342  15.157  0.3474 -0.4003  0.8398
 4752SOL    HW225890   2.579   1.248  15.117 -0.1996  0.2861 -1.5054
 4753SOL     OW25891   0.895   4.570  14.660 -1.0207  0.1743 -0.2812
 4753SOL    HW125892   0.899   4.633  14.732 -0.6490 -0.9645  0.6899
 4753SOL    HW225893   0.810   4.526  14.666 -1.3260  0.4940 -2.1647
 4754SOL     OW25894   4.123   0.508   1.122 -0.0318 -0.1740  0.3226
 4754SOL    HW125895   4.213   0.512   1.155 -0.4034  2.9475  1.0017
 4754SOL    HW225896   4.091   0.579   1.177  0.5020 -1.6120  2.4888
 4755SOL     OW25897   0.330   1.614   3.850  0.5740 -0.5454 -0.1942
 4755SOL    HW125898   0.235   1.612   3.851  0.5245  1.8212 -0.4612
 4755SOL    HW225899   0.345   1.708   3.839 -0.9394 -0.1584  1.0143
 4756SOL     OW25900   0.169   1.696   6.599  0.7721 -0.3438  0.6391
 4756SOL    HW125901   0.247   1.641   6.603  1.2741  0.3248 -0.0350
 4756SOL    HW225902   0.117   1.652   6.666 -1.7859  0.2057 -0.9823
 4757SOL     OW25903   1.684   3.364   1.700 -0.0683  0.0699  0.1033
 4757SOL    HW125904   1.607   3.409   1.665 -0.8286  0.9226  2.8511
 4757SOL    HW225905   1.743   3.373   1.625 -1.9308  1.9160 -1.1748
 4758SOL     OW25906   2.700   3.937  10.512 -0.1694 -0.0292  0.0853
 4758SOL    HW125907   2.782   3.887  10.509 -0.0591  0.0904  1.1237
 4758SOL    HW225908   2.679   3.949  10.420  0.7378  0.8445 -0.0142
 4759SOL     OW25909   2.667   2.433   9.722 -0.1851  0.0480 -0.2398
 4759SOL    HW125910   2.677   2.492   9.797  2.5668 -2.5631  1.4248
 4759SOL    HW225911   2.758   2.413   9.703 -0.0544 -0.2607  0.6782
 4760SOL     OW25912   2.206   1.333   2.563 -0.2183  0.9696  0.2844
 4760SOL    HW125913   2.148   1.329   2.639  1.1581  1.0277  1.3272
 4760SOL    HW225914   2.161   1.384   2.495  1.3099 -1.8643 -2.8843
 4761SOL     OW25915   0.425   1.163   9.531 -0.0243  0.6278 -0.0922
 4761SOL    HW125916   0.335   1.168   9.500 -0.8985 -0.6407  2.1662
 4761SOL    HW225917   0.447   1.251   9.561  1.3081  0.5916 -0.9783
 4762SOL     OW25918   2.696   3.244   7.902 -0.0750 -0.1578  0.1479
 4762SOL    HW125919   2.634   3.223   7.832 -0.5713 -0.2384  0.6165
 4762SOL    HW225920   2.644   3.235   7.982  0.0658  1.7791  0.4683
 4763SOL     OW25921   4.028   3.419   4.296  0.7548 -0.1320 -0.3453
 4763SOL    HW125922   4.035   3.324   4.287 -1.2605 -0.1593 -1.7073
 4763SOL    HW225923   4.103   3.440   4.239  0.9688 -1.1924 -0.4486
 4764SOL     OW25924   3.941   0.375  14.498 -0.0332 -0.0617  0.4853
 4764SOL    HW125925   3.865   0.429  14.516  3.0171  4.5322 -0.4336
 4764SOL    HW225926   3.932   0.314  14.571  1.0796 -0.3701  0.3686
 4765SOL     OW25927   1.233   2.611   1.555 -0.4142 -0.0023 -0.2399
 4765SOL    HW125928   1.240   2.519   1.528  0.5608 -0.3806  1.3042
 4765SOL    HW225929   1.175   2.643   1.486 -1.3911  2.0981  1.5908
 4766SOL     OW25930   0.616   2.702  14.667 -0.3258  0.0709 -0.1609
 4766SOL    HW125931   0.530   2.706  14.625 -0.3847  1.1099  0.0538
 4766SOL    HW225932   0.672   2.749  14.606  1.1341  0.7684  1.7111
 4767SOL     OW25933   2.361   0.153  11.389 -0.3839 -0.2182  0.3116
 4767SOL    HW125934   2.446   0.110  11.380 -0.3690 -0.1059 -0.0723
 4767SOL    HW225935   2.378   0.231  11.337  1.0683 -1.0162 -0.4029
 4768SOL     OW25936   0.883   4.004   5.080  0.6423  0.2742 -0.5143
 4768SOL    HW125937   0.921   4.091   5.093 -0.1693  0.6845 -0.8646
 4768SOL    HW225938   0.883   3.998   4.985  0.1510  2.5469 -0.6575
 4769SOL     OW25939   3.603   3.408   8.800  0.6635 -0.0896 -0.4232
 4769SOL    HW125940   3.644   3.412   8.713  1.3260 -0.0892 -0.1089
 4769SOL    HW225941   3.524   3.357   8.782  0.3107  0.2228  0.2357
 4770SOL     OW25942   1.529   0.506   6.119  0.3318  0.2569 -0.1558
 4770SOL    HW125943   1.453   0.553   6.153  0.9922  1.1578  0.0747
 4770SOL    HW225944   1.546   0.559   6.042  1.8075  2.0148  1.3658
 4771SOL     OW25945   1.387   0.032  13.472  0.1456  0.3085 -0.8345
 4771SOL    HW125946   1.314   0.087  13.502  0.0624 -0.5490  0.5523
 4771SOL    HW225947   1.445   0.102  13.443 -0.5543  1.0845 -0.3583
 4772SOL     OW25948   0.493   2.146   3.166  0.3317  0.0681  0.2475
 4772SOL    HW125949   0.519   2.095   3.243  1.4285 -3.2622 -2.3169
 4772SOL    HW225950   0.505   2.083   3.094  1.9187  1.4939 -0.7378
 4773SOL     OW25951   0.745   3.382   4.667  0.4031 -0.6174 -0.2242
 4773SOL    HW125952   0.800   3.436   4.724  0.4383  0.6091 -1.4162
 4773SOL    HW225953   0.787   3.399   4.583  1.1738  2.5777  0.8016
 4774SOL     OW25954   0.610   2.320   4.904  0.3534 -0.1315 -0.2672
 4774SOL    HW125955   0.624   2.303   4.811 -1.3911 -0.9010 -0.3856
 4774SOL    HW225956   0.528   2.369   4.913  0.3797  0.4191 -3.0036
 4775SOL     OW25957   2.651   2.340  13.513  0.1614 -1.0220 -0.4296
 4775SOL    HW125958   2.738   2.360  13.479  0.3882 -2.4234 -0.6902
 4775SOL    HW225959   2.679   2.294  13.591  1.8125  1.6645  0.5613
 4776SOL     OW25960   3.125   1.094   3.661  0.2681  0.2096 -0.4289
 4776SOL    HW125961   3.075   1.174   3.646  2.5541  1.3869 -1.6415
 4776SOL    HW225962   3.089   1.030   3.600 -0.5004 -1.9381  2.2459
 4777SOL     OW25963   0.556   0.105   2.154  0.2899  0.0151 -0.0935
 4777SOL    HW125964   0.481   0.156   2.185 -1.0992  0.1508 -3.6334
 4777SOL    HW225965   0.510   0.021   2.144  0.7417 -0.3300  0.7653
 4778SOL     OW25966   3.586   3.472   2.840  0.1428 -0.3531  0.1323
 4778SOL    HW125967   3.644   3.543   2.866  1.7849 -1.5625 -0.2712
 4778SOL    HW225968   3.545   3.505   2.760  1.7950  2.3934  0.4311
 4779SOL     OW25969   1.174   2.151   7.807 -0.7389 -0.4737 -0.0267
 4779SOL    HW125970   1.253   2.195   7.838  0.0718  0.6858 -3.7630
 4779SOL    HW225971   1.114   2.148   7.883 -1.6681  0.8784 -0.7041
 4780SOL     OW25972   1.026   0.235   7.453  0.5639 -0.0391  0.1751
 4780SOL    HW125973   1.090   0.227   7.382  1.4382  0.1500  0.9421
 4780SOL    HW225974   1.030   0.147   7.490 -1.3040 -0.2389 -0.0934
 4781SOL     OW25975   3.991   4.649  16.455 -0.1555  0.1911  0.0963
 4781SOL    HW125976   3.955   4.579  16.401  0.2983 -0.3220  0.4632
 4781SOL    HW225977   3.991   4.723  16.395 -2.8041  1.2737  1.4091
 4782SOL     OW25978   4.113   0.064  10.015 -0.4472  0.6008 -0.3001
 4782SOL    HW125979   4.175   0.111  10.070  0.1281 -0.4092 -0.0807
 4782SOL    HW225980   4.068   0.130   9.961 -0.0273 -1.2860 -2.9647
 4783SOL     OW25981   3.201   4.562  16.877 -0.2040  0.2250  0.1886
 4783SOL    HW125982   3.124   4.542  16.931 -0.7111  0.4354 -0.4525
 4783SOL    HW225983   3.216   4.471  16.850 -0.2392 -0.3938  2.2557
 4784SOL     OW25984   1.753   2.010  10.184 -0.6110  0.2422  0.3758
 4784SOL    HW125985   1.676   2.057  10.217  0.4508  0.8553  1.9807
 4784SOL    HW225986   1.816   2.081  10.196  1.1736 -1.4017  0.6796
 4785SOL     OW25987   4.131   0.721   1.299  0.0489 -0.2741 -0.1676
 4785SOL    HW125988   4.142   0.734   1.393  1.4528  0.0047 -0.3727
 4785SOL    HW225989   4.160   0.806   1.265  1.1147 -0.2419  0.8005
 4786SOL     OW25990   2.572   1.500   2.285  0.0805  0.0502  0.0245
 4786SOL    HW125991   2.530   1.532   2.205  3.0505  0.0192 -1.5135
 4786SOL    HW225992   2.512   1.519   2.358 -0.3249  0.0713 -0.3143
 4787SOL     OW25993   1.001   4.543   2.361 -0.0742 -0.0291  0.3025
 4787SOL    HW125994   1.031   4.595   2.436  0.2037 -0.0907  0.2349
 4787SOL    HW225995   0.908   4.533   2.379 -0.3141  1.4798 -0.0789
 4788SOL     OW25996   0.815   1.224   2.851 -0.2739 -0.3491  0.5576
 4788SOL    HW125997   0.879   1.240   2.781 -0.3953 -0.8087  0.3446
 4788SOL    HW225998   0.798   1.131   2.839 -0.0925 -0.3435  0.2376
 4789SOL     OW25999   0.850   2.572   5.771  0.7298 -0.1530 -0.5036
 4789SOL    HW126000   0.830   2.480   5.782  2.1115 -0.5865 -1.5698
 4789SOL    HW226001   0.932   2.562   5.723  0.5304  0.5252 -0.9928
 4790SOL     OW26002   3.560   2.043   4.404  0.0377 -0.2146  0.3282
 4790SOL    HW126003   3.594   2.029   4.493  2.1226  0.2460 -0.4059
 4790SOL    HW226004   3.470   2.067   4.427  0.1482 -0.0707  0.6248
 4791SOL     OW26005   0.155   4.233   8.064 -0.0462 -0.0492 -0.2156
 4791SOL    HW126006   0.153   4.265   8.154  1.5668  3.5510 -1.4208
 4791SOL    HW226007   0.101   4.295   8.015  0.3084  0.9653  0.6833
 4792SOL     OW26008   2.074   2.052   6.076  0.0069  0.0152  0.2683
 4792SOL    HW126009   2.081   2.065   6.171  1.1482 -0.8448  0.2951
 4792SOL    HW226010   2.128   1.974   6.070 -1.8854 -1.2442 -0.2429
 4793SOL     OW26011   1.907   4.315   2.668  0.6397  0.1447  0.2334
 4793SOL    HW126012   1.835   4.317   2.605  2.2477 -0.2924 -1.6107
 4793SOL    HW226013   1.944   4.400   2.644 -1.5749  0.5527 -1.7388
 4794SOL     OW26014   3.915   0.317   1.189  0.1482  0.5176  0.0591
 4794SOL    HW126015   4.003   0.329   1.154  1.1027 -0.7147  2.1167
 4794SOL    HW226016   3.901   0.397   1.240 -0.7563  1.1336 -1.1428
 4795SOL     OW26017   1.083   4.730   7.572 -0.5976  0.3902 -0.1797
 4795SOL    HW126018   1.169   4.724   7.614 -0.6270  0.4651 -0.1101
 4795SOL    HW226019   1.083   4.660   7.506  1.7833 -0.2092  0.4409
 4796SOL     OW26020   1.684   2.191   0.512 -0.3206  0.4990 -0.4565
 4796SOL    HW126021   1.631   2.208   0.590  0.6100  3.4181 -0.4520
 4796SOL    HW226022   1.760   2.244   0.538 -0.0966  0.2238 -0.5521
 4797SOL     OW26023   1.751   4.519   5.891 -0.0288 -0.6603 -0.0343
 4797SOL    HW126024   1.772   4.460   5.964  0.4898  1.3516  1.4249
 4797SOL    HW226025   1.737   4.463   5.814 -0.8084 -1.8665  0.9674
 4798SOL     OW26026   2.566   1.556   7.481 -0.6344 -0.3524  0.4137
 4798SOL    HW126027   2.546   1.628   7.540 -0.2003  0.0589  0.0578
 4798SOL    HW226028   2.490   1.558   7.422 -0.0613  1.3081 -0.2379
 4799SOL     OW26029   0.589   4.097   5.112 -0.4638  0.1064  0.3575
 4799SOL    HW126030   0.674   4.054   5.112 -0.9712 -0.9022 -0.2253
 4799SOL    HW226031   0.587   4.103   5.208 -1.1151 -0.3492  0.3758
 4800SOL     OW26032   2.822   4.289   1.470  0.1126 -0.2362 -0.2195
 4800SOL    HW126033   2.753   4.255   1.525  1.6531 -2.1543  0.5389
 4800SOL    HW226034   2.781   4.356   1.415 -0.6733  0.7011  1.5122
 4801SOL     OW26035   0.367   0.114   5.491  0.8007 -0.1420  0.4549
 4801SOL    HW126036   0.404   0.159   5.415  0.9294  0.3930  0.8432
 4801SOL    HW226037   0.276   0.117   5.463  0.9687  1.8385  0.1311
 4802SOL     OW26038   1.703   4.150   2.023  0.0053 -0.0139  0.3733
 4802SOL    HW126039   1.644   4.158   1.948  2.2567  0.1449 -1.3907
 4802SOL    HW226040   1.671   4.068   2.061 -2.4013  0.0464 -1.4846
 4803SOL     OW26041   1.950   3.764  10.626 -0.7355 -0.1879  0.0226
 4803SOL    HW126042   1.879   3.733  10.570 -0.8604 -1.4143  0.8401
 4803SOL    HW226043   1.986   3.820  10.558  0.9067 -0.8442  0.3450
 4804SOL     OW26044   1.537   1.273   7.028  0.1469 -0.0759  0.7053
 4804SOL    HW126045   1.612   1.240   6.978 -1.0809 -0.5458 -0.8344
 4804SOL    HW226046   1.582   1.356   7.041  0.8369 -0.0555 -1.7398
 4805SOL     OW26047   1.233   3.672  16.885 -0.2420 -0.3708 -0.3018
 4805SOL    HW126048   1.212   3.720  16.965  0.7244 -1.9697  0.9422
 4805SOL    HW226049   1.197   3.584  16.901 -1.6299  0.9713  3.9575
 4806SOL     OW26050   1.054   3.841   7.750  0.4607 -0.2738  0.1654
 4806SOL    HW126051   1.140   3.809   7.723  1.2618  1.5429  0.5836
 4806SOL    HW226052   1.015   3.754   7.764 -1.8525  0.8608  0.7172
 4807SOL     OW26053   0.218   4.565   4.154 -0.4729 -0.0625  0.1991
 4807SOL    HW126054   0.306   4.531   4.144  0.0116  0.9957  0.8800
 4807SOL    HW226055   0.165   4.486   4.141 -0.8770  0.9240 -4.0696
 4808SOL     OW26056   1.212   0.995   0.844 -0.4126 -0.1248  0.7511
 4808SOL    HW126057   1.252   1.071   0.801 -1.5037 -0.6454 -1.1785
 4808SOL    HW226058   1.236   0.936   0.772 -0.8761  2.6736 -1.6975
 4809SOL     OW26059   0.806   4.006   9.118 -1.1291  0.0443  0.3883
 4809SOL    HW126060   0.901   4.015   9.126 -1.1801 -0.9712  2.2412
 4809SOL    HW226061   0.782   4.023   9.210 -1.3504  0.9480  0.1607
 4810SOL     OW26062   0.106   2.669   9.177  0.2478  0.3855  0.9493
 4810SOL    HW126063   0.080   2.614   9.250  0.0718 -1.3823 -0.4395
 4810SOL    HW226064   0.118   2.750   9.227 -1.2211  0.0233  1.8827
 4811SOL     OW26065   4.007   2.650   5.550 -0.9096 -0.2062 -0.3844
 4811SOL    HW126066   4.087   2.641   5.498  0.4213  1.1130  1.3952
 4811SOL    HW226067   3.934   2.661   5.490 -0.4111  2.0923 -0.5645
 4812SOL     OW26068   2.562   2.751   4.643 -0.3515  0.0680  0.0354
 4812SOL    HW126069   2.640   2.719   4.598 -1.0857  1.3682 -2.1921
 4812SOL    HW226070   2.536   2.668   4.682  2.6754 -1.3149 -0.9085
 4813SOL     OW26071   1.739   2.610  11.082  0.2639 -0.0109 -0.5614
 4813SOL    HW126072   1.784   2.623  11.166  2.5712  0.4738 -1.8772
 4813SOL    HW226073   1.817   2.588  11.030 -0.1118 -1.6750 -0.4153
 4814SOL     OW26074   1.798   3.449   6.274  0.4420 -0.2448  0.1454
 4814SOL    HW126075   1.749   3.493   6.343  1.8109  0.8747  0.4109
 4814SOL    HW226076   1.730   3.390   6.242  0.8998  0.0931 -1.4703
 4815SOL     OW26077   3.268   2.695   1.554  0.0621  0.1043  0.0419
 4815SOL    HW126078   3.246   2.781   1.518 -1.3830  0.0921  0.9195
 4815SOL    HW226079   3.323   2.653   1.487  2.6586  0.2565  2.1188
 4816SOL     OW26080   3.012   0.988  16.434  0.2648 -0.4470  0.0060
 4816SOL    HW126081   2.936   0.952  16.388  0.5387 -1.2325  0.1676
 4816SOL    HW226082   3.017   1.079  16.404 -0.7192 -0.0926  0.9150
 4817SOL     OW26083   3.029   3.919   2.327  0.7152 -0.1347 -0.3378
 4817SOL    HW126084   3.000   3.879   2.409  1.4713 -0.1599 -0.0818
 4817SOL    HW226085   3.111   3.871   2.318  0.7002 -0.2671  0.2516
 4818SOL     OW26086   0.333   0.492   7.847  0.0344  0.5253 -0.5321
 4818SOL    HW126087   0.424   0.515   7.828 -0.0080  1.4825  0.4348
 4818SOL    HW226088   0.330   0.407   7.892  1.3222 -0.3423 -2.0586
 4819SOL     OW26089   1.884   3.038   4.073  0.5556  0.8914  0.0613
 4819SOL    HW126090   1.910   3.097   4.002  2.1202 -0.5181 -0.5413
 4819SOL    HW226091   1.970   3.045   4.116  0.8153  0.5593 -0.4049
 4820SOL     OW26092   4.456   4.141   6.583 -0.0868 -0.1911 -0.7803
 4820SOL    HW126093   4.452   4.046   6.598 -0.1258 -0.1718 -0.6685
 4820SOL    HW226094   4.391   4.151   6.653 -1.5340  0.1082 -2.1468
 4821SOL     OW26095   1.342   2.217   9.323  0.8362 -0.1282 -0.2370
 4821SOL    HW126096   1.306   2.129   9.309  1.9943 -0.4621 -1.1245
 4821SOL    HW226097   1.292   2.253   9.250  0.8791 -2.1313 -1.2535
 4822SOL     OW26098   1.554   1.058   9.263 -0.8907  0.1403 -0.2117
 4822SOL    HW126099   1.520   1.001   9.194 -1.8661  0.9742 -0.4268
 4822SOL    HW226100   1.534   1.141   9.220 -1.4217  0.1022 -0.0397
 4823SOL     OW26101   3.871   2.924   1.111 -0.1522 -0.4349  0.2639
 4823SOL    HW126102   3.878   3.012   1.149 -1.3653 -0.1928 -0.0638
 4823SOL    HW226103   3.959   2.888   1.111  0.0988  0.1585  0.9680
 4824SOL     OW26104   4.475   3.405   6.140  0.3806  0.2273  0.0762
 4824SOL    HW126105   4.461   3.322   6.185 -0.0440  0.3353  0.1440
 4824SOL    HW226106   4.500   3.380   6.051  0.9794  3.3775 -0.6364
 4825SOL     OW26107   3.676   4.348   5.958 -0.7321 -0.1197  0.0602
 4825SOL    HW126108   3.765   4.332   5.987 -0.9770 -0.3276  0.6839
 4825SOL    HW226109   3.683   4.420   5.896  2.2320 -0.1854  0.3076
 4826SOL     OW26110   3.770   0.881   8.441 -0.8899  0.0466  0.2181
 4826SOL    HW126111   3.792   0.789   8.453 -0.1559  0.1424 -0.3343
 4826SOL    HW226112   3.723   0.889   8.358 -1.5742  1.2864  0.7239
 4827SOL     OW26113   2.695   1.275   5.255 -0.1747  0.2228 -0.2689
 4827SOL    HW126114   2.604   1.253   5.236 -0.1096  0.0579 -0.3876
 4827SOL    HW226115   2.700   1.361   5.212 -2.8100  1.5283  1.9848
 4828SOL     OW26116   0.890   1.499   2.582  0.1096 -0.0805  0.6199
 4828SOL    HW126117   0.977   1.520   2.549 -0.4337  1.6362  0.2773
 4828SOL    HW226118   0.904   1.408   2.608  3.0473  0.2903  0.2934
 4829SOL     OW26119   4.084   0.780  13.049 -0.1121  0.6737 -0.1217
 4829SOL    HW126120   4.020   0.792  13.119 -0.1644 -0.7265  0.0745
 4829SOL    HW226121   4.151   0.731  13.096  0.6579  0.4188 -1.4818
 4830SOL     OW26122   2.730   3.311   3.412 -1.1620  0.2785 -0.3369
 4830SOL    HW126123   2.649   3.357   3.389 -3.0687 -1.9661  1.8255
 4830SOL    HW226124   2.752   3.343   3.500  3.1873  0.2069 -1.4258
 4831SOL     OW26125   1.035   4.128   8.611  0.0459  0.4075  0.6792
 4831SOL    HW126126   0.983   4.140   8.691 -0.7136 -1.8908  0.5190
 4831SOL    HW226127   1.085   4.210   8.611  0.7922 -0.0451 -1.3397
 4832SOL     OW26128   4.571   0.323   1.332 -0.2278 -0.0554 -0.4624
 4832SOL    HW126129   4.640   0.356   1.390 -2.3114  1.1968  1.2772
 4832SOL    HW226130   4.576   0.229   1.351  0.4736  0.5671  2.4360
 4833SOL     OW26131   4.402   3.248  11.197 -0.0653 -0.3131  0.1056
 4833SOL    HW126132   4.495   3.225  11.196  0.3221  1.2805 -0.1863
 4833SOL    HW226133   4.395   3.299  11.278  1.3216 -1.2013  0.7883
 4834SOL     OW26134   1.295   2.950   1.844  0.0408  0.1200  0.4259
 4834SOL    HW126135   1.338   2.882   1.792 -0.6398 -0.0246  0.0507
 4834SOL    HW226136   1.227   2.888   1.869  0.6147 -0.5858  0.2333
 4835SOL     OW26137   4.052   4.279  11.001  0.1775 -0.3284  0.1238
 4835SOL    HW126138   4.066   4.322  11.085 -2.9893  0.0441  0.4835
 4835SOL    HW226139   4.087   4.339  10.936  0.8836 -0.8003  0.0608
 4836SOL     OW26140   2.778   1.591   6.232 -0.1968 -0.0687  0.0932
 4836SOL    HW126141   2.715   1.630   6.171 -1.1134 -0.0963  1.0179
 4836SOL    HW226142   2.812   1.521   6.177  0.5979 -1.6208  2.5191
 4837SOL     OW26143   0.063   0.100  13.710  0.6886 -1.2612 -0.4435
 4837SOL    HW126144   0.056   0.088  13.805  2.9251  0.0156 -0.1270
 4837SOL    HW226145   0.156   0.080  13.695  0.8300 -0.4880 -0.5601
 4838SOL     OW26146   3.626   1.719  15.334  0.3168  0.0382 -0.4617
 4838SOL    HW126147   3.671   1.692  15.254 -1.4798 -0.2212 -1.3706
 4838SOL    HW226148   3.556   1.772  15.295 -1.2815  0.7111  3.3245
 4839SOL     OW26149   2.822   3.586  17.260  0.2582 -0.6230  0.4428
 4839SOL    HW126150   2.761   3.562  17.191  1.4806 -0.8347 -0.5685
 4839SOL    HW226151   2.773   3.546  17.332  0.2215 -0.0893  0.7140
 4840SOL     OW26152   2.875   1.930   6.377  0.6640  0.4896 -0.3544
 4840SOL    HW126153   2.934   1.856   6.359  0.4167 -0.1927  1.6751
 4840SOL    HW226154   2.829   1.899   6.455 -0.7974  2.6251 -0.3827
 4841SOL     OW26155   1.801   0.131   6.413  0.2973  0.4617 -0.1584
 4841SOL    HW126156   1.835   0.043   6.428  0.1394  0.4570  0.1683
 4841SOL    HW226157   1.835   0.180   6.488 -3.0240  2.0819  0.2965
 4842SOL     OW26158   1.027   4.562   9.522 -0.6484  0.1389 -0.8751
 4842SOL    HW126159   1.027   4.657   9.535  0.3109  0.0863 -0.5634
 4842SOL    HW226160   1.105   4.533   9.568 -0.6979 -0.5402 -1.2214
 4843SOL     OW26161   0.387   0.111   9.209 -0.4045 -0.5499  0.6434
 4843SOL    HW126162   0.336   0.103   9.290 -0.7920  1.0895  0.5803
 4843SOL    HW226163   0.480   0.123   9.227 -1.4637  1.2571  4.8608
 4844SOL     OW26164   1.264   3.248   8.607 -0.0108 -0.9749 -0.0806
 4844SOL    HW126165   1.215   3.252   8.524  0.6417 -0.7180 -0.4561
 4844SOL    HW226166   1.329   3.183   8.581 -1.9403 -3.0893  0.4364
 4845SOL     OW26167   4.701   0.212   9.882  0.0997  0.0684 -0.5807
 4845SOL    HW126168   4.659   0.251   9.958 -1.1574 -2.3187 -0.0601
 4845SOL    HW226169   0.053   0.205   9.901 -0.7560 -2.6292  2.6518
 4846SOL     OW26170   3.715   1.970   7.231 -0.3095  0.2311  0.4484
 4846SOL    HW126171   3.755   1.921   7.159 -0.3745 -1.7328  1.7495
 4846SOL    HW226172   3.783   2.037   7.236 -2.6162  2.4072  2.6010
 4847SOL     OW26173   3.572   3.835   5.596 -0.0369  1.2770  0.1510
 4847SOL    HW126174   3.585   3.908   5.536  2.8189  1.1920  0.6808
 4847SOL    HW226175   3.659   3.816   5.630 -0.5492  0.2404  0.8798
 4848SOL     OW26176   0.176   0.489   2.372 -0.0674 -0.2460 -0.4312
 4848SOL    HW126177   0.138   0.445   2.296  1.5084  0.5403 -1.6875
 4848SOL    HW226178   0.115   0.561   2.389 -0.8293 -0.2064 -3.2666
 4849SOL     OW26179   2.432   1.977   7.570  0.0103 -0.4794 -0.2663
 4849SOL    HW126180   2.360   2.019   7.523 -0.0979 -0.6064 -0.2107
 4849SOL    HW226181   2.475   2.060   7.591 -3.4023  1.4890 -1.1079
 4850SOL     OW26182   4.043   2.853  16.627  0.4182  0.2408  0.3068
 4850SOL    HW126183   4.089   2.825  16.548  0.2901  0.5329  0.1261
 4850SOL    HW226184   4.120   2.868  16.682 -0.4109  1.7690  1.0598
 4851SOL     OW26185   4.267   3.232   3.037  0.1602 -0.2555 -0.0241
 4851SOL    HW126186   4.284   3.138   3.033  0.6575 -0.0662 -2.4066
 4851SOL    HW226187   4.333   3.256   2.971 -1.2467 -2.9858 -2.4146
 4852SOL     OW26188   1.743   0.072   2.968  0.2500 -0.7065 -0.2757
 4852SOL    HW126189   1.816   0.012   2.953  0.4158 -0.3746 -0.8087
 4852SOL    HW226190   1.745   0.078   3.063 -1.4756  0.1713 -0.2938
 4853SOL     OW26191   1.325   0.729   8.569  0.0307  0.2683 -0.4506
 4853SOL    HW126192   1.362   0.689   8.648  0.7996 -0.6905 -1.2909
 4853SOL    HW226193   1.254   0.666   8.555 -0.4823  0.7905 -0.1848
 4854SOL     OW26194   0.273   0.216   1.282 -0.0261 -0.6639  0.0586
 4854SOL    HW126195   0.367   0.230   1.281 -0.1299  0.3163  4.0122
 4854SOL    HW226196   0.244   0.280   1.217  0.2830 -0.3055  0.2736
 4855SOL     OW26197   0.064   0.431   8.467  0.1530 -0.4437 -0.7531
 4855SOL    HW126198   4.726   0.398   8.510  0.1116 -0.5586 -0.9142
 4855SOL    HW226199   0.065   0.521   8.497  2.1261 -1.0508  0.9487
 4856SOL     OW26200   2.914   1.975   5.532 -0.3130  0.2290  0.5417
 4856SOL    HW126201   2.968   1.976   5.453 -0.9698  0.8571  0.1119
 4856SOL    HW226202   2.908   2.068   5.551 -1.0776 -0.2460  2.6796
 4857SOL     OW26203   1.026   2.002   6.962  0.5545  0.0995  0.4124
 4857SOL    HW126204   0.932   2.010   6.982  0.0280 -1.8412 -1.3576
 4857SOL    HW226205   1.041   1.909   6.950  0.2517 -0.3082  3.1296
 4858SOL     OW26206   3.820   1.135   6.202  0.1147  0.1659  0.4489
 4858SOL    HW126207   3.820   1.146   6.297 -1.1790 -2.0701  0.7163
 4858SOL    HW226208   3.729   1.159   6.182 -0.1836 -0.9183  0.5056
 4859SOL     OW26209   1.206   3.305   3.239  0.1133  0.0182  0.8577
 4859SOL    HW126210   1.273   3.355   3.194 -0.1629  0.0874  0.5237
 4859SOL    HW226211   1.146   3.302   3.164  1.5992  0.5241 -0.3625
 4860SOL     OW26212   1.648   2.470  16.756  0.9386 -0.6925  0.4120
 4860SOL    HW126213   1.678   2.389  16.715 -1.4423 -1.8771  1.0051
 4860SOL    HW226214   1.567   2.443  16.800 -0.6144  3.5374  0.1234
 4861SOL     OW26215   2.899   3.031   8.025  0.1288  0.1911  0.0387
 4861SOL    HW126216   2.859   3.075   7.950  1.6347  0.8125 -0.3993
 4861SOL    HW226217   2.922   2.944   7.993 -0.5388  0.3363 -0.8525
 4862SOL     OW26218   1.702   3.340   7.624  0.1423  0.7132 -0.6426
 4862SOL    HW126219   1.632   3.404   7.611 -0.6013  0.1324  0.4761
 4862SOL    HW226220   1.651   3.264   7.649 -2.2982  2.5777  0.0775
 4863SOL     OW26221   1.860   3.628  11.229 -0.5062  0.5331  0.1747
 4863SOL    HW126222   1.898   3.567  11.166 -0.3284  0.6267  0.1914
 4863SOL    HW226223   1.773   3.590  11.224 -1.3216  2.0788  2.6042
 4864SOL     OW26224   1.178   0.970   3.908 -0.1103  0.5465 -0.5089
 4864SOL    HW126225   1.255   0.954   3.854 -0.1509  0.9632 -0.6929
 4864SOL    HW226226   1.209   0.920   3.984 -0.9523  1.2819  0.3358
 4865SOL     OW26227   1.453   0.530   4.080 -0.5741  0.3931  0.0394
 4865SOL    HW126228   1.533   0.554   4.126 -1.9648  1.0931  2.0866
 4865SOL    HW226229   1.474   0.528   3.987  2.0661  3.2425  0.5764
 4866SOL     OW26230   1.912   1.090   9.657  0.6539 -0.1160  0.1758
 4866SOL    HW126231   1.883   1.080   9.566  2.6470  2.6318 -0.7741
 4866SOL    HW226232   1.877   1.178   9.672  0.3737 -0.0118 -1.1182
 4867SOL     OW26233   3.020   3.555   2.363  0.2736  0.2522  0.0836
 4867SOL    HW126234   3.113   3.545   2.343  0.2620  0.5201 -0.1045
 4867SOL    HW226235   3.026   3.608   2.443  2.5209  1.7585 -1.0715
 4868SOL     OW26236   2.795   0.457  11.597  0.5398  0.0478 -0.5255
 4868SOL    HW126237   2.766   0.413  11.516 -3.3697  1.0704  0.3319
 4868SOL    HW226238   2.819   0.377  11.644 -2.3822 -1.2869 -1.2543
 4869SOL     OW26239   3.801   2.246  11.512  0.2171  0.1507  0.3051
 4869SOL    HW126240   3.758   2.210  11.591 -0.6191 -1.3512 -0.8229
 4869SOL    HW226241   3.783   2.335  11.541  2.2615  0.7643 -0.3769
 4870SOL     OW26242   4.146   3.814   9.382 -0.2523  0.1585  0.3539
 4870SOL    HW126243   4.056   3.846   9.388 -1.0668 -2.2284  1.0087
 4870SOL    HW226244   4.179   3.872   9.313  1.7637 -1.3061  0.0831
 4871SOL     OW26245   4.235   4.342  11.964  0.1556  0.2735 -0.1469
 4871SOL    HW126246   4.151   4.382  11.989 -0.0265  0.4807 -1.0773
 4871SOL    HW226247   4.238   4.352  11.869  0.4049 -2.0744 -0.3939
 4872SOL     OW26248   3.492   2.709   4.457 -0.5361 -0.7919 -0.1973
 4872SOL    HW126249   3.492   2.804   4.468  0.0701 -0.8848  0.5846
 4872SOL    HW226250   3.574   2.688   4.412  0.4830  2.6353  0.0710
 4873SOL     OW26251   3.957   2.866  14.519 -0.0244  0.2300  0.0222
 4873SOL    HW126252   3.908   2.886  14.599 -1.9765  0.3222 -1.2101
 4873SOL    HW226253   3.932   2.940  14.464 -0.3837  0.7505  0.8966
 4874SOL     OW26254   4.330   3.382   3.790 -0.0639 -0.4833 -0.5367
 4874SOL    HW126255   4.379   3.301   3.775 -0.6351 -0.8765 -0.3339
 4874SOL    HW226256   4.255   3.352   3.737  0.5139 -0.8302 -1.1607
 4875SOL     OW26257   3.779   2.300   1.427  0.0719  0.4113  0.3419
 4875SOL    HW126258   3.858   2.275   1.380  0.5577 -0.8594  1.8164
 4875SOL    HW226259   3.789   2.265   1.516 -0.7874 -1.1269 -0.1806
 4876SOL     OW26260   2.381   2.860   3.657  0.3767  0.0927  0.1838
 4876SOL    HW126261   2.425   2.813   3.728 -0.5605 -2.2632 -0.7935
 4876SOL    HW226262   2.435   2.937   3.636 -0.2096  0.6751  0.8108
 4877SOL     OW26263   4.554   1.962  13.364  0.4356 -0.4053  0.3683
 4877SOL    HW126264   4.578   2.049  13.395  1.1573 -0.8475  1.0324
 4877SOL    HW226265   4.470   1.992  13.330  1.6523  0.4772 -1.8434
 4878SOL     OW26266   1.275   2.079  10.282 -0.3512 -0.2422  0.2045
 4878SOL    HW126267   1.244   2.164  10.251  2.1610  0.2735 -0.9012
 4878SOL    HW226268   1.200   2.044  10.329 -1.1722 -1.2204 -1.8703
 4879SOL     OW26269   2.172   4.086   0.755  0.0506 -0.4984 -0.2666
 4879SOL    HW126270   2.162   3.992   0.741 -1.7160 -0.5586  1.4356
 4879SOL    HW226271   2.252   4.107   0.707  0.2258  2.2864  1.2654
 4880SOL     OW26272   3.876   2.308  10.837 -0.3098  0.3414  0.4741
 4880SOL    HW126273   3.866   2.289  10.930 -2.7279 -1.2821 -0.1287
 4880SOL    HW226274   3.924   2.237  10.795 -0.7070  0.7209 -0.6342
 4881SOL     OW26275   0.259   1.258   8.979  0.0455  0.0820 -0.6061
 4881SOL    HW126276   0.327   1.193   8.960  0.5842  0.7526 -0.9563
 4881SOL    HW226277   0.185   1.200   8.998 -0.0539  1.2227  2.3840
 4882SOL     OW26278   2.391   4.156   0.585  0.0845  0.3978 -0.7873
 4882SOL    HW126279   2.360   4.155   0.494 -0.3387  0.0075 -0.6413
 4882SOL    HW226280   2.386   4.248   0.608  0.7694  0.0479  0.7382
 4883SOL     OW26281   4.618   2.552  13.852  0.3439  0.1437 -0.0763
 4883SOL    HW126282   4.573   2.474  13.885 -0.0042  2.2689  4.5612
 4883SOL    HW226283   4.550   2.594  13.799 -1.9604 -2.0629  1.1149
 4884SOL     OW26284   0.818   1.729   3.851  0.1291  0.5084 -0.1279
 4884SOL    HW126285   0.886   1.663   3.838 -0.6634 -0.3531  0.1099
 4884SOL    HW226286   0.854   1.806   3.807 -0.5426  0.0632 -1.4362
 4885SOL     OW26287   4.056   3.059   3.205  0.1618  0.5034 -0.0823
 4885SOL    HW126288   4.094   3.122   3.267 -2.8027  2.2923 -0.0600
 4885SOL    HW226289   3.969   3.099   3.207 -0.3240 -0.4654 -1.7250
 4886SOL     OW26290   0.572   2.489   4.371 -0.0940 -0.1177 -0.4615
 4886SOL    HW126291   0.651   2.526   4.333  1.1458 -1.1872  1.0961
 4886SOL    HW226292   0.571   2.406   4.323  2.0791  0.0412 -0.7516
 4887SOL     OW26293   1.564   3.515   2.492  0.2217  0.0453 -0.7495
 4887SOL    HW126294   1.596   3.485   2.577  0.7884 -0.1253 -1.0209
 4887SOL    HW226295   1.559   3.434   2.442 -2.7189 -0.9938  1.2069
 4888SOL     OW26296   0.558   2.221   7.264 -0.1060  0.1016 -0.1457
 4888SOL    HW126297   0.589   2.214   7.355 -1.1710  0.4356  0.2368
 4888SOL    HW226298   0.635   2.247   7.213 -1.9767  3.7916 -1.0178
 4889SOL     OW26299   1.854   0.629   6.951  0.1707  0.1524 -0.0904
 4889SOL    HW126300   1.859   0.639   7.046  2.2632  1.4007 -0.3267
 4889SOL    HW226301   1.927   0.570   6.934  1.2499  2.0631 -2.1228
 4890SOL     OW26302   1.764   2.443  12.346 -0.4788  0.0308 -0.1735
 4890SOL    HW126303   1.715   2.521  12.318  0.8027  2.5439  4.4648
 4890SOL    HW226304   1.776   2.458  12.440  1.3937 -1.7424 -0.1388
 4891SOL     OW26305   1.534   0.031   0.432 -0.0449 -0.3431  0.3809
 4891SOL    HW126306   1.464   0.096   0.425 -1.0939 -1.6525 -1.3390
 4891SOL    HW226307   1.577   0.045   0.348 -2.3846  0.8169 -0.6135
 4892SOL     OW26308   3.805   1.973  11.295 -0.3028  0.1537  0.3638
 4892SOL    HW126309   3.828   2.043  11.355 -0.4648 -0.0940  0.7147
 4892SOL    HW226310   3.850   1.898  11.335  0.6407  0.6729  0.2671
 4893SOL     OW26311   1.557   1.734   8.164 -0.4676  0.0411  0.6514
 4893SOL    HW126312   1.527   1.824   8.149 -0.1646  0.3117  1.6431
 4893SOL    HW226313   1.613   1.739   8.242 -0.8241  2.4451  0.7474
 4894SOL     OW26314   4.039   2.423   4.268  0.2493  0.2285  0.1890
 4894SOL    HW126315   4.037   2.333   4.301  0.3738 -0.4357 -1.6085
 4894SOL    HW226316   4.011   2.407   4.178 -0.2774  0.4180  0.3186
 4895SOL     OW26317   2.468   2.925   5.210 -0.6280  0.4468 -0.0787
 4895SOL    HW126318   2.478   2.982   5.286  2.1824 -0.2066  0.0142
 4895SOL    HW226319   2.525   2.853   5.235  0.2060  1.6655  1.5291
 4896SOL     OW26320   2.524   4.543  10.525 -0.2842 -0.6472 -0.0228
 4896SOL    HW126321   2.517   4.621  10.470 -2.8452  1.5146  3.3565
 4896SOL    HW226322   2.606   4.567  10.568 -0.1776 -1.0802  0.0149
 4897SOL     OW26323   2.263   0.482   3.544 -0.0784  0.1374 -0.1325
 4897SOL    HW126324   2.199   0.483   3.473 -0.7416  2.4868  0.5161
 4897SOL    HW226325   2.237   0.396   3.576  1.7324 -0.2794  0.2048
 4898SOL     OW26326   4.696   0.636  12.975  0.4523  0.2040 -0.2087
 4898SOL    HW126327   4.625   0.624  13.038 -1.2247  0.7664 -1.9828
 4898SOL    HW226328   4.663   0.697  12.908  0.9607  0.8393  0.1184
 4899SOL     OW26329   2.676   2.747   4.195  0.1255 -0.1909  0.1643
 4899SOL    HW126330   2.686   2.832   4.238  1.4760 -0.7989  1.0347
 4899SOL    HW226331   2.685   2.686   4.268 -1.5977  0.4117  0.8888
 4900SOL     OW26332   0.425   3.183   4.541 -0.3831  0.2113  0.1564
 4900SOL    HW126333   0.377   3.209   4.463 -0.9347 -0.4988  0.2522
 4900SOL    HW226334   0.517   3.204   4.525 -0.5659  2.4136  2.0222
 4901SOL     OW26335   3.193   1.895   7.066  0.4881 -0.8070  0.4283
 4901SOL    HW126336   3.099   1.911   7.079  0.7620 -1.1120  2.7602
 4901SOL    HW226337   3.201   1.837   7.142  2.8209  0.3863  1.0886
 4902SOL     OW26338   4.311   0.587   4.283 -0.6276  0.0749  0.3974
 4902SOL    HW126339   4.311   0.565   4.377 -0.2134 -0.5416  0.2578
 4902SOL    HW226340   4.290   0.680   4.284  0.3825  0.2924  1.4693
 4903SOL     OW26341   2.840   0.407   2.933 -0.2418 -0.1302  0.8831
 4903SOL    HW126342   2.920   0.429   2.885 -1.1277 -0.2556 -0.6481
 4903SOL    HW226343   2.822   0.496   2.964 -0.7630  0.2294 -0.4487
 4904SOL     OW26344   1.439   2.405   6.201 -0.1544  0.0573 -0.6149
 4904SOL    HW126345   1.424   2.359   6.119 -0.1899  2.8338 -2.1820
 4904SOL    HW226346   1.361   2.461   6.209 -0.3405 -0.2348 -0.4029
 4905SOL     OW26347   2.150   0.550   3.872  0.6420 -0.1698  0.2955
 4905SOL    HW126348   2.076   0.490   3.870 -1.0487  1.8723  1.7790
 4905SOL    HW226349   2.221   0.486   3.882 -0.5252 -0.8358  4.2018
 4906SOL     OW26350   0.545   1.416   6.804 -0.7602  0.5386 -0.5125
 4906SOL    HW126351   0.458   1.426   6.844 -0.0423 -2.4078  1.8067
 4906SOL    HW226352   0.544   1.323   6.780  0.8170  0.5476 -0.5885
 4907SOL     OW26353   2.883   2.478   2.259 -0.2145 -0.3285  0.4377
 4907SOL    HW126354   2.908   2.425   2.183  0.5725  1.5309 -0.6063
 4907SOL    HW226355   2.862   2.409   2.322  1.7905 -1.5231 -0.2033
 4908SOL     OW26356   4.688   0.059   2.652 -0.8026 -0.6108  0.3867
 4908SOL    HW126357   0.021   0.009   2.685 -2.0215 -2.1674  0.7190
 4908SOL    HW226358   4.646   4.725   2.610 -2.5980 -0.1377  1.3777
 4909SOL     OW26359   4.121   1.421   7.124  0.2585  0.2364  0.0741
 4909SOL    HW126360   4.121   1.515   7.140  0.0964 -0.2667  2.9152
 4909SOL    HW226361   4.099   1.419   7.030 -1.3343 -0.1278  0.4482
 4910SOL     OW26362   2.375   1.174  12.843  0.1866  0.1578  0.0144
 4910SOL    HW126363   2.329   1.147  12.764 -1.5819 -1.2475  1.5419
 4910SOL    HW226364   2.466   1.149  12.823 -1.0441 -3.4717 -1.0765
 4911SOL     OW26365   4.432   3.162   7.042  0.1369  0.2053 -0.3759
 4911SOL    HW126366   4.458   3.244   7.084 -1.4864  1.0189 -0.9686
 4911SOL    HW226367   4.510   3.134   6.995  0.4974 -1.8539  1.4668
 4912SOL     OW26368   4.594   0.272   2.793 -0.5753  0.2751 -0.3664
 4912SOL    HW126369   4.518   0.301   2.743 -0.2047  1.3177 -0.3194
 4912SOL    HW226370   4.629   0.200   2.740  0.4000  1.9199 -1.9237
 4913SOL     OW26371   2.391   0.856   7.642 -0.5906 -0.7484  0.0508
 4913SOL    HW126372   2.456   0.919   7.610 -0.9812  0.1164  0.9411
 4913SOL    HW226373   2.392   0.887   7.733 -0.1080 -0.3067 -0.1037
 4914SOL     OW26374   2.371   3.409   4.907 -0.0040  0.5996  0.3764
 4914SOL    HW126375   2.298   3.446   4.958  1.0287 -1.7128  3.5001
 4914SOL    HW226376   2.365   3.320   4.940 -1.2657  1.6232  2.8706
 4915SOL     OW26377   3.491   3.337   0.592 -0.3737 -0.5071 -0.3149
 4915SOL    HW126378   3.519   3.274   0.659 -0.7117 -0.9482 -0.5886
 4915SOL    HW226379   3.558   3.325   0.524 -0.8527 -0.6109 -0.7644
 4916SOL     OW26380   4.279   2.005   6.704  0.0940  0.2803  0.1955
 4916SOL    HW126381   4.276   1.994   6.609  2.0672  0.7089  0.0909
 4916SOL    HW226382   4.302   2.097   6.712 -2.1022  0.8568 -0.1878
 4917SOL     OW26383   4.601   4.434  13.058  0.2525 -0.1618 -0.4297
 4917SOL    HW126384   4.652   4.480  13.125 -0.3514 -0.7860  0.4644
 4917SOL    HW226385   4.517   4.425  13.103 -1.3750 -0.4610 -3.5002
 4918SOL     OW26386   2.106   2.883  12.866 -0.1620  0.4203 -0.6308
 4918SOL    HW126387   2.021   2.918  12.841 -0.1120  3.2147  3.1308
 4918SOL    HW226388   2.102   2.810  12.928 -1.8769  0.5121 -0.6454
 4919SOL     OW26389   0.015   3.704  13.869 -0.0357  0.2642 -0.1417
 4919SOL    HW126390   4.716   3.700  13.955  0.9784 -3.6341  0.1367
 4919SOL    HW226391   4.713   3.780  13.830  1.7866  2.5020  2.1654
 4920SOL     OW26392   1.311   2.664   5.716  0.1293  0.5085 -0.0438
 4920SOL    HW126393   1.381   2.706   5.666 -0.0670  0.1025 -0.6711
 4920SOL    HW226394   1.355   2.582   5.741 -0.9520 -0.6732 -1.9350
 4921SOL     OW26395   3.521   2.335   4.089 -0.7531 -0.0787 -0.0540
 4921SOL    HW126396   3.435   2.359   4.055 -0.4603  0.5245 -0.3623
 4921SOL    HW226397   3.518   2.239   4.088  1.3612 -0.1526  0.0147
 4922SOL     OW26398   3.604   4.740  15.126 -0.5478 -0.6184 -0.0347
 4922SOL    HW126399   3.687   0.041  15.147 -0.3535 -2.0290  2.0980
 4922SOL    HW226400   3.637   4.652  15.105 -1.9848 -0.5652 -2.5735
 4923SOL     OW26401   4.115   2.980  12.552  0.9731  0.3663 -0.3747
 4923SOL    HW126402   4.190   3.039  12.558  0.7616  0.5432  0.5992
 4923SOL    HW226403   4.084   2.990  12.642  0.6497  2.4133 -0.6976
 4924SOL     OW26404   0.310   3.645   2.432 -0.5747  0.1563  0.3278
 4924SOL    HW126405   0.385   3.602   2.474  0.2608  2.6157  1.3705
 4924SOL    HW226406   0.271   3.567   2.392 -1.1666  1.1197 -0.9346
 4925SOL     OW26407   3.768   1.806   9.599  0.7290 -0.4253  0.5206
 4925SOL    HW126408   3.761   1.749   9.523  2.7743  1.3369 -0.9645
 4925SOL    HW226409   3.808   1.882   9.557  0.1608 -0.3258  0.1614
 4926SOL     OW26410   4.713   2.949   4.983 -0.2544 -0.6736  0.1182
 4926SOL    HW126411   4.639   2.961   5.043 -1.2833 -0.2090 -1.2600
 4926SOL    HW226412   4.695   2.863   4.947 -0.6947 -0.2411 -0.6854
 4927SOL     OW26413   2.453   0.951   1.398  0.3771  0.4430  0.5724
 4927SOL    HW126414   2.452   0.965   1.304 -1.5386  0.3667  0.5803
 4927SOL    HW226415   2.543   0.919   1.406  0.1211 -0.4641 -0.1904
 4928SOL     OW26416   2.151   1.516   8.846 -0.5031 -0.1935 -0.2386
 4928SOL    HW126417   2.071   1.554   8.882 -0.7275 -0.0613 -0.8746
 4928SOL    HW226418   2.115   1.482   8.764  0.7112  2.3154 -1.7983
 4929SOL     OW26419   0.843   1.288   5.033  0.4006  0.1035 -0.5079
 4929SOL    HW126420   0.789   1.219   4.994 -0.1098  0.5797 -0.6531
 4929SOL    HW226421   0.922   1.238   5.052  0.4189 -0.0149 -0.8877
 4930SOL     OW26422   4.275   1.760  11.856  0.3000 -0.3082  0.1383
 4930SOL    HW126423   4.341   1.699  11.889  0.4903  0.1114  0.5469
 4930SOL    HW226424   4.334   1.835  11.863  1.0639 -0.9548  0.6188
 4931SOL     OW26425   2.102   0.072   4.063  0.1688  0.3012 -0.3091
 4931SOL    HW126426   2.136   4.725   4.067 -1.3477 -0.2131  0.7730
 4931SOL    HW226427   2.087   0.086   4.156  0.6848  0.7731 -0.2924
 4932SOL     OW26428   4.317   2.172   2.668  0.3555 -0.5695 -1.1231
 4932SOL    HW126429   4.265   2.252   2.663 -0.5418 -1.0310  1.0934
 4932SOL    HW226430   4.303   2.148   2.759  2.3524  0.5293 -0.5266
 4933SOL     OW26431   4.356   0.883   5.609  0.1894  0.5306  0.5741
 4933SOL    HW126432   4.336   0.796   5.645 -0.3630  0.2484 -0.4021
 4933SOL    HW226433   4.331   0.936   5.685 -1.6508 -0.0255  0.3687
 4934SOL     OW26434   3.325   1.544   5.741 -0.0331 -0.5010 -0.1221
 4934SOL    HW126435   3.405   1.578   5.702 -0.6181 -0.6881 -1.4825
 4934SOL    HW226436   3.351   1.544   5.833 -3.0375  0.9410  0.7538
 4935SOL     OW26437   0.470   3.326   5.463  0.3640  0.3289  0.1100
 4935SOL    HW126438   0.542   3.296   5.408  1.0228  0.5621  0.8474
 4935SOL    HW226439   0.450   3.241   5.502  0.9400 -0.2730 -0.9043
 4936SOL     OW26440   1.721   4.530   3.256  0.4459  0.2167 -0.3901
 4936SOL    HW126441   1.660   4.457   3.246  1.2404 -0.4843 -0.0957
 4936SOL    HW226442   1.747   4.537   3.164  0.2862 -1.4892 -0.5645
 4937SOL     OW26443   0.151   1.601   3.269 -0.0962 -0.5588  0.3149
 4937SOL    HW126444   0.194   1.656   3.335 -1.2887  1.3088 -0.4667
 4937SOL    HW226445   0.061   1.628   3.289  0.8930  1.3101  2.2752
 4938SOL     OW26446   2.524   0.197   2.891  0.4387  0.0214  0.4889
 4938SOL    HW126447   2.565   0.229   2.971  1.7085  1.0226 -0.5761
 4938SOL    HW226448   2.464   0.130   2.926  0.0595  0.4416  0.6437
 4939SOL     OW26449   0.040   0.343  13.592  0.5494 -0.0004 -0.1366
 4939SOL    HW126450   0.023   0.274  13.656 -0.5107  1.0035  0.6605
 4939SOL    HW226451   0.132   0.328  13.569  0.8215  2.7334 -0.8169
 4940SOL     OW26452   0.302   0.891   2.599  0.5523 -0.0423  0.1673
 4940SOL    HW126453   0.331   0.930   2.681 -0.4278 -1.7406  1.3227
 4940SOL    HW226454   0.322   0.799   2.611 -0.0852 -0.3915 -1.3799
 4941SOL     OW26455   1.244   3.746   6.355 -0.8275  0.6217  0.1867
 4941SOL    HW126456   1.274   3.759   6.445  2.1398  1.9563 -0.9947
 4941SOL    HW226457   1.323   3.723   6.307 -0.5197  2.8956 -0.4170
 4942SOL     OW26458   1.503   2.180   5.629  0.9671  0.2627 -0.2742
 4942SOL    HW126459   1.460   2.143   5.706  0.4868 -0.2089 -0.7683
 4942SOL    HW226460   1.595   2.152   5.632  0.8287 -0.1249  0.3048
 4943SOL     OW26461   2.932   3.534   2.702 -0.3594  1.0682  0.3880
 4943SOL    HW126462   2.934   3.466   2.635 -0.6405  1.6968 -0.2636
 4943SOL    HW226463   2.926   3.610   2.643 -1.5976  0.3284 -0.4200
 4944SOL     OW26464   4.443   2.795   7.163  0.2309  0.0866 -0.0047
 4944SOL    HW126465   4.450   2.795   7.067  1.8933  2.2126  0.1021
 4944SOL    HW226466   4.533   2.817   7.186  1.0800 -3.5630  0.0336
 4945SOL     OW26467   1.747   3.564  10.681 -0.3009  0.0926 -0.2544
 4945SOL    HW126468   1.764   3.592  10.771  0.3252  0.3866 -0.4600
 4945SOL    HW226469   1.819   3.502  10.670 -0.3765  0.1505 -1.0641
 4946SOL     OW26470   1.134   1.978   9.295 -0.5883  0.4134  0.9626
 4946SOL    HW126471   1.055   2.015   9.256  1.3401  3.4243 -0.1024
 4946SOL    HW226472   1.165   1.932   9.217  1.2594  0.6887  1.5301
 4947SOL     OW26473   3.680   2.242  12.182  0.2126  0.2067  0.0516
 4947SOL    HW126474   3.599   2.233  12.232  1.4881 -1.2642  1.8259
 4947SOL    HW226475   3.713   2.153  12.181 -1.5445 -0.4504 -0.3771
 4948SOL     OW26476   0.365   2.285   6.101 -0.4990  0.2791 -0.2282
 4948SOL    HW126477   0.388   2.359   6.158 -1.3586  0.5659 -0.2496
 4948SOL    HW226478   0.410   2.219   6.152 -1.1627  0.6955  0.8966
 4949SOL     OW26479   4.366   0.492   1.242 -0.3039  0.3504  0.0542
 4949SOL    HW126480   4.444   0.519   1.195 -0.8016 -0.9316 -1.5102
 4949SOL    HW226481   4.401   0.418   1.291 -1.3306  0.8038  1.4853
 4950SOL     OW26482   0.415   1.361   8.361 -0.4163  0.4581 -0.0564
 4950SOL    HW126483   0.386   1.273   8.386  3.7101 -0.8166  0.1948
 4950SOL    HW226484   0.451   1.355   8.272 -1.1753  1.5424 -0.4404
 4951SOL     OW26485   1.097   3.215  15.366 -0.0500  0.0869 -0.0491
 4951SOL    HW126486   1.024   3.230  15.306 -0.3607 -0.4492  0.1976
 4951SOL    HW226487   1.175   3.228  15.312  0.0946 -1.2317 -0.1537
 4952SOL     OW26488   4.584   3.125   1.760  0.3302  0.0024 -0.3685
 4952SOL    HW126489   4.535   3.048   1.788  1.3305 -0.0220  1.3348
 4952SOL    HW226490   4.578   3.192   1.829  0.9435 -0.5235  0.2022
 4953SOL     OW26491   4.130   3.256  10.581 -0.1816  0.0012 -0.1964
 4953SOL    HW126492   4.088   3.192  10.639  2.9711 -1.6324  0.2691
 4953SOL    HW226493   4.135   3.336  10.634 -0.3760  0.4021 -0.7905
 4954SOL     OW26494   2.330   3.534   5.876 -0.2164 -0.1959  0.0706
 4954SOL    HW126495   2.375   3.497   5.952 -0.1148  0.1869  0.1985
 4954SOL    HW226496   2.339   3.468   5.807 -0.0150  0.2380 -0.3159
 4955SOL     OW26497   3.660   4.523   0.251  0.4499 -0.0741  0.0066
 4955SOL    HW126498   3.755   4.522   0.255  0.3594 -0.3009  2.0388
 4955SOL    HW226499   3.641   4.429   0.247 -0.2454  0.0311  0.8225
 4956SOL     OW26500   3.102   0.255   2.526 -0.6287  0.2617  0.4089
 4956SOL    HW126501   3.141   0.238   2.612  1.9068 -1.9213 -1.1493
 4956SOL    HW226502   3.030   0.193   2.517 -0.6392  0.0834  1.6889
 4957SOL     OW26503   4.259   1.667   7.567 -0.0843 -0.2798 -0.2448
 4957SOL    HW126504   4.281   1.652   7.475 -1.2412  1.7889 -0.8560
 4957SOL    HW226505   4.296   1.585   7.601  2.2178 -0.3995 -3.0843
 4958SOL     OW26506   4.595   1.234   7.397 -0.0898  0.8131 -0.2017
 4958SOL    HW126507   4.538   1.158   7.402  0.8158  0.2058  0.8639
 4958SOL    HW226508   4.682   1.207   7.425 -0.3478  1.1603  0.9210
 4959SOL     OW26509   2.889   3.594   4.838 -0.4156 -0.2950 -0.0519
 4959SOL    HW126510   2.842   3.645   4.904  2.2911 -0.3194  1.8613
 4959SOL    HW226511   2.967   3.567   4.887 -1.3298 -0.7757  1.1211
 4960SOL     OW26512   0.150   1.900   6.803 -0.0401 -0.1050  0.4198
 4960SOL    HW126513   0.118   1.810   6.796  1.0907 -0.7178  3.0548
 4960SOL    HW226514   0.089   1.938   6.867 -0.1418  0.7035 -0.1566
 4961SOL     OW26515   3.036   1.596   8.393  0.1329 -0.1217 -0.2650
 4961SOL    HW126516   3.013   1.673   8.342  0.2048  0.5402  0.7152
 4961SOL    HW226517   3.131   1.605   8.392  0.2422 -1.2311 -0.5680
 4962SOL     OW26518   0.267   1.530   9.465 -0.1273  0.4502 -0.7244
 4962SOL    HW126519   0.279   1.625   9.461 -1.8285  0.6814 -0.4516
 4962SOL    HW226520   0.173   1.519   9.475 -0.2070 -1.0992 -3.0909
 4963SOL     OW26521   0.277   2.275   9.966  0.5680  0.2638 -0.1189
 4963SOL    HW126522   0.252   2.361  10.000  0.5271 -0.4932  1.7724
 4963SOL    HW226523   0.355   2.251  10.015  1.0169  0.0053 -0.9600
 4964SOL     OW26524   2.200   1.360  16.597  0.0157 -0.3302  0.6408
 4964SOL    HW126525   2.265   1.336  16.663 -0.6131 -0.3765  1.2393
 4964SOL    HW226526   2.121   1.357  16.651  0.6746  1.0246  1.6599
 4965SOL     OW26527   0.457   4.616   2.779  0.2081 -0.6121 -0.0534
 4965SOL    HW126528   0.517   4.689   2.760  0.4587 -0.9380 -0.4973
 4965SOL    HW226529   0.461   4.553   2.707  0.5159  0.7035 -1.1853
 4966SOL     OW26530   2.381   3.886   6.680 -0.3918 -0.1037 -0.0650
 4966SOL    HW126531   2.468   3.846   6.684  0.3351  1.3791 -0.8882
 4966SOL    HW226532   2.365   3.890   6.586 -1.5831 -2.5235  0.0564
 4967SOL     OW26533   4.464   4.108   3.587  0.5307  0.4964 -0.0210
 4967SOL    HW126534   4.515   4.154   3.653  0.7815  1.5547 -0.9547
 4967SOL    HW226535   4.421   4.058   3.657  0.1375 -0.1382 -0.7095
 4968SOL     OW26536   4.680   3.745   1.333  0.3764  0.3455  0.0435
 4968SOL    HW126537   4.740   3.809   1.370  1.7297 -1.4784  1.0407
 4968SOL    HW226538   4.736   3.669   1.317  0.3022  0.2086  0.4222
 4969SOL     OW26539   2.705   0.711   5.802 -0.1114 -0.6434  0.2819
 4969SOL    HW126540   2.709   0.720   5.897 -1.7146  1.7566  0.1189
 4969SOL    HW226541   2.650   0.787   5.783 -2.0756 -1.9400  0.7679
 4970SOL     OW26542   2.546   2.256   2.106  0.3671 -0.1389 -0.0423
 4970SOL    HW126543   2.523   2.262   2.013  0.4262 -0.9972 -0.1071
 4970SOL    HW226544   2.603   2.180   2.095  0.0563  0.0072 -2.5637
 4971SOL     OW26545   3.345   0.683   3.255  0.0804 -0.3070 -0.2099
 4971SOL    HW126546   3.280   0.753   3.254 -1.8870 -2.1117  1.6172
 4971SOL    HW226547   3.424   0.733   3.234  0.4469 -0.7532  0.1071
 4972SOL     OW26548   4.302   1.114  12.881 -0.7325  0.7367  0.7233
 4972SOL    HW126549   4.333   1.204  12.893 -1.0358  1.0063 -0.5215
 4972SOL    HW226550   4.258   1.094  12.963 -1.5164  1.4595  0.4790
 4973SOL     OW26551   0.657   0.095   2.788  0.1056  0.8096 -0.1373
 4973SOL    HW126552   0.752   0.103   2.786  0.0434  2.1501  1.4586
 4973SOL    HW226553   0.645   0.130   2.699  1.3315 -0.2142 -0.6937
 4974SOL     OW26554   3.421   2.870   3.601 -0.4153  0.0392 -0.1519
 4974SOL    HW126555   3.417   2.951   3.549  0.2065  0.2824  0.1890
 4974SOL    HW226556   3.333   2.835   3.587 -0.8086  0.8028  0.3894
 4975SOL     OW26557   0.774   3.287   3.045  0.7089 -0.1658  0.3244
 4975SOL    HW126558   0.698   3.239   3.010  0.7486  0.6004 -0.8131
 4975SOL    HW226559   0.734   3.374   3.043 -2.6680 -1.7729 -3.0883
 4976SOL     OW26560   2.915   0.554   2.536  0.5284  1.0569  0.2927
 4976SOL    HW126561   2.882   0.488   2.597 -1.5613  1.4514 -0.4039
 4976SOL    HW226562   2.940   0.624   2.596 -0.2540  0.3714  1.4149
 4977SOL     OW26563   2.298   3.268   2.784 -0.4917 -0.8155  0.3709
 4977SOL    HW126564   2.258   3.232   2.704  0.7166 -0.6237 -0.3112
 4977SOL    HW226565   2.279   3.198   2.846  1.0764 -1.7789 -0.2287
 4978SOL     OW26566   3.253   4.254  13.240  0.7443  0.0369 -0.0894
 4978SOL    HW126567   3.223   4.178  13.290  1.6790  1.7288  3.0281
 4978SOL    HW226568   3.343   4.234  13.213  1.3409  3.1329 -0.3117
 4979SOL     OW26569   0.448   1.619   0.523  0.1208 -0.3875  0.1831
 4979SOL    HW126570   0.378   1.572   0.568  1.1742 -0.6103  1.5881
 4979SOL    HW226571   0.471   1.544   0.467 -0.2238 -0.8604  0.6723
 4980SOL     OW26572   2.036   2.176  10.740  0.2038 -0.0942  0.1560
 4980SOL    HW126573   2.115   2.175  10.793  0.0897 -1.5967  0.2850
 4980SOL    HW226574   1.991   2.097  10.768 -1.6197  0.9155  0.0990
 4981SOL     OW26575   3.611   1.556  16.586 -0.2152 -0.0971 -0.5447
 4981SOL    HW126576   3.520   1.576  16.568 -1.2270 -3.1179  1.1618
 4981SOL    HW226577   3.651   1.611  16.519  0.5221 -0.8324 -0.7182
 4982SOL     OW26578   3.238   3.478   5.811  0.3125  0.2873 -0.3200
 4982SOL    HW126579   3.192   3.527   5.879  1.3586  0.2093  0.4398
 4982SOL    HW226580   3.282   3.550   5.765  0.1170  0.8701  0.4047
 4983SOL     OW26581   1.790   1.135   9.417  0.1976 -0.2924  0.3124
 4983SOL    HW126582   1.770   1.227   9.403  0.4824 -0.0594  1.4446
 4983SOL    HW226583   1.710   1.086   9.396  1.1246 -1.6493 -0.0655
 4984SOL     OW26584   0.382   4.174   3.251 -0.7464  0.1219  0.3518
 4984SOL    HW126585   0.463   4.209   3.289 -0.2095  0.1771 -0.8354
 4984SOL    HW226586   0.357   4.251   3.200  2.3064 -0.2312 -1.7039
 4985SOL     OW26587   3.580   2.917   5.550  0.0357 -0.2350  0.6515
 4985SOL    HW126588   3.613   2.942   5.636 -1.6568  1.3955  0.8305
 4985SOL    HW226589   3.504   2.862   5.570  0.8054 -1.5628 -0.1407
 4986SOL     OW26590   0.258   4.595   1.015  0.4117  0.1724  0.2905
 4986SOL    HW126591   0.175   4.639   0.997  0.4700  0.6283  1.1217
 4986SOL    HW226592   0.305   4.667   1.058 -0.0937  0.3100  0.6151
 4987SOL     OW26593   3.902   0.003   6.867 -0.9062  0.2175 -0.1868
 4987SOL    HW126594   3.906   0.059   6.790 -0.2413  1.7714  0.9752
 4987SOL    HW226595   3.986   4.704   6.847  0.2644  1.6578  1.7846
 4988SOL     OW26596   3.699   0.156   5.137  0.0282  0.2574 -0.2399
 4988SOL    HW126597   3.757   0.229   5.157 -1.1335  1.4315 -1.1564
 4988SOL    HW226598   3.611   0.192   5.139  0.7195  1.9014  0.5675
 4989SOL     OW26599   4.684   1.930   6.357 -0.0810 -0.7680 -0.3998
 4989SOL    HW126600   4.674   2.013   6.402  1.1896 -0.0809 -1.3720
 4989SOL    HW226601   4.733   1.961   6.281 -0.1613  1.7082  0.5710
 4990SOL     OW26602   0.022   2.799  14.747 -0.6848  0.1625 -0.0454
 4990SOL    HW126603   0.106   2.758  14.766 -0.2013  0.6349 -1.1737
 4990SOL    HW226604   0.053   2.890  14.746 -0.0174 -0.0689 -0.0988
 4991SOL     OW26605   3.998   0.291   9.893 -0.1191  0.5687 -0.3290
 4991SOL    HW126606   4.003   0.386   9.886 -2.1358  0.7073  0.1280
 4991SOL    HW226607   3.989   0.275   9.987  1.1541  0.0041 -0.2998
 4992SOL     OW26608   3.988   2.571   4.617 -0.5714  0.1069 -0.3884
 4992SOL    HW126609   3.933   2.570   4.539 -1.8280  1.0223  0.4763
 4992SOL    HW226610   4.014   2.480   4.628  0.3947  0.0718 -2.9672
 4993SOL     OW26611   3.123   4.346  17.178  0.2359  0.3198 -0.2401
 4993SOL    HW126612   3.156   4.257  17.187  0.1438  0.2708 -0.3938
 4993SOL    HW226613   3.198   4.385  17.223 -2.1841  0.1154  3.9107
 4994SOL     OW26614   3.772   0.998  16.379 -0.3539  0.1628  0.2231
 4994SOL    HW126615   3.689   0.984  16.425  1.0135 -2.4421  1.9216
 4994SOL    HW226616   3.812   1.064  16.435 -0.7071 -1.4918  2.4480
 4995SOL     OW26617   2.130   1.000  11.136  0.0536 -0.1606  0.1738
 4995SOL    HW126618   2.206   0.942  11.140  0.9991  1.2886  3.2538
 4995SOL    HW226619   2.094   1.002  11.224 -0.9246  0.3334 -0.2351
 4996SOL     OW26620   0.256   4.513   8.884 -0.1287  0.0460 -0.0323
 4996SOL    HW126621   0.187   4.519   8.950  1.2012  0.2374  1.3456
 4996SOL    HW226622   0.324   4.559   8.933  0.3835  0.1215 -0.8174
 4997SOL     OW26623   0.988   3.034   7.878 -0.1727  0.3429  0.1825
 4997SOL    HW126624   1.027   2.976   7.813 -1.3198 -1.1352  0.8040
 4997SOL    HW226625   0.967   2.960   7.936 -1.8517 -0.8324 -1.9458
 4998SOL     OW26626   0.066   2.442   4.366 -0.3668  0.5373 -0.3788
 4998SOL    HW126627   0.027   2.359   4.340 -0.4982  1.1111 -2.0130
 4998SOL    HW226628   0.023   2.474   4.446  1.7859 -3.2242  2.2813
 4999SOL     OW26629   2.214   3.476  13.588 -0.3142 -0.5177 -0.2298
 4999SOL    HW126630   2.299   3.494  13.629 -1.1114  4.1376 -0.6282
 4999SOL    HW226631   2.187   3.388  13.616 -0.6834 -0.5972 -0.8509
 5000SOL     OW26632   2.211   1.501  15.821 -0.0494  0.4917  0.9997
 5000SOL    HW126633   2.204   1.587  15.781 -2.4140 -0.2641 -0.1943
 5000SOL    HW226634   2.174   1.510  15.909 -1.5870  1.3836  0.2577
 5001SOL     OW26635   3.797   4.401   8.880 -0.3325 -1.1457 -0.2180
 5001SOL    HW126636   3.784   4.478   8.825  0.6475  0.3302  1.6084
 5001SOL    HW226637   3.881   4.367   8.852 -0.3874 -0.9589 -0.6080
 5002SOL     OW26638   2.764   1.782  14.958 -0.0994  0.0808  0.4389
 5002SOL    HW126639   2.851   1.749  14.935 -1.2061 -1.5644 -1.4091
 5002SOL    HW226640   2.712   1.704  14.941 -0.2426  0.4322 -0.7573
 5003SOL     OW26641   0.849   3.493   4.390  0.0361 -0.1658  0.1726
 5003SOL    HW126642   0.807   3.577   4.406  0.1068  0.2852 -2.0153
 5003SOL    HW226643   0.792   3.459   4.321 -0.2540  1.4666 -0.3879
 5004SOL     OW26644   0.420   2.248  12.454 -0.6253 -0.1742  0.2212
 5004SOL    HW126645   0.379   2.234  12.539 -1.6037  0.6653 -0.1217
 5004SOL    HW226646   0.469   2.330  12.465 -0.9921 -0.0837  1.2289
 5005SOL     OW26647   3.256   2.936  14.864 -0.4334  0.2549  0.3796
 5005SOL    HW126648   3.255   3.014  14.919 -1.2684  1.0952 -0.8466
 5005SOL    HW226649   3.243   2.960  14.773  0.7276 -0.5610 -0.0043
 5006SOL     OW26650   1.268   2.772   3.843 -0.3103  0.2030 -0.0968
 5006SOL    HW126651   1.316   2.700   3.884 -1.8969 -0.8084 -0.0524
 5006SOL    HW226652   1.338   2.838   3.843 -2.0847  2.0807  0.1648
 5007SOL     OW26653   3.756   2.270   4.335 -0.3598 -0.2345 -0.3376
 5007SOL    HW126654   3.670   2.228   4.335  0.2434 -1.4909  0.4624
 5007SOL    HW226655   3.728   2.359   4.316 -1.6998 -0.6272 -0.2083
 5008SOL     OW26656   4.004   4.150  14.364  0.3348  0.2990  0.5679
 5008SOL    HW126657   3.953   4.079  14.325 -0.1941  1.6707 -1.2404
 5008SOL    HW226658   3.949   4.225  14.384  1.1261  1.3697 -1.2664
 5009SOL     OW26659   3.112   4.074   6.024  0.2336  0.0105  0.1708
 5009SOL    HW126660   3.120   3.979   6.008  1.6515  0.1025  0.3214
 5009SOL    HW226661   3.038   4.096   5.967  0.1205 -0.5662  0.0940
 5010SOL     OW26662   3.737   0.970   2.140  0.4120  0.4284 -0.1306
 5010SOL    HW126663   3.727   0.991   2.233  0.1692 -1.9698  0.3857
 5010SOL    HW226664   3.661   0.912   2.140 -1.6903  3.1857  0.0149
 5011SOL     OW26665   3.007   4.450   3.885  0.0467 -0.0346 -0.7468
 5011SOL    HW126666   3.052   4.370   3.914  1.0012  1.1181  0.9421
 5011SOL    HW226667   3.078   4.512   3.900  0.8707 -1.3196  0.6892
 5012SOL     OW26668   4.276   4.149  14.419  0.2415  0.1326  0.7657
 5012SOL    HW126669   4.181   4.162  14.418  0.2507  0.0641 -0.3949
 5012SOL    HW226670   4.273   4.082  14.351  2.1865  0.3830  0.4316
 5013SOL     OW26671   4.644   3.220   4.360 -0.8243 -0.0839 -0.2327
 5013SOL    HW126672   4.657   3.298   4.413 -0.3175 -0.7678  0.6683
 5013SOL    HW226673   4.550   3.205   4.366 -0.4721 -2.6171 -0.9092
 5014SOL     OW26674   0.554   1.499   5.899  0.4215 -0.3927  0.3194
 5014SOL    HW126675   0.593   1.449   5.971  0.5095  0.9329  1.1972
 5014SOL    HW226676   0.596   1.466   5.820 -0.2203 -0.9640  0.2266
 5015SOL     OW26677   3.148   1.158   2.753 -0.6385 -0.3119  0.4112
 5015SOL    HW126678   3.208   1.084   2.753 -0.1683  0.0706  0.7296
 5015SOL    HW226679   3.186   1.202   2.677 -1.5439  2.6565  1.6476
 5016SOL     OW26680   1.681   0.527   8.025  0.2004  0.9807  0.1308
 5016SOL    HW126681   1.597   0.572   8.016  0.7277  1.9845  0.3178
 5016SOL    HW226682   1.656   0.449   8.075  2.1820 -0.5657 -1.2997
 5017SOL     OW26683   4.269   2.807   4.194 -0.1792 -0.2024  0.3009
 5017SOL    HW126684   4.285   2.777   4.284  0.0181 -0.8810  0.0340
 5017SOL    HW226685   4.305   2.895   4.208  0.3538 -0.2956 -0.5194
 5018SOL     OW26686   3.655   0.593  12.110 -0.0906  0.0090 -0.2203
 5018SOL    HW126687   3.577   0.648  12.100  0.1828  0.3841 -0.2929
 5018SOL    HW226688   3.706   0.629  12.038 -0.5603 -1.7497 -1.4202
 5019SOL     OW26689   4.081   4.292   0.438 -0.6504 -0.7275 -0.1301
 5019SOL    HW126690   4.012   4.295   0.504 -0.1871  3.3619  0.1388
 5019SOL    HW226691   4.109   4.201   0.424 -0.1949 -0.1827 -2.6734
 5020SOL     OW26692   1.753   4.670   6.644  0.2334 -0.1780 -0.2480
 5020SOL    HW126693   1.671   4.708   6.612 -0.1449  1.2507  2.4076
 5020SOL    HW226694   1.805   0.009   6.648  0.9232 -0.6129 -0.3843
 5021SOL     OW26695   1.071   2.284  16.807 -0.1686 -0.1626  0.4925
 5021SOL    HW126696   1.076   2.189  16.823 -0.4532 -0.1251  0.8001
 5021SOL    HW226697   1.066   2.307  16.899 -1.6726 -2.1584  0.9248
 5022SOL     OW26698   4.122   4.421   7.195  0.1229 -0.2304  0.4477
 5022SOL    HW126699   4.098   4.329   7.206 -1.1550  0.0689  0.0726
 5022SOL    HW226700   4.050   4.469   7.236  0.7803  1.4408 -0.3421
 5023SOL     OW26701   3.711   4.718   4.200  0.1123 -0.2331  0.1140
 5023SOL    HW126702   3.785   4.701   4.142 -1.5721  0.8350 -2.3564
 5023SOL    HW226703   3.734   4.672   4.281  0.7987  1.0245  0.6346
 5024SOL     OW26704   4.623   4.489   3.462  0.6845  0.2329  0.0032
 5024SOL    HW126705   4.712   4.521   3.449  0.9415  0.1104  1.4757
 5024SOL    HW226706   4.563   4.556   3.428  0.3131 -0.2469 -0.2773
 5025SOL     OW26707   3.036   4.415   7.019  0.2544 -0.5527 -0.1277
 5025SOL    HW126708   3.078   4.376   6.942 -0.9609 -1.6127 -0.2428
 5025SOL    HW226709   3.017   4.503   6.985 -1.6965 -0.0662  2.2685
 5026SOL     OW26710   2.712   3.022   5.072  0.2922  0.6826  0.0238
 5026SOL    HW126711   2.626   2.999   5.106 -0.2912  0.1892 -1.7754
 5026SOL    HW226712   2.709   3.116   5.051 -0.1296  0.6018 -0.2666
 5027SOL     OW26713   3.289   3.211   0.455 -0.3772 -0.0433  0.3800
 5027SOL    HW126714   3.350   3.269   0.502 -0.6832 -0.2249  1.0015
 5027SOL    HW226715   3.292   3.130   0.505 -1.3121  0.2254  0.8679
 5028SOL     OW26716   2.324   1.120   4.266  0.3113 -0.1985  0.6479
 5028SOL    HW126717   2.283   1.205   4.248  2.1663  1.0053  2.0488
 5028SOL    HW226718   2.413   1.151   4.280 -0.1208  0.4954  1.9629
 5029SOL     OW26719   3.942   0.925  11.925 -0.2896 -0.0330  0.5254
 5029SOL    HW126720   3.977   0.995  11.870 -0.8316 -0.9533 -0.9791
 5029SOL    HW226721   3.872   0.974  11.969  1.2368  2.2319  0.4205
 5030SOL     OW26722   1.358   3.837  15.807 -0.0315  0.0686 -0.2691
 5030SOL    HW126723   1.448   3.805  15.810 -0.0803 -0.0658 -0.2484
 5030SOL    HW226724   1.312   3.784  15.742 -0.3430 -0.8036  0.6600
 5031SOL     OW26725   2.029   3.838   3.767 -0.1117  0.0161 -0.1248
 5031SOL    HW126726   1.940   3.870   3.784  0.5841  0.8048  2.1229
 5031SOL    HW226727   2.048   3.830   3.860 -3.6634  1.6303  0.7672
 5032SOL     OW26728   4.209   2.984  11.252 -0.1299  0.0632 -0.2921
 5032SOL    HW126729   4.287   3.035  11.230 -0.0254  0.6656  1.4980
 5032SOL    HW226730   4.207   3.006  11.345  1.3818 -0.8929 -0.0264
 5033SOL     OW26731   4.018   2.817   4.706  0.4054  0.0161  0.8980
 5033SOL    HW126732   4.112   2.836   4.710  0.5176 -1.1296  3.5043
 5033SOL    HW226733   4.017   2.726   4.675 -1.6776  0.1324  0.6128
 5034SOL     OW26734   1.290   0.964  13.868  0.0504 -0.3249 -0.0962
 5034SOL    HW126735   1.256   0.874  13.865  1.3112 -0.7890 -0.5909
 5034SOL    HW226736   1.226   1.027  13.836  0.6317 -0.4975 -1.6395
 5035SOL     OW26737   1.116   2.102   2.744  0.3237  1.0927 -0.8337
 5035SOL    HW126738   1.098   2.176   2.801 -1.5244 -0.1459  0.1807
 5035SOL    HW226739   1.037   2.095   2.691  0.1895 -1.1169 -0.3602
 5036SOL     OW26740   2.148   1.996  17.283 -0.3748 -0.0246 -0.0827
 5036SOL    HW126741   2.174   2.048  17.207 -0.8005  1.3288  0.6975
 5036SOL    HW226742   2.055   2.017  17.283 -0.2640  0.5011 -2.6242
 5037SOL     OW26743   1.738   0.047   7.352 -0.1555  0.0784  0.1838
 5037SOL    HW126744   1.796   0.117   7.382  0.7622 -0.4590 -0.3356
 5037SOL    HW226745   1.731   0.066   7.258 -1.2080 -1.0869  0.0213
 5038SOL     OW26746   3.091   3.874   5.660  0.2466  0.1489 -0.2108
 5038SOL    HW126747   3.142   3.880   5.580 -0.7378 -1.1017 -0.9235
 5038SOL    HW226748   3.155   3.826   5.713 -1.0971 -1.4503 -0.0628
 5039SOL     OW26749   2.873   3.828   1.331  0.1052 -0.1756  0.2330
 5039SOL    HW126750   2.909   3.797   1.414 -1.2008 -0.6672  0.6175
 5039SOL    HW226751   2.917   3.913   1.326  1.0242 -0.7089 -0.6423
 5040SOL     OW26752   4.184   0.459  14.434 -0.3497 -0.0305 -0.2473
 5040SOL    HW126753   4.209   0.378  14.389 -0.5831 -1.2139  1.8040
 5040SOL    HW226754   4.095   0.439  14.464 -0.7221  1.3862 -0.3933
 5041SOL     OW26755   2.786   0.700   0.997  0.1000 -0.3417  0.2088
 5041SOL    HW126756   2.879   0.685   0.977  0.1681 -0.8056  0.8696
 5041SOL    HW226757   2.797   0.748   1.078 -1.5848  0.8432 -0.2793
 5042SOL     OW26758   0.913   0.058   6.435 -0.6276  0.5219 -0.3565
 5042SOL    HW126759   0.885   0.077   6.345 -1.4980  0.4536 -0.0987
 5042SOL    HW226760   0.851   4.733   6.466 -0.1546 -0.7222 -2.0788
 5043SOL     OW26761   1.665   2.896   8.793  0.3954  0.0036  0.1397
 5043SOL    HW126762   1.717   2.816   8.797  1.5367  0.7094 -0.7475
 5043SOL    HW226763   1.591   2.882   8.734  1.4184 -0.8329 -0.9431
 5044SOL     OW26764   2.423   1.154   6.303  0.3421 -0.6534 -0.3085
 5044SOL    HW126765   2.429   1.222   6.370 -0.4121 -2.5994  1.7364
 5044SOL    HW226766   2.378   1.195   6.229  0.1104  1.5761  1.0717
 5045SOL     OW26767   3.663   1.528   8.183  0.5841 -0.0274 -0.3932
 5045SOL    HW126768   3.698   1.565   8.264  0.1578  1.5699 -0.9361
 5045SOL    HW226769   3.702   1.441   8.195 -0.1116 -0.4584 -1.2345
 5046SOL     OW26770   3.266   4.033   5.389 -0.0459 -0.0969  0.0462
 5046SOL    HW126771   3.361   4.032   5.382  0.0770  1.5760  1.6564
 5046SOL    HW226772   3.240   4.123   5.407  0.0803 -0.1215  0.3506
 5047SOL     OW26773   2.507   0.347   7.792 -0.1335 -0.0964  0.3010
 5047SOL    HW126774   2.454   0.286   7.741  0.8995 -1.3885  0.7894
 5047SOL    HW226775   2.531   0.291   7.866  0.0347  2.2490  2.0054
 5048SOL     OW26776   4.246   0.510   6.014 -0.4032  0.7656 -0.1028
 5048SOL    HW126777   4.176   0.549   6.067 -0.7619  0.9092 -0.6834
 5048SOL    HW226778   4.204   0.502   5.928  0.6672 -3.1666 -0.2531
 5049SOL     OW26779   4.088   2.196  13.205 -0.4608 -0.1103 -0.2994
 5049SOL    HW126780   4.131   2.281  13.199 -0.7066  0.0124 -0.3295
 5049SOL    HW226781   4.089   2.177  13.299  2.9300 -1.3634 -0.6072
 5050SOL     OW26782   1.944   4.339   5.441 -0.0571  0.0750 -0.8462
 5050SOL    HW126783   2.032   4.311   5.467 -0.1977 -0.3231 -0.8043
 5050SOL    HW226784   1.969   4.359   5.351  1.9421  0.3319 -0.2358
 5051SOL     OW26785   1.561   2.994   2.466 -0.1241 -0.5848 -0.0713
 5051SOL    HW126786   1.604   2.924   2.514  2.3305  1.3957  0.6099
 5051SOL    HW226787   1.622   3.067   2.469 -1.6257  0.7175 -0.8357
 5052SOL     OW26788   3.740   0.438   5.487  0.1870 -0.1024 -0.1554
 5052SOL    HW126789   3.690   0.501   5.539  0.4932 -0.1485  0.1914
 5052SOL    HW226790   3.720   0.485   5.406  1.8029 -1.7428 -1.5027
 5053SOL     OW26791   0.031   3.889  15.287  0.3811  0.1972  0.3062
 5053SOL    HW126792   0.067   3.903  15.199 -0.7551 -0.9691 -0.3424
 5053SOL    HW226793   4.728   3.805  15.284  0.6987  0.1085 -1.7029
 5054SOL     OW26794   2.674   1.840  15.555  0.2402 -0.3407 -0.0246
 5054SOL    HW126795   2.755   1.792  15.541  1.0754  1.2140 -0.4345
 5054SOL    HW226796   2.695   1.930  15.532 -0.5429 -0.3549 -0.8272
 5055SOL     OW26797   2.516   0.503  15.754  0.2458 -0.0619  0.0196
 5055SOL    HW126798   2.552   0.501  15.666  0.7997  4.8876  0.1305
 5055SOL    HW226799   2.554   0.430  15.803 -0.1369 -1.6719 -2.0880
 5056SOL     OW26800   3.398   4.576   4.078 -0.5552 -0.2384 -0.5806
 5056SOL    HW126801   3.361   4.662   4.057 -2.2768 -0.4657  1.4760
 5056SOL    HW226802   3.465   4.604   4.141  0.9120 -0.7495 -1.9045
 5057SOL     OW26803   4.041   3.892   7.629  0.2712 -0.3621 -0.3261
 5057SOL    HW126804   3.948   3.916   7.631  0.8593  1.9374  0.0437
 5057SOL    HW226805   4.033   3.802   7.600  0.7152  0.3529 -2.6445
 5058SOL     OW26806   0.773   4.732   1.953 -0.0281 -0.2903  0.0398
 5058SOL    HW126807   0.851   0.003   1.899  0.5217 -0.6646  0.7362
 5058SOL    HW226808   0.801   0.030   2.036  0.0743 -0.3255  0.0220
 5059SOL     OW26809   1.283   3.736   7.675 -0.2518 -0.1193 -0.1649
 5059SOL    HW126810   1.355   3.739   7.738 -0.8268 -1.4372  0.5328
 5059SOL    HW226811   1.327   3.742   7.590 -1.9932 -0.5903 -1.1030
 5060SOL     OW26812   1.727   2.847  10.638  0.0701 -0.4156 -0.0090
 5060SOL    HW126813   1.758   2.796  10.713  2.0713 -0.3486 -0.8049
 5060SOL    HW226814   1.675   2.913  10.685 -0.0095  0.2381 -1.0258
 5061SOL     OW26815   4.479   1.525  12.687  0.2759  0.0764  0.2482
 5061SOL    HW126816   4.463   1.574  12.606  3.2674  1.9346  0.8360
 5061SOL    HW226817   4.563   1.485  12.662 -1.1047 -1.7991 -1.5009
 5062SOL     OW26818   0.074   1.802  13.574  0.3229  0.0937  0.2619
 5062SOL    HW126819   0.159   1.775  13.608  0.3438 -1.5970 -1.0910
 5062SOL    HW226820   0.083   1.791  13.479  1.2630  2.1316  0.1203
 5063SOL     OW26821   3.835   1.918   2.576 -0.1389  0.7062 -0.1942
 5063SOL    HW126822   3.863   1.833   2.543 -1.2446  0.4365 -0.4422
 5063SOL    HW226823   3.858   1.984   2.511  1.6110 -1.7940 -2.1037
 5064SOL     OW26824   2.610   1.141   6.855  0.2023 -0.4701  0.3908
 5064SOL    HW126825   2.693   1.184   6.878  0.0890 -0.5104  0.8776
 5064SOL    HW226826   2.573   1.117   6.940 -0.2475 -0.3459  0.2275
 5065SOL     OW26827   3.672   0.847   4.553 -0.0871 -0.7612  0.0041
 5065SOL    HW126828   3.662   0.803   4.469 -0.7597  0.3355 -0.4987
 5065SOL    HW226829   3.595   0.809   4.596  0.0668  0.2508  1.1909
 5066SOL     OW26830   3.228   3.152  15.914 -0.5710 -0.2166 -0.4774
 5066SOL    HW126831   3.226   3.207  15.992 -0.3806  1.1089 -1.4056
 5066SOL    HW226832   3.311   3.185  15.881  0.1487 -1.9080 -0.3763
 5067SOL     OW26833   2.870   1.122   7.781  0.3575 -0.4857 -0.1530
 5067SOL    HW126834   2.963   1.130   7.760  0.2758  0.1986 -0.2606
 5067SOL    HW226835   2.849   1.030   7.766 -1.3790 -0.3768  1.5770
 5068SOL     OW26836   2.050   2.336   4.236  0.2417  0.1588 -0.1898
 5068SOL    HW126837   2.128   2.324   4.181  1.0342 -0.7297  1.1316
 5068SOL    HW226838   2.024   2.421   4.201 -0.1328  1.0808  2.3335
 5069SOL     OW26839   3.128   0.202  14.437 -0.4946 -0.5832 -0.0238
 5069SOL    HW126840   3.064   0.183  14.506 -2.6364  2.9091 -1.0575
 5069SOL    HW226841   3.205   0.149  14.459 -0.3343  0.7496  2.6403
 5070SOL     OW26842   2.870   4.154   5.260 -0.5645  0.2777 -0.2753
 5070SOL    HW126843   2.807   4.174   5.191 -0.1983  0.1039 -0.6623
 5070SOL    HW226844   2.888   4.243   5.290  0.7958  0.3853 -1.4339
 5071SOL     OW26845   0.027   2.253   7.974 -0.2672  0.4167 -0.3712
 5071SOL    HW126846   4.735   2.313   7.908 -0.0873  0.7179 -0.1875
 5071SOL    HW226847   4.717   2.279   8.050  0.4270  0.7430 -0.0113
 5072SOL     OW26848   0.913   3.758   5.186 -0.3622 -0.0746  0.0319
 5072SOL    HW126849   0.895   3.847   5.155 -0.8264 -0.0704  0.3217
 5072SOL    HW226850   0.987   3.769   5.246  0.4964  2.3803 -1.4523
 5073SOL     OW26851   4.306   1.741   8.394  0.2067 -0.3459 -0.6134
 5073SOL    HW126852   4.324   1.657   8.351 -0.0294 -1.2110  0.9935
 5073SOL    HW226853   4.232   1.707   8.444 -0.3139 -0.9672 -1.8084
 5074SOL     OW26854   0.224   2.831   7.577  0.0132  0.5975  0.5302
 5074SOL    HW126855   0.197   2.923   7.567  0.8361  0.9145  1.2726
 5074SOL    HW226856   0.225   2.825   7.672  4.9570  0.1603  0.4095
 5075SOL     OW26857   4.153   3.210   6.109  0.0097 -0.5625 -0.1125
 5075SOL    HW126858   4.109   3.276   6.163 -0.9159 -1.2675  0.0012
 5075SOL    HW226859   4.233   3.196   6.159 -0.3924  1.1180  1.0330
 5076SOL     OW26860   0.018   1.570   9.089  0.6009  0.1462 -0.3253
 5076SOL    HW126861   0.007   1.493   9.146  1.2515  0.6558  0.4673
 5076SOL    HW226862   0.041   1.526   9.007  0.3513  0.6108 -0.6396
 5077SOL     OW26863   2.948   1.810   5.207  0.0453 -0.3052  0.3522
 5077SOL    HW126864   3.020   1.866   5.237 -0.3354  0.2526  0.2292
 5077SOL    HW226865   2.887   1.874   5.171 -0.7689 -1.4230 -0.2551
 5078SOL     OW26866   2.607   3.513  12.790 -0.1645  0.0441  0.4706
 5078SOL    HW126867   2.648   3.455  12.854 -0.0996  0.3298  0.6890
 5078SOL    HW226868   2.534   3.458  12.761  0.7680 -2.8852  3.6159
 5079SOL     OW26869   3.815   3.622  13.185  0.2447 -0.6308 -0.5474
 5079SOL    HW126870   3.808   3.597  13.278 -0.6706  0.9682 -0.1725
 5079SOL    HW226871   3.775   3.709  13.182 -2.1732 -1.7278 -0.2145
 5080SOL     OW26872   0.669   2.380  15.563 -0.3568  0.3697 -0.4243
 5080SOL    HW126873   0.697   2.415  15.479 -2.0585  3.6924  0.3762
 5080SOL    HW226874   0.715   2.447  15.614  0.2247 -0.1258 -0.2872
 5081SOL     OW26875   2.514   3.197   2.278  0.2791 -0.2955  0.1173
 5081SOL    HW126876   2.593   3.239   2.244  1.1130 -0.4845  1.8450
 5081SOL    HW226877   2.443   3.214   2.215  1.5934  1.9607 -0.7795
 5082SOL     OW26878   1.734   2.767   2.275  0.0959 -0.4711  0.3403
 5082SOL    HW126879   1.648   2.798   2.248  0.1509  1.0039  1.9204
 5082SOL    HW226880   1.774   2.758   2.188 -1.1311  2.9736 -0.5535
 5083SOL     OW26881   1.764   4.667   8.845 -0.8461  0.0494  0.0873
 5083SOL    HW126882   1.738   4.619   8.767 -2.0203 -1.4082  1.3796
 5083SOL    HW226883   1.832   4.720   8.804 -0.3761 -0.9725 -0.4511
 5084SOL     OW26884   2.065   4.115   9.231  0.2729 -0.0008  0.0723
 5084SOL    HW126885   2.048   4.201   9.271  0.9873 -1.3127  3.1957
 5084SOL    HW226886   2.107   4.132   9.147 -0.6030 -1.9675 -0.7644
 5085SOL     OW26887   4.140   4.244   1.481 -0.0936 -0.0771 -0.1415
 5085SOL    HW126888   4.145   4.311   1.549 -2.0429 -0.2612  0.1907
 5085SOL    HW226889   4.103   4.174   1.535  0.6499 -1.2192 -1.1089
 5086SOL     OW26890   0.999   3.664  13.487  0.7462 -0.6631 -0.1569
 5086SOL    HW126891   0.997   3.658  13.392 -1.9909  1.2003 -0.2072
 5086SOL    HW226892   0.997   3.570  13.505 -1.6448 -0.5899  0.0091
 5087SOL     OW26893   0.427   3.594   5.512  0.8653 -0.0055 -0.3032
 5087SOL    HW126894   0.438   3.499   5.506  1.1128  0.0148 -0.1396
 5087SOL    HW226895   0.508   3.631   5.477  0.7013 -0.9127 -1.6224
 5088SOL     OW26896   0.448   2.739   2.344 -0.1397  0.3552  0.0778
 5088SOL    HW126897   0.542   2.746   2.359 -0.0375  0.7233 -0.7625
 5088SOL    HW226898   0.439   2.776   2.257 -0.8087  0.3333  0.1356
 5089SOL     OW26899   2.346   3.358  14.499 -0.6926 -0.2042  0.0027
 5089SOL    HW126900   2.315   3.448  14.490  0.9278  0.2573 -0.9385
 5089SOL    HW226901   2.414   3.373  14.565  0.8855 -2.6486 -1.0561
 5090SOL     OW26902   3.710   2.437  10.680 -0.4305  0.0112  0.5592
 5090SOL    HW126903   3.752   2.378  10.743  0.3951 -0.3606 -0.3343
 5090SOL    HW226904   3.776   2.444  10.611  0.3852 -0.2597  1.3098
 5091SOL     OW26905   3.171   4.391   8.830  0.2308  0.3287 -0.1372
 5091SOL    HW126906   3.181   4.388   8.735 -0.7682  0.7153 -0.2526
 5091SOL    HW226907   3.137   4.304   8.852  1.7896 -0.3387 -0.3386
 5092SOL     OW26908   3.238   3.920  13.046 -0.6868 -0.2618  0.4595
 5092SOL    HW126909   3.330   3.936  13.026 -0.9368 -1.6233 -1.7856
 5092SOL    HW226910   3.235   3.935  13.141 -0.6020  0.0869  0.4087
 5093SOL     OW26911   1.265   2.899   4.459  0.0292  0.4237  0.9015
 5093SOL    HW126912   1.225   2.886   4.373 -1.1647  1.0830  1.3625
 5093SOL    HW226913   1.199   2.937   4.517 -3.1112 -2.6290 -0.6246
 5094SOL     OW26914   1.487   4.282   0.812 -0.5681  0.5020 -0.3884
 5094SOL    HW126915   1.392   4.270   0.816 -0.3720 -1.4814 -1.5584
 5094SOL    HW226916   1.502   4.334   0.891  3.1861  0.4823 -1.1205
 5095SOL     OW26917   1.449   2.635  10.054 -0.2503 -0.2499 -0.2211
 5095SOL    HW126918   1.399   2.671  10.128 -0.7311 -2.2801  0.4423
 5095SOL    HW226919   1.386   2.574  10.015  0.8752 -1.6638  0.2191
 5096SOL     OW26920   2.322   3.210   2.084 -0.1166 -0.1118 -0.1644
 5096SOL    HW126921   2.284   3.287   2.039  0.3080  0.9950  1.3884
 5096SOL    HW226922   2.330   3.143   2.016 -1.4727  1.4515 -1.8962
 5097SOL     OW26923   2.893   4.312   1.970 -0.4825  0.0102  0.4336
 5097SOL    HW126924   2.805   4.321   2.005 -1.4141  2.4322 -2.5073
 5097SOL    HW226925   2.933   4.380   2.024 -0.5452  1.1049 -0.8815
 5098SOL     OW26926   2.298   1.934  13.640  0.3607  0.2871  0.4907
 5098SOL    HW126927   2.242   1.875  13.589  0.3580 -2.2546  3.4432
 5098SOL    HW226928   2.274   2.016  13.597 -1.5943 -0.3223  0.4049
 5099SOL     OW26929   0.915   3.837   3.588  0.3037  0.6614 -0.5589
 5099SOL    HW126930   0.960   3.893   3.651 -1.2010 -1.0446  2.0685
 5099SOL    HW226931   0.826   3.859   3.614 -0.0087 -1.6332  0.3750
 5100SOL     OW26932   4.626   0.441   3.008  0.3016  0.3520  0.1910
 5100SOL    HW126933   4.539   0.421   3.043  1.4671 -0.9788  2.3565
 5100SOL    HW226934   4.621   0.387   2.929 -0.8667 -3.0396  2.5607
 5101SOL     OW26935   3.174   2.722   4.385  0.0514  0.2450 -0.3069
 5101SOL    HW126936   3.172   2.683   4.298  1.5155 -0.0083 -0.2303
 5101SOL    HW226937   3.264   2.696   4.405  0.3988  1.0322 -0.8630
 5102SOL     OW26938   2.985   4.534  10.078  0.1597 -0.3759  0.5440
 5102SOL    HW126939   2.993   4.622  10.041 -0.1453 -0.2294  0.8292
 5102SOL    HW226940   3.076   4.514  10.101  0.7137  2.8105  1.0875
 5103SOL     OW26941   3.026   1.868   3.574 -0.1151 -0.2818  0.2556
 5103SOL    HW126942   3.098   1.873   3.510 -0.6145 -1.3101 -0.3751
 5103SOL    HW226943   3.056   1.941   3.629  1.3775 -0.1526 -0.7268
 5104SOL     OW26944   3.096   1.606   0.957 -1.0261  0.1606  0.0968
 5104SOL    HW126945   3.126   1.516   0.961  0.2438  0.7249  3.3575
 5104SOL    HW226946   3.178   1.654   0.949 -0.0524 -0.8549  3.8218
 5105SOL     OW26947   0.780   1.942   5.260  0.9927 -0.2056  0.5506
 5105SOL    HW126948   0.858   1.928   5.206 -0.1297  2.2266 -1.7424
 5105SOL    HW226949   0.739   1.856   5.270 -1.8397  1.0616  0.1161
 5106SOL     OW26950   4.503   3.251   4.708 -0.3052 -0.0167 -0.0488
 5106SOL    HW126951   4.517   3.227   4.617 -1.4746 -0.3643 -0.1381
 5106SOL    HW226952   4.497   3.347   4.710 -0.0685  0.0212 -1.8185
 5107SOL     OW26953   2.251   0.792   2.417  0.7291  0.1181  0.2020
 5107SOL    HW126954   2.253   0.797   2.513 -0.8562  0.1077  0.2378
 5107SOL    HW226955   2.328   0.843   2.392 -0.2769 -0.5829 -4.2723
 5108SOL     OW26956   2.312   0.789  12.788  0.1865  0.6641 -0.9425
 5108SOL    HW126957   2.328   0.835  12.706 -0.4328  0.3378 -1.2410
 5108SOL    HW226958   2.231   0.833  12.814 -0.4080  0.1758 -2.0079
 5109SOL     OW26959   4.018   0.311   9.385  0.7459  0.3307  0.2240
 5109SOL    HW126960   4.035   0.255   9.461  1.2659 -0.5711 -0.5511
 5109SOL    HW226961   4.018   0.393   9.434  1.1728 -0.9870  2.3985
 5110SOL     OW26962   1.053   4.157   3.972  0.5093  0.6433 -0.2382
 5110SOL    HW126963   0.959   4.172   3.984  0.2218  0.5850 -2.3280
 5110SOL    HW226964   1.081   4.234   3.922  0.5914  0.3343 -0.6670
 5111SOL     OW26965   2.181   2.465   9.444 -0.1803  0.4565  0.2607
 5111SOL    HW126966   2.268   2.430   9.464 -0.6007  0.8687  2.8579
 5111SOL    HW226967   2.205   2.557   9.433  0.2171  0.5441  1.8952
 5112SOL     OW26968   2.663   0.565   7.256 -0.0677 -0.0921  0.0405
 5112SOL    HW126969   2.597   0.568   7.187 -2.0653  1.2347  2.0149
 5112SOL    HW226970   2.680   0.474   7.281  0.9096  0.8222  2.6574
 5113SOL     OW26971   3.710   1.082  12.026 -0.3001 -0.2304  0.1748
 5113SOL    HW126972   3.647   1.012  12.044  0.7533 -1.8411 -2.4177
 5113SOL    HW226973   3.710   1.130  12.109 -0.0921  2.0525 -1.1344
 5114SOL     OW26974   3.814   1.169   7.822  0.3778 -0.2396 -0.1449
 5114SOL    HW126975   3.768   1.250   7.799 -0.3761 -0.9021 -0.9408
 5114SOL    HW226976   3.844   1.136   7.737  1.2363 -1.4408  0.6298
 5115SOL     OW26977   1.840   0.418   3.534 -0.6586  0.4958  0.6081
 5115SOL    HW126978   1.761   0.416   3.480 -1.2303 -0.8187  1.4948
 5115SOL    HW226979   1.840   0.331   3.574 -0.1005  0.9788  1.6625
 5116SOL     OW26980   0.088   4.437   8.683 -0.0356  0.1641  0.8168
 5116SOL    HW126981   0.113   4.508   8.624 -0.3114 -0.7695 -0.4303
 5116SOL    HW226982   0.139   4.461   8.760  0.3964  1.9371 -0.0166
 5117SOL     OW26983   4.079   2.460  12.794  0.6665  0.8557 -0.4123
 5117SOL    HW126984   4.046   2.550  12.790  1.7740  1.2320 -1.0985
 5117SOL    HW226985   4.139   2.461  12.868  0.5706  1.1080 -0.3364
 5118SOL     OW26986   2.203   4.227   8.030 -0.6237  0.8718  0.3038
 5118SOL    HW126987   2.112   4.200   8.017 -0.9199  1.4773  1.1169
 5118SOL    HW226988   2.252   4.212   7.949 -0.7685  0.5529  0.2759
 5119SOL     OW26989   3.052   4.598   3.351 -0.6587 -0.3386 -0.1797
 5119SOL    HW126990   3.052   4.563   3.440 -0.9346  0.7109  0.2338
 5119SOL    HW226991   3.105   4.538   3.299  0.2495  0.4429 -0.1577
 5120SOL     OW26992   2.549   4.730  14.837 -0.1046 -0.1751  0.3297
 5120SOL    HW126993   2.617   0.051  14.811  0.0080 -0.9924 -1.3708
 5120SOL    HW226994   2.476   0.041  14.867  1.0330 -0.3552  3.3780
 5121SOL     OW26995   2.204   1.296   5.414 -0.3109 -1.0031 -0.0498
 5121SOL    HW126996   2.174   1.335   5.496  2.8964  0.7907  0.2541
 5121SOL    HW226997   2.140   1.224   5.414  0.6041 -1.8224 -0.8027
 5122SOL     OW26998   3.202   2.240   5.838  0.0152 -0.1517  0.5201
 5122SOL    HW126999   3.274   2.260   5.898 -0.0559 -1.0296  0.8866
 5122SOL    HW227000   3.232   2.153   5.812 -1.7872 -0.5827 -0.0699
 5123SOL     OW27001   3.385   0.336   8.990 -0.1961 -0.0652  0.2346
 5123SOL    HW127002   3.405   0.407   9.051 -0.1967 -0.7145  0.9934
 5123SOL    HW227003   3.379   0.391   8.912 -0.9009  0.9074  0.9753
 5124SOL     OW27004   4.592   2.368   7.791  0.3418  0.3846  0.1995
 5124SOL    HW127005   4.536   2.437   7.826  0.2852 -0.0155  0.8921
 5124SOL    HW227006   4.545   2.343   7.711  2.5715 -1.4069 -0.5565
 5125SOL     OW27007   2.558   3.339  14.659 -0.1176  0.2158 -1.1367
 5125SOL    HW127008   2.615   3.409  14.628  1.9729 -1.8661 -2.0059
 5125SOL    HW227009   2.574   3.350  14.753 -0.4866 -1.2493 -0.8954
 5126SOL     OW27010   2.463   2.440   2.892  0.1757 -0.2195  0.5725
 5126SOL    HW127011   2.442   2.418   2.801 -0.0807  0.2704  0.5111
 5126SOL    HW227012   2.532   2.506   2.881 -0.5743  0.4597 -0.1368
 5127SOL     OW27013   2.161   1.660   3.378  0.5712 -0.3194 -0.1821
 5127SOL    HW127014   2.244   1.673   3.332 -0.3714  2.1529 -1.1906
 5127SOL    HW227015   2.174   1.571   3.410 -0.5626 -0.7641 -0.9508
 5128SOL     OW27016   4.383   1.864  11.135 -0.5565  0.5570 -0.3087
 5128SOL    HW127017   4.310   1.918  11.167  0.0475  1.0880  0.1886
 5128SOL    HW227018   4.432   1.847  11.216  2.1321 -3.1597 -2.7019
 5129SOL     OW27019   3.978   0.300  17.762 -0.5776 -0.1551 -0.0672
 5129SOL    HW127020   3.889   0.302  17.729 -0.4094 -2.3172 -0.6576
 5129SOL    HW227021   4.010   0.219  17.721  1.6056  0.8267 -0.3133
 5130SOL     OW27022   0.340   2.599   8.073  0.5763 -0.2390  0.0351
 5130SOL    HW127023   0.345   2.549   7.992 -1.9143  0.3166 -0.4755
 5130SOL    HW227024   0.369   2.533   8.135 -0.6734 -0.7200  0.1018
 5131SOL     OW27025   2.332   0.534  12.708 -0.0507  0.7953 -0.5347
 5131SOL    HW127026   2.353   0.618  12.750  2.5990  0.0641 -0.4132
 5131SOL    HW227027   2.398   0.534  12.638 -0.0700 -1.2280 -0.5349
 5132SOL     OW27028   2.689   0.319   4.758 -0.0132  0.2423  0.5503
 5132SOL    HW127029   2.710   0.267   4.835  0.1248  0.5233  0.7036
 5132SOL    HW227030   2.613   0.279   4.716 -0.6485  1.0221  0.9578
 5133SOL     OW27031   0.469   4.225   8.533  0.6742  0.5035 -0.0459
 5133SOL    HW127032   0.428   4.279   8.465 -0.3164  0.5960  0.6244
 5133SOL    HW227033   0.478   4.285   8.607  0.2802 -1.3924  1.5389
 5134SOL     OW27034   2.061   3.179  10.221  0.5422 -0.0412  0.4895
 5134SOL    HW127035   1.971   3.167  10.191  1.1006 -1.3002 -0.6861
 5134SOL    HW227036   2.111   3.116  10.169 -0.8908 -0.3265 -0.5323
 5135SOL     OW27037   0.733   2.624   7.578  0.0696  0.1207 -0.0834
 5135SOL    HW127038   0.650   2.667   7.554  0.4226  0.7168 -0.2277
 5135SOL    HW227039   0.703   2.537   7.604  0.4794  0.6270  2.0494
 5136SOL     OW27040   3.810   0.115  11.221  0.1355 -0.1454 -0.0554
 5136SOL    HW127041   3.759   0.165  11.157  3.2467  1.4399 -1.2870
 5136SOL    HW227042   3.852   0.048  11.167  1.3997  1.3450 -0.9273
 5137SOL     OW27043   4.002   2.900  14.164  0.2313 -0.2805  0.7988
 5137SOL    HW127044   3.934   2.966  14.149  0.7078 -0.5205 -2.2638
 5137SOL    HW227045   4.068   2.953  14.210  0.7598  1.4664 -1.9770
 5138SOL     OW27046   0.080   4.096   9.665  0.1413  0.4764 -0.1529
 5138SOL    HW127047   0.058   4.010   9.700  1.3529  0.8474  1.5125
 5138SOL    HW227048   0.175   4.113   9.665  0.1191  0.6343  1.5685
 5139SOL     OW27049   0.067   1.397   2.906  0.2161  0.5518  0.0112
 5139SOL    HW127050   0.083   1.486   2.873 -1.2994  0.5545 -0.6849
 5139SOL    HW227051   0.098   1.348   2.830  1.8809 -0.6061  1.4257
 5140SOL     OW27052   0.291   4.269  15.536 -0.0307  0.1447  0.4585
 5140SOL    HW127053   0.283   4.337  15.470  0.2247  0.4206  0.7114
 5140SOL    HW227054   0.224   4.205  15.512  0.2500  0.2069 -0.4626
 5141SOL     OW27055   1.573   1.350   2.129 -0.0946  0.2814  0.0844
 5141SOL    HW127056   1.654   1.380   2.171  1.1069 -1.7508 -0.7944
 5141SOL    HW227057   1.581   1.255   2.141 -0.1793  0.0773 -1.4898
 5142SOL     OW27058   0.465   4.741  12.785  0.1482 -0.0405  0.5890
 5142SOL    HW127059   0.521   4.663  12.792  0.0924 -0.1815 -0.5683
 5142SOL    HW227060   0.387   4.695  12.755  0.9519 -0.3819 -1.0117
 5143SOL     OW27061   3.516   1.265   2.627  0.0222 -0.5711  0.5338
 5143SOL    HW127062   3.438   1.274   2.572  1.4739  0.5478 -1.3427
 5143SOL    HW227063   3.536   1.358   2.640  0.9892 -0.9400  1.6225
 5144SOL     OW27064   4.494   2.937   9.663 -0.1806 -0.1949  0.1542
 5144SOL    HW127065   4.429   2.957   9.731  0.5420  2.6726  0.0242
 5144SOL    HW227066   4.556   3.008   9.678  0.1082 -0.8715  2.1318
 5145SOL     OW27067   2.775   4.468  16.223 -0.4424  0.2022 -0.4718
 5145SOL    HW127068   2.745   4.392  16.173  0.9320  0.2007 -1.2947
 5145SOL    HW227069   2.855   4.487  16.174  0.6685  0.8531  1.5832
 5146SOL     OW27070   4.554   2.514  13.389  0.0836  0.1844  0.0118
 5146SOL    HW127071   4.648   2.501  13.380  0.0563  0.6392 -0.9056
 5146SOL    HW227072   4.549   2.608  13.408  3.1971  0.0301  1.5612
 5147SOL     OW27073   4.463   1.883   3.275  0.8052  0.0544  0.1124
 5147SOL    HW127074   4.398   1.953   3.265 -0.5551 -1.3159 -0.5828
 5147SOL    HW227075   4.410   1.847   3.345  0.7186 -1.8234 -0.9031
 5148SOL     OW27076   0.772   3.490   3.670 -0.0134  0.5760 -0.1594
 5148SOL    HW127077   0.707   3.547   3.628 -0.0084  0.9690  0.3620
 5148SOL    HW227078   0.748   3.498   3.762  0.3859  1.0387 -0.0935
 5149SOL     OW27079   3.227   1.723  11.344  0.3464 -0.6628 -0.0119
 5149SOL    HW127080   3.220   1.758  11.433  0.2953 -1.3864  0.2684
 5149SOL    HW227081   3.142   1.680  11.338 -0.4682  0.8257  0.7104
 5150SOL     OW27082   2.558   3.682  14.242  0.3995 -0.1281  0.7410
 5150SOL    HW127083   2.578   3.588  14.249 -0.5724 -0.4366 -0.5738
 5150SOL    HW227084   2.523   3.693  14.331 -0.0731  2.8314  0.1755
 5151SOL     OW27085   2.260   4.493   4.133 -0.4409  0.3242  0.4696
 5151SOL    HW127086   2.310   4.435   4.191  1.0839  0.9873 -0.1952
 5151SOL    HW227087   2.197   4.433   4.094  1.3122 -0.9794 -0.3656
 5152SOL     OW27088   0.572   2.342  11.641  0.8453 -0.1200  0.6739
 5152SOL    HW127089   0.612   2.277  11.700 -0.2742 -2.3525 -1.0094
 5152SOL    HW227090   0.626   2.306  11.570  1.0093  2.0309 -0.2790
 5153SOL     OW27091   4.066   1.772   3.174 -0.0740  0.4391 -0.1800
 5153SOL    HW127092   4.135   1.805   3.231  0.9428 -1.5917 -0.2457
 5153SOL    HW227093   3.983   1.813   3.200 -0.5419 -0.1251 -0.7790
 5154SOL     OW27094   4.325   3.850   2.883 -0.7598  0.3301 -0.3095
 5154SOL    HW127095   4.250   3.797   2.909 -0.4002 -0.4550 -0.8765
 5154SOL    HW227096   4.288   3.900   2.810 -3.6307 -1.0996  0.1663
 5155SOL     OW27097   1.560   0.416   3.853 -0.3232 -0.2096 -0.9256
 5155SOL    HW127098   1.497   0.391   3.785 -1.3095 -0.1444 -0.0306
 5155SOL    HW227099   1.591   0.332   3.885  0.3499 -0.0739 -1.2174
 5156SOL     OW27100   1.559   0.980   3.447 -0.3709  0.7183 -0.0639
 5156SOL    HW127101   1.498   1.046   3.414 -0.5437 -0.8153 -2.7420
 5156SOL    HW227102   1.498   0.927   3.499  0.1302 -0.1538 -0.3674
 5157SOL     OW27103   4.341   3.149  15.920 -1.3372 -0.5655  0.9239
 5157SOL    HW127104   4.247   3.164  15.916 -0.9044  1.5400 -2.2797
 5157SOL    HW227105   4.348   3.055  15.936  1.5608 -0.3952  0.7204
 5158SOL     OW27106   0.923   3.447   6.763  0.4426 -0.8224  0.0010
 5158SOL    HW127107   0.842   3.478   6.723  1.1246 -0.4357 -1.0688
 5158SOL    HW227108   0.993   3.512   6.752 -1.6316  1.4512  0.4581
 5159SOL     OW27109   2.821   1.614   5.761 -0.2266 -0.4059  0.1334
 5159SOL    HW127110   2.847   1.523   5.743  0.6922 -0.7493  3.1534
 5159SOL    HW227111   2.798   1.636   5.671  2.6581 -1.8562 -0.9423
 5160SOL     OW27112   0.668   1.073   4.896  0.1679 -0.8234  0.2173
 5160SOL    HW127113   0.624   1.149   4.858  0.4993  0.5939  2.6391
 5160SOL    HW227114   0.690   1.016   4.823 -2.6233  1.4738 -2.4230
 5161SOL     OW27115   3.551   2.391   1.714  0.0548  0.1109  0.4610
 5161SOL    HW127116   3.496   2.347   1.779 -0.5609 -1.4677 -1.1265
 5161SOL    HW227117   3.615   2.322   1.700  0.1670  0.3327 -0.1348
 5162SOL     OW27118   4.642   4.571   5.703  0.5713  0.1227 -0.1268
 5162SOL    HW127119   4.659   4.578   5.797  2.5684  0.0650 -0.4778
 5162SOL    HW227120   4.571   4.634   5.693  2.5129  2.5289  1.3859
 5163SOL     OW27121   1.329   4.051   8.799  0.0377 -0.0127  0.0531
 5163SOL    HW127122   1.314   3.957   8.812  0.0279 -0.4068 -2.7884
 5163SOL    HW227123   1.417   4.076   8.826 -0.0832  0.7714 -0.2660
 5164SOL     OW27124   1.089   1.635   5.802 -0.0933 -0.6146  0.1543
 5164SOL    HW127125   1.017   1.682   5.844 -0.6425 -0.7280 -0.6411
 5164SOL    HW227126   1.131   1.715   5.772  0.5820  0.0224  2.8342
 5165SOL     OW27127   1.958   2.325  12.839 -0.4501 -0.5713  0.4259
 5165SOL    HW127128   2.016   2.384  12.790  0.5616 -2.6293 -0.8576
 5165SOL    HW227129   1.915   2.267  12.776 -2.5091  1.3653  0.0529
 5166SOL     OW27130   2.705   3.643   3.958  0.4411  0.4144 -0.1941
 5166SOL    HW127131   2.657   3.610   3.882  0.2854  1.4570 -0.5516
 5166SOL    HW227132   2.717   3.564   4.010  1.5558  0.3114 -0.6076
 5167SOL     OW27133   3.269   4.148   9.102 -0.2394 -0.1463  0.4137
 5167SOL    HW127134   3.272   4.236   9.064  1.1189 -0.0189  0.7810
 5167SOL    HW227135   3.176   4.127   9.102 -0.2393 -0.1485  0.5582
 5168SOL     OW27136   0.318   2.431   4.788  0.0128 -0.0383  0.1499
 5168SOL    HW127137   0.258   2.357   4.787 -1.0318  0.8147  0.0543
 5168SOL    HW227138   0.320   2.454   4.881 -0.4368 -1.3493  0.4829
 5169SOL     OW27139   1.833   0.750  17.578  0.2346 -0.4996  0.0936
 5169SOL    HW127140   1.921   0.765  17.614  1.2167 -1.3783 -1.9235
 5169SOL    HW227141   1.814   0.837  17.612  0.4272 -0.3771 -0.1109
 5170SOL     OW27142   0.341   1.522  11.737  0.7077 -0.4247 -0.6460
 5170SOL    HW127143   0.295   1.438  11.739 -0.4512  0.2467  0.5296
 5170SOL    HW227144   0.329   1.549  11.645  1.5029 -1.0470 -0.9307
 5171SOL     OW27145   4.271   3.584   9.481 -0.2326 -0.1333  0.0939
 5171SOL    HW127146   4.357   3.613   9.511 -1.2418  2.1520  0.7685
 5171SOL    HW227147   4.217   3.663   9.476  1.1902  0.8696  0.4978
 5172SOL     OW27148   0.825   2.465  10.357  0.4353 -0.6594  0.0900
 5172SOL    HW127149   0.846   2.528  10.425  0.2487  1.3422 -1.7268
 5172SOL    HW227150   0.911   2.421  10.353  1.4284  1.1237  1.8796
 5173SOL     OW27151   4.563   4.007   3.350 -0.6979  0.3362 -0.0159
 5173SOL    HW127152   4.496   4.038   3.289  1.3654  2.5895 -1.0937
 5173SOL    HW227153   4.536   4.054   3.429 -0.9807 -1.3479  0.9143
 5174SOL     OW27154   1.230   4.363   7.686 -0.2368  0.0655  0.3840
 5174SOL    HW127155   1.194   4.406   7.764 -0.0711 -0.4846  0.7589
 5174SOL    HW227156   1.279   4.439   7.654 -0.2281  0.4968  1.4335
 5175SOL     OW27157   4.475   4.279   3.365  0.5464  0.2920  0.1021
 5175SOL    HW127158   4.526   4.355   3.393  2.2339 -0.3700 -1.1066
 5175SOL    HW227159   4.464   4.242   3.452 -1.2991 -0.0146 -0.2525
 5176SOL     OW27160   1.597   4.651  16.820  0.1086 -0.3416  0.1140
 5176SOL    HW127161   1.590   4.623  16.729 -0.8814 -1.2301  0.4567
 5176SOL    HW227162   1.507   4.639  16.851  0.3600  2.0225  1.7855
 5177SOL     OW27163   1.244   2.382  17.615  0.4543  0.5807  0.2081
 5177SOL    HW127164   1.321   2.350  17.661  1.5992  2.5366 -0.3220
 5177SOL    HW227165   1.260   2.476  17.622 -0.2481  0.7266 -0.1667
 5178SOL     OW27166   3.587   2.544   8.763 -0.0676 -0.1378 -0.5376
 5178SOL    HW127167   3.664   2.540   8.707 -0.2286  1.2663 -0.8611
 5178SOL    HW227168   3.634   2.539   8.846 -1.4312 -0.1730  0.2265
 5179SOL     OW27169   1.369   4.313   4.698 -0.0915  0.4086  0.5201
 5179SOL    HW127170   1.332   4.323   4.610  0.7149 -1.3317 -0.0147
 5179SOL    HW227171   1.449   4.367   4.693  0.2911 -0.2405 -0.2796
 5180SOL     OW27172   4.397   1.711  10.880  0.0278  0.0675  0.0620
 5180SOL    HW127173   4.384   1.789  10.934  1.7578  0.4993 -0.1467
 5180SOL    HW227174   4.480   1.690  10.921 -0.5533  0.9375  1.6761
 5181SOL     OW27175   2.857   1.347   9.749 -0.0998  0.3746 -0.0059
 5181SOL    HW127176   2.952   1.332   9.746 -0.2976 -0.8395 -0.1363
 5181SOL    HW227177   2.866   1.360   9.844 -2.2779  5.2881 -0.4489
 5182SOL     OW27178   0.262   3.996   8.020 -0.3601 -0.1519  0.4077
 5182SOL    HW127179   0.344   4.039   7.998 -0.4163  0.9558  2.3347
 5182SOL    HW227180   0.206   4.072   8.034  1.5904  1.3678  0.0405
 5183SOL     OW27181   2.144   3.984   8.920  0.0910 -0.1994 -0.4763
 5183SOL    HW127182   2.177   4.071   8.940  0.8758 -0.9715  1.5256
 5183SOL    HW227183   2.164   3.982   8.826 -0.7623 -3.7193 -0.5844
 5184SOL     OW27184   2.122   3.182   6.601  0.0897 -0.3982 -0.2479
 5184SOL    HW127185   2.085   3.235   6.531  0.3627  0.0550 -0.0445
 5184SOL    HW227186   2.192   3.147   6.546 -1.3124 -2.5727 -0.6561
 5185SOL     OW27187   4.139   2.994  14.804 -0.1270 -0.3202  0.0459
 5185SOL    HW127188   4.127   3.022  14.713  0.0434  1.1034  0.4524
 5185SOL    HW227189   4.065   3.032  14.851  1.1193  2.4706 -0.2460
 5186SOL     OW27190   2.907   1.599  16.346  0.1631 -0.0711 -0.3309
 5186SOL    HW127191   2.946   1.512  16.340  2.9056  1.3131 -2.6337
 5186SOL    HW227192   2.988   1.648  16.363  0.5347  0.1027 -2.5461
 5187SOL     OW27193   3.108   0.020   5.142  0.2444  0.1440  0.0995
 5187SOL    HW127194   3.092   4.684   5.088  0.1706 -0.5889  1.1486
 5187SOL    HW227195   3.199   0.038   5.121  0.9301 -2.7855  0.4483
 5188SOL     OW27196   2.513   0.797  16.203 -0.4218  0.1647 -0.1653
 5188SOL    HW127197   2.456   0.721  16.209 -0.1264  0.0513  1.3383
 5188SOL    HW227198   2.536   0.790  16.111 -0.6553 -0.7654 -0.1465
 5189SOL     OW27199   1.844   4.642   8.449  0.2526 -0.3194  0.8148
 5189SOL    HW127200   1.853   4.664   8.357  2.5308  0.2221  1.1652
 5189SOL    HW227201   1.772   4.695   8.483  0.0722  0.1706 -0.3420
 5190SOL     OW27202   1.882   4.506   9.553  0.1972 -0.0829 -0.3826
 5190SOL    HW127203   1.924   4.510   9.639 -0.2207 -0.0207 -0.1821
 5190SOL    HW227204   1.931   4.430   9.522 -2.2406 -1.0037 -1.9463
 5191SOL     OW27205   2.072   1.727   2.530  0.0138  0.1083 -0.5555
 5191SOL    HW127206   2.063   1.769   2.615 -0.4150 -1.0138 -0.0562
 5191SOL    HW227207   2.128   1.792   2.487 -0.6212  1.5408  0.7743
 5192SOL     OW27208   3.997   2.727  11.385 -1.0217  0.3239 -0.1364
 5192SOL    HW127209   4.083   2.720  11.426 -1.6810  0.4961  1.2758
 5192SOL    HW227210   4.005   2.732  11.290  0.5885  0.8837  0.0338
 5193SOL     OW27211   1.344   3.588   6.840 -0.1768  0.5346 -0.0347
 5193SOL    HW127212   1.332   3.618   6.930 -1.2641 -1.2552  0.4297
 5193SOL    HW227213   1.410   3.518   6.849 -2.5400 -1.5538  1.0093
 5194SOL     OW27214   0.220   1.438   0.605  0.1764  0.0730  0.2469
 5194SOL    HW127215   0.149   1.493   0.638  0.9339  0.8324  0.6150
 5194SOL    HW227216   0.213   1.365   0.667 -1.0276 -1.9302 -2.2197
 5195SOL     OW27217   0.231   0.644   1.888 -0.0073  0.9115  0.0483
 5195SOL    HW127218   0.237   0.650   1.983 -0.6184  2.9260 -0.0324
 5195SOL    HW227219   0.308   0.691   1.856  0.9586  0.4829  1.7626
 5196SOL     OW27220   4.153   2.477   7.018 -0.2384  0.2398 -0.5006
 5196SOL    HW127221   4.167   2.555   6.964 -0.9491  1.5569  1.2148
 5196SOL    HW227222   4.060   2.473   6.993 -0.7018  1.4862  1.0151
 5197SOL     OW27223   2.658   0.920   2.894 -0.0104 -0.4981  0.2331
 5197SOL    HW127224   2.641   0.880   2.808  0.4659  1.9002 -0.9818
 5197SOL    HW227225   2.720   0.987   2.863 -0.0728 -0.0767  1.0222
 5198SOL     OW27226   0.639   2.663   4.568 -0.1829  0.4360 -0.9515
 5198SOL    HW127227   0.624   2.604   4.494 -2.1707 -0.7360  0.3871
 5198SOL    HW227228   0.551   2.688   4.596 -0.9612 -0.6901 -2.3735
 5199SOL     OW27229   3.956   3.342  14.548  0.5546 -0.2084 -0.0770
 5199SOL    HW127230   4.035   3.367  14.595  1.1959 -3.3034  0.4679
 5199SOL    HW227231   3.939   3.428  14.509 -0.6912 -1.1122 -1.5476
 5200SOL     OW27232   0.598   0.782   5.238 -0.0806  0.4491  0.2754
 5200SOL    HW127233   0.555   0.697   5.222 -1.1777  0.8596  1.0368
 5200SOL    HW227234   0.602   0.810   5.146 -0.4653 -1.8122 -0.4579
 5201SOL     OW27235   3.075   1.937   3.136 -0.6362 -0.3796 -0.4156
 5201SOL    HW127236   3.168   1.916   3.145 -0.0081  2.1452 -1.0538
 5201SOL    HW227237   3.059   1.878   3.063 -1.3538  0.7567 -1.1779
 5202SOL     OW27238   1.184   2.097   8.530 -0.0144 -0.1675  0.0832
 5202SOL    HW127239   1.221   2.151   8.461  0.0160  0.5751  0.6715
 5202SOL    HW227240   1.125   2.158   8.575  2.0209  0.5378  1.7974
 5203SOL     OW27241   4.385   0.947   8.520  0.2383  0.1956  0.0381
 5203SOL    HW127242   4.393   0.869   8.575  0.6423 -0.3396 -0.7768
 5203SOL    HW227243   4.297   0.942   8.483  0.6161  1.3689 -1.0065
 5204SOL     OW27244   1.953   1.321   5.047  0.1363  0.1675  0.3164
 5204SOL    HW127245   1.976   1.266   4.972  0.5264  1.3695 -0.4443
 5204SOL    HW227246   1.863   1.293   5.064 -0.4119  0.5756 -2.0229
 5205SOL     OW27247   0.487   2.745   8.255 -0.2929  0.5171 -0.3657
 5205SOL    HW127248   0.540   2.760   8.177  3.3391 -0.7658  1.8269
 5205SOL    HW227249   0.419   2.703   8.203 -0.0980 -0.1725 -0.0646
 5206SOL     OW27250   0.501   4.124   5.994  0.1975  0.2144 -0.0078
 5206SOL    HW127251   0.516   4.155   6.083  2.6357  1.4090 -0.7960
 5206SOL    HW227252   0.587   4.126   5.950  0.3394  0.2829  0.2709
 5207SOL     OW27253   4.591   2.935   9.351 -0.5301  0.1519 -0.1077
 5207SOL    HW127254   4.546   2.885   9.420 -0.9802  0.3406 -0.2633
 5207SOL    HW227255   4.527   2.913   9.284 -1.4855 -2.0547  1.5176
 5208SOL     OW27256   2.072   3.088   8.545  0.3391 -0.1497 -0.3948
 5208SOL    HW127257   2.047   2.995   8.549  0.6174 -0.1734  0.6825
 5208SOL    HW227258   2.113   3.104   8.630 -0.3632 -0.4484 -0.0019
 5209SOL     OW27259   1.832   0.114  13.208  0.1471 -0.0592  0.1731
 5209SOL    HW127260   1.824   0.026  13.170  0.5902 -0.4335  0.9255
 5209SOL    HW227261   1.775   0.167  13.153  0.9825 -0.6078 -1.2254
 5210SOL     OW27262   2.672   4.453   1.268  0.7996  0.2849 -0.5624
 5210SOL    HW127263   2.707   4.506   1.197  0.4670  1.2659 -0.0009
 5210SOL    HW227264   2.581   4.481   1.283  0.8193 -0.3597  0.8042
 5211SOL     OW27265   0.196   0.008   1.408  0.6831 -0.3800 -0.0215
 5211SOL    HW127266   0.217   0.095   1.375 -1.1324  0.0909  0.0861
 5211SOL    HW227267   0.189   0.034   1.500 -0.1176  0.5693 -0.3535
 5212SOL     OW27268   0.062   1.563   3.767 -0.0137 -0.1110 -0.0241
 5212SOL    HW127269   0.037   1.471   3.776 -3.3284  0.8916  1.1939
 5212SOL    HW227270   0.088   1.574   3.675  1.6722  1.6949  0.6586
 5213SOL     OW27271   2.742   3.080   8.273 -0.2779 -0.0952 -0.1764
 5213SOL    HW127272   2.818   3.083   8.214  0.2325 -0.3266  0.4662
 5213SOL    HW227273   2.769   3.133   8.348  2.3981  0.8554 -1.7821
 5214SOL     OW27274   0.324   0.695   2.136 -0.0250  0.6379  0.3820
 5214SOL    HW127275   0.296   0.655   2.217 -0.6879  1.2038  0.4304
 5214SOL    HW227276   0.419   0.694   2.150  0.2447 -0.4957 -1.5348
 5215SOL     OW27277   1.958   3.415   0.917  0.6457 -0.1526 -0.5692
 5215SOL    HW127278   2.003   3.460   0.845  0.2196 -1.1131 -1.4332
 5215SOL    HW227279   1.873   3.459   0.917  1.0887  0.7150  0.0346
 5216SOL     OW27280   4.163   1.082  12.636 -0.5281 -0.0830  0.0322
 5216SOL    HW127281   4.142   0.990  12.652 -0.4032  0.0255  0.8223
 5216SOL    HW227282   4.224   1.092  12.710  0.1746 -1.2367 -0.3773
 5217SOL     OW27283   3.462   2.692   1.337 -0.1008  0.3672  0.3462
 5217SOL    HW127284   3.477   2.628   1.268 -1.2227  1.9613 -1.3637
 5217SOL    HW227285   3.467   2.779   1.297 -1.5640 -0.5993 -1.9064
 5218SOL     OW27286   1.421   0.128  11.185  0.6354 -0.1336  0.0265
 5218SOL    HW127287   1.420   0.162  11.274 -0.4897  2.4404 -0.9617
 5218SOL    HW227288   1.425   0.205  11.129 -0.3398  1.6887  2.4702
 5219SOL     OW27289   1.250   3.066   1.144 -0.3133  0.4994  0.0092
 5219SOL    HW127290   1.210   3.087   1.060 -0.6146 -2.1245 -0.4751
 5219SOL    HW227291   1.184   3.039   1.208 -0.7700  0.1559 -0.6018
 5220SOL     OW27292   2.081   1.465  15.142  0.0595 -0.1012 -0.6517
 5220SOL    HW127293   2.176   1.475  15.132 -0.3791  2.8785 -1.6574
 5220SOL    HW227294   2.093   1.398  15.209 -1.0289 -0.8433 -1.2010
 5221SOL     OW27295   2.990   0.593   3.189  0.0960  0.1894 -1.1544
 5221SOL    HW127296   2.980   0.612   3.282  1.1384 -1.8977 -0.6108
 5221SOL    HW227297   2.943   0.510   3.190 -0.0674  0.2851 -1.0140
 5222SOL     OW27298   2.034   1.456   1.600 -0.1817  0.1767 -0.2190
 5222SOL    HW127299   2.068   1.479   1.687 -0.2461  0.2964 -0.2253
 5222SOL    HW227300   1.989   1.374   1.622  0.0244  0.4417  1.1779
 5223SOL     OW27301   0.003   0.187   6.013 -0.3146 -0.4708 -0.0740
 5223SOL    HW127302   4.715   0.241   5.939 -1.2560 -0.5497  0.2462
 5223SOL    HW227303   4.668   0.133   6.032  0.0585 -0.9596  0.0184
 5224SOL     OW27304   4.683   0.019   6.329 -0.6814 -0.0407 -0.3664
 5224SOL    HW127305   4.641   0.063   6.403 -2.0868 -0.7222 -0.7790
 5224SOL    HW227306   4.617   4.701   6.295 -0.3397 -0.1083 -0.9136
 5225SOL     OW27307   2.775   0.710   8.560  0.0880  0.0470 -0.2793
 5225SOL    HW127308   2.740   0.689   8.647  1.0649 -1.8366 -0.3315
 5225SOL    HW227309   2.775   0.805   8.571 -2.7944  0.2861 -2.3557
 5226SOL     OW27310   3.797   4.283  16.955 -0.6391  0.5598  0.1750
 5226SOL    HW127311   3.829   4.241  16.875  0.0571 -0.5497  1.0276
 5226SOL    HW227312   3.758   4.361  16.917 -0.2364  1.5382  1.7492
 5227SOL     OW27313   4.057   4.360   9.056 -0.3553  0.0931 -0.1179
 5227SOL    HW127314   4.127   4.421   9.031  1.3228 -1.8044 -0.1197
 5227SOL    HW227315   4.044   4.315   8.972 -1.6146  2.1562 -1.0062
 5228SOL     OW27316   3.884   1.933   7.021  0.0615  0.9186  0.4417
 5228SOL    HW127317   3.903   2.026   7.006 -0.4077  1.0459  0.6369
 5228SOL    HW227318   3.972   1.897   7.028  0.4160  1.8025  0.4362
 5229SOL     OW27319   1.900   2.525   4.763  0.0997  0.1960  0.0456
 5229SOL    HW127320   1.841   2.488   4.697  1.0471 -0.4985 -0.3999
 5229SOL    HW227321   1.921   2.445   4.809  2.7998  1.6527  1.3770
 5230SOL     OW27322   3.268   0.012   4.505 -0.1700  0.5576  0.2238
 5230SOL    HW127323   3.343   4.703   4.473  0.8585  1.2239  1.5797
 5230SOL    HW227324   3.212   4.735   4.429 -2.0303  1.6816  1.3188
 5231SOL     OW27325   2.079   1.439   1.003 -0.2699 -0.4099 -0.2830
 5231SOL    HW127326   2.069   1.496   1.080 -2.3396  1.8470 -2.2395
 5231SOL    HW227327   2.039   1.356   1.028 -0.3552 -0.4041 -0.3986
 5232SOL     OW27328   2.956   2.261  15.591  0.6265 -0.1974 -0.7496
 5232SOL    HW127329   2.969   2.306  15.507 -2.0368 -0.1299 -1.1305
 5232SOL    HW227330   3.039   2.275  15.635  0.0124 -1.6672  0.8760
 5233SOL     OW27331   1.474   2.594   0.425 -0.0454  0.8953  0.7608
 5233SOL    HW127332   1.546   2.565   0.369 -0.0904 -0.4347  1.4030
 5233SOL    HW227333   1.404   2.611   0.362 -0.8741  0.8022  1.6458
 5234SOL     OW27334   3.801   0.937  11.668  0.8885  0.4115  0.6699
 5234SOL    HW127335   3.891   0.919  11.694  0.7366  0.7235  1.4369
 5234SOL    HW227336   3.767   0.854  11.634 -1.1110  2.2191 -1.7660
 5235SOL     OW27337   3.078   3.716  16.822 -0.3808 -0.2289 -0.3687
 5235SOL    HW127338   2.983   3.707  16.828 -0.4614 -0.0682 -1.3015
 5235SOL    HW227339   3.101   3.735  16.913  0.3796  0.8593 -0.7816
 5236SOL     OW27340   0.600   3.524  17.008  0.1718  0.1244 -0.1985
 5236SOL    HW127341   0.673   3.527  16.947  0.2048 -0.8266 -0.2022
 5236SOL    HW227342   0.545   3.584  16.957 -0.5356  0.7165  1.2486
 5237SOL     OW27343   2.011   1.084   5.470 -0.5741 -0.6580  0.7627
 5237SOL    HW127344   1.957   1.024   5.420 -0.9119 -1.6398  2.3170
 5237SOL    HW227345   1.970   1.168   5.449  0.6401 -0.1515  0.4458
 5238SOL     OW27346   0.535   0.095   7.623 -0.1389 -0.2763 -0.2779
 5238SOL    HW127347   0.591   0.130   7.692  1.5015 -1.8153 -0.8213
 5238SOL    HW227348   0.550   0.161   7.556 -1.5373 -0.7167 -1.0193
 5239SOL     OW27349   3.878   4.479   5.088 -0.1607 -0.3107  0.0636
 5239SOL    HW127350   3.936   4.440   5.022  0.5248  2.9353 -1.2467
 5239SOL    HW227351   3.862   4.393   5.126  1.9777 -1.4144 -1.5145
 5240SOL     OW27352   1.585   0.731   9.260  0.4359 -0.2239 -0.0469
 5240SOL    HW127353   1.508   0.719   9.316 -0.2789 -1.1704 -1.2349
 5240SOL    HW227354   1.591   0.826   9.269 -0.5474 -0.0233 -1.5446
 5241SOL     OW27355   2.315   0.894   4.582 -0.3001 -0.1885  0.8951
 5241SOL    HW127356   2.362   0.977   4.574 -1.4594  0.3254 -0.7336
 5241SOL    HW227357   2.359   0.860   4.659  0.5757  0.8411  0.8402
 5242SOL     OW27358   4.268   3.219   5.366 -0.2390  0.6203  0.0413
 5242SOL    HW127359   4.301   3.207   5.455 -0.0558 -1.8764 -0.3567
 5242SOL    HW227360   4.344   3.252   5.319  0.4590 -1.3663 -0.2394
 5243SOL     OW27361   1.915   3.483   7.744  0.1781 -0.2559 -0.0308
 5243SOL    HW127362   1.975   3.519   7.678 -2.2457  0.8453 -1.6135
 5243SOL    HW227363   1.855   3.435   7.687 -1.0063  1.8660 -0.5727
 5244SOL     OW27364   0.613   4.418   0.716 -0.2722  0.1787  0.3860
 5244SOL    HW127365   0.620   4.513   0.708  0.4520  0.3343  2.7455
 5244SOL    HW227366   0.696   4.398   0.759 -0.8082  0.4219  1.5316
 5245SOL     OW27367   0.474   2.952  14.189 -0.3895 -0.1531 -0.1021
 5245SOL    HW127368   0.492   3.033  14.142 -0.7869  0.3158  0.5525
 5245SOL    HW227369   0.548   2.899  14.160  0.6089  1.0261  0.3204
 5246SOL     OW27370   0.850   0.558   7.670  0.0841  0.0588  0.3007
 5246SOL    HW127371   0.891   0.519   7.747 -2.4258 -0.2241  1.5197
 5246SOL    HW227372   0.903   0.539   7.593  0.6765 -3.0692  1.5145
 5247SOL     OW27373   1.465   2.410   9.464  0.2496 -0.1074  0.1838
 5247SOL    HW127374   1.423   2.331   9.430 -2.0353  1.1140  0.1371
 5247SOL    HW227375   1.503   2.446   9.384  2.6528  2.0700  2.2850
 5248SOL     OW27376   1.323   2.448  14.899  0.6275  0.1375  0.2749
 5248SOL    HW127377   1.327   2.395  14.979  0.2119 -0.4848 -0.1182
 5248SOL    HW227378   1.259   2.511  14.931 -0.5639 -0.7042 -0.4815
 5249SOL     OW27379   3.795   0.059  10.073  0.1113 -0.1131  0.0388
 5249SOL    HW127380   3.847   4.725  10.099  2.4294  1.5766  0.3770
 5249SOL    HW227381   3.853   0.126  10.110  0.0126 -0.9384  1.6833
 5250SOL     OW27382   0.473   0.931   4.554  0.0972  0.6656  0.1494
 5250SOL    HW127383   0.401   0.971   4.504  0.7383  2.3523  0.5960
 5250SOL    HW227384   0.453   0.978   4.634 -1.0206 -0.7396  0.6932
 5251SOL     OW27385   0.924   1.603   9.267  0.3747  0.6181 -0.4325
 5251SOL    HW127386   0.983   1.644   9.330  0.6601  0.2691 -0.4748
 5251SOL    HW227387   0.842   1.614   9.316  0.2334  1.9191 -0.9670
 5252SOL     OW27388   4.626   3.804  16.182 -0.1564 -0.2957 -0.8251
 5252SOL    HW127389   4.558   3.751  16.141 -1.8725  0.7024  0.7510
 5252SOL    HW227390   4.683   3.808  16.105  0.9431 -1.0363 -0.0577
 5253SOL     OW27391   3.357   1.158  16.535 -0.5339 -0.5692  0.7035
 5253SOL    HW127392   3.340   1.211  16.613 -0.4549 -0.8507  0.9110
 5253SOL    HW227393   3.348   1.216  16.460 -1.0388 -1.6297 -0.0517
 5254SOL     OW27394   3.901   1.721   8.059  0.2820  0.1799 -0.0232
 5254SOL    HW127395   3.945   1.652   8.110 -0.0606  0.2063  0.3068
 5254SOL    HW227396   3.955   1.718   7.980 -0.6132 -2.1559 -0.5708
 5255SOL     OW27397   0.444   3.711   6.669 -0.0114  0.2247 -0.6901
 5255SOL    HW127398   0.395   3.703   6.751 -1.4348 -0.7846 -1.6543
 5255SOL    HW227399   0.381   3.686   6.602  0.0345 -0.0064 -0.6500
 5256SOL     OW27400   3.591   2.077   4.092  0.1259 -0.1435 -0.3617
 5256SOL    HW127401   3.651   2.023   4.041  3.2513  2.1081  0.9199
 5256SOL    HW227402   3.598   2.032   4.177  1.7201 -1.3721 -1.1499
 5257SOL     OW27403   4.650   1.934   2.395  0.1106  0.3983  0.1499
 5257SOL    HW127404   4.670   1.986   2.317 -1.2952 -2.6317 -2.2076
 5257SOL    HW227405   4.656   1.994   2.470 -1.5515  0.9191 -0.1159
 5258SOL     OW27406   0.463   1.273   7.307 -0.4481  0.3461 -0.4863
 5258SOL    HW127407   0.510   1.356   7.320  0.7372 -0.4167  0.1185
 5258SOL    HW227408   0.491   1.244   7.220 -2.0894 -0.3963 -0.7490
 5259SOL     OW27409   0.854   0.227  17.095 -0.4505 -0.1997 -0.1636
 5259SOL    HW127410   0.801   0.147  17.102 -0.3719 -0.0327  2.4854
 5259SOL    HW227411   0.811   0.278  17.164  0.1803  0.3561 -0.1811
 5260SOL     OW27412   2.698   1.584   3.376  0.1712  0.2731 -0.0847
 5260SOL    HW127413   2.643   1.507   3.392 -1.9953  1.7660 -0.2125
 5260SOL    HW227414   2.751   1.558   3.300 -1.5943 -3.9127  0.1044
 5261SOL     OW27415   0.564   0.527   1.288 -0.0906 -0.3267  0.3665
 5261SOL    HW127416   0.474   0.550   1.311  0.1323  0.1999  0.7108
 5261SOL    HW227417   0.615   0.600   1.323 -2.3387  2.9147 -3.1354
 5262SOL     OW27418   2.498   0.301   6.156  0.1942  0.1937 -0.3649
 5262SOL    HW127419   2.411   0.328   6.185  0.9494  1.6262  0.5641
 5262SOL    HW227420   2.528   0.389   6.132 -0.5803  0.7543  0.7109
 5263SOL     OW27421   4.007   1.192   4.882  0.1958 -0.6417 -0.4136
 5263SOL    HW127422   4.045   1.109   4.855  0.1990 -0.8917  0.3728
 5263SOL    HW227423   4.035   1.203   4.973 -2.0002  1.3286  0.0250
 5264SOL     OW27424   3.569   4.029   7.268  0.0318  0.2927 -0.4795
 5264SOL    HW127425   3.538   4.119   7.269 -0.7834 -0.0252  1.9508
 5264SOL    HW227426   3.654   4.048   7.229 -0.7072  2.4687 -1.0273
 5265SOL     OW27427   0.387   0.987   4.853 -0.2646 -0.0862 -0.6636
 5265SOL    HW127428   0.306   1.021   4.815 -1.4870 -2.1900  0.0476
 5265SOL    HW227429   0.354   0.946   4.933  0.5858 -0.9131 -0.7221
 5266SOL     OW27430   0.326   0.417   8.717  0.5227  0.3080  0.2643
 5266SOL    HW127431   0.352   0.464   8.795  2.8153  0.3199 -0.5135
 5266SOL    HW227432   0.339   0.480   8.647  1.1614  1.9345  1.8638
 5267SOL     OW27433   1.228   3.138  14.577 -0.0491 -0.2205  0.9481
 5267SOL    HW127434   1.156   3.183  14.534  1.1731  0.3041 -0.5676
 5267SOL    HW227435   1.181   3.092  14.647  0.8348 -3.5575 -0.6039
 5268SOL     OW27436   4.578   1.693   4.639 -0.2500 -0.1808  0.5226
 5268SOL    HW127437   4.488   1.711   4.668  0.1192  1.6299  0.5125
 5268SOL    HW227438   4.570   1.607   4.597 -0.4537 -0.0788  0.3489
 5269SOL     OW27439   2.294   4.174   1.746  0.5650 -0.1720  0.4943
 5269SOL    HW127440   2.358   4.117   1.788  2.2974 -0.4578 -2.5183
 5269SOL    HW227441   2.323   4.260   1.777 -2.3463  1.3329 -0.9510
 5270SOL     OW27442   1.742   1.589   3.227 -0.4570  0.0390  0.7522
 5270SOL    HW127443   1.670   1.646   3.200 -1.2581 -0.8774  0.9362
 5270SOL    HW227444   1.689   1.529   3.280  1.4544 -0.5702  1.9674
 5271SOL     OW27445   0.957   3.085   3.730  0.4221  0.5739  0.1779
 5271SOL    HW127446   1.040   3.059   3.769  0.2397  0.3644  0.4231
 5271SOL    HW227447   0.938   3.007   3.677 -1.7142 -0.1810  2.0623
 5272SOL     OW27448   0.554   1.519   4.838  0.2394 -0.5612  0.2534
 5272SOL    HW127449   0.541   1.438   4.888  0.2602 -1.0519 -0.5430
 5272SOL    HW227450   0.464   1.530   4.808  0.1575  0.0730  0.7250
 5273SOL     OW27451   1.549   1.671   2.403  0.7940 -0.3657 -0.3542
 5273SOL    HW127452   1.456   1.694   2.402 -0.0022 -3.4597 -0.8200
 5273SOL    HW227453   1.587   1.751   2.439  1.5063 -0.2598 -1.3538
 5274SOL     OW27454   2.506   0.746   6.217 -0.0603  0.5626 -0.2833
 5274SOL    HW127455   2.455   0.678   6.174 -0.9539  2.6644 -2.5786
 5274SOL    HW227456   2.459   0.752   6.300 -0.8628  0.5198 -0.7420
 5275SOL     OW27457   3.901   3.641  13.479 -0.1807  0.1967  0.2759
 5275SOL    HW127458   3.936   3.710  13.423 -0.7919  0.0895 -0.2406
 5275SOL    HW227459   3.851   3.699  13.536 -0.8454  0.0062 -0.1080
 5276SOL     OW27460   0.561   3.014   7.824 -0.2864 -0.0511 -0.3698
 5276SOL    HW127461   0.569   3.110   7.820 -0.8912  0.0548  1.1113
 5276SOL    HW227462   0.593   2.988   7.738  0.6524 -1.9570  0.5566
 5277SOL     OW27463   3.062   4.583   1.828 -0.4331 -0.0025  0.2127
 5277SOL    HW127464   2.985   4.608   1.878  0.5215  1.2002  1.0787
 5277SOL    HW227465   3.054   4.638   1.751  0.0514 -3.0855 -2.0617
 5278SOL     OW27466   0.828   2.559   2.267  0.1284  0.3273  0.0603
 5278SOL    HW127467   0.820   2.575   2.361  0.7754 -2.2784  0.5562
 5278SOL    HW227468   0.923   2.555   2.258  0.0037 -1.5620 -0.4211
 5279SOL     OW27469   2.141   0.494   4.362  0.6456 -0.8854  0.1546
 5279SOL    HW127470   2.195   0.571   4.346  0.3151 -0.7202 -0.1798
 5279SOL    HW227471   2.099   0.520   4.444 -1.0689 -4.2572  0.3511
 5280SOL     OW27472   1.300   4.625  11.171 -0.2678 -0.5025  0.9685
 5280SOL    HW127473   1.276   4.646  11.081 -1.6906  0.2232  1.5203
 5280SOL    HW227474   1.327   4.713  11.198 -1.8302  0.5472 -0.9456
 5281SOL     OW27475   1.647   1.114   5.366 -0.3284  0.0468  0.1955
 5281SOL    HW127476   1.623   1.048   5.431 -3.3198  0.7221 -0.2113
 5281SOL    HW227477   1.674   1.180   5.430  2.2952 -1.7563  0.9452
 5282SOL     OW27478   2.492   2.496   9.225 -0.1046 -0.2701 -0.1567
 5282SOL    HW127479   2.568   2.551   9.206 -0.1977 -0.6826 -1.6704
 5282SOL    HW227480   2.532   2.421   9.269  0.0293 -0.5077 -0.6966
 5283SOL     OW27481   2.499   4.441  12.783  0.0953  0.6108 -0.2700
 5283SOL    HW127482   2.559   4.506  12.748  1.2019  0.3058  1.0290
 5283SOL    HW227483   2.416   4.486  12.797  1.8157  3.3648  0.9893
 5284SOL     OW27484   2.198   0.236   1.661 -0.2394  0.2464  0.7025
 5284SOL    HW127485   2.292   0.223   1.648 -0.2655  0.7227  0.0820
 5284SOL    HW227486   2.185   0.260   1.753 -0.9579 -1.5413  1.0818
 5285SOL     OW27487   3.826   2.305  13.335 -0.5623 -0.0153 -0.1254
 5285SOL    HW127488   3.757   2.241  13.350  0.8890 -0.8518  2.8220
 5285SOL    HW227489   3.780   2.389  13.328  0.0145  0.2340 -0.9595
 5286SOL     OW27490   2.061   4.173  15.584  0.8901 -0.3321  0.0630
 5286SOL    HW127491   1.980   4.223  15.588  0.1708 -1.8109  3.7835
 5286SOL    HW227492   2.074   4.164  15.678  1.6653 -0.4419 -0.0530
 5287SOL     OW27493   1.816   4.736   7.664  0.4687 -0.0562 -0.5572
 5287SOL    HW127494   1.840   0.068   7.720 -0.6458  1.0261 -1.5086
 5287SOL    HW227495   1.793   0.041   7.584 -0.3528  0.6257  0.0833
 5288SOL     OW27496   0.929   4.568   4.990  0.3760  0.2410 -0.2147
 5288SOL    HW127497   1.022   4.547   4.997  0.2379 -0.5999 -0.8032
 5288SOL    HW227498   0.902   4.540   5.078  0.9781 -0.5497 -0.2756
 5289SOL     OW27499   3.191   3.241  15.283 -0.1710  0.2886 -0.2203
 5289SOL    HW127500   3.222   3.204  15.366  0.1974  1.2741  0.0810
 5289SOL    HW227501   3.121   3.178  15.263  0.3348  0.3975 -2.3587
 5290SOL     OW27502   2.417   0.093   6.370 -0.2190 -0.2967  0.4669
 5290SOL    HW127503   2.499   0.119   6.328 -0.8403  2.0762  0.7407
 5290SOL    HW227504   2.359   0.150   6.320  0.5993  1.8581  1.9667
 5291SOL     OW27505   2.618   4.667   5.520  0.7539  0.1358  0.1331
 5291SOL    HW127506   2.657   4.687   5.605 -0.2689 -1.5813  1.0263
 5291SOL    HW227507   2.685   4.606   5.488  1.3926  0.7862  0.2385
 5292SOL     OW27508   2.539   4.219   6.785 -0.2116  0.0475  0.5017
 5292SOL    HW127509   2.484   4.174   6.721 -1.1018  2.9564 -0.7777
 5292SOL    HW227510   2.624   4.232   6.743 -0.1534  1.0672  0.9402
 5293SOL     OW27511   4.416   1.225   8.018 -0.5344 -0.5040  0.3517
 5293SOL    HW127512   4.494   1.253   7.970 -1.4329  0.3317 -0.6270
 5293SOL    HW227513   4.394   1.138   7.985 -2.3970  0.9766 -2.2425
 5294SOL     OW27514   2.045   1.277   6.641  0.1892 -0.1756  0.2956
 5294SOL    HW127515   1.956   1.242   6.635  0.7937 -1.7333  0.4142
 5294SOL    HW227516   2.053   1.333   6.564 -0.2477 -1.0850 -0.4201
 5295SOL     OW27517   0.463   1.295  13.016  0.2879 -0.0827  0.1455
 5295SOL    HW127518   0.442   1.355  13.087 -1.1359  0.7652 -0.9941
 5295SOL    HW227519   0.492   1.214  13.058 -0.3098 -0.9047 -1.0120
 5296SOL     OW27520   0.215   4.218   9.130  0.4910  0.5070  0.2840
 5296SOL    HW127521   0.185   4.277   9.200  0.9250 -0.2294  1.0898
 5296SOL    HW227522   0.304   4.203   9.160  0.7011 -1.9319 -1.6050
 5297SOL     OW27523   4.615   3.817   8.758  0.5829 -0.0559  0.2373
 5297SOL    HW127524   4.596   3.909   8.741  3.8617  0.8003  1.1857
 5297SOL    HW227525   4.579   3.808   8.846 -3.4672 -0.6034 -1.4522
 5298SOL     OW27526   0.421   0.867   8.201 -0.3100  0.4738  0.8136
 5298SOL    HW127527   0.404   0.776   8.174  0.3380  0.2768  1.0613
 5298SOL    HW227528   0.446   0.862   8.293 -0.7290  1.6120  0.9866
 5299SOL     OW27529   2.931   2.735   2.281  0.2844  0.4634 -0.0140
 5299SOL    HW127530   2.894   2.783   2.207  1.1552  1.5084  0.2280
 5299SOL    HW227531   2.890   2.649   2.276  0.7193  0.1588  1.7246
 5300SOL     OW27532   3.656   4.307   3.771  0.0707 -0.2949 -0.2289
 5300SOL    HW127533   3.583   4.289   3.830  1.9258 -2.2134  1.4988
 5300SOL    HW227534   3.701   4.222   3.767  0.5274 -0.1602  1.6391
 5301SOL     OW27535   3.432   1.652   7.171 -0.6563 -0.6856 -0.4412
 5301SOL    HW127536   3.520   1.616   7.180 -0.6414 -0.5968 -0.2209
 5301SOL    HW227537   3.412   1.651   7.078 -1.4659  0.3696 -0.2869
 5302SOL     OW27538   3.611   0.512   2.632  0.4260 -0.7647  0.3099
 5302SOL    HW127539   3.671   0.585   2.618 -0.5432 -0.1813 -0.9081
 5302SOL    HW227540   3.597   0.478   2.543 -0.9715  2.7521 -0.8263
 5303SOL     OW27541   1.341   0.483  12.256 -0.2554  0.3907 -0.5471
 5303SOL    HW127542   1.327   0.406  12.201 -1.0043  0.0157  0.1586
 5303SOL    HW227543   1.255   0.525  12.247 -0.1181  0.1220 -2.9528
 5304SOL     OW27544   2.013   3.445   4.178 -0.2101 -0.1583 -0.1856
 5304SOL    HW127545   1.935   3.397   4.207 -1.8016  0.7487 -3.0027
 5304SOL    HW227546   2.072   3.378   4.142 -2.2465 -1.0460 -1.8375
 5305SOL     OW27547   4.143   0.198   4.090  0.0431  0.4570  0.4622
 5305SOL    HW127548   4.077   0.151   4.038  0.4323 -1.0841  1.3617
 5305SOL    HW227549   4.221   0.145   4.069 -1.2658 -1.6317  0.8179
 5306SOL     OW27550   3.441   4.303   7.318  0.1571  0.0597  0.0205
 5306SOL    HW127551   3.392   4.369   7.268  2.4528  0.8162 -1.2175
 5306SOL    HW227552   3.514   4.355   7.350  0.3546  0.6386 -1.3732
 5307SOL     OW27553   2.449   2.072   0.739  0.4956 -0.4175 -0.0427
 5307SOL    HW127554   2.415   2.104   0.822  0.7282 -3.1030  1.1005
 5307SOL    HW227555   2.390   2.115   0.677  0.6296 -2.8283 -1.8826
 5308SOL     OW27556   1.992   0.958  11.397  0.7451  0.6269 -0.0750
 5308SOL    HW127557   2.070   1.013  11.405  1.1675  0.0166 -0.0030
 5308SOL    HW227558   2.014   0.892  11.462 -1.7871 -1.8451 -1.7509
 5309SOL     OW27559   3.267   4.636  12.044  0.0481  0.2610 -0.4232
 5309SOL    HW127560   3.267   4.599  12.132  0.5267  0.4530 -0.3430
 5309SOL    HW227561   3.357   4.611  12.025  0.0157  0.3859 -0.7407
 5310SOL     OW27562   1.985   3.565   2.532 -0.1345 -0.1983 -0.6828
 5310SOL    HW127563   1.905   3.604   2.566  1.1733  1.2669  0.7164
 5310SOL    HW227564   2.032   3.648   2.521 -0.8061  0.4823  1.7899
 5311SOL     OW27565   1.312   2.407   6.690  0.0711 -0.3056 -0.2511
 5311SOL    HW127566   1.248   2.355   6.641 -0.9321 -0.5139  1.2971
 5311SOL    HW227567   1.253   2.465   6.738  0.9220  1.5880 -1.4854
 5312SOL     OW27568   4.728   4.699   4.082  0.0936 -0.0842 -0.0792
 5312SOL    HW127569   0.059   4.641   4.103 -0.1069 -1.1993 -2.4550
 5312SOL    HW227570   0.023   0.019   4.019 -1.4574  1.7378  0.8002
 5313SOL     OW27571   3.181   4.473   2.567 -0.1309 -0.0105  0.1430
 5313SOL    HW127572   3.243   4.455   2.496 -0.9037 -0.5280 -0.4095
 5313SOL    HW227573   3.232   4.537   2.616 -1.0991  0.1024  1.0066
 5314SOL     OW27574   4.723   2.954  13.631  0.0420  0.3240  0.3461
 5314SOL    HW127575   4.645   2.906  13.659  0.5128 -2.1990 -2.7439
 5314SOL    HW227576   4.681   2.993  13.554  0.0220 -1.1049 -0.3580
 5315SOL     OW27577   2.914   0.595   0.655 -0.4725 -0.0401 -1.5045
 5315SOL    HW127578   2.992   0.578   0.603 -0.4101 -1.6802 -0.8602
 5315SOL    HW227579   2.935   0.560   0.741  1.7415  2.4504 -1.0536
 5316SOL     OW27580   4.050   0.606   5.181  0.2023 -0.1249  0.2562
 5316SOL    HW127581   4.062   0.700   5.169  1.3725 -0.2806  0.2915
 5316SOL    HW227582   4.084   0.560   5.105  1.6538  0.4266  0.5818
 5317SOL     OW27583   2.438   0.896   8.675  0.3675 -0.1115 -0.1824
 5317SOL    HW127584   2.415   0.983   8.643 -1.0758 -1.5696 -3.1848
 5317SOL    HW227585   2.441   0.840   8.596 -2.3586 -0.1875 -0.2061
 5318SOL     OW27586   3.256   0.167  17.229 -0.4669  0.1745  0.5423
 5318SOL    HW127587   3.238   0.169  17.135  1.6150  2.3069  0.1861
 5318SOL    HW227588   3.169   0.139  17.256 -0.2907  0.0961  1.0128
 5319SOL     OW27589   2.975   2.169   2.988  0.0484  0.1946  0.3438
 5319SOL    HW127590   3.031   2.114   3.043  0.6294 -1.5978 -2.0723
 5319SOL    HW227591   2.956   2.114   2.912 -0.0705 -1.0691  1.2922
 5320SOL     OW27592   2.965   4.331   5.588  0.3996 -0.0982 -0.7058
 5320SOL    HW127593   2.964   4.241   5.557 -0.3433  0.7076 -3.0182
 5320SOL    HW227594   2.944   4.318   5.681  3.2776 -0.6414 -0.1287
 5321SOL     OW27595   2.540   0.783  12.948 -0.2136  0.0914 -0.3840
 5321SOL    HW127596   2.524   0.690  12.963 -0.1038  0.0990 -0.2119
 5321SOL    HW227597   2.462   0.815  12.902 -1.2689 -2.1096 -0.1118
 5322SOL     OW27598   1.773   3.588   7.139 -0.6387  0.0979 -0.1801
 5322SOL    HW127599   1.831   3.521   7.102  1.4648  0.9154  1.6050
 5322SOL    HW227600   1.799   3.672   7.102 -0.1530  0.3887  0.8118
 5323SOL     OW27601   2.206   1.861   9.530 -0.1295  0.0568 -0.1416
 5323SOL    HW127602   2.242   1.792   9.475  0.3908  0.9747 -0.9420
 5323SOL    HW227603   2.236   1.945   9.494 -0.8948 -0.2610 -1.5336
 5324SOL     OW27604   4.472   4.334  12.220 -0.0745  0.1600  0.5166
 5324SOL    HW127605   4.383   4.348  12.189  0.5293  1.2277 -0.7313
 5324SOL    HW227606   4.521   4.339  12.138 -0.0910  0.7637  0.5452
 5325SOL     OW27607   1.405   3.910   9.250  0.0247 -0.4203 -0.3868
 5325SOL    HW127608   1.496   3.902   9.220  0.4426 -0.8212  1.0237
 5325SOL    HW227609   1.387   3.995   9.211 -0.9671 -0.1270  0.7313
 5326SOL     OW27610   2.848   3.530  16.383 -0.2386 -0.0086 -0.2686
 5326SOL    HW127611   2.767   3.574  16.358 -0.9451 -1.4411 -0.5426
 5326SOL    HW227612   2.899   3.607  16.408  0.1030 -0.0434 -0.8623
 5327SOL     OW27613   4.458   1.459   8.506  0.3976 -0.2764  0.0216
 5327SOL    HW127614   4.374   1.457   8.461  0.1927 -1.4886  0.4486
 5327SOL    HW227615   4.516   1.478   8.432  0.7719 -1.6320 -0.0444
 5328SOL     OW27616   1.828   0.363   8.774  0.2736 -0.0311 -0.3554
 5328SOL    HW127617   1.881   0.421   8.829 -0.2724  0.0344  0.0977
 5328SOL    HW227618   1.764   0.335   8.839 -0.6538  1.8764 -0.4395
 5329SOL     OW27619   3.922   0.970   8.022 -0.0295  0.4595 -0.1852
 5329SOL    HW127620   3.845   0.917   8.001  1.6238 -1.6898 -0.8925
 5329SOL    HW227621   3.938   1.027   7.946 -0.4366 -1.5033 -1.7513
 5330SOL     OW27622   0.204   3.205   2.112 -0.4414  0.0792  0.1633
 5330SOL    HW127623   0.255   3.141   2.161 -0.0712 -0.2423 -0.6402
 5330SOL    HW227624   0.135   3.157   2.067 -0.5755 -0.7482  1.2656
 5331SOL     OW27625   0.001   4.111   6.509 -0.2623  0.1846 -1.0274
 5331SOL    HW127626   4.739   4.168   6.432  0.5651  0.3958 -0.9085
 5331SOL    HW227627   4.666   4.136   6.561  2.9862  1.0692  3.3216
 5332SOL     OW27628   0.551   2.225  17.269  0.1327 -0.4759 -0.6880
 5332SOL    HW127629   0.605   2.246  17.193  1.9363  2.7487  1.4847
 5332SOL    HW227630   0.605   2.238  17.347 -1.7805 -0.2316  0.6026
 5333SOL     OW27631   0.685   1.663   2.044  0.6343  0.1832  0.0191
 5333SOL    HW127632   0.674   1.654   1.949  2.2313 -1.2861 -0.0382
 5333SOL    HW227633   0.597   1.686   2.072  1.4478  0.6080  2.1883
 5334SOL     OW27634   0.981   1.944   7.925 -0.1160  0.3180 -0.5721
 5334SOL    HW127635   1.048   1.877   7.936 -0.3038 -0.0490 -1.7214
 5334SOL    HW227636   0.924   1.894   7.867  1.1442  0.7726 -2.2162
 5335SOL     OW27637   4.652   3.348   3.589 -0.4583 -0.4529 -0.2122
 5335SOL    HW127638   4.575   3.300   3.619 -0.7552  0.2064  0.0861
 5335SOL    HW227639   4.723   3.290   3.616 -2.1962 -1.4707  2.1761
 5336SOL     OW27640   3.503   2.188   8.879  0.1146  0.6917 -0.3429
 5336SOL    HW127641   3.541   2.212   8.795  0.5580  0.8477 -0.0950
 5336SOL    HW227642   3.417   2.223   8.854  0.6768  1.5550 -1.0468
 5337SOL     OW27643   3.513   2.915   4.838 -0.3400 -0.3711 -0.0743
 5337SOL    HW127644   3.581   2.849   4.825 -1.1551 -1.0605 -0.8280
 5337SOL    HW227645   3.531   2.943   4.928 -1.0662  2.3375 -0.7798
 5338SOL     OW27646   0.260   1.890   3.567  0.0572 -0.7506 -0.1765
 5338SOL    HW127647   0.338   1.835   3.562  1.6127  1.3022  1.7087
 5338SOL    HW227648   0.227   1.874   3.478 -2.3076 -2.0748  0.9466
 5339SOL     OW27649   4.237   1.777  17.152  0.6131 -0.3108 -0.5203
 5339SOL    HW127650   4.324   1.814  17.138  0.5773  0.1602  0.5051
 5339SOL    HW227651   4.236   1.758  17.246 -2.3670  2.7450  0.0624
 5340SOL     OW27652   4.189   2.831   3.190  0.6262 -0.7869 -0.0840
 5340SOL    HW127653   4.213   2.829   3.283  0.2728 -0.3030  0.0172
 5340SOL    HW227654   4.140   2.913   3.190 -1.1354 -1.8308 -0.1061
 5341SOL     OW27655   1.421   0.712   9.485 -0.1075  0.4200 -0.4719
 5341SOL    HW127656   1.351   0.697   9.549  1.4276  1.4986  1.4349
 5341SOL    HW227657   1.496   0.741   9.535  1.4557 -2.4404 -1.1509
 5342SOL     OW27658   2.648   1.707   2.630  0.4642 -0.9112 -0.0423
 5342SOL    HW127659   2.733   1.665   2.640 -0.0596 -1.2880  2.7590
 5342SOL    HW227660   2.596   1.649   2.574  1.6419 -0.8507 -1.1974
 5343SOL     OW27661   2.385   3.823   5.798  0.1936  0.0457  0.1799
 5343SOL    HW127662   2.388   3.732   5.829  2.5387  0.1122  0.1575
 5343SOL    HW227663   2.324   3.813   5.726  1.1082  0.6204 -0.6642
 5344SOL     OW27664   1.704   0.179   4.777  0.0573 -0.5407 -0.6305
 5344SOL    HW127665   1.625   0.158   4.727  0.7570 -1.6787 -1.2334
 5344SOL    HW227666   1.764   0.106   4.765  3.5020  2.6040 -2.6466
 5345SOL     OW27667   4.444   2.211  13.114 -0.2852  0.3981  0.4447
 5345SOL    HW127668   4.362   2.241  13.076 -1.1062 -2.4546 -0.0640
 5345SOL    HW227669   4.409   2.141  13.169 -0.5550  0.6899  0.6433
 5346SOL     OW27670   3.286   3.446   8.963 -0.4336  0.4898 -0.0373
 5346SOL    HW127671   3.196   3.431   8.994  0.6915 -0.7335  2.6405
 5346SOL    HW227672   3.296   3.397   8.882 -0.9933 -1.3743  1.0166
 5347SOL     OW27673   0.068   4.388   0.256  0.1488 -0.7232  0.0503
 5347SOL    HW127674   0.077   4.406   0.350 -0.0272 -1.4590  0.2160
 5347SOL    HW227675   0.158   4.375   0.227  0.3599 -1.3923  0.9867
 5348SOL     OW27676   1.090   3.963   9.156 -0.0843 -0.1102  0.4035
 5348SOL    HW127677   1.126   3.887   9.110  0.0767 -0.9327  1.9128
 5348SOL    HW227678   1.065   3.926   9.240  0.6305 -0.6303  0.3837
 5349SOL     OW27679   3.012   3.395   7.536  0.6609 -0.1921  0.2840
 5349SOL    HW127680   3.096   3.376   7.493 -0.2273  0.1513 -1.5481
 5349SOL    HW227681   3.016   3.320   7.596  1.0632 -0.9981 -0.7462
 5350SOL     OW27682   2.013   1.289   3.910 -0.4030 -0.1956 -0.4845
 5350SOL    HW127683   1.986   1.252   3.826 -3.1589  0.4983  0.1103
 5350SOL    HW227684   1.939   1.278   3.969  0.3003 -1.0355  0.2343
 5351SOL     OW27685   1.087   3.675   6.751  0.1204 -0.1484 -0.0713
 5351SOL    HW127686   1.168   3.679   6.802 -0.0466  0.0545  0.1761
 5351SOL    HW227687   1.088   3.760   6.707 -1.0019 -1.8972 -3.5267
 5352SOL     OW27688   0.650   1.949   6.674  0.2078  0.1621 -0.2717
 5352SOL    HW127689   0.659   1.862   6.636 -1.4086 -0.2541  0.2754
 5352SOL    HW227690   0.568   1.947   6.724  0.3117 -3.0415 -0.2440
 5353SOL     OW27691   0.498   0.105  16.932 -0.3177 -0.4102 -0.0646
 5353SOL    HW127692   0.575   0.052  16.952  0.7708  2.1054  2.4404
 5353SOL    HW227693   0.426   0.043  16.920 -2.1435  1.0593  3.2207
 5354SOL     OW27694   3.490   0.691   8.597  0.1440 -0.4940 -0.3172
 5354SOL    HW127695   3.520   0.776   8.631  1.4193 -2.3109  3.1066
 5354SOL    HW227696   3.424   0.726   8.537  0.3887 -2.6821 -1.8734
 5355SOL     OW27697   4.509   2.588   8.118 -0.2409 -0.0278  0.2782
 5355SOL    HW127698   4.566   2.599   8.042 -0.4445 -0.7014  0.0224
 5355SOL    HW227699   4.507   2.494   8.138  1.9994  0.0825  1.0362
 5356SOL     OW27700   4.279   4.174  17.617 -0.0488  0.3047  0.0154
 5356SOL    HW127701   4.222   4.243  17.651 -1.9622 -1.0200 -0.5307
 5356SOL    HW227702   4.330   4.152  17.695  1.5148 -2.5694 -1.8287
 5357SOL     OW27703   1.026   0.084   5.779 -0.2341 -0.2448  0.3273
 5357SOL    HW127704   1.119   0.067   5.768 -1.0473 -3.4616 -1.5373
 5357SOL    HW227705   1.031   0.179   5.789 -1.4633 -0.1037 -0.3770
 5358SOL     OW27706   1.671   2.528   2.897 -0.8856  0.0426 -0.3583
 5358SOL    HW127707   1.604   2.473   2.938 -1.5645  0.6784 -0.6135
 5358SOL    HW227708   1.739   2.548   2.961 -0.7937 -0.1885 -0.3842
 5359SOL     OW27709   0.938   2.990  17.388  0.3559  0.0577  0.0596
 5359SOL    HW127710   0.979   3.076  17.399 -1.1540  0.8481 -0.4921
 5359SOL    HW227711   0.937   2.980  17.293  0.2272  3.6754 -0.3474
 5360SOL     OW27712   1.402   2.560   8.084 -0.5729  0.0423 -0.2671
 5360SOL    HW127713   1.354   2.485   8.121 -1.1869 -0.6030 -2.3969
 5360SOL    HW227714   1.377   2.553   7.992 -1.9384  1.6997 -0.0118
 5361SOL     OW27715   0.321   2.728   5.938  0.2544 -0.2632  0.1967
 5361SOL    HW127716   0.400   2.721   5.884 -0.0941  1.8298 -0.5573
 5361SOL    HW227717   0.359   2.721   6.025 -0.6529  2.2975  0.7790
 5362SOL     OW27718   2.387   3.928   6.409 -0.0482  0.4190  0.2549
 5362SOL    HW127719   2.415   3.919   6.318  1.4834  2.0546  0.5529
 5362SOL    HW227720   2.300   3.962   6.388 -1.4909 -2.3727  1.6229
 5363SOL     OW27721   4.106   4.580   4.854 -0.2777 -0.2800 -0.0175
 5363SOL    HW127722   4.091   4.522   4.778  0.6893 -1.3771  0.6262
 5363SOL    HW227723   4.076   4.666   4.825 -1.3960 -0.5052  0.4495
 5364SOL     OW27724   4.010   4.422   4.666  0.1474 -0.4347 -0.4029
 5364SOL    HW127725   3.970   4.338   4.692 -0.4774 -0.4184 -1.3230
 5364SOL    HW227726   4.070   4.379   4.606  0.2976 -0.3286 -0.3274
 5365SOL     OW27727   2.021   4.427  10.465  0.2298 -0.1958 -0.0699
 5365SOL    HW127728   1.945   4.444  10.410  0.6592 -1.4768 -1.0634
 5365SOL    HW227729   2.042   4.338  10.437  0.0703 -0.5445  0.9177
 5366SOL     OW27730   1.241   3.617   9.166 -0.1506  0.8333 -0.0402
 5366SOL    HW127731   1.309   3.671   9.126  1.2622 -1.8943 -1.3304
 5366SOL    HW227732   1.290   3.579   9.238  0.8890  1.8801 -0.2007
 5367SOL     OW27733   4.685   1.066   0.720  0.4760 -0.5035  0.2223
 5367SOL    HW127734   4.590   1.066   0.707  0.1533  0.6867  2.5093
 5367SOL    HW227735   4.716   1.022   0.642  0.6870  1.1849 -0.6585
 5368SOL     OW27736   2.156   3.902   1.992  0.4444 -0.3854  0.2026
 5368SOL    HW127737   2.143   3.856   2.075  0.7473 -1.4363 -0.3311
 5368SOL    HW227738   2.171   3.991   2.025 -0.1109 -0.3394  0.3337
 5369SOL     OW27739   2.620   3.633   6.341  0.3951 -0.0173 -0.3961
 5369SOL    HW127740   2.665   3.553   6.316  0.5263 -1.4702  4.3882
 5369SOL    HW227741   2.695   3.689   6.364 -0.7343  0.4276  2.2066
 5370SOL     OW27742   3.011   1.563   5.424  0.2133 -0.0679 -0.3340
 5370SOL    HW127743   3.010   1.603   5.337 -0.8291 -1.2358 -0.8529
 5370SOL    HW227744   2.931   1.596   5.466  0.2095  0.9342 -1.1219
 5371SOL     OW27745   4.278   1.837   2.330 -0.2575  0.4081 -0.2048
 5371SOL    HW127746   4.273   1.932   2.337  5.0752  1.0230 -4.1166
 5371SOL    HW227747   4.301   1.818   2.421  1.1637 -0.1462 -0.6759
 5372SOL     OW27748   1.278   0.346  12.012  0.8307  0.6330  0.1069
 5372SOL    HW127749   1.304   0.372  11.924 -0.0619  1.3009  0.0425
 5372SOL    HW227750   1.318   0.259  12.018  0.4099  0.5296  1.5064
 5373SOL     OW27751   2.360   2.041   5.533 -0.6955  0.5229  0.1535
 5373SOL    HW127752   2.446   2.083   5.528 -0.0766 -0.9293 -1.7069
 5373SOL    HW227753   2.335   2.012   5.445 -0.4348  0.0793  0.2233
 5374SOL     OW27754   2.001   2.800  10.968 -0.3208  0.4925  0.0171
 5374SOL    HW127755   1.994   2.885  11.012 -1.4997  0.5584 -0.2930
 5374SOL    HW227756   2.035   2.823  10.881  0.1382 -1.6510 -0.3795
 5375SOL     OW27757   0.545   3.246   9.965 -0.4632  0.2244 -0.0441
 5375SOL    HW127758   0.458   3.250  10.003  1.4151  0.0806  4.2570
 5375SOL    HW227759   0.545   3.304   9.889  1.5194  1.7499  1.1162
 5376SOL     OW27760   1.445   2.340   6.950 -0.0382 -0.1594 -0.3746
 5376SOL    HW127761   1.411   2.366   6.864 -0.7261 -1.4450 -0.4817
 5376SOL    HW227762   1.540   2.348   6.944  0.1711 -1.5340  1.4241
 5377SOL     OW27763   2.329   1.013  17.057 -0.2293  0.7174  0.7725
 5377SOL    HW127764   2.308   1.107  17.058  0.3605  0.8437  1.1093
 5377SOL    HW227765   2.254   0.972  17.013  0.0914  0.1919  0.7257
 5378SOL     OW27766   4.194   2.137   1.561  0.0632  0.0838 -0.2991
 5378SOL    HW127767   4.282   2.103   1.545  0.1568  0.1263  0.1032
 5378SOL    HW227768   4.172   2.091   1.642  2.6357 -0.6878 -0.0328
 5379SOL     OW27769   0.081   0.687   5.567 -0.4668 -0.5745 -0.2867
 5379SOL    HW127770   4.736   0.677   5.607 -0.0602  1.8140  1.1765
 5379SOL    HW227771   0.053   0.691   5.476 -2.4085  2.3461  0.4339
 5380SOL     OW27772   3.323   4.445   6.237 -0.1085 -0.1271  0.3124
 5380SOL    HW127773   3.356   4.356   6.231 -0.9578 -0.3976 -0.2901
 5380SOL    HW227774   3.230   4.425   6.247 -0.4190  1.0424 -0.1717
 5381SOL     OW27775   1.461   1.485  11.764 -0.1171 -0.0268  0.4504
 5381SOL    HW127776   1.517   1.413  11.735 -1.2784 -1.4443  1.7820
 5381SOL    HW227777   1.493   1.503  11.852  1.5732  1.8534 -0.5279
 5382SOL     OW27778   1.941   4.236   8.033  0.3311 -0.1390 -0.4059
 5382SOL    HW127779   1.904   4.245   8.121 -0.5407 -1.4215 -0.6358
 5382SOL    HW227780   1.923   4.144   8.014 -0.2850  0.2909 -1.9544
 5383SOL     OW27781   2.446   1.393   1.568 -0.0682  0.1977  0.3860
 5383SOL    HW127782   2.364   1.389   1.617  0.4095 -1.2399  1.0692
 5383SOL    HW227783   2.414   1.449   1.497  0.3306  0.4578  0.4095
 5384SOL     OW27784   2.329   0.092  15.462  0.1050  0.5152  0.0285
 5384SOL    HW127785   2.323   0.151  15.537 -0.1916  0.1086  0.3235
 5384SOL    HW227786   2.285   0.132  15.387 -1.3588 -0.2417  0.4885
 5385SOL     OW27787   2.355   0.093  14.985  0.2250 -0.3022  0.1276
 5385SOL    HW127788   2.371   0.146  15.063 -2.5405 -0.7822  1.0171
 5385SOL    HW227789   2.394   0.146  14.916 -0.5612 -0.4933 -0.4604
 5386SOL     OW27790   4.000   4.708  14.837 -0.7101 -0.1977 -0.1260
 5386SOL    HW127791   3.959   4.649  14.900 -2.4412 -0.0925 -1.1408
 5386SOL    HW227792   4.029   4.632  14.786  0.7886 -1.4575  2.6043
 5387SOL     OW27793   2.063   0.303  13.629  0.6320 -0.1133 -0.0581
 5387SOL    HW127794   2.108   0.378  13.666 -0.7594  1.1785 -0.9548
 5387SOL    HW227795   2.124   0.233  13.604  0.0795 -0.4821 -0.3972
 5388SOL     OW27796   3.319   2.382  14.473 -0.2923 -0.5517  0.7735
 5388SOL    HW127797   3.292   2.342  14.390 -0.4265 -0.6669  0.8725
 5388SOL    HW227798   3.326   2.472  14.442  0.2040 -0.4525  1.1873
 5389SOL     OW27799   3.534   0.628   1.509 -0.6852 -0.1392  0.0681
 5389SOL    HW127800   3.578   0.601   1.429 -3.0102 -2.8682 -0.2852
 5389SOL    HW227801   3.469   0.685   1.467 -0.3333  0.8622  0.8643
 5390SOL     OW27802   4.286   1.121   4.101 -0.3267 -0.0591 -0.5898
 5390SOL    HW127803   4.226   1.135   4.173  0.7745  1.4394  0.0264
 5390SOL    HW227804   4.356   1.179   4.132 -1.2705  1.6140 -1.6104
 5391SOL     OW27805   0.763   1.314   9.415  0.4768 -0.0841 -0.1653
 5391SOL    HW127806   0.757   1.287   9.506 -0.8770 -2.0729 -0.8438
 5391SOL    HW227807   0.858   1.311   9.409  0.3468 -0.4076 -2.1929
 5392SOL     OW27808   0.218   2.308   4.197 -0.8546  0.3395 -0.1049
 5392SOL    HW127809   0.172   2.374   4.249  1.7539  4.2345 -2.7532
 5392SOL    HW227810   0.287   2.363   4.161 -0.5520  0.8621  1.3104
 5393SOL     OW27811   2.352   3.739  16.783 -0.1480 -0.4449  0.2782
 5393SOL    HW127812   2.360   3.771  16.873 -0.5388 -1.5344  0.7073
 5393SOL    HW227813   2.256   3.744  16.781 -0.0977  0.4346  0.2388
 5394SOL     OW27814   3.382   0.436   0.325 -0.0295 -0.4745 -0.1643
 5394SOL    HW127815   3.296   0.457   0.288  0.8031  0.0317 -1.7928
 5394SOL    HW227816   3.440   0.488   0.269 -0.3434 -1.2296 -1.1820
 5395SOL     OW27817   4.050   3.187   2.545  0.6617 -0.6610 -0.5328
 5395SOL    HW127818   4.059   3.171   2.451  0.4638  0.0057 -0.6686
 5395SOL    HW227819   4.123   3.136   2.581  0.0488 -2.5448 -1.9292
 5396SOL     OW27820   3.059   4.466   3.606  0.3148  0.7313 -0.0400
 5396SOL    HW127821   3.154   4.473   3.611  0.3673 -0.6221  0.9869
 5396SOL    HW227822   3.035   4.428   3.691  0.8834 -1.5494 -0.8963
 5397SOL     OW27823   0.776   2.372   6.797 -0.5836  0.1741  0.6133
 5397SOL    HW127824   0.775   2.458   6.756  1.1095  0.1964  0.6296
 5397SOL    HW227825   0.798   2.311   6.726  1.4613  1.4238  0.1929
 5398SOL     OW27826   1.229   1.517  12.904 -0.6222  0.1927  0.9605
 5398SOL    HW127827   1.319   1.525  12.935  0.0462 -0.0540 -0.9034
 5398SOL    HW227828   1.248   1.557  12.819 -1.2066 -0.8472  0.3409
 5399SOL     OW27829   2.673   0.685   7.589  0.4939  0.3476  0.0603
 5399SOL    HW127830   2.584   0.711   7.612 -0.6401 -3.7141  0.1928
 5399SOL    HW227831   2.674   0.709   7.497 -0.2574  0.0968 -0.0120
 5400SOL     OW27832   1.653   4.300   6.041  0.1301 -0.0110  0.5489
 5400SOL    HW127833   1.715   4.231   6.066 -1.3538 -1.4052  0.3279
 5400SOL    HW227834   1.599   4.294   6.120 -0.1056 -1.4815  0.2718
 5401SOL     OW27835   3.919   3.388   8.237 -0.7573 -0.3925  0.4908
 5401SOL    HW127836   3.953   3.300   8.222  0.3657  0.1633 -0.2776
 5401SOL    HW227837   3.892   3.382   8.329  0.8974  2.6246  1.2024
 5402SOL     OW27838   3.064   1.998   2.607  0.0061 -0.1594 -0.0836
 5402SOL    HW127839   3.140   1.944   2.633 -1.3616 -1.6130  0.8965
 5402SOL    HW227840   3.013   1.988   2.687 -0.1340  1.6382  0.0449
 5403SOL     OW27841   0.584   4.045  10.314 -0.3657  0.1017  0.7021
 5403SOL    HW127842   0.645   4.038  10.387  1.1810 -2.4993 -0.8288
 5403SOL    HW227843   0.599   3.963  10.266 -0.1804  1.8733 -2.2881
 5404SOL     OW27844   4.247   2.866  11.989  0.0273  0.4551 -0.1571
 5404SOL    HW127845   4.177   2.931  11.991 -0.3147  0.1447 -1.6425
 5404SOL    HW227846   4.316   2.911  12.038  2.5266 -2.9941 -0.4841
 5405SOL     OW27847   1.332   4.280   7.406  0.1392  0.4206  0.2433
 5405SOL    HW127848   1.377   4.333   7.341  0.8675  0.5291  0.8303
 5405SOL    HW227849   1.395   4.298   7.476  2.0224 -0.8687 -1.1497
 5406SOL     OW27850   4.446   4.006  15.322  0.0952 -0.3007 -0.1382
 5406SOL    HW127851   4.384   3.934  15.333 -0.6059  0.4764  1.1125
 5406SOL    HW227852   4.478   3.978  15.236 -0.7688 -0.5004 -0.4009
 5407SOL     OW27853   2.213   2.585  10.298 -0.1830 -0.3704 -0.3957
 5407SOL    HW127854   2.269   2.508  10.287  1.8105  0.8406  1.2719
 5407SOL    HW227855   2.258   2.660  10.258  1.0936 -2.3012 -2.6220
 5408SOL     OW27856   3.985   3.294   3.449  0.0862  0.2393  0.2015
 5408SOL    HW127857   3.989   3.389   3.452  1.4023  0.2130 -0.8084
 5408SOL    HW227858   4.074   3.271   3.420 -0.5602 -1.6157 -0.3651
 5409SOL     OW27859   3.869   0.852   4.796  0.2309 -0.1763  0.1435
 5409SOL    HW127860   3.855   0.841   4.702  0.8815  0.2958 -0.0085
 5409SOL    HW227861   3.961   0.837   4.817  0.0988  0.2671  1.0729
 5410SOL     OW27862   1.204   3.505   2.282 -0.3315 -0.3639 -0.3178
 5410SOL    HW127863   1.237   3.422   2.317  0.9949 -0.8958 -2.7935
 5410SOL    HW227864   1.135   3.468   2.227  1.5747 -0.8004 -2.4368
 5411SOL     OW27865   4.213   4.727   5.620 -0.4544 -0.2953 -0.8101
 5411SOL    HW127866   4.262   0.061   5.653 -2.9865  0.9113  0.2400
 5411SOL    HW227867   4.129   0.020   5.589 -0.3772  1.2249  0.6513
 5412SOL     OW27868   0.596   1.012   3.600  0.4893  0.2487  0.0049
 5412SOL    HW127869   0.529   0.978   3.659  0.1098 -0.3799 -0.7996
 5412SOL    HW227870   0.647   0.933   3.586  1.4691  0.6740  1.1348
 5413SOL     OW27871   3.339   1.495  17.666 -0.4835 -0.0917  0.2414
 5413SOL    HW127872   3.299   1.576  17.637 -0.0896 -0.6612 -1.9274
 5413SOL    HW227873   3.370   1.461  17.581 -0.3825  1.2647 -0.2604
 5414SOL     OW27874   1.739   1.874   9.653  0.1842 -0.0819 -0.4176
 5414SOL    HW127875   1.760   1.910   9.740  0.7317 -1.3039 -0.0371
 5414SOL    HW227876   1.677   1.941   9.624  1.2553  0.2851 -1.8632
 5415SOL     OW27877   1.865   0.603  10.229 -0.3261  0.0968  0.5265
 5415SOL    HW127878   1.879   0.698  10.224  0.0612 -0.0408 -0.9154
 5415SOL    HW227879   1.815   0.597  10.311 -1.0185  1.9859  0.2320
 5416SOL     OW27880   2.051   2.921   9.864  0.2815  0.9368 -0.2228
 5416SOL    HW127881   1.979   2.867   9.894  1.3501 -1.4304 -1.8909
 5416SOL    HW227882   2.097   2.965   9.936  0.2977  0.0104  0.3322
 5417SOL     OW27883   1.186   1.614   4.042  0.0040  0.5901  0.0442
 5417SOL    HW127884   1.113   1.567   4.082  2.0933 -0.0421  3.0113
 5417SOL    HW227885   1.256   1.610   4.107 -0.1940 -0.2474  0.1999
 5418SOL     OW27886   1.002   3.239  17.395  0.3520  0.0756  0.3666
 5418SOL    HW127887   1.032   3.294  17.468 -1.5402  0.6577  0.7061
 5418SOL    HW227888   0.958   3.297  17.333  0.0793  1.2065  1.5945
 5419SOL     OW27889   3.341   3.033  12.155  0.1466  0.7143  0.1405
 5419SOL    HW127890   3.343   2.972  12.081  0.0426  0.6365  0.2009
 5419SOL    HW227891   3.248   3.055  12.159  0.1771  0.8460  0.1104
 5420SOL     OW27892   2.141   0.453   7.694  0.5365 -0.2054 -0.4112
 5420SOL    HW127893   2.145   0.422   7.785 -1.8205  1.5562  0.3029
 5420SOL    HW227894   2.081   0.389   7.656  1.3613  0.0349 -2.1291
 5421SOL     OW27895   2.690   4.512  14.630 -0.6169  0.2733 -0.0809
 5421SOL    HW127896   2.638   4.548  14.558 -2.6004 -0.2061  1.0942
 5421SOL    HW227897   2.689   4.584  14.693  0.6037 -0.4439  0.7685
 5422SOL     OW27898   1.260   2.055   1.386 -0.4025 -0.3334  0.4557
 5422SOL    HW127899   1.322   2.120   1.418  1.1340 -1.7349  0.3736
 5422SOL    HW227900   1.229   2.042   1.475  0.9753  0.0526  0.9859
 5423SOL     OW27901   1.699   3.203   7.059  0.5372  0.4115  0.0133
 5423SOL    HW127902   1.733   3.158   7.137  1.7129  0.6985 -0.3264
 5423SOL    HW227903   1.768   3.269   7.063 -0.4195  1.5477 -2.4516
 5424SOL     OW27904   4.147   3.529   4.752 -0.3865  0.3154  0.0328
 5424SOL    HW127905   4.148   3.457   4.814  3.1444  1.2560  1.0757
 5424SOL    HW227906   4.141   3.603   4.812  0.2160  0.8189 -0.5168
 5425SOL     OW27907   3.915   4.548   4.095 -0.6923  0.1716 -0.4312
 5425SOL    HW127908   3.906   4.576   4.004  2.1306  2.5397  0.0292
 5425SOL    HW227909   3.848   4.480   4.101 -0.5353  0.0418 -0.1433
 5426SOL     OW27910   0.099   4.626   3.324 -0.0045 -0.1304  0.2440
 5426SOL    HW127911   0.143   4.662   3.247  0.1404 -1.1380 -0.1489
 5426SOL    HW227912   0.123   4.533   3.327 -2.0121 -0.7287 -1.8012
 5427SOL     OW27913   0.976   0.208   4.370  0.1996  0.3304  0.1663
 5427SOL    HW127914   0.994   0.294   4.409  1.9459  0.1837 -0.3116
 5427SOL    HW227915   1.061   0.187   4.331  0.2903 -0.8686  1.0333
 5428SOL     OW27916   0.443   2.638   8.853 -0.2919 -0.2521 -0.0918
 5428SOL    HW127917   0.493   2.570   8.899  0.1863  0.2788  0.1662
 5428SOL    HW227918   0.509   2.665   8.789  1.0425 -0.5775  1.1513
 5429SOL     OW27919   3.544   3.919  14.632 -0.0565  0.0323 -0.0247
 5429SOL    HW127920   3.586   3.913  14.718  0.2576 -0.8083 -0.2414
 5429SOL    HW227921   3.613   3.954  14.575 -0.9955  1.7593 -0.0922
 5430SOL     OW27922   2.706   1.070   0.024  0.0844 -0.0327 -0.1983
 5430SOL    HW127923   2.740   1.138   0.082 -0.5731 -1.1302  1.4600
 5430SOL    HW227924   2.674   1.007   0.089  0.6170 -1.6543 -1.4987
 5431SOL     OW27925   3.464   1.424   5.969 -0.0306  0.5274  0.0609
 5431SOL    HW127926   3.445   1.334   5.944 -0.3801  0.4704  0.5379
 5431SOL    HW227927   3.409   1.429   6.047  1.0166  0.5984  0.7932
 5432SOL     OW27928   0.516   3.232   2.113 -0.1681  0.1130 -0.1635
 5432SOL    HW127929   0.427   3.227   2.077 -0.1359  1.9800 -0.4699
 5432SOL    HW227930   0.518   3.197   2.203 -0.4977 -3.7581 -1.6375
 5433SOL     OW27931   1.640   0.445  16.705 -0.1218  0.5532 -0.5070
 5433SOL    HW127932   1.593   0.448  16.788  0.4520  2.5023 -0.2557
 5433SOL    HW227933   1.613   0.527  16.663  0.2460  1.7127  1.5385
 5434SOL     OW27934   1.068   2.838   6.700 -0.0502 -0.0643 -0.5367
 5434SOL    HW127935   1.046   2.922   6.661  0.7080  0.3173 -0.1203
 5434SOL    HW227936   1.158   2.855   6.726  0.3100 -1.3570 -0.9419
 5435SOL     OW27937   4.386   1.106   8.860 -0.6102 -0.0316  0.3957
 5435SOL    HW127938   4.362   1.049   8.933 -0.9312 -0.1472  0.1989
 5435SOL    HW227939   4.307   1.155   8.836 -0.3137 -0.3361 -1.2070
 5436SOL     OW27940   1.785   1.027   7.068  0.0253  0.7191 -0.5980
 5436SOL    HW127941   1.793   1.014   7.163  1.9638  0.4926 -0.8000
 5436SOL    HW227942   1.854   0.974   7.028 -1.1684 -1.2073 -0.1093
 5437SOL     OW27943   4.654   1.425   3.472 -0.0678 -0.1594  0.2484
 5437SOL    HW127944   4.671   1.505   3.422 -0.4827 -1.2768 -1.6762
 5437SOL    HW227945   0.002   1.390   3.472  0.1113  0.2978  0.0642
 5438SOL     OW27946   0.057   1.548   7.439 -0.1414 -0.2403  0.8655
 5438SOL    HW127947   0.077   1.529   7.347  4.1559 -1.4985  2.0304
 5438SOL    HW227948   0.129   1.608   7.458 -0.2148  0.3974 -0.8847
 5439SOL     OW27949   1.837   3.728   9.501  0.1476 -0.3224  0.8266
 5439SOL    HW127950   1.842   3.811   9.548  3.2849 -0.4355  0.6800
 5439SOL    HW227951   1.853   3.669   9.575  0.9587  0.0519  0.9535
 5440SOL     OW27952   4.002   2.257   7.814 -0.2632  0.5565  0.6043
 5440SOL    HW127953   4.056   2.256   7.734 -2.7490  1.5534 -1.0749
 5440SOL    HW227954   4.066   2.246   7.885  1.0695  3.3579 -0.1527
 5441SOL     OW27955   0.743   3.805   9.738 -0.0522  0.0339 -0.2329
 5441SOL    HW127956   0.764   3.761   9.820 -1.0621  1.5083  0.8134
 5441SOL    HW227957   0.695   3.881   9.772 -0.1736 -0.1572  0.0293
 5442SOL     OW27958   3.593   3.964  15.711  0.0783 -0.0737  0.2098
 5442SOL    HW127959   3.634   4.014  15.640 -1.7090 -0.5779 -1.1715
 5442SOL    HW227960   3.611   4.019  15.788  0.9524 -1.3062  0.8868
 5443SOL     OW27961   3.126   3.238   8.345 -0.6625  0.0646  0.2209
 5443SOL    HW127962   3.149   3.331   8.351 -0.6962  0.2098 -2.0118
 5443SOL    HW227963   3.108   3.225   8.252 -0.9124  0.6262  0.1933
 5444SOL     OW27964   2.984   3.624   5.981  0.1434  0.2981  0.3975
 5444SOL    HW127965   3.001   3.689   6.050  0.4129  1.1373 -0.4558
 5444SOL    HW227966   2.919   3.671   5.929  0.0384  0.0523  0.3084
 5445SOL     OW27967   0.378   4.145   9.682 -0.8132  0.1344 -0.3417
 5445SOL    HW127968   0.434   4.098   9.621 -0.2296  1.3360 -0.7230
 5445SOL    HW227969   0.414   4.232   9.666 -0.2337  0.2694  1.7151
 5446SOL     OW27970   3.387   0.420   0.603 -0.6216 -0.3867  0.4349
 5446SOL    HW127971   3.483   0.419   0.610 -0.5661 -0.8583 -0.3780
 5446SOL    HW227972   3.373   0.392   0.513  0.9236 -1.4428  0.5327
 5447SOL     OW27973   2.489   1.201   0.489 -0.5437 -0.2789  0.4971
 5447SOL    HW127974   2.553   1.253   0.537 -0.3811  1.2131 -1.3059
 5447SOL    HW227975   2.541   1.123   0.471  0.4200  0.4651  0.0554
 5448SOL     OW27976   4.735   1.981   8.617  0.0733  0.7270  0.0591
 5448SOL    HW127977   4.662   1.970   8.556  0.8707 -2.4565 -0.3370
 5448SOL    HW227978   0.016   1.889   8.633 -1.6750  0.1382 -0.8589
 5449SOL     OW27979   1.086   0.762   7.945  0.3733  0.0909 -0.2474
 5449SOL    HW127980   1.107   0.787   7.855  1.8254  0.8551  0.2918
 5449SOL    HW227981   1.026   0.835   7.960  0.1314  0.3389 -2.4577
 5450SOL     OW27982   1.760   4.148   7.476  0.6728  0.1944 -0.1314
 5450SOL    HW127983   1.680   4.154   7.528 -0.0832 -1.7002 -1.0832
 5450SOL    HW227984   1.740   4.208   7.404  1.1932 -0.1963 -0.6008
 5451SOL     OW27985   0.672   2.181   1.619  0.3165 -0.3556 -0.0251
 5451SOL    HW127986   0.625   2.124   1.559  0.2421 -0.1128 -0.1952
 5451SOL    HW227987   0.603   2.246   1.631  1.2631  0.7441 -0.5661
 5452SOL     OW27988   4.034   3.494   5.459 -0.3191 -0.1011 -0.0467
 5452SOL    HW127989   4.124   3.495   5.428  0.1096 -1.5536  1.1628
 5452SOL    HW227990   3.993   3.552   5.395 -3.0460  0.0774  1.8547
 5453SOL     OW27991   2.448   1.679  16.431 -0.1031 -0.0901 -0.4484
 5453SOL    HW127992   2.528   1.732  16.430  0.9030 -1.6294 -1.7643
 5453SOL    HW227993   2.484   1.601  16.472 -1.4453  0.7246  2.2568
 5454SOL     OW27994   4.172   4.496   3.494 -0.7870 -0.2041 -0.7716
 5454SOL    HW127995   4.157   4.450   3.576 -0.5237  0.4590 -0.3503
 5454SOL    HW227996   4.226   4.572   3.516  0.9561 -2.0513  1.2340
 5455SOL     OW27997   2.584   4.297   8.227  0.1459 -0.3310  0.6191
 5455SOL    HW127998   2.643   4.371   8.219  1.0049 -0.8221  2.4021
 5455SOL    HW227999   2.498   4.337   8.225  0.8408  1.1476  0.1513
 5456SOL     OW28000   3.169   2.090  15.344 -0.4417  0.6322 -0.4721
 5456SOL    HW128001   3.249   2.105  15.293  0.2584 -2.0097 -0.1318
 5456SOL    HW228002   3.116   2.151  15.292 -2.7287  0.3629  1.5293
 5457SOL     OW28003   1.149   4.304   9.370  0.3193  0.2260 -0.8428
 5457SOL    HW128004   1.171   4.317   9.463  0.0267 -3.6145 -0.2294
 5457SOL    HW228005   1.133   4.395   9.346 -0.2165  0.2723 -0.3374
 5458SOL     OW28006   1.403   3.686   2.343 -0.4296 -0.1767 -0.0463
 5458SOL    HW128007   1.458   3.621   2.386  1.9457 -0.1153 -2.9288
 5458SOL    HW228008   1.330   3.633   2.313 -0.0357 -0.4292 -0.5495
 5459SOL     OW28009   4.249   1.411   4.776  0.3454  0.2819 -0.1882
 5459SOL    HW128010   4.268   1.390   4.685 -2.1925 -2.4154 -0.1019
 5459SOL    HW228011   4.332   1.445   4.809  0.9670 -0.4078 -1.0614
 5460SOL     OW28012   0.436   2.883   5.129  0.1070 -0.2875 -0.0464
 5460SOL    HW128013   0.347   2.871   5.163 -0.6270 -0.9817 -2.2050
 5460SOL    HW228014   0.454   2.975   5.147 -0.7156  0.0296 -0.8638
 5461SOL     OW28015   2.606   1.239   1.356 -0.3821  0.0148  0.5741
 5461SOL    HW128016   2.546   1.274   1.291 -0.0148 -0.8175 -0.2082
 5461SOL    HW228017   2.573   1.277   1.437  1.4626  2.9145 -0.0091
 5462SOL     OW28018   0.131   4.392   6.818 -0.9167 -0.7084  0.0105
 5462SOL    HW128019   0.062   4.338   6.779 -1.3367  0.4361 -0.8466
 5462SOL    HW228020   0.213   4.369   6.776  0.1671  2.0906  0.5453
 5463SOL     OW28021   1.147   0.307   9.031 -0.2857 -0.1719 -0.6535
 5463SOL    HW128022   1.227   0.344   9.069 -0.7665  0.1923  0.0042
 5463SOL    HW228023   1.092   0.311   9.108  0.5994  0.3357 -0.0421
 5464SOL     OW28024   0.881   2.144  10.104  0.2880 -0.1392 -0.3741
 5464SOL    HW128025   0.856   2.149  10.196  2.9925  1.9913  0.2719
 5464SOL    HW228026   0.822   2.082  10.062  0.6677 -2.5656  2.6718
 5465SOL     OW28027   4.714   1.966   5.309 -0.1519  0.4501 -0.1429
 5465SOL    HW128028   4.639   2.004   5.354  0.8464  0.9878  1.0648
 5465SOL    HW228029   0.038   1.971   5.379  0.2739  0.3881 -0.5328
 5466SOL     OW28030   1.407   4.077   8.508  0.6254  0.6792  0.5300
 5466SOL    HW128031   1.372   4.120   8.587 -1.9419  1.0426 -0.8162
 5466SOL    HW228032   1.355   3.997   8.504  2.5743 -0.5750  0.3723
 5467SOL     OW28033   3.339   0.424   5.443 -0.2262 -0.2351  0.1500
 5467SOL    HW128034   3.331   0.511   5.403  0.7039 -0.3740 -0.3471
 5467SOL    HW228035   3.342   0.376   5.361  1.3810 -0.5996  0.4103
 5468SOL     OW28036   1.430   4.425  14.239 -0.2288 -0.3009 -0.1271
 5468SOL    HW128037   1.378   4.487  14.291 -0.7698 -0.0376 -0.9684
 5468SOL    HW228038   1.433   4.347  14.294 -0.1355  0.3791  0.8207
 5469SOL     OW28039   0.323   4.326   2.251 -0.2277  0.0256 -0.1349
 5469SOL    HW128040   0.342   4.324   2.158  0.0729  0.4794 -0.0841
 5469SOL    HW228041   0.398   4.281   2.289 -0.3102  1.5074  1.8023
 5470SOL     OW28042   1.071   1.158   5.828  0.2696  0.3857 -0.3032
 5470SOL    HW128043   1.042   1.229   5.771 -2.5976  0.8220  1.6954
 5470SOL    HW228044   1.160   1.141   5.797  0.1441 -0.0129 -0.4355
 5471SOL     OW28045   3.940   4.388   7.755  0.9909  0.2616 -0.0210
 5471SOL    HW128046   3.894   4.417   7.834  0.2764 -2.4479  0.5764
 5471SOL    HW228047   3.985   4.309   7.785  1.7060 -0.5784 -3.3478
 5472SOL     OW28048   1.708   2.983   5.770  0.1439  0.0206 -0.5962
 5472SOL    HW128049   1.690   3.056   5.830 -2.3693 -0.6744 -0.5001
 5472SOL    HW228050   1.630   2.928   5.781  0.0044  0.2151 -0.6060
 5473SOL     OW28051   0.227   2.426   5.417  0.1020 -0.4428  0.3033
 5473SOL    HW128052   0.172   2.399   5.491  1.3933 -1.8926  0.7378
 5473SOL    HW228053   0.235   2.519   5.436  1.6420 -0.1237 -1.9626
 5474SOL     OW28054   0.144   2.291   6.725  0.3090  0.1277 -0.4129
 5474SOL    HW128055   0.184   2.357   6.669  2.3250 -0.0215  0.8321
 5474SOL    HW228056   0.160   2.211   6.675  0.4019  0.1625 -0.4379
 5475SOL     OW28057   3.025   0.345  12.050  0.1219  0.1600 -0.1236
 5475SOL    HW128058   3.102   0.289  12.060 -1.6028 -1.9817  1.1292
 5475SOL    HW228059   2.963   0.275  12.028  1.4092 -0.8159 -0.6340
 5476SOL     OW28060   0.535   1.164   3.893  0.1000  0.0664  0.0177
 5476SOL    HW128061   0.501   1.208   3.972  1.4009  0.1788  0.5239
 5476SOL    HW228062   0.488   1.217   3.829  0.9680  0.8081 -0.0095
 5477SOL     OW28063   2.071   2.832   9.365  0.4294  0.1068  0.8861
 5477SOL    HW128064   2.096   2.890   9.293 -0.6528 -0.5130  0.0008
 5477SOL    HW228065   2.145   2.771   9.364  1.0482  0.8189  3.0957
 5478SOL     OW28066   2.130   3.012   9.172  0.0294  0.1707 -0.1781
 5478SOL    HW128067   2.183   3.085   9.141  0.6947 -0.6973 -1.0698
 5478SOL    HW228068   2.039   3.041   9.169  0.7806  2.5889  0.5905
 5479SOL     OW28069   1.270   2.217   6.082 -0.0932  0.1902  0.0621
 5479SOL    HW128070   1.331   2.142   6.081  1.2167  1.2477  1.7685
 5479SOL    HW228071   1.295   2.263   6.002  1.1879 -1.7947 -0.6943
 5480SOL     OW28072   3.681   1.122  12.339 -0.3375 -0.4881 -0.3758
 5480SOL    HW128073   3.629   1.081  12.407  1.8850 -0.7096  1.2014
 5480SOL    HW228074   3.765   1.140  12.383 -0.9361  0.7902  0.2523
 5481SOL     OW28075   0.867   3.954   5.993 -0.4721  0.4582  0.2719
 5481SOL    HW128076   0.862   4.024   6.058  2.0811  0.1051  0.8591
 5481SOL    HW228077   0.927   3.991   5.928 -1.5638 -0.8968 -1.5027
 5482SOL     OW28078   0.204   2.429  15.296  0.0545  0.2600  0.4685
 5482SOL    HW128079   0.248   2.349  15.325 -0.3860 -0.1825 -0.0845
 5482SOL    HW228080   0.271   2.460  15.235 -0.0514 -0.3274  0.0511
 5483SOL     OW28081   3.145   4.687   0.882 -0.1290 -0.0929  0.2144
 5483SOL    HW128082   3.208   0.001   0.926  1.1429 -0.9261 -0.5625
 5483SOL    HW228083   3.181   4.701   0.794 -2.1084  0.1798 -0.5586
 5484SOL     OW28084   3.730   2.510   5.318 -0.4050 -0.2225 -0.2387
 5484SOL    HW128085   3.728   2.593   5.365  3.2547 -1.3866  1.9927
 5484SOL    HW228086   3.786   2.517   5.241  3.1521  2.2546  2.5493
 5485SOL     OW28087   4.290   4.379   6.940 -0.3973 -0.3029  0.2216
 5485SOL    HW128088   4.291   4.339   7.027  0.6260  1.6552  1.1175
 5485SOL    HW228089   4.374   4.425   6.947 -0.5665 -0.2582  1.8890
 5486SOL     OW28090   1.535   0.731   1.869  0.0301 -0.2359  0.0005
 5486SOL    HW128091   1.544   0.687   1.785  0.2435 -0.0428 -0.0767
 5486SOL    HW228092   1.498   0.815   1.844 -2.5691 -1.0312  1.1714
 5487SOL     OW28093   3.148   2.267   2.573 -0.4221  0.6854 -0.2264
 5487SOL    HW128094   3.157   2.266   2.478 -1.6224 -2.4564 -0.3051
 5487SOL    HW228095   3.115   2.179   2.590  0.2106  0.7560  1.3512
 5488SOL     OW28096   2.523   3.156   6.725  0.2768 -0.5990 -0.1567
 5488SOL    HW128097   2.590   3.107   6.772 -1.0869 -0.8675  1.5177
 5488SOL    HW228098   2.551   3.128   6.638  2.4606 -0.3771  0.4833
 5489SOL     OW28099   3.096   1.224   2.277 -0.6811 -0.7079 -0.3000
 5489SOL    HW128100   3.037   1.155   2.309 -1.1945 -1.2304 -2.4051
 5489SOL    HW228101   3.043   1.285   2.226  1.9652 -0.7635 -3.0428
 5490SOL     OW28102   0.298   3.351  13.829  0.3160  0.2256  0.1633
 5490SOL    HW128103   0.342   3.347  13.744 -0.6448 -3.1665 -0.1936
 5490SOL    HW228104   0.216   3.306  13.808  0.1426  0.4771  0.3075
 5491SOL     OW28105   1.913   2.217   3.312 -0.1737  0.3496  0.6449
 5491SOL    HW128106   1.973   2.161   3.264  0.6866  1.6267  0.2350
 5491SOL    HW228107   1.963   2.259   3.382  0.8086 -0.5801  0.5024
 5492SOL     OW28108   0.403   3.493   0.023  0.4016  0.1964 -0.4415
 5492SOL    HW128109   0.401   3.495  17.691  0.7276  2.5876 -0.4117
 5492SOL    HW228110   0.404   3.587   0.042 -0.7518  0.5644 -2.2186
 5493SOL     OW28111   4.188   4.234   8.575  0.0170 -0.4142  0.1525
 5493SOL    HW128112   4.261   4.172   8.577 -0.1534 -0.5942  0.7271
 5493SOL    HW228113   4.136   4.213   8.497  2.2714 -0.6001 -1.3110
 5494SOL     OW28114   0.820   3.141   4.805 -0.3653  0.2535 -1.0481
 5494SOL    HW128115   0.740   3.089   4.796 -1.1107  1.2875 -0.4005
 5494SOL    HW228116   0.786   3.214   4.754 -1.1938 -0.9347 -2.1890
 5495SOL     OW28117   1.456   3.440   7.954 -0.1269  0.8904 -0.4297
 5495SOL    HW128118   1.434   3.437   7.861 -0.9622  0.8347 -0.2323
 5495SOL    HW228119   1.549   3.458   7.945  0.1241 -0.7363 -0.9313
 5496SOL     OW28120   2.508   3.768  10.649 -0.0228 -1.3204  0.1705
 5496SOL    HW128121   2.494   3.720  10.567 -2.4539  0.6343 -0.5618
 5496SOL    HW228122   2.575   3.827  10.615  0.5319 -0.4906  2.7011
 5497SOL     OW28123   3.457   2.453   6.985  0.2984 -0.0047 -0.2454
 5497SOL    HW128124   3.367   2.431   6.960  0.4741  0.1433 -0.9997
 5497SOL    HW228125   3.504   2.420   6.909 -0.4533  1.3415 -1.3054
 5498SOL     OW28126   4.160   4.356   2.980 -0.0766 -0.3654  0.5556
 5498SOL    HW128127   4.186   4.292   3.047 -1.3588 -0.6116  0.8079
 5498SOL    HW228128   4.244   4.396   2.955  0.5409 -1.4791  0.8379
 5499SOL     OW28129   2.770   0.200  17.413 -0.1447 -0.2724 -0.0449
 5499SOL    HW128130   2.759   0.210  17.318 -0.3263  0.0097  0.0060
 5499SOL    HW228131   2.773   0.293  17.437  1.3360 -0.1162 -0.8025
 5500SOL     OW28132   4.311   2.454  13.275 -0.2525 -0.0172  0.4451
 5500SOL    HW128133   4.397   2.436  13.313 -0.5321 -0.2585  0.9708
 5500SOL    HW228134   4.271   2.509  13.342  2.6383  0.9831  1.3420
 5501SOL     OW28135   3.885   4.573   3.081  0.4547  0.1474  0.6188
 5501SOL    HW128136   3.871   4.478   3.082  3.6347 -0.3618 -0.3880
 5501SOL    HW228137   3.892   4.595   3.174  0.6555  0.3042  0.5675
 5502SOL     OW28138   2.082   3.760  16.762 -0.2579 -0.0665 -0.2121
 5502SOL    HW128139   2.006   3.795  16.808  0.1703 -0.2378  0.6348
 5502SOL    HW228140   2.053   3.758  16.671 -0.4737  1.1579 -0.1668
 5503SOL     OW28141   0.089   2.448  11.880 -0.3622 -0.3940 -0.0800
 5503SOL    HW128142   0.150   2.457  11.807  1.0460 -0.8871  1.0355
 5503SOL    HW228143   0.131   2.370  11.916 -0.3718 -0.2819  0.1731
 5504SOL     OW28144   3.254   2.974   4.791 -0.4075  0.6370 -0.4705
 5504SOL    HW128145   3.346   2.962   4.814 -0.5436 -0.3712 -0.4484
 5504SOL    HW228146   3.266   3.011   4.703 -0.5787  0.2650 -0.6506
 5505SOL     OW28147   2.751   1.400   2.516 -0.2376  0.3949  0.5193
 5505SOL    HW128148   2.670   1.394   2.568 -1.3335 -1.3280 -1.3789
 5505SOL    HW228149   2.733   1.348   2.438 -1.3537 -0.3372  1.2572
 5506SOL     OW28150   0.326   4.320   1.956  0.7063  0.6946  0.1584
 5506SOL    HW128151   0.339   4.237   1.911 -0.8667  0.4528  0.1685
 5506SOL    HW228152   0.269   4.365   1.894  0.6872  0.2747 -0.1233
 5507SOL     OW28153   0.269   3.113   9.474 -0.1332 -0.0875 -0.1284
 5507SOL    HW128154   0.277   3.129   9.568 -0.2894  1.7118 -0.4147
 5507SOL    HW228155   0.250   3.196   9.429  2.0157  0.3251 -0.2398
 5508SOL     OW28156   0.042   3.248   7.171 -0.1337  0.1976  0.1272
 5508SOL    HW128157   0.112   3.184   7.160 -1.0653 -0.9448  0.8780
 5508SOL    HW228158   0.098   3.323   7.193 -2.8487  2.0048  0.7746
 5509SOL     OW28159   1.379   1.597   6.523  0.3713 -0.1444  0.3362
 5509SOL    HW128160   1.344   1.672   6.570 -1.1630 -0.4824 -0.2774
 5509SOL    HW228161   1.302   1.543   6.509 -3.2257  5.3316 -0.9182
 5510SOL     OW28162   0.085   2.269   0.387  0.0815 -0.2781 -0.1952
 5510SOL    HW128163   0.028   2.220   0.445 -0.6827  0.8716  0.0299
 5510SOL    HW228164   0.030   2.275   0.309 -1.3674  1.2078  0.9419
 5511SOL     OW28165   1.971   2.141  10.373  0.1786 -0.0145 -0.0270
 5511SOL    HW128166   1.987   2.195  10.296 -0.8426 -0.1873 -0.3720
 5511SOL    HW228167   1.892   2.172  10.418 -0.6944 -0.3271 -1.3373
 5512SOL     OW28168   0.952   1.457   6.772 -0.3558 -0.6741  0.1496
 5512SOL    HW128169   1.045   1.435   6.778 -0.3140 -0.4721  0.2423
 5512SOL    HW228170   0.932   1.422   6.685  2.1547  0.1952 -0.7820
 5513SOL     OW28171   2.085   0.975   7.686  0.2516  0.4234  0.3657
 5513SOL    HW128172   2.176   0.992   7.662  0.6707 -2.3497  0.0041
 5513SOL    HW228173   2.103   0.882   7.699  1.6261  0.7352  0.6417
 5514SOL     OW28174   3.544   4.461   7.031  0.1922 -0.1488 -0.1208
 5514SOL    HW128175   3.448   4.463   7.023  0.4919 -0.5994 -3.8308
 5514SOL    HW228176   3.572   4.497   6.947 -0.1752  0.5597  0.0631
 5515SOL     OW28177   0.469   4.565   5.023 -0.0572  0.2002 -0.1178
 5515SOL    HW128178   0.448   4.560   4.930  1.2282  0.1088 -0.4098
 5515SOL    HW228179   0.530   4.638   5.009  1.4493 -0.2598  3.9917
 5516SOL     OW28180   2.913   1.495   2.891  0.8997 -0.2884 -0.1913
 5516SOL    HW128181   2.965   1.576   2.896 -0.7438  0.7564  0.2150
 5516SOL    HW228182   2.983   1.445   2.850 -0.4507 -2.8593  0.6439
 5517SOL     OW28183   0.021   3.875   6.274 -0.3388 -0.2564  0.7423
 5517SOL    HW128184   0.112   3.845   6.279 -0.8290 -1.7781  0.5704
 5517SOL    HW228185   0.035   3.969   6.281  0.2454 -0.2992  0.2123
 5518SOL     OW28186   3.936   3.095   2.080 -0.0041 -0.3690 -0.4246
 5518SOL    HW128187   3.974   3.017   2.039  2.3715 -0.9479  2.7979
 5518SOL    HW228188   3.843   3.080   2.065 -0.1843 -0.4592  0.7867
 5519SOL     OW28189   2.487   0.898   4.871 -0.0835 -0.0321  0.7924
 5519SOL    HW128190   2.487   0.803   4.880 -0.6778 -0.0788  0.3042
 5519SOL    HW228191   2.565   0.911   4.925  0.8267 -1.1515 -0.2486
 5520SOL     OW28192   1.554   2.315   7.350 -0.1120 -0.1797  0.1319
 5520SOL    HW128193   1.489   2.289   7.285  0.6443 -3.0739  0.5218
 5520SOL    HW228194   1.617   2.243   7.349  1.6048  1.3728 -2.7616
 5521SOL     OW28195   1.362   1.189   8.822 -0.1344  0.6289  0.2571
 5521SOL    HW128196   1.442   1.145   8.794  0.2303  0.6225  1.3336
 5521SOL    HW228197   1.382   1.282   8.810  0.1451  0.2687 -2.1155
 5522SOL     OW28198   3.350   2.030   2.089  0.1468 -0.0761  0.1896
 5522SOL    HW128199   3.417   2.013   2.156 -0.0052 -0.9536  0.1202
 5522SOL    HW228200   3.283   1.975   2.129  0.3336 -0.9619 -0.7431
 5523SOL     OW28201   3.200   2.637   4.121  0.1957 -0.1441 -0.3228
 5523SOL    HW128202   3.109   2.661   4.105  0.3849 -0.1558 -1.4659
 5523SOL    HW228203   3.215   2.562   4.062 -0.4943  2.1233 -3.3822
 5524SOL     OW28204   2.368   2.120   2.308  0.4391 -0.6802 -0.0144
 5524SOL    HW128205   2.346   2.192   2.367  0.0870 -1.4668  0.8210
 5524SOL    HW228206   2.400   2.179   2.240  0.2101 -2.0619 -1.3473
 5525SOL     OW28207   1.178   0.370   6.607  0.3979 -0.1924 -0.3915
 5525SOL    HW128208   1.248   0.353   6.543 -0.6467 -2.7078 -0.8484
 5525SOL    HW228209   1.233   0.404   6.678 -1.5159 -1.4978  1.7125
 5526SOL     OW28210   2.356   2.830   3.101 -0.4338  0.6567  0.1722
 5526SOL    HW128211   2.327   2.740   3.110 -0.6804  0.6885 -0.3206
 5526SOL    HW228212   2.451   2.819   3.111 -0.3750 -0.4775 -1.7220
 5527SOL     OW28213   3.948   4.724   8.035 -0.0812 -0.3677  0.4035
 5527SOL    HW128214   4.008   0.054   8.014  0.7940 -1.0529  0.5917
 5527SOL    HW228215   3.907   0.024   8.111 -2.4340 -1.7662 -0.1064
 5528SOL     OW28216   2.907   2.765   7.390  0.0682 -0.4393  0.2987
 5528SOL    HW128217   2.872   2.739   7.475  0.8099  0.2616  0.8174
 5528SOL    HW228218   2.996   2.790   7.415 -0.5635  1.4421  0.7091
 5529SOL     OW28219   1.648   1.617   5.937 -0.7897 -0.0622  0.6972
 5529SOL    HW128220   1.580   1.551   5.950  0.2297 -1.1530  0.3894
 5529SOL    HW228221   1.654   1.645   6.028 -0.2746 -0.1603  0.6901
 5530SOL     OW28222   2.825   0.345   9.064 -0.5500  0.1997 -0.3641
 5530SOL    HW128223   2.769   0.423   9.064  0.5400  0.9845 -0.1354
 5530SOL    HW228224   2.892   0.365   9.129 -2.2624  1.3988  1.0507
 5531SOL     OW28225   0.911   1.817   8.812  0.2547 -0.2393 -0.7033
 5531SOL    HW128226   0.952   1.881   8.870 -1.0879  1.7365 -1.9286
 5531SOL    HW228227   0.878   1.753   8.876 -1.8705  0.3080 -1.2452
 5532SOL     OW28228   1.827   3.864   5.102  0.1082 -0.2422 -0.2911
 5532SOL    HW128229   1.830   3.943   5.156  1.8532  0.9927 -2.1848
 5532SOL    HW228230   1.736   3.853   5.074  0.0925 -0.4627 -0.1577
 5533SOL     OW28231   2.679   1.926   1.200  0.5633 -0.4823 -0.1477
 5533SOL    HW128232   2.641   1.852   1.248 -0.2401 -1.0600 -1.6824
 5533SOL    HW228233   2.699   1.989   1.269  0.4629 -0.3479 -0.2429
 5534SOL     OW28234   3.225   2.207   8.353  0.0908  0.2168 -0.1718
 5534SOL    HW128235   3.267   2.130   8.392  1.0347  1.7289  1.8138
 5534SOL    HW228236   3.193   2.254   8.430 -0.6270  0.0875 -0.3948
 5535SOL     OW28237   3.882   2.702   6.600 -0.1233  0.3472  0.2574
 5535SOL    HW128238   3.817   2.729   6.665 -1.0901 -1.5961  0.0684
 5535SOL    HW228239   3.888   2.607   6.607 -0.2984  0.3718  0.7550
 5536SOL     OW28240   3.160   2.659   3.487  0.1600  0.1667  0.0092
 5536SOL    HW128241   3.077   2.661   3.439  0.6612 -0.7928 -0.8810
 5536SOL    HW228242   3.211   2.722   3.435  0.9928 -0.2663  0.3019
 5537SOL     OW28243   1.387   2.715   1.754 -0.4108 -0.0330 -0.3536
 5537SOL    HW128244   1.337   2.689   1.676 -1.7179 -0.4486  0.6168
 5537SOL    HW228245   1.449   2.642   1.756 -1.0796 -0.5557  1.3123
 5538SOL     OW28246   0.537   1.277   8.723 -0.1413  0.3196 -0.3428
 5538SOL    HW128247   0.602   1.245   8.661 -0.7988 -2.5996  0.4679
 5538SOL    HW228248   0.466   1.215   8.738  1.5631 -2.0477 -2.1873
 5539SOL     OW28249   3.557   1.172   7.287  0.3947  0.5879 -0.0383
 5539SOL    HW128250   3.646   1.190   7.255  1.0656 -3.3751 -0.3038
 5539SOL    HW228251   3.526   1.099   7.234  1.5648  0.0797 -0.0104
 5540SOL     OW28252   3.382   2.185  16.267  1.0409 -0.1005 -0.0475
 5540SOL    HW128253   3.368   2.275  16.297  0.7593  0.3872 -1.6249
 5540SOL    HW228254   3.420   2.210  16.182  0.2279  0.4635 -0.2497
 5541SOL     OW28255   0.450   3.186   3.545 -0.3324  0.2294 -0.1620
 5541SOL    HW128256   0.402   3.268   3.534  2.0920  1.4110 -2.0576
 5541SOL    HW228257   0.540   3.218   3.553 -0.5435  0.8597 -0.2991
 5542SOL     OW28258   0.527   3.604   3.037  0.3003 -0.1572 -0.1794
 5542SOL    HW128259   0.519   3.657   3.117  3.1151 -0.5719  0.3588
 5542SOL    HW228260   0.607   3.561   3.065 -0.1432 -0.8121  0.0982
 5543SOL     OW28261   1.043   1.079   6.793  0.0796  0.0619 -0.2849
 5543SOL    HW128262   0.992   1.038   6.723 -2.0781  1.3149  0.5441
 5543SOL    HW228263   1.116   1.121   6.747  0.8172 -0.1151  0.7209
 5544SOL     OW28264   3.433   1.895   3.663 -0.2191 -0.6114  0.1150
 5544SOL    HW128265   3.459   1.843   3.739  0.5614 -0.6190 -0.1629
 5544SOL    HW228266   3.507   1.946   3.631 -0.3318 -1.0560 -0.8504
 5545SOL     OW28267   2.834   3.901   8.590 -0.0187  0.4738 -0.6434
 5545SOL    HW128268   2.918   3.935   8.620 -1.3736  0.7354  2.8097
 5545SOL    HW228269   2.822   3.918   8.496  0.2687  1.2011 -0.5485
 5546SOL     OW28270   3.666   1.013  16.901  0.7917  0.5291 -0.6431
 5546SOL    HW128271   3.759   1.006  16.923  0.1593 -0.1822  1.8479
 5546SOL    HW228272   3.626   1.005  16.987  0.0112  0.0135 -1.0542
 5547SOL     OW28273   3.805   3.768  12.008  0.0673  0.4856 -0.1076
 5547SOL    HW128274   3.711   3.748  12.005  0.1069  0.1050  1.0547
 5547SOL    HW228275   3.833   3.726  12.089  3.1536 -0.3794 -1.5966
 5548SOL     OW28276   1.413   4.720   6.974 -0.3725  0.2610  0.2290
 5548SOL    HW128277   1.319   4.716   6.992 -0.5997  1.9389 -0.5298
 5548SOL    HW228278   1.422   4.640   6.921  0.8322 -0.9314  2.2547
 5549SOL     OW28279   2.567   4.664   1.476 -0.0150 -0.2769  0.0633
 5549SOL    HW128280   2.522   4.684   1.394  0.3053 -2.8668 -0.7531
 5549SOL    HW228281   2.543   4.574   1.497 -3.1086  0.8680  1.4329
 5550SOL     OW28282   3.129   2.811   8.257 -0.9738 -0.2210 -0.0636
 5550SOL    HW128283   3.059   2.750   8.236 -1.8634  1.1045 -0.9393
 5550SOL    HW228284   3.109   2.877   8.191  0.7527 -1.7941 -2.1730
 5551SOL     OW28285   0.866   3.767   3.114  0.4059  0.1400  0.1202
 5551SOL    HW128286   0.803   3.699   3.140  0.5744 -0.0068  0.1437
 5551SOL    HW228287   0.828   3.803   3.034 -1.7156  0.2351  1.1556
 5552SOL     OW28288   2.294   3.723   4.418 -0.4187 -0.3650  0.1612
 5552SOL    HW128289   2.209   3.718   4.373  0.1474 -0.5992 -0.8944
 5552SOL    HW228290   2.277   3.660   4.488 -2.3587  0.3734  0.3698
 5553SOL     OW28291   1.704   4.551   4.880  0.3655 -0.6070 -0.1313
 5553SOL    HW128292   1.743   4.569   4.966 -1.0389  0.7023  0.2280
 5553SOL    HW228293   1.761   4.609   4.829 -0.2496 -0.5500 -0.7577
 5554SOL     OW28294   3.266   2.124   6.241  0.0191  0.6063  0.0085
 5554SOL    HW128295   3.215   2.109   6.321 -1.6654  1.7899 -0.8380
 5554SOL    HW228296   3.343   2.076   6.270  0.6338  0.6674 -1.5627
 5555SOL     OW28297   2.885   1.533   1.138  0.1816 -0.6288 -0.1038
 5555SOL    HW128298   2.901   1.604   1.201  0.4823  1.3458 -2.3865
 5555SOL    HW228299   2.957   1.558   1.080 -1.3071 -0.8605 -2.0410
 5556SOL     OW28300   2.256   4.045  14.462  0.4318  0.0238  0.2392
 5556SOL    HW128301   2.165   4.024  14.482  0.5408  0.4209  1.1466
 5556SOL    HW228302   2.301   4.029  14.545 -0.3321 -2.4392  0.1848
 5557SOL     OW28303   0.567   1.168   7.064 -0.2881  0.1308 -0.3380
 5557SOL    HW128304   0.594   1.094   7.010  0.1952  0.1664 -0.1503
 5557SOL    HW228305   0.644   1.191   7.117 -0.0458 -0.1444 -0.5723
 5558SOL     OW28306   1.566   3.787   7.188 -0.5904  0.1292 -0.2520
 5558SOL    HW128307   1.611   3.758   7.109 -0.5060 -0.4258  0.0013
 5558SOL    HW228308   1.639   3.810   7.245 -0.0346 -0.0257 -0.9077
 5559SOL     OW28309   1.441   2.092   6.584  0.7999 -0.7003  0.3436
 5559SOL    HW128310   1.527   2.114   6.620  1.1883  0.0422 -1.0478
 5559SOL    HW228311   1.395   2.170   6.617 -1.8274 -0.8284 -3.0252
 5560SOL     OW28312   4.189   2.210   9.785  0.4719 -0.3716  0.3436
 5560SOL    HW128313   4.248   2.163   9.844 -1.2576 -1.1992  1.4324
 5560SOL    HW228314   4.147   2.281   9.834  2.5631  0.5794  0.7241
 5561SOL     OW28315   3.817   1.640  14.492 -0.5172  0.3550 -0.3994
 5561SOL    HW128316   3.723   1.623  14.479 -0.6849  0.7486  0.3315
 5561SOL    HW228317   3.835   1.697  14.417 -1.0860 -1.1740 -1.7172
 5562SOL     OW28318   0.392   2.594   2.075 -0.0016 -0.4377 -0.4623
 5562SOL    HW128319   0.420   2.682   2.097  0.4234 -1.7106  3.9888
 5562SOL    HW228320   0.451   2.545   2.133  0.0346 -1.3904 -1.2873
 5563SOL     OW28321   3.582   4.035   9.550  0.3625  0.5310 -0.0734
 5563SOL    HW128322   3.641   3.963   9.526 -0.7822 -1.1263  2.0761
 5563SOL    HW228323   3.597   4.085   9.470  0.1025  1.2480  0.3333
 5564SOL     OW28324   4.367   0.799  17.351  0.1483  0.3778 -0.1450
 5564SOL    HW128325   4.393   0.860  17.283 -1.3015  0.3555 -0.7143
 5564SOL    HW228326   4.448   0.816  17.400  1.7314  0.3070 -2.7102
 5565SOL     OW28327   4.310   2.884   6.270  0.1348 -0.2613  0.2689
 5565SOL    HW128328   4.241   2.845   6.218 -0.1766  1.1420 -0.3873
 5565SOL    HW228329   4.384   2.861   6.213 -1.8895  0.0940 -2.5110
 5566SOL     OW28330   3.306   3.421   3.848  0.2134 -0.4137  0.2023
 5566SOL    HW128331   3.280   3.512   3.860  0.0736 -0.6016  1.2759
 5566SOL    HW228332   3.349   3.402   3.931 -0.4103 -0.6546  0.4729
 5567SOL     OW28333   4.668   0.596  13.581  0.4699 -0.1621 -0.1531
 5567SOL    HW128334   4.694   0.504  13.578 -0.3220 -0.4972  2.8133
 5567SOL    HW228335   4.584   0.590  13.536 -0.0681  2.2594  0.5352
 5568SOL     OW28336   0.721   1.311   4.214 -0.3546 -0.3628 -0.5192
 5568SOL    HW128337   0.738   1.401   4.186  1.0352  0.4204  2.9133
 5568SOL    HW228338   0.682   1.281   4.132 -0.5462 -1.8774  0.1254
 5569SOL     OW28339   0.379   3.647  16.894 -0.2608 -0.5486 -0.0085
 5569SOL    HW128340   0.355   3.702  16.969  1.4534  1.5053 -0.9731
 5569SOL    HW228341   0.290   3.617  16.874  0.3673 -2.9010  0.7941
 5570SOL     OW28342   3.783   4.289   5.294 -0.4398  0.4734 -0.4164
 5570SOL    HW128343   3.778   4.324   5.383 -0.3078 -1.1676  0.2302
 5570SOL    HW228344   3.784   4.195   5.313  2.1040  0.5091 -0.4260
 5571SOL     OW28345   2.416   2.257   3.628  0.0069  0.2573  0.0622
 5571SOL    HW128346   2.431   2.228   3.538  1.6036  0.8150  0.1342
 5571SOL    HW228347   2.436   2.173   3.671 -1.3820  0.1405  0.4638
 5572SOL     OW28348   3.216   0.360   8.096 -0.1690 -0.5423  0.5689
 5572SOL    HW128349   3.120   0.365   8.091 -0.2302 -2.1189 -0.0095
 5572SOL    HW228350   3.231   0.342   8.188 -0.7758  0.3023  0.8337
 5573SOL     OW28351   1.636   2.688   5.438  0.2107  0.2486  0.4374
 5573SOL    HW128352   1.589   2.765   5.470  1.5024  0.2228  2.3759
 5573SOL    HW228353   1.561   2.636   5.410  1.8325 -0.7333 -2.0978
 5574SOL     OW28354   0.212   1.694  15.900 -0.6397  0.0482  0.1646
 5574SOL    HW128355   0.265   1.691  15.820 -1.1093  0.2181 -0.1510
 5574SOL    HW228356   0.128   1.682  15.856 -0.6566 -0.9326  0.4640
 5575SOL     OW28357   2.481   3.719   2.571 -0.5622  0.4933 -0.0370
 5575SOL    HW128358   2.398   3.692   2.610 -0.0540  0.0589  0.7527
 5575SOL    HW228359   2.511   3.646   2.516  1.0442  1.8245 -0.9220
 5576SOL     OW28360   2.160   2.194   8.202 -0.6598  0.5394  0.4912
 5576SOL    HW128361   2.214   2.118   8.178 -0.0784  0.7064  1.2901
 5576SOL    HW228362   2.165   2.254   8.127  1.6417 -0.2483  0.0218
 5577SOL     OW28363   0.320   2.285   7.425 -0.7555 -0.7023  0.2011
 5577SOL    HW128364   0.377   2.361   7.423 -0.0701 -1.1418  3.5384
 5577SOL    HW228365   0.262   2.311   7.354  1.1224 -0.9145 -1.4169
 5578SOL     OW28366   4.595   2.313   2.317 -0.1483 -0.5532 -0.1833
 5578SOL    HW128367   4.654   2.252   2.273  2.0286  0.3907  1.4282
 5578SOL    HW228368   4.639   2.396   2.294 -0.2463  0.1570  2.1830
 5579SOL     OW28369   1.847   3.571   5.110 -0.3379  0.5224  0.5922
 5579SOL    HW128370   1.876   3.657   5.141 -0.2483  1.0987 -1.0571
 5579SOL    HW228371   1.776   3.602   5.053  0.4769 -0.8923 -1.2027
 5580SOL     OW28372   2.792   1.896   3.996 -0.1282 -0.2016  0.4251
 5580SOL    HW128373   2.880   1.894   3.960 -1.5865  0.5463 -3.1992
 5580SOL    HW228374   2.770   1.981   3.958 -0.4725 -0.6154 -0.3067
 5581SOL     OW28375   1.224   1.198   3.549 -0.2008  0.3688 -0.4143
 5581SOL    HW128376   1.271   1.273   3.513  0.5474 -0.2362 -0.6900
 5581SOL    HW228377   1.159   1.244   3.602 -0.4708 -1.6349  0.9974
 5582SOL     OW28378   1.127   0.092   3.999 -0.0397 -0.3167  0.1693
 5582SOL    HW128379   1.196   0.129   3.945 -1.7264  0.6329 -1.3398
 5582SOL    HW228380   1.056   0.156   3.993  0.1223  0.0136  1.6429
 5583SOL     OW28381   3.531   2.303   4.787 -0.3370  0.7926  0.2940
 5583SOL    HW128382   3.540   2.218   4.831  1.6561  0.6543 -0.3936
 5583SOL    HW228383   3.565   2.273   4.703 -0.2031 -0.4210  0.7815
 5584SOL     OW28384   3.648   2.947   5.807  0.2447  0.3506  0.4401
 5584SOL    HW128385   3.704   2.982   5.876 -0.0451 -0.3281  1.0246
 5584SOL    HW228386   3.565   2.953   5.854  0.3775 -1.3910  0.9095
 5585SOL     OW28387   0.049   2.959  15.701  0.0798 -0.0589  0.7969
 5585SOL    HW128388   0.116   2.958  15.770 -0.0968 -0.8371  0.9588
 5585SOL    HW228389   4.718   2.912  15.742  1.0953 -1.6877  0.7525
 5586SOL     OW28390   0.295   3.840  14.478  0.1385  0.2274  0.0775
 5586SOL    HW128391   0.379   3.826  14.523 -0.9698 -0.1728  1.9959
 5586SOL    HW228392   0.324   3.892  14.404 -0.0436 -0.6031 -0.5802
 5587SOL     OW28393   0.315   2.733  10.589  0.3469  0.4082 -0.1974
 5587SOL    HW128394   0.309   2.644  10.622 -1.3150  0.9193  0.9202
 5587SOL    HW228395   0.369   2.728  10.510  0.2739 -2.5867 -0.0425
 5588SOL     OW28396   2.542   4.101   8.043 -0.0513 -0.1380 -0.2463
 5588SOL    HW128397   2.553   4.180   8.096  0.3963  0.5022 -1.2894
 5588SOL    HW228398   2.625   4.058   8.063 -0.2061 -0.6108 -0.5936
 5589SOL     OW28399   0.528   3.761  14.608 -0.2719  0.4227  0.5709
 5589SOL    HW128400   0.542   3.695  14.676  0.4859 -0.4347 -0.4208
 5589SOL    HW228401   0.567   3.833  14.658 -1.9292  2.6348 -1.2872
 5590SOL     OW28402   2.675   0.077   0.167 -0.2066  0.4263 -0.0887
 5590SOL    HW128403   2.614   0.141   0.131 -1.7123 -1.3030 -0.5667
 5590SOL    HW228404   2.678   0.112   0.256 -2.4634 -0.2740  0.2492
 5591SOL     OW28405   0.143   4.166  10.412 -0.1103 -0.0446 -0.2971
 5591SOL    HW128406   0.187   4.118  10.342  1.0320 -3.1714  2.5864
 5591SOL    HW228407   0.054   4.157  10.377 -0.7202  0.7431  1.0595
 5592SOL     OW28408   1.304   0.788   4.099 -0.4853 -0.5600 -0.1553
 5592SOL    HW128409   1.334   0.704   4.066 -0.1763 -0.7188  0.5293
 5592SOL    HW228410   1.379   0.820   4.150 -1.9006 -1.1219  2.3257
 5593SOL     OW28411   2.244   1.615   5.618  0.0165  0.1359 -0.1415
 5593SOL    HW128412   2.337   1.630   5.637 -0.2019  0.5200  0.5999
 5593SOL    HW228413   2.252   1.589   5.526  1.3203 -0.2843  0.0962
 5594SOL     OW28414   0.681   0.737   3.558 -0.2180 -0.0981 -0.1458
 5594SOL    HW128415   0.624   0.677   3.606 -1.3064 -0.1023 -1.4172
 5594SOL    HW228416   0.754   0.736   3.619  1.9929  3.9159 -2.7522
 5595SOL     OW28417   3.741   2.415   7.534  0.0336  0.1146  0.5994
 5595SOL    HW128418   3.788   2.432   7.453  1.1263 -1.8446  0.8157
 5595SOL    HW228419   3.797   2.448   7.604 -0.9949  0.1134  1.4241
 5596SOL     OW28420   3.737   0.970   1.489  0.0531  0.1959  0.3171
 5596SOL    HW128421   3.731   1.039   1.556 -2.5956 -1.2428  1.5516
 5596SOL    HW228422   3.737   0.897   1.550  0.1362  0.3660  0.5234
 5597SOL     OW28423   1.900   1.738   2.957 -0.0235  0.3721 -0.3000
 5597SOL    HW128424   1.844   1.689   2.896  0.1667 -1.4398  0.9934
 5597SOL    HW228425   1.840   1.803   2.994  0.7244  0.5801  0.5490
 5598SOL     OW28426   4.295   4.299   1.107 -0.4590 -0.4496 -0.0629
 5598SOL    HW128427   4.260   4.388   1.101  0.2903 -0.0457  1.6603
 5598SOL    HW228428   4.386   4.306   1.135  0.9380 -2.1265 -4.2014
 5599SOL     OW28429   3.102   3.046  10.087 -0.1727  0.4347  0.2923
 5599SOL    HW128430   3.122   2.957  10.058  0.6688  0.5311  0.6004
 5599SOL    HW228431   3.178   3.103  10.081 -0.5907  0.9579 -0.1049
 5600SOL     OW28432   2.661   4.723   7.943 -0.1764  0.2298  0.0658
 5600SOL    HW128433   2.726   0.037   7.988  1.7103 -2.2829  0.4321
 5600SOL    HW228434   2.706   4.740   7.860 -1.5227 -0.7198 -0.8381
 5601SOL     OW28435   0.414   0.471   3.492  0.2301  0.3023  0.0258
 5601SOL    HW128436   0.417   0.380   3.522 -1.3509 -1.0043 -3.7640
 5601SOL    HW228437   0.489   0.465   3.433  0.9724  1.1449  0.8979
 5602SOL     OW28438   1.819   2.527   5.043 -0.5014  0.3552 -0.3736
 5602SOL    HW128439   1.899   2.576   5.065  0.4935 -0.2398 -2.6885
 5602SOL    HW228440   1.803   2.589   4.972 -0.0300  0.6361 -0.2325
 5603SOL     OW28441   3.142   1.335   1.048 -0.0364  0.1637 -0.1517
 5603SOL    HW128442   3.198   1.303   0.977 -0.1629  0.6293 -0.4624
 5603SOL    HW228443   3.203   1.348   1.120  0.1633  2.5412 -0.7394
 5604SOL     OW28444   0.446   3.501   7.167  0.0929 -0.1169 -0.4386
 5604SOL    HW128445   0.484   3.413   7.159 -0.7464 -0.7095  1.9088
 5604SOL    HW228446   0.517   3.554   7.133  0.5131 -1.8490 -2.2632
 5605SOL     OW28447   1.039   4.640   6.758 -0.1358  0.0212  0.7550
 5605SOL    HW128448   1.056   4.711   6.820  3.7928  2.1153 -2.7008
 5605SOL    HW228449   1.051   4.694   6.680  3.3765 -2.9388 -0.7636
 5606SOL     OW28450   1.047   0.374   5.753  0.2593  0.9543 -0.0808
 5606SOL    HW128451   0.969   0.430   5.759 -1.2373 -0.9201 -2.1094
 5606SOL    HW228452   1.089   0.410   5.676  1.5848 -1.9271 -0.6899
 5607SOL     OW28453   0.783   1.468  12.198 -0.5681 -1.0164  0.3117
 5607SOL    HW128454   0.748   1.494  12.113 -0.7179  0.0299  0.6915
 5607SOL    HW228455   0.844   1.539  12.219  0.1154 -1.4259 -0.3011
 5608SOL     OW28456   0.183   3.845   7.476 -0.7318 -0.1367 -0.2565
 5608SOL    HW128457   0.201   3.865   7.384 -0.4803  2.9190  0.4567
 5608SOL    HW228458   0.099   3.890   7.486  1.2168  3.2695  0.5595
 5609SOL     OW28459   4.285   4.244  15.354  0.2154  0.3135 -0.1427
 5609SOL    HW128460   4.225   4.242  15.280  0.2251  2.6842 -0.2042
 5609SOL    HW228461   4.330   4.163  15.329  0.2778  0.8401 -1.7265
 5610SOL     OW28462   0.041   2.985   4.431  0.2338  0.3360 -0.0910
 5610SOL    HW128463   0.076   2.996   4.519 -0.6198  1.0750  0.1623
 5610SOL    HW228464   4.731   3.065   4.424  0.4595  0.5857  1.2362
 5611SOL     OW28465   1.245   2.091   2.506 -0.5204 -0.1976  0.1999
 5611SOL    HW128466   1.192   2.043   2.442 -1.4591 -1.7467  2.1632
 5611SOL    HW228467   1.190   2.102   2.584  2.0042 -1.2054  2.0987
 5612SOL     OW28468   2.189   1.046   6.663 -0.5398  0.1249 -0.5167
 5612SOL    HW128469   2.282   1.040   6.641 -0.2856  1.9619  0.0378
 5612SOL    HW228470   2.165   1.139   6.666  0.5383  0.3623  0.5281
 5613SOL     OW28471   1.617   0.198   5.743 -0.3658  0.1376  0.1161
 5613SOL    HW128472   1.555   0.126   5.726  0.1872 -0.5492  1.0073
 5613SOL    HW228473   1.591   0.258   5.672 -0.9814  0.0127  0.2315
 5614SOL     OW28474   0.487   2.861   7.254  0.2180  0.1226 -0.2096
 5614SOL    HW128475   0.516   2.796   7.190  0.6372  1.5173 -1.4275
 5614SOL    HW228476   0.497   2.937   7.197  3.1424  1.7657  2.4965
 5615SOL     OW28477   3.675   0.203   6.041  1.0157 -0.0528  0.3222
 5615SOL    HW128478   3.718   0.222   5.958 -0.1828  1.0711 -0.0551
 5615SOL    HW228479   3.664   0.108   6.037  1.8311 -0.2429  2.3628
 5616SOL     OW28480   3.328   3.146   3.823  0.0122 -0.4984  0.1658
 5616SOL    HW128481   3.417   3.179   3.825 -0.2872  0.2267  1.4021
 5616SOL    HW228482   3.286   3.232   3.812  0.9331 -0.1187 -0.3476
 5617SOL     OW28483   4.660   3.706   5.622 -1.1443 -0.0483  0.5135
 5617SOL    HW128484   4.643   3.675   5.711  0.1459 -0.6027  0.5604
 5617SOL    HW228485   0.012   3.706   5.640 -1.8743 -1.5724  4.3540
 5618SOL     OW28486   0.770   4.494   4.765  0.1863 -0.4358  0.5341
 5618SOL    HW128487   0.830   4.481   4.692 -0.1929  2.9436 -0.3993
 5618SOL    HW228488   0.829   4.510   4.838 -0.9708  0.2858  1.3197
 5619SOL     OW28489   2.296   1.285   3.877 -0.9331  0.7587 -0.0196
 5619SOL    HW128490   2.294   1.346   3.804 -1.2986 -1.8719 -2.1808
 5619SOL    HW228491   2.201   1.274   3.890 -1.0409  0.8229 -0.7842
 5620SOL     OW28492   0.708   4.522   8.410  0.8481  0.3733  0.2283
 5620SOL    HW128493   0.784   4.542   8.355  0.7857  1.4777  0.5520
 5620SOL    HW228494   0.751   4.479   8.484 -2.9997 -2.4449  0.7896
 5621SOL     OW28495   2.693   4.281   5.795  0.0948  0.0283 -0.0640
 5621SOL    HW128496   2.610   4.308   5.835  0.3348  1.0838 -0.2543
 5621SOL    HW228497   2.661   4.271   5.706 -0.9774  0.2937  0.2898
 5622SOL     OW28498   2.392   1.590   6.059  0.6112 -0.4628  0.6313
 5622SOL    HW128499   2.371   1.565   6.149  0.3324  0.1792  0.7450
 5622SOL    HW228500   2.314   1.571   6.006  1.1113 -1.7051  0.3367
 5623SOL     OW28501   1.240   0.128   8.424  0.4814  0.1322  0.0331
 5623SOL    HW128502   1.155   0.165   8.399  0.3875 -0.0149  0.1341
 5623SOL    HW228503   1.217   0.063   8.490  1.9010  0.9945  1.3659
 5624SOL     OW28504   4.544   1.309   5.009  0.4462 -0.0406  0.1677
 5624SOL    HW128505   4.606   1.373   4.975  1.2918 -1.5658 -1.1942
 5624SOL    HW228506   4.570   1.306   5.101  0.3262  0.1022  0.2042
 5625SOL     OW28507   4.482   1.332  13.910 -0.3311  0.0662 -0.5201
 5625SOL    HW128508   4.451   1.251  13.869 -0.8347  0.2272 -0.4493
 5625SOL    HW228509   4.578   1.328  13.901 -0.4220 -0.0583 -1.4678
 5626SOL     OW28510   3.811   4.056  13.802  0.5570 -0.1414 -0.0696
 5626SOL    HW128511   3.892   4.102  13.827  1.5820 -3.2662  2.3696
 5626SOL    HW228512   3.752   4.075  13.874  0.7191  2.2737 -0.5718
 5627SOL     OW28513   4.377   1.126   4.996 -0.5283 -0.9882  0.2510
 5627SOL    HW128514   4.306   1.172   5.041 -2.2037 -3.1168 -0.2013
 5627SOL    HW228515   4.435   1.201   4.987 -0.4300 -1.1497 -0.4954
 5628SOL     OW28516   3.387   1.468   2.432  0.4259  0.2423 -0.5137
 5628SOL    HW128517   3.416   1.558   2.446  0.0452  0.3591 -0.4805
 5628SOL    HW228518   3.347   1.471   2.346 -2.6794 -2.0944  0.8511
 5629SOL     OW28519   1.613   0.265   6.016 -0.5198  0.7410  0.5416
 5629SOL    HW128520   1.588   0.351   6.050 -1.0350 -0.1319  2.3671
 5629SOL    HW228521   1.629   0.282   5.923  2.0720 -0.3417  0.7720
 5630SOL     OW28522   4.092   0.420   6.336  0.3604  0.1122 -0.0931
 5630SOL    HW128523   4.025   0.352   6.330  0.6257 -0.2423  0.8717
 5630SOL    HW228524   4.065   0.490   6.277  0.9255 -0.3292 -0.8895
 5631SOL     OW28525   4.134   2.099   6.463  0.0881 -0.3595 -0.6522
 5631SOL    HW128526   4.176   2.173   6.419 -1.0170 -1.1328 -3.0096
 5631SOL    HW228527   4.150   2.036   6.393  0.0137  0.8283 -1.7540
 5632SOL     OW28528   4.663   0.589   4.104  0.3236  0.1223  0.6739
 5632SOL    HW128529   4.589   0.632   4.063  1.8851 -1.1570 -3.4491
 5632SOL    HW228530   4.652   0.631   4.189  1.6488  0.8864  0.4534
 5633SOL     OW28531   4.056   3.094   4.726  0.1484  0.0361 -0.5076
 5633SOL    HW128532   4.013   3.085   4.811 -0.4302  1.5247 -0.6452
 5633SOL    HW228533   4.044   3.002   4.701  4.2238 -0.1758 -1.6495
 5634SOL     OW28534   2.759   0.117   7.133 -0.2616 -0.3246  0.1360
 5634SOL    HW128535   2.799   0.174   7.199  0.7104  0.3308 -1.0187
 5634SOL    HW228536   2.734   0.042   7.186 -0.6195 -0.0337  0.3846
 5635SOL     OW28537   1.331   2.609   0.646  0.3799  0.1443  0.4427
 5635SOL    HW128538   1.357   2.646   0.731  0.3727  2.5937 -0.6184
 5635SOL    HW228539   1.390   2.649   0.582 -1.6876  2.5158  0.0143
 5636SOL     OW28540   1.283   2.054   4.671 -0.1688 -0.1248 -0.1406
 5636SOL    HW128541   1.266   1.983   4.609  0.6407 -0.4604  0.0145
 5636SOL    HW228542   1.223   2.034   4.742  1.8449 -1.1139  1.2890
 5637SOL     OW28543   1.433   3.786  14.480 -0.1386  0.0760 -0.6418
 5637SOL    HW128544   1.340   3.807  14.478 -0.8252 -2.9476 -0.2520
 5637SOL    HW228545   1.432   3.705  14.532  0.9734  1.0574  0.9003
 5638SOL     OW28546   4.394   0.776  12.857  0.5960 -0.9753  0.4483
 5638SOL    HW128547   4.413   0.733  12.940 -1.5994 -3.2004 -0.1997
 5638SOL    HW228548   4.303   0.805  12.864  1.1018  0.9103 -0.5434
 5639SOL     OW28549   0.685   2.543   6.544 -0.3184  0.4333  0.2066
 5639SOL    HW128550   0.732   2.520   6.464 -1.8199 -3.3855  0.4251
 5639SOL    HW228551   0.593   2.521   6.524  0.8025 -1.5285 -2.7886
 5640SOL     OW28552   3.993   4.238  14.937 -0.1793 -0.0924  0.0420
 5640SOL    HW128553   3.976   4.325  14.974 -1.5590 -0.3119 -0.0912
 5640SOL    HW228554   3.915   4.205  14.980  1.1044 -2.3147  0.6517
 5641SOL     OW28555   0.589   4.286   1.836 -0.0462 -0.2987  0.6025
 5641SOL    HW128556   0.498   4.308   1.815  1.0219  3.1141 -0.4543
 5641SOL    HW228557   0.594   4.334   1.918  2.3382 -0.4637  0.5492
 5642SOL     OW28558   1.135   1.340  13.956 -0.1008  0.4114  0.4300
 5642SOL    HW128559   1.205   1.405  13.955  0.3469 -0.0475  1.3803
 5642SOL    HW228560   1.149   1.297  13.872  2.3997 -0.6499  1.3706
 5643SOL     OW28561   2.017   0.190   9.271 -0.5141  0.1802  0.0419
 5643SOL    HW128562   1.974   0.137   9.338  0.0867 -1.0420 -0.5249
 5643SOL    HW228563   2.082   0.124   9.248  1.1801  1.2838  1.6966
 5644SOL     OW28564   2.738   4.621   7.278  0.4436  0.2735  0.5518
 5644SOL    HW128565   2.793   4.562   7.328  1.3391  1.0383  0.4884
 5644SOL    HW228566   2.690   4.661   7.350 -0.9302  1.8841 -1.2331
 5645SOL     OW28567   0.643   1.803   3.365 -1.2863  0.2924  0.3859
 5645SOL    HW128568   0.583   1.791   3.291  0.5631 -0.2198 -1.0380
 5645SOL    HW228569   0.639   1.715   3.403  2.5791  0.9921  2.3670
 5646SOL     OW28570   0.387   2.791   6.283  0.2489 -0.2972  0.1134
 5646SOL    HW128571   0.339   2.851   6.339  0.9448  1.1486 -0.8445
 5646SOL    HW228572   0.459   2.849   6.257  1.2263 -2.6084 -2.3264
 5647SOL     OW28573   2.756   2.133   3.888  0.3655  0.5681 -0.1549
 5647SOL    HW128574   2.732   2.225   3.891  2.6285  1.0874  1.8024
 5647SOL    HW228575   2.800   2.126   3.803  1.2587 -0.3742  0.3789
 5648SOL     OW28576   1.297   3.082   5.060  0.4901  0.6656 -0.0693
 5648SOL    HW128577   1.279   3.041   5.145  2.6923  1.1559  0.6355
 5648SOL    HW228578   1.211   3.079   5.020  0.7423 -1.4366 -0.4214
 5649SOL     OW28579   3.583   3.945  16.518  0.0056  0.4444  0.3558
 5649SOL    HW128580   3.584   3.867  16.463  0.0627 -0.6438  1.8998
 5649SOL    HW228581   3.617   3.911  16.601  1.6605 -1.2660 -1.0282
 5650SOL     OW28582   1.236   4.413   7.120  0.0490 -0.2809  0.5091
 5650SOL    HW128583   1.199   4.367   7.044 -0.2348 -1.3307  1.2868
 5650SOL    HW228584   1.321   4.370   7.130 -0.1506 -0.2639  2.1603
 5651SOL     OW28585   1.911   3.632   5.399 -0.1514  0.0870  0.4250
 5651SOL    HW128586   1.942   3.556   5.448  1.3956  0.0777 -0.5791
 5651SOL    HW228587   1.816   3.622   5.396 -0.2579  1.8044 -1.1010
 5652SOL     OW28588   2.403   1.551  13.498  0.3265  0.5997 -0.0579
 5652SOL    HW128589   2.420   1.583  13.587  3.6290  1.0943 -0.8416
 5652SOL    HW228590   2.485   1.501  13.498  0.6901  1.1853 -0.4296
 5653SOL     OW28591   1.562   1.169  13.805 -0.6098 -0.4171 -0.2014
 5653SOL    HW128592   1.595   1.124  13.883  1.3788  1.4958  0.0674
 5653SOL    HW228593   1.492   1.110  13.779  0.9203 -1.4552 -2.0313
 5654SOL     OW28594   4.694   2.142   7.415  1.0607 -0.8022 -0.1845
 5654SOL    HW128595   4.701   2.223   7.465  1.6310  0.2921 -2.0251
 5654SOL    HW228596   4.740   2.078   7.469 -0.7006 -0.2354  1.9794
 5655SOL     OW28597   4.543   4.236   5.134 -0.3647 -0.3121  0.0214
 5655SOL    HW128598   4.612   4.228   5.200 -1.7530  0.3039  1.5410
 5655SOL    HW228599   4.570   4.197   5.051  2.2386  1.3696  0.0614
 5656SOL     OW28600   4.100   0.805  15.052  0.5377 -0.1791 -0.0097
 5656SOL    HW128601   4.183   0.814  15.004  0.1213  0.0358 -0.6996
 5656SOL    HW228602   4.105   0.722  15.099 -1.0774 -1.1235 -1.5097
 5657SOL     OW28603   3.429   1.075   7.958 -0.2034 -0.4823  0.0084
 5657SOL    HW128604   3.436   1.092   8.052  0.5838  1.9801 -0.4981
 5657SOL    HW228605   3.518   1.089   7.924  0.7587 -0.2272  2.6793
 5658SOL     OW28606   0.110   4.113   2.368 -0.1589  0.0510  0.2553
 5658SOL    HW128607   0.145   4.175   2.304  0.8871 -1.3166 -0.4869
 5658SOL    HW228608   0.178   4.047   2.381  0.8919  0.9614 -0.5856
 5659SOL     OW28609   4.638   2.979  16.973 -0.3681 -0.1530 -0.1831
 5659SOL    HW128610   4.577   2.925  17.025 -1.9731 -0.2120 -2.1195
 5659SOL    HW228611   4.653   2.927  16.894  1.5012 -1.0880  0.8027
 5660SOL     OW28612   1.046   1.732   9.449 -0.2998 -0.2052  0.1774
 5660SOL    HW128613   1.016   1.761   9.535  3.2503 -0.3087  1.4540
 5660SOL    HW228614   1.073   1.818   9.419 -1.3847 -0.0380 -0.3145
 5661SOL     OW28615   4.043   0.290   2.558  0.1837  0.0111 -0.0534
 5661SOL    HW128616   4.062   0.222   2.493  0.0870 -1.8116  1.8345
 5661SOL    HW228617   3.973   0.254   2.612  0.2918  2.1582  1.5121
 5662SOL     OW28618   4.558   3.760   6.425 -0.3766  0.2122  0.1860
 5662SOL    HW128619   4.637   3.780   6.376  0.5574  0.3135  1.7322
 5662SOL    HW228620   4.587   3.790   6.511  0.0384 -1.4360  0.6124
 5663SOL     OW28621   3.329   2.261   3.634 -0.4914  0.4509  0.3098
 5663SOL    HW128622   3.401   2.200   3.616 -1.2135 -0.2801 -0.0967
 5663SOL    HW228623   3.373   2.336   3.674 -0.3474  0.1395  0.7315
 5664SOL     OW28624   1.744   2.527   7.404 -0.3358  0.0241  0.0837
 5664SOL    HW128625   1.654   2.560   7.401 -0.5624 -0.7105 -0.9864
 5664SOL    HW228626   1.727   2.433   7.403 -1.5386  0.2321  1.3601
 5665SOL     OW28627   4.101   1.993  14.660  0.7021 -0.0480  0.1188
 5665SOL    HW128628   4.107   2.069  14.601 -0.3195 -0.5098 -0.5797
 5665SOL    HW228629   4.111   1.914  14.608 -0.0490 -0.8311  1.1663
 5666SOL     OW28630   4.345   0.411   4.780 -0.1857  0.1892  0.0210
 5666SOL    HW128631   4.437   0.411   4.806  0.9523 -0.9953 -3.9773
 5666SOL    HW228632   4.340   0.327   4.734  0.2127 -0.7649  1.7422
 5667SOL     OW28633   4.553   0.976   2.899  0.8291 -0.5104 -0.2470
 5667SOL    HW128634   4.645   0.993   2.880  1.6498 -2.3327  2.1682
 5667SOL    HW228635   4.516   1.058   2.931  0.0773 -1.6188  1.7197
 5668SOL     OW28636   3.996   4.556   5.782  0.1725  0.2616 -0.0538
 5668SOL    HW128637   4.079   4.582   5.741  0.2474  1.8619  1.1162
 5668SOL    HW228638   3.998   4.622   5.851  1.5923  0.2421 -0.0754
 5669SOL     OW28639   4.086   0.840   3.013 -0.1302  0.0685  0.0887
 5669SOL    HW128640   4.101   0.787   3.091 -0.3910 -0.0870  0.0329
 5669SOL    HW228641   4.161   0.829   2.955 -0.8416  0.9375 -0.9949
 5670SOL     OW28642   4.654   3.461   4.471  0.3515  0.0459  0.1897
 5670SOL    HW128643   4.727   3.492   4.524 -0.3474 -0.5422  1.4838
 5670SOL    HW228644   4.573   3.501   4.503 -0.0191  1.7293 -2.8484
 5671SOL     OW28645   2.620   1.623   8.915  0.1308 -0.1672  0.0868
 5671SOL    HW128646   2.714   1.630   8.903 -0.1899 -1.3320 -3.0130
 5671SOL    HW228647   2.617   1.583   9.002  0.8864 -0.0602  0.1636
 5672SOL     OW28648   1.950   2.201   2.495  0.5858 -0.0379  0.1441
 5672SOL    HW128649   1.908   2.185   2.411  1.1637 -0.0913 -0.1313
 5672SOL    HW228650   1.882   2.242   2.549 -0.5538 -0.4315 -1.0050
 5673SOL     OW28651   0.421   1.484   5.290  0.1714  0.7875 -0.4598
 5673SOL    HW128652   0.430   1.474   5.385  0.4808  0.0162 -0.5702
 5673SOL    HW228653   0.391   1.397   5.265  1.3231 -0.1421  1.3679
 5674SOL     OW28654   4.057   3.535  13.082  0.5060 -0.1797  0.2699
 5674SOL    HW128655   4.107   3.584  13.147 -0.5532  0.0265  0.9220
 5674SOL    HW228656   3.968   3.558  13.107  0.6313  0.3731  0.2052
 5675SOL     OW28657   2.095   2.624   2.312 -0.9433 -0.4958  0.2038
 5675SOL    HW128658   2.075   2.624   2.406 -0.0960 -2.3938  0.3954
 5675SOL    HW228659   2.150   2.545   2.309 -0.3185  0.0075 -1.7260
 5676SOL     OW28660   0.679   3.546   7.522  0.2325  0.2997 -0.0897
 5676SOL    HW128661   0.659   3.475   7.461  1.1397 -0.0845  0.0592
 5676SOL    HW228662   0.764   3.583   7.500  0.3181  0.0588 -0.1595
 5677SOL     OW28663   1.957   3.642  10.326 -0.5107  0.2666  0.1461
 5677SOL    HW128664   1.883   3.581  10.325 -0.5132  0.2814 -0.3464
 5677SOL    HW228665   1.999   3.613  10.407 -0.7039  0.7063  0.4067
 5678SOL     OW28666   2.313   4.648  16.583  0.4445 -0.6808 -0.3501
 5678SOL    HW128667   2.312   4.649  16.487  1.1369  0.5469 -0.3358
 5678SOL    HW228668   2.225   4.671  16.615  0.8955 -0.2551  0.5647
 5679SOL     OW28669   3.388   3.304  15.639 -0.6210 -0.1922  0.5206
 5679SOL    HW128670   3.331   3.231  15.615  0.8481 -1.3359  0.5606
 5679SOL    HW228671   3.414   3.283  15.729  0.0800 -1.7990 -0.0687
 5680SOL     OW28672   3.758   2.991  14.670 -0.1030  0.3428  0.3691
 5680SOL    HW128673   3.783   2.997  14.762 -0.1093 -0.5505  0.4275
 5680SOL    HW228674   3.712   3.073  14.654  2.0894  1.7271  1.1458
 5681SOL     OW28675   2.459   2.056   1.579 -0.2281 -0.3622  0.0319
 5681SOL    HW128676   2.386   2.010   1.621 -0.3973  0.2294  0.3816
 5681SOL    HW228677   2.417   2.098   1.504 -1.8155 -1.5199  0.2645
 5682SOL     OW28678   2.430   2.948   0.167 -0.1447 -0.1092 -0.2403
 5682SOL    HW128679   2.413   2.854   0.174  1.3791 -0.3599  0.1279
 5682SOL    HW228680   2.369   2.979   0.100  0.0146 -0.0603 -0.3632
 5683SOL     OW28681   2.784   1.210   0.271  0.1601 -0.1050  0.1487
 5683SOL    HW128682   2.735   1.292   0.265  0.4264  0.0202 -0.2774
 5683SOL    HW228683   2.796   1.200   0.366 -0.1609 -1.0539  0.0855
 5684SOL     OW28684   4.729   4.082   4.012 -0.1892  0.3911 -0.3131
 5684SOL    HW128685   0.048   4.029   3.960  0.3216  0.7982 -0.1270
 5684SOL    HW228686   4.711   4.014   4.078 -2.0124  0.0371 -1.1775
 5685SOL     OW28687   1.662   1.854   5.475  0.4688 -0.3775  0.2503
 5685SOL    HW128688   1.651   1.764   5.503  1.0670 -0.9377 -1.3105
 5685SOL    HW228689   1.718   1.857   5.398  0.8469  1.7533  0.5975
 5686SOL     OW28690   3.410   0.353  12.052 -0.4308 -0.9992  0.1826
 5686SOL    HW128691   3.418   0.370  12.146  0.5879 -0.0158 -0.0861
 5686SOL    HW228692   3.352   0.277  12.047 -0.5339 -1.0203  1.7750
 5687SOL     OW28693   2.699   1.266   4.674 -0.1825 -0.1937  0.3209
 5687SOL    HW128694   2.735   1.351   4.649 -1.4143  0.2366  0.0194
 5687SOL    HW228695   2.784   1.225   4.692 -1.2538 -1.7193  1.9840
 5688SOL     OW28696   1.445   1.576  13.060 -0.6039  0.4555  0.0914
 5688SOL    HW128697   1.507   1.648  13.072  1.7682 -1.5767  0.0364
 5688SOL    HW228698   1.485   1.504  13.109  3.2218  2.6078  0.1319
 5689SOL     OW28699   3.155   0.078   5.711  0.2497  0.3721 -0.0225
 5689SOL    HW128700   3.067   0.088   5.747  0.2381  0.8974 -0.1931
 5689SOL    HW228701   3.132   0.024   5.635 -0.0563 -0.6023  0.7662
 5690SOL     OW28702   1.194   3.404  14.698 -0.4676 -0.5000 -0.3107
 5690SOL    HW128703   1.219   3.496  14.692  2.9317 -1.3997 -0.2877
 5690SOL    HW228704   1.187   3.389  14.604  3.3279  2.7115 -1.1199
 5691SOL     OW28705   0.994   0.745   5.040  0.2629 -0.0598  0.5248
 5691SOL    HW128706   1.088   0.730   5.034  0.0575 -1.3290  0.5089
 5691SOL    HW228707   0.963   0.669   4.990  0.0829  0.3893 -0.0427
 5692SOL     OW28708   2.973   2.623  16.893 -0.4036 -0.6613  0.7078
 5692SOL    HW128709   2.948   2.654  16.980  2.2409  1.1823  0.8324
 5692SOL    HW228710   2.941   2.695  16.839 -0.1054 -2.8646 -2.4037
 5693SOL     OW28711   3.210   3.460  13.719 -0.1411 -0.4937 -0.0835
 5693SOL    HW128712   3.154   3.420  13.653 -0.0601  2.6217 -2.0138
 5693SOL    HW228713   3.153   3.536  13.734  0.8353  0.5335 -1.6214
 5694SOL     OW28714   3.249   1.509   2.186 -0.1502 -0.3564  0.1194
 5694SOL    HW128715   3.252   1.566   2.109  0.0329 -1.6652 -0.8368
 5694SOL    HW228716   3.154   1.498   2.183  0.0150 -2.7498  3.1227
 5695SOL     OW28717   3.878   0.116  14.675 -0.5945  0.1546  0.0127
 5695SOL    HW128718   3.803   0.075  14.718 -1.0468  2.1335  1.1070
 5695SOL    HW228719   3.947   0.067  14.720 -0.9952 -1.9663 -1.6677
 5696SOL     OW28720   3.966   0.407   4.186 -0.3609  0.0261 -0.4803
 5696SOL    HW128721   4.047   0.359   4.166  1.1424  1.2160  2.7906
 5696SOL    HW228722   3.974   0.416   4.281 -0.3478  0.7340 -0.5529
 5697SOL     OW28723   3.758   0.478  12.318  0.0149 -0.4283  0.1939
 5697SOL    HW128724   3.841   0.511  12.284  0.3933  1.4149  2.8449
 5697SOL    HW228725   3.705   0.508  12.245  0.0481 -2.1647 -0.5353
 5698SOL     OW28726   0.045   3.709   8.583  0.6474  0.3495 -0.1492
 5698SOL    HW128727   0.094   3.790   8.570 -1.4923  1.9838  1.9438
 5698SOL    HW228728   4.715   3.736   8.640  1.6340 -0.2383  1.3731
 5699SOL     OW28729   1.689   2.436   8.205 -0.5436  0.1733 -0.3654
 5699SOL    HW128730   1.698   2.380   8.128  0.2387  1.4877 -1.2115
 5699SOL    HW228731   1.768   2.417   8.255 -0.3269 -0.6473 -1.0258
 5700SOL     OW28732   4.341   0.838  12.577 -0.0586  0.5712 -0.7270
 5700SOL    HW128733   4.408   0.827  12.644 -2.2978 -1.6741  1.1236
 5700SOL    HW228734   4.271   0.800  12.629  0.9979 -0.4408 -0.0475
 5701SOL     OW28735   2.679   1.150   4.070  0.2322  0.4259 -0.3235
 5701SOL    HW128736   2.765   1.113   4.091 -0.8497 -3.1592 -2.1335
 5701SOL    HW228737   2.641   1.144   4.157 -2.3330  3.0037 -1.2798
 5702SOL     OW28738   2.537   0.709   9.619  0.2999 -0.0084  0.1455
 5702SOL    HW128739   2.533   0.614   9.620  3.2795 -0.1740 -3.7592
 5702SOL    HW228740   2.445   0.732   9.608  0.9949  2.7448  0.0985
 5703SOL     OW28741   2.512   0.621   0.362  0.6039  0.0237  0.1948
 5703SOL    HW128742   2.550   0.540   0.326 -1.8855 -1.7677  1.6331
 5703SOL    HW228743   2.540   0.620   0.453 -0.4775 -1.3676  0.5090
 5704SOL     OW28744   3.648   0.944   3.007  0.9119  0.2193 -0.0183
 5704SOL    HW128745   3.677   0.859   2.975 -0.7787 -0.9646  1.5774
 5704SOL    HW228746   3.625   0.918   3.096 -0.2500  0.3309 -0.2929
 5705SOL     OW28747   4.105   0.049   3.040 -0.1889  0.2250 -0.3370
 5705SOL    HW128748   4.082   4.701   3.016 -0.6006  0.5174 -1.0137
 5705SOL    HW228749   4.120   0.048   3.134  4.7855  2.0230 -1.0746
 5706SOL     OW28750   2.719   1.014  13.023  0.1257  0.5413 -0.0074
 5706SOL    HW128751   2.660   0.941  13.004  0.6763 -0.2905  1.5054
 5706SOL    HW228752   2.686   1.042  13.109  1.7038  1.9879  0.1339
 5707SOL     OW28753   4.103   2.193   8.914  0.3172 -0.5006  0.5048
 5707SOL    HW128754   4.060   2.277   8.901  3.2974  0.7947 -1.1799
 5707SOL    HW228755   4.048   2.129   8.868  1.4404 -0.2648 -1.1846
 5708SOL     OW28756   2.049   1.562   1.318 -0.0303  0.7052 -0.2453
 5708SOL    HW128757   2.112   1.490   1.323 -1.6289 -0.6372  0.4152
 5708SOL    HW228758   2.016   1.558   1.407 -1.2072 -0.6135 -0.7453
 5709SOL     OW28759   1.288   2.651  15.456  0.1759 -0.3177  0.7319
 5709SOL    HW128760   1.268   2.729  15.404  3.2171  0.1111  0.2159
 5709SOL    HW228761   1.376   2.678  15.482  1.4509 -0.9947 -2.9058
 5710SOL     OW28762   4.611   3.621  10.386 -0.2509 -0.1730 -0.8414
 5710SOL    HW128763   4.662   3.669  10.321  0.5470  0.7681  0.4887
 5710SOL    HW228764   4.609   3.526  10.376 -1.7451 -0.0688 -1.5670
 5711SOL     OW28765   0.619   4.023   9.345  0.0693 -0.4281 -0.0094
 5711SOL    HW128766   0.559   4.077   9.293 -1.1503 -2.1389 -0.3625
 5711SOL    HW228767   0.598   3.933   9.318 -0.1543  0.4673 -2.8850
 5712SOL     OW28768   2.835   2.000   5.061  0.3802  0.5443 -0.1258
 5712SOL    HW128769   2.873   2.085   5.081 -0.9948  0.6240  2.0350
 5712SOL    HW228770   2.757   2.026   5.013  0.7938  0.2815 -0.9473
 5713SOL     OW28771   0.230   4.388  11.530 -0.3525 -0.6333 -0.0857
 5713SOL    HW128772   0.183   4.342  11.461 -0.6459 -0.0056 -0.3043
 5713SOL    HW228773   0.302   4.424  11.478 -0.6429  0.0771  0.0052
 5714SOL     OW28774   4.425   4.457   9.150  0.0949 -0.9084 -0.2205
 5714SOL    HW128775   4.363   4.429   9.083  0.5236 -0.5067 -0.7858
 5714SOL    HW228776   4.396   4.402   9.223  1.1124  0.5348  1.2798
 5715SOL     OW28777   3.857   4.673   4.428  0.0891  0.4759 -0.8206
 5715SOL    HW128778   3.948   4.677   4.398 -0.6573 -0.5895 -3.2269
 5715SOL    HW228779   3.873   4.701   4.518 -1.6259 -2.6443  0.4426
 5716SOL     OW28780   0.061   1.515  13.368  0.1462  0.1251 -0.0303
 5716SOL    HW128781   0.054   1.604  13.334  0.9008  0.7213  1.3564
 5716SOL    HW228782   0.144   1.490  13.327  0.6120 -1.9293  2.1922
 5717SOL     OW28783   0.737   4.425   8.892  0.2719  0.2668 -0.1046
 5717SOL    HW128784   0.754   4.424   8.798 -1.3615  1.6073 -0.4122
 5717SOL    HW228785   0.824   4.437   8.931 -0.1030 -0.3099  0.9347
 5718SOL     OW28786   1.720   0.840   4.697  0.0276  0.0818 -0.2510
 5718SOL    HW128787   1.809   0.861   4.725 -0.0040 -0.0089 -0.0818
 5718SOL    HW228788   1.722   0.745   4.684 -0.1792 -0.0752  0.8398
 5719SOL     OW28789   4.275   2.891   4.678 -0.5350  0.0751  0.6219
 5719SOL    HW128790   4.290   2.945   4.755  2.5178  1.0682 -0.6587
 5719SOL    HW228791   4.310   2.958   4.619 -0.7822 -0.2885  0.0607
 5720SOL     OW28792   4.430   2.372   6.914 -0.1662 -0.6135 -0.5862
 5720SOL    HW128793   4.340   2.395   6.939  0.3788 -1.4568  2.0883
 5720SOL    HW228794   4.424   2.411   6.827  2.1388 -1.7858 -1.2808
 5721SOL     OW28795   4.337   4.639   1.395 -0.1098 -0.0411  0.3149
 5721SOL    HW128796   4.333   4.624   1.301  0.7337  0.8430  0.1345
 5721SOL    HW228797   4.368   4.556   1.431 -0.8173 -0.5090 -0.1820
 5722SOL     OW28798   3.650   2.950   8.379 -0.0480 -0.1743 -0.6000
 5722SOL    HW128799   3.575   2.970   8.324 -0.8289 -1.2528  0.0828
 5722SOL    HW228800   3.688   2.870   8.342 -1.5255 -0.5623 -1.2683
 5723SOL     OW28801   4.141   2.625   8.486 -0.0217  0.0751 -0.0220
 5723SOL    HW128802   4.061   2.594   8.443  0.0161 -0.1050  0.0357
 5723SOL    HW228803   4.187   2.544   8.510  1.3048  0.1915 -2.1693
 5724SOL     OW28804   2.609   0.010   6.921 -0.1617 -0.7301 -0.0019
 5724SOL    HW128805   2.695   0.043   6.949 -1.1858  0.8721  1.2792
 5724SOL    HW228806   2.645   4.706   6.845 -0.0715  0.6779 -0.7950
 5725SOL     OW28807   3.189   4.192  16.279 -0.1781 -0.3228 -0.5384
 5725SOL    HW128808   3.247   4.129  16.322  0.6638  0.7460 -0.0953
 5725SOL    HW228809   3.236   4.275  16.290 -1.5150  0.2039  1.1975
 5726SOL     OW28810   0.743   2.942  13.931 -0.6109  0.1799 -0.6767
 5726SOL    HW128811   0.674   2.994  13.889  1.1004  2.2123 -0.9512
 5726SOL    HW228812   0.783   2.997  13.997 -2.1526  1.4457 -0.7969
 5727SOL     OW28813   2.341   3.975   4.679 -0.1669  0.0050 -0.4384
 5727SOL    HW128814   2.268   3.917   4.699 -0.8781  0.9625 -0.2361
 5727SOL    HW228815   2.405   3.905   4.668 -1.3032 -1.1354  0.3777
 5728SOL     OW28816   3.634   2.183   3.636 -0.0518  0.6252  0.2292
 5728SOL    HW128817   3.619   2.255   3.698  0.4498  1.5043 -0.6846
 5728SOL    HW228818   3.714   2.145   3.674 -0.3173  1.3249  1.4737
 5729SOL     OW28819   0.962   2.470  14.519  0.2796  0.2161 -0.2863
 5729SOL    HW128820   1.000   2.445  14.604  0.5988  3.4369  0.5092
 5729SOL    HW228821   0.889   2.408  14.512 -0.4839  0.9366  1.2236
 5730SOL     OW28822   2.532   4.718   2.467 -0.1561  0.2064 -0.1913
 5730SOL    HW128823   2.558   0.008   2.554  1.0002 -0.2825 -0.3666
 5730SOL    HW228824   2.479   0.046   2.428  2.8847  0.6242 -3.4951
 5731SOL     OW28825   3.716   1.854   8.780 -0.1352  0.1965  0.1021
 5731SOL    HW128826   3.621   1.845   8.776  0.1163 -1.0281 -2.4693
 5731SOL    HW228827   3.723   1.948   8.799 -3.0904  0.5171 -0.3322
 5732SOL     OW28828   2.441   1.007   9.078 -0.0222 -0.2608 -0.7968
 5732SOL    HW128829   2.533   0.994   9.103 -0.1987  0.3461  0.1493
 5732SOL    HW228830   2.424   0.936   9.015  0.3118 -2.2443  1.3361
 5733SOL     OW28831   2.390   4.102   1.075 -0.2197  0.1737 -0.3417
 5733SOL    HW128832   2.303   4.066   1.061 -0.7663  0.9792  1.0163
 5733SOL    HW228833   2.429   4.097   0.987  2.0434 -0.6555  0.7022
 5734SOL     OW28834   0.482   2.716   7.549  0.4205  0.3414  0.4610
 5734SOL    HW128835   0.445   2.776   7.485 -1.8477 -2.1118 -0.5474
 5734SOL    HW228836   0.427   2.736   7.625  0.5563  0.9290  0.4033
 5735SOL     OW28837   2.153   4.382   8.825  0.5354  0.1042 -0.1428
 5735SOL    HW128838   2.077   4.383   8.767  0.7559 -2.8929 -0.4816
 5735SOL    HW228839   2.212   4.430   8.766  1.5784 -0.7818  0.1718
 5736SOL     OW28840   3.450   4.633  11.113 -0.4980  0.1699 -0.3346
 5736SOL    HW128841   3.429   4.614  11.021  0.3036  0.9788 -0.6847
 5736SOL    HW228842   3.544   4.615  11.115 -0.7409 -1.5369 -3.8826
 5737SOL     OW28843   3.133   3.461  16.462 -0.0932 -0.6736  0.7795
 5737SOL    HW128844   3.064   3.464  16.395  0.5360  1.6021  0.2320
 5737SOL    HW228845   3.127   3.366  16.472  0.2361 -0.5706  2.0013
 5738SOL     OW28846   2.189   1.200   2.266 -0.0980 -0.4112  0.2578
 5738SOL    HW128847   2.121   1.136   2.284  1.0852 -1.8584 -0.3747
 5738SOL    HW228848   2.153   1.270   2.321 -0.1314 -0.1206 -0.1308
 5739SOL     OW28849   0.421   2.517  10.207  0.4398  0.5355  0.0843
 5739SOL    HW128850   0.473   2.471  10.273 -0.5335 -3.0153 -1.6208
 5739SOL    HW228851   0.410   2.605  10.243 -0.5240 -0.5014  2.2569
 5740SOL     OW28852   3.438   4.648   3.109  0.1785  0.2595  0.0088
 5740SOL    HW128853   3.490   4.717   3.150 -0.8345  1.5581 -0.8949
 5740SOL    HW228854   3.482   4.630   3.026 -0.0447  0.8304 -0.2377
 5741SOL     OW28855   0.819   4.248  17.351  0.2389  0.7411  0.3973
 5741SOL    HW128856   0.801   4.161  17.386 -1.3636  1.3330  1.0437
 5741SOL    HW228857   0.872   4.232  17.273  0.8286  1.5449  0.6382
 5742SOL     OW28858   1.541   2.700  15.575 -0.1142  0.4888 -0.3259
 5742SOL    HW128859   1.583   2.786  15.565  1.0673  0.2464  2.4464
 5742SOL    HW228860   1.609   2.633  15.581 -0.1223  0.6897  1.8791
 5743SOL     OW28861   3.643   2.173   2.608 -0.0938 -0.4075  0.6379
 5743SOL    HW128862   3.619   2.171   2.701  0.4191  1.3172  0.8078
 5743SOL    HW228863   3.734   2.203   2.609 -1.0006  2.3950 -2.2402
 5744SOL     OW28864   1.906   3.663  12.585  0.8011  0.5476  0.0882
 5744SOL    HW128865   1.849   3.586  12.580  0.9390  0.4281  0.3369
 5744SOL    HW228866   1.844   3.731  12.611 -1.5147 -1.0700 -1.1921
 5745SOL     OW28867   2.925   0.069  13.918 -0.0961  0.1891  0.0731
 5745SOL    HW128868   2.847   0.029  13.879  0.8308 -0.4288 -1.1774
 5745SOL    HW228869   2.960   0.008  13.983 -1.5794  0.0266  0.7224
 5746SOL     OW28870   1.912   1.614   4.542  0.5529  0.3690  0.4408
 5746SOL    HW128871   1.878   1.621   4.453  0.5187 -0.8802  0.3468
 5746SOL    HW228872   2.000   1.641   4.514  0.8492 -1.6335 -0.6132
 5747SOL     OW28873   2.202   1.093   9.005  1.2092 -0.4753  0.3359
 5747SOL    HW128874   2.280   1.118   9.054  0.6775  0.1013  0.8834
 5747SOL    HW228875   2.142   1.164   9.025  2.0641 -0.5737  3.1919
 5748SOL     OW28876   2.599   3.728  11.839  0.5237 -0.4287 -0.6590
 5748SOL    HW128877   2.656   3.651  11.844  2.5655  1.1097 -0.1175
 5748SOL    HW228878   2.516   3.696  11.805  0.9095  0.8112 -2.7549
 5749SOL     OW28879   2.771   4.673   8.672  0.4769  0.2530  0.1453
 5749SOL    HW128880   2.855   4.670   8.719 -1.2377  0.1597  3.1773
 5749SOL    HW228881   2.781   4.610   8.601  0.3857  2.1644 -1.5703
 5750SOL     OW28882   4.280   3.846   4.727 -0.2547 -0.2800 -0.7515
 5750SOL    HW128883   4.197   3.820   4.766  0.9051  1.0619  2.6149
 5750SOL    HW228884   4.344   3.807   4.787  0.4310  1.9856  0.0035
 5751SOL     OW28885   0.097   2.921   5.818  0.2706 -0.1099  0.4006
 5751SOL    HW128886   0.131   2.851   5.874  1.0550 -2.5344 -3.1538
 5751SOL    HW228887   0.129   2.886   5.735 -2.4908 -0.7696 -0.3731
 5752SOL     OW28888   1.378   2.304   4.862 -0.0861  0.1438 -0.3523
 5752SOL    HW128889   1.465   2.327   4.830 -0.3846  0.5959 -0.8322
 5752SOL    HW228890   1.343   2.269   4.780  2.3438  0.5134 -1.5572
 5753SOL     OW28891   2.378   1.886   6.608 -0.5046 -0.3451  0.2603
 5753SOL    HW128892   2.439   1.868   6.537 -0.2347  1.1352  0.1091
 5753SOL    HW228893   2.413   1.829   6.677 -0.0403 -0.5120 -0.1154
 5754SOL     OW28894   2.953   2.813  10.565  0.2759 -0.2462 -0.6865
 5754SOL    HW128895   3.023   2.841  10.624 -0.7639  0.4846  0.1966
 5754SOL    HW228896   2.946   2.722  10.594  0.5509  0.3293  1.1477
 5755SOL     OW28897   0.151   0.778   8.090  0.7536  0.2505 -0.2505
 5755SOL    HW128898   0.083   0.793   8.156  2.1251  0.5360  1.1072
 5755SOL    HW228899   0.186   0.697   8.127 -0.7127  0.6564  2.0638
 5756SOL     OW28900   3.456   4.257  15.458 -0.3919  0.5815 -0.9175
 5756SOL    HW128901   3.366   4.238  15.484 -0.6355 -1.6675 -3.4253
 5756SOL    HW228902   3.446   4.339  15.408  0.7834  2.0492  1.2617
 5757SOL     OW28903   1.501   4.127   9.417 -0.0143 -0.4345  0.3172
 5757SOL    HW128904   1.560   4.171   9.357 -2.4579  1.9348 -0.3420
 5757SOL    HW228905   1.520   4.035   9.397 -0.0032  0.1353 -2.3035
 5758SOL     OW28906   2.965   2.838   4.486  0.2880  0.0701  0.3608
 5758SOL    HW128907   3.041   2.787   4.458  0.1491  0.2435 -0.3342
 5758SOL    HW228908   2.976   2.851   4.580 -1.3918 -0.0185  0.5698
 5759SOL     OW28909   4.671   4.153   1.368 -0.1818  0.1575  0.2308
 5759SOL    HW128910   4.627   4.149   1.452 -1.0233  1.6778 -0.1403
 5759SOL    HW228911   4.607   4.105   1.315  0.7251 -0.0797 -0.6586
 5760SOL     OW28912   1.118   3.727   5.696 -0.6018  0.1779  0.3602
 5760SOL    HW128913   1.135   3.703   5.605  4.2018 -1.7708  1.7570
 5760SOL    HW228914   1.192   3.676   5.729 -0.5596 -1.4927 -2.3426
 5761SOL     OW28915   0.997   2.624  11.972  0.0881  0.3520 -0.0328
 5761SOL    HW128916   0.968   2.695  12.028 -0.6590 -0.2539  0.3557
 5761SOL    HW228917   0.912   2.588  11.947 -0.6443  1.3944  1.0001
 5762SOL     OW28918   2.183   1.300  11.688 -0.1157 -0.6401  0.3552
 5762SOL    HW128919   2.210   1.339  11.605 -0.2829 -1.8049 -0.2331
 5762SOL    HW228920   2.256   1.243  11.712  1.4481  0.9252 -0.6640
 5763SOL     OW28921   2.362   0.950  10.308 -0.3727  0.2383  0.3088
 5763SOL    HW128922   2.357   1.045  10.316  1.0163  0.2316  1.3590
 5763SOL    HW228923   2.412   0.936  10.228  2.8463  3.1873  1.7964
 5764SOL     OW28924   3.369   3.610  13.347  0.4234  0.2313  0.2939
 5764SOL    HW128925   3.447   3.578  13.393 -0.3492 -1.5065  0.4017
 5764SOL    HW228926   3.364   3.550  13.272 -0.2267 -0.1429  0.6268
 5765SOL     OW28927   2.523   0.087  12.387  0.4139  0.2628  0.7470
 5765SOL    HW128928   2.494   0.152  12.450  1.9169  0.2224  1.4776
 5765SOL    HW228929   2.551   0.011  12.438 -2.0509  0.2745  2.1348
 5766SOL     OW28930   0.053   0.621   5.282  0.4262  0.3315  0.3765
 5766SOL    HW128931   0.041   0.671   5.201 -0.0092 -0.1435  0.1449
 5766SOL    HW228932   0.144   0.594   5.286  1.1739  3.0578  1.0685
 5767SOL     OW28933   0.123   0.337   4.893  0.1259 -0.6849 -0.6951
 5767SOL    HW128934   0.170   0.410   4.853 -2.7435  1.3069 -0.4100
 5767SOL    HW228935   0.134   0.260   4.837 -0.2682 -0.9936 -0.3451
 5768SOL     OW28936   1.892   3.106   3.055 -0.2117 -0.4737 -0.1105
 5768SOL    HW128937   1.894   3.101   2.960  0.4863 -2.4063  0.0235
 5768SOL    HW228938   1.972   3.058   3.075 -0.0589 -0.3342 -0.3896
 5769SOL     OW28939   0.645   1.078   5.188  0.6433  0.1420 -0.0143
 5769SOL    HW128940   0.717   1.015   5.194 -1.4922 -2.3702 -0.7458
 5769SOL    HW228941   0.644   1.097   5.094 -0.8125  1.4513  0.2619
 5770SOL     OW28942   2.812   1.964   7.930 -0.3823  0.0175 -0.3743
 5770SOL    HW128943   2.789   1.902   7.860  0.7474 -0.9049  0.0715
 5770SOL    HW228944   2.876   1.914   7.980 -1.6228 -1.1789  0.0213
 5771SOL     OW28945   1.185   1.427   6.518  0.3000 -0.0197  0.2887
 5771SOL    HW128946   1.185   1.396   6.428  1.1240 -0.1845  0.3518
 5771SOL    HW228947   1.107   1.380   6.548 -0.5223  0.8953 -0.4191
 5772SOL     OW28948   3.378   1.605   9.747  0.2332  0.1261  0.1800
 5772SOL    HW128949   3.376   1.612   9.651  3.9355 -1.7490 -0.0375
 5772SOL    HW228950   3.457   1.657   9.763 -0.0376  0.5414  0.1539
 5773SOL     OW28951   2.652   4.339   9.676  0.2596 -0.6073 -0.5207
 5773SOL    HW128952   2.664   4.244   9.668 -0.9476 -0.5875 -2.7428
 5773SOL    HW228953   2.670   4.359   9.768  0.6057 -2.4060 -0.1993
 5774SOL     OW28954   0.016   1.376  13.066  0.1155 -0.2971  0.0018
 5774SOL    HW128955   0.077   1.446  13.089 -0.2245 -0.0647  0.2065
 5774SOL    HW228956   0.041   1.313  13.133  4.3658  0.1649 -1.1681
 5775SOL     OW28957   2.266   2.999   3.871  0.1072  0.1395 -1.0748
 5775SOL    HW128958   2.210   3.075   3.860 -0.4092 -0.3823 -2.0629
 5775SOL    HW228959   2.257   2.966   3.782  1.7215  0.8054 -1.4791
 5776SOL     OW28960   4.444   1.873   7.161  0.0572 -0.1355  0.6249
 5776SOL    HW128961   4.373   1.938   7.155  1.5161  1.4435  0.4685
 5776SOL    HW228962   4.490   1.887   7.078 -0.0545 -1.4283  0.3382
 5777SOL     OW28963   3.400   1.080  12.275  0.7117  0.3045 -0.2540
 5777SOL    HW128964   3.476   1.136  12.261  1.1062 -0.0105  0.6422
 5777SOL    HW228965   3.327   1.132  12.242  1.6861 -0.8576 -4.2183
 5778SOL     OW28966   2.058   3.503  10.579  0.2506 -0.2466 -0.2253
 5778SOL    HW128967   2.101   3.419  10.564 -1.0910 -1.4686  2.7804
 5778SOL    HW228968   2.095   3.523  10.665  1.8337 -1.1464 -0.6900
 5779SOL     OW28969   3.980   1.576   0.968  0.3355 -0.3137  0.2268
 5779SOL    HW128970   4.018   1.534   1.045  0.3454 -0.0308  0.3729
 5779SOL    HW228971   3.966   1.666   0.995  1.1947 -0.8031  2.3079
 5780SOL     OW28972   3.021   4.330   7.293 -0.0728  0.0142 -0.0982
 5780SOL    HW128973   3.036   4.235   7.292  1.3685  0.2294  0.7262
 5780SOL    HW228974   3.022   4.354   7.200  1.1857  0.7303  0.0925
 5781SOL     OW28975   4.252   2.395   9.566  0.2560 -0.3228  0.4841
 5781SOL    HW128976   4.195   2.456   9.612 -0.3854  1.6906 -2.9326
 5781SOL    HW228977   4.266   2.328   9.632  2.0576 -0.7323 -0.3167
 5782SOL     OW28978   1.057   2.474  15.077 -0.4191  0.0700 -0.1757
 5782SOL    HW128979   1.059   2.412  15.150 -1.1111  0.6451  0.3273
 5782SOL    HW228980   1.096   2.414  15.014  0.8758  0.5846  0.1263
 5783SOL     OW28981   2.661   4.464  15.528 -0.2426  0.2424  0.0622
 5783SOL    HW128982   2.614   4.506  15.456 -0.3696 -4.0330 -2.3235
 5783SOL    HW228983   2.709   4.538  15.565  0.2474 -0.3695  0.6414
 5784SOL     OW28984   3.232   0.109   3.633 -0.2096  0.3824 -0.5225
 5784SOL    HW128985   3.149   0.126   3.677 -0.3246 -0.2066 -0.5099
 5784SOL    HW228986   3.236   0.176   3.564  1.2090 -0.4086 -1.2138
 5785SOL     OW28987   2.617   0.292   1.453  0.6738  0.3231 -0.1139
 5785SOL    HW128988   2.583   0.380   1.439 -0.4544 -0.1070 -0.1041
 5785SOL    HW228989   2.594   0.246   1.372  2.1654 -0.7892  0.0966
 5786SOL     OW28990   1.849   0.164   3.621  1.0363  0.2895 -0.3594
 5786SOL    HW128991   1.844   0.087   3.565 -0.7320  0.2983 -0.2127
 5786SOL    HW228992   1.888   0.118   3.696 -0.5679 -0.5729 -0.0718
 5787SOL     OW28993   4.353   2.849   2.452  0.0674  0.6740 -0.6955
 5787SOL    HW128994   4.448   2.842   2.451 -0.0972 -1.7811  1.3243
 5787SOL    HW228995   4.338   2.880   2.541 -0.9398 -0.0605 -0.6037
 5788SOL     OW28996   4.736   3.350  11.251 -0.1917  0.3260  0.1317
 5788SOL    HW128997   0.058   3.390  11.310  0.6165  0.0732 -0.5692
 5788SOL    HW228998   4.665   3.350  11.316  0.8580  3.2451  1.3105
 5789SOL     OW28999   3.630   4.370   6.641 -0.5541 -0.4214 -0.8718
 5789SOL    HW129000   3.624   4.384   6.546 -0.9956  0.1034 -0.7704
 5789SOL    HW229001   3.679   4.289   6.647 -1.3769 -0.8584 -0.0642
 5790SOL     OW29002   2.756   0.357   2.665  0.6310 -0.3791  0.2801
 5790SOL    HW129003   2.682   0.410   2.636  1.5285  0.0206 -1.2627
 5790SOL    HW229004   2.762   0.367   2.760  0.0807  0.4282  0.2236
 5791SOL     OW29005   4.232   2.041   3.240  0.4906 -0.3433  0.1562
 5791SOL    HW129006   4.255   2.060   3.149 -0.1933 -1.2520 -0.2098
 5791SOL    HW229007   4.187   2.122   3.263  0.5248 -0.3483  0.2399
 5792SOL     OW29008   4.403   2.834   9.203 -0.1772 -0.7914 -0.3304
 5792SOL    HW129009   4.377   2.813   9.114  2.2579  0.7180 -1.3876
 5792SOL    HW229010   4.338   2.785   9.253 -1.5028  0.2475 -1.0123
 5793SOL     OW29011   3.199   4.107   2.051  0.5031  0.1718  0.1214
 5793SOL    HW129012   3.202   4.188   2.101 -2.7572  0.6771 -0.5056
 5793SOL    HW229013   3.188   4.131   1.959 -2.4683 -0.3978  0.3397
 5794SOL     OW29014   0.312   4.357   8.328 -0.0050 -0.7814 -0.4310
 5794SOL    HW129015   0.313   4.452   8.312  2.5011 -0.2650  2.8217
 5794SOL    HW229016   0.219   4.344   8.346  0.3982 -0.3047  1.9407
 5795SOL     OW29017   1.202   2.996   6.407  0.7640  0.0187  0.6031
 5795SOL    HW129018   1.184   3.061   6.475  1.3851  0.7762  0.0512
 5795SOL    HW229019   1.114   2.967   6.384  0.5409  1.1585  0.0046
 5796SOL     OW29020   0.605   3.664  12.898  0.1033 -0.0476 -0.2431
 5796SOL    HW129021   0.572   3.632  12.814  2.2195 -0.7013 -0.8303
 5796SOL    HW229022   0.683   3.608  12.911  1.3684  1.3915 -1.6761
 5797SOL     OW29023   3.833   2.694  16.752 -0.3032 -0.1299  0.1018
 5797SOL    HW129024   3.771   2.659  16.688 -0.5651  2.1474 -0.8826
 5797SOL    HW229025   3.890   2.729  16.685 -1.7440  0.5165 -0.7905
 5798SOL     OW29026   3.897   3.662   7.604 -0.0610  0.6108 -0.3085
 5798SOL    HW129027   3.929   3.667   7.694  0.5086  1.1342 -0.5446
 5798SOL    HW229028   3.847   3.582   7.623 -0.7816  1.5082  1.6479
 5799SOL     OW29029   1.363   1.179   0.711 -0.8382  0.2359 -0.1403
 5799SOL    HW129030   1.403   1.180   0.624 -1.6558  0.1580 -0.5178
 5799SOL    HW229031   1.362   1.275   0.720 -0.9293 -0.0517  2.9210
 5800SOL     OW29032   4.153   1.475  12.061 -0.3860  0.0460  0.1433
 5800SOL    HW129033   4.160   1.381  12.040  0.4468  0.1787 -0.1443
 5800SOL    HW229034   4.202   1.487  12.142  0.3361  0.5467 -0.3662
 5801SOL     OW29035   2.944   3.782   2.558  0.3914  0.2052  0.1872
 5801SOL    HW129036   2.880   3.844   2.592 -2.0203 -0.9747 -2.1087
 5801SOL    HW229037   3.016   3.807   2.615  2.8006 -1.5710 -2.0689
 5802SOL     OW29038   0.437   3.953  14.232  0.4242  0.0302  0.5053
 5802SOL    HW129039   0.414   4.028  14.288  2.2250 -0.0428  1.3177
 5802SOL    HW229040   0.523   3.974  14.197 -0.5308  1.4034 -1.0138
 5803SOL     OW29041   1.793   1.815   9.208  0.3057 -0.4788  0.1661
 5803SOL    HW129042   1.810   1.853   9.294  0.5203  0.0399 -0.1036
 5803SOL    HW229043   1.833   1.888   9.161  1.1756  1.0987  3.3457
 5804SOL     OW29044   4.023   0.609   8.280  0.0581  0.1983  0.1982
 5804SOL    HW129045   4.032   0.692   8.326 -1.1757  0.7204 -0.5060
 5804SOL    HW229046   4.113   0.581   8.260  0.4728  3.0473 -1.9127
 5805SOL     OW29047   1.102   2.326   7.598  0.0636 -0.1948 -0.1698
 5805SOL    HW129048   1.122   2.259   7.663  0.1752 -0.2338 -0.2447
 5805SOL    HW229049   1.192   2.339   7.569  0.4167 -2.5434 -0.1178
 5806SOL     OW29050   1.247   2.321   5.112  0.1042 -0.5951 -0.4176
 5806SOL    HW129051   1.292   2.310   5.028  1.6097  0.7181  0.2263
 5806SOL    HW229052   1.262   2.228   5.132  0.8623 -0.2646  0.5355
 5807SOL     OW29053   3.976   2.840  17.293  0.0360 -0.2923 -0.4331
 5807SOL    HW129054   4.006   2.820  17.204  0.0944  2.4123 -1.0248
 5807SOL    HW229055   3.883   2.822  17.276  0.3225 -2.2675  0.0663
 5808SOL     OW29056   3.317   1.643   5.180 -0.1289 -0.2253 -0.8334
 5808SOL    HW129057   3.245   1.690   5.139 -0.9127 -0.8006 -0.1194
 5808SOL    HW229058   3.290   1.551   5.185  0.4722 -0.3910 -0.6417
 5809SOL     OW29059   3.539   1.554   2.678 -0.0056  0.6687  0.0628
 5809SOL    HW129060   3.611   1.538   2.739 -1.3841 -0.4553  1.4082
 5809SOL    HW229061   3.581   1.547   2.592 -0.8718  0.4909 -0.3534
 5810SOL     OW29062   1.888   2.134   2.196  0.2470  0.0240 -0.5272
 5810SOL    HW129063   1.846   2.049   2.209  1.2756 -0.4153 -0.0457
 5810SOL    HW229064   1.967   2.112   2.147  0.3992 -3.7503  1.4065
 5811SOL     OW29065   0.969   1.969  15.994 -0.2346  0.4966 -0.2548
 5811SOL    HW129066   1.032   1.970  15.922 -0.8140  2.5131 -0.7560
 5811SOL    HW229067   0.894   2.028  15.982 -1.3289 -0.5733  1.3487
 5812SOL     OW29068   4.265   2.584  10.875  0.1427  0.3185 -0.2733
 5812SOL    HW129069   4.296   2.505  10.919 -1.3701 -1.5030 -2.5452
 5812SOL    HW229070   4.266   2.645  10.950  0.7423 -1.5823  1.2664
 5813SOL     OW29071   1.154   3.662   4.852  0.3264  0.3440 -0.1745
 5813SOL    HW129072   1.201   3.625   4.778  3.6151  1.3615  1.3975
 5813SOL    HW229073   1.207   3.738   4.878  0.9969 -0.6538  1.3979
 5814SOL     OW29074   3.834   3.166   3.058  0.0481  0.1821 -0.0307
 5814SOL    HW129075   3.902   3.231   3.077  1.5468 -1.2504 -0.4575
 5814SOL    HW229076   3.892   3.110   3.006  0.0194 -1.4027  1.6688
 5815SOL     OW29077   0.850   4.295   9.231  0.1214 -0.4588 -0.2018
 5815SOL    HW129078   0.774   4.349   9.208  0.7816  0.0002 -1.2837
 5815SOL    HW229079   0.845   4.296   9.327 -1.7299 -0.4478 -0.2876
 5816SOL     OW29080   2.632   2.160   4.975 -0.0607 -0.0777  0.2742
 5816SOL    HW129081   2.668   2.248   4.976 -1.3780  0.4576 -0.0180
 5816SOL    HW229082   2.563   2.169   4.910  1.0914 -1.3544 -1.1276
 5817SOL     OW29083   0.472   3.883   0.680  0.5773 -0.2733 -0.1778
 5817SOL    HW129084   0.565   3.862   0.690  0.3053 -2.8313 -3.1275
 5817SOL    HW229085   0.455   3.928   0.763  1.0236 -1.2995  0.4719
 5818SOL     OW29086   2.633   2.103   2.628 -0.2095 -0.3413  0.1214
 5818SOL    HW129087   2.622   2.060   2.713 -1.1292  0.8566  0.6121
 5818SOL    HW229088   2.613   2.031   2.567  0.1620 -1.6875  1.5919
 5819SOL     OW29089   0.626   1.067   9.006 -0.0609  0.4875  0.4227
 5819SOL    HW129090   0.718   1.066   8.979  0.2395 -0.4283  1.4902
 5819SOL    HW229091   0.626   1.128   9.079  0.2361  0.6294  0.3024
 5820SOL     OW29092   3.634   3.206   2.824 -0.2244 -0.1287  0.2493
 5820SOL    HW129093   3.636   3.302   2.824  0.5033 -0.1424  0.9647
 5820SOL    HW229094   3.659   3.186   2.914  0.4422  0.2516  0.1516
 5821SOL     OW29095   3.118   4.427   5.922  0.3356 -0.1800  0.1808
 5821SOL    HW129096   3.126   4.501   5.982 -1.9610 -0.0691  0.3391
 5821SOL    HW229097   3.023   4.420   5.911  0.4176 -1.1499  0.1145
 5822SOL     OW29098   3.402   1.009  17.660 -0.7350  0.1747  0.0147
 5822SOL    HW129099   3.357   1.083  17.699 -0.2343  0.0738  0.7629
 5822SOL    HW229100   3.422   1.041  17.572  1.8070  0.2453  0.6395
 5823SOL     OW29101   2.620   4.168   6.259  0.5109  0.1811 -0.4765
 5823SOL    HW129102   2.610   4.263   6.251  0.5944  0.1151 -1.4600
 5823SOL    HW229103   2.642   4.154   6.351 -3.5386  2.3951  0.8451
 5824SOL     OW29104   3.064   1.699   4.380  0.2253 -0.2511 -0.5904
 5824SOL    HW129105   3.062   1.795   4.387 -1.4521 -0.2175 -1.3633
 5824SOL    HW229106   3.012   1.679   4.302 -0.3862  0.0586 -0.2710
 5825SOL     OW29107   1.479   1.332   7.382  0.0680 -0.2271  0.1414
 5825SOL    HW129108   1.439   1.246   7.391 -1.0329  0.3509  0.7848
 5825SOL    HW229109   1.553   1.301   7.329 -0.6888 -1.5227 -0.1361
 5826SOL     OW29110   1.333   2.028   5.152  0.6914  0.5530  0.3683
 5826SOL    HW129111   1.400   2.028   5.083  0.9288 -1.5373  0.6093
 5826SOL    HW229112   1.392   2.044   5.225  0.8989  1.0627  0.0875
 5827SOL     OW29113   0.765   2.003   2.771  0.2476 -0.1270  0.0016
 5827SOL    HW129114   0.782   2.064   2.843 -0.9858 -0.8785  0.9375
 5827SOL    HW229115   0.817   1.929   2.803 -0.6996 -1.5904 -1.8324
 5828SOL     OW29116   3.741   2.090  16.331 -0.8892  0.6241 -0.1872
 5828SOL    HW129117   3.807   2.037  16.376 -1.2874 -0.5672 -0.9906
 5828SOL    HW229118   3.756   2.049  16.246  4.1175  1.7020  0.1914
 5829SOL     OW29119   3.387   0.401   7.621 -0.0886 -0.0366 -0.1219
 5829SOL    HW129120   3.468   0.445   7.646  0.3396 -0.1477 -1.3419
 5829SOL    HW229121   3.420   0.312   7.611 -0.0359  0.1486 -1.5117
 5830SOL     OW29122   0.301   3.634   3.666  0.8191 -0.8734  0.7420
 5830SOL    HW129123   0.246   3.693   3.615  0.5785 -1.6492  0.1043
 5830SOL    HW229124   0.239   3.604   3.732 -1.4216  1.7738 -0.1590
 5831SOL     OW29125   3.697   1.056   6.837  0.2033 -0.0020 -0.3586
 5831SOL    HW129126   3.601   1.057   6.842  0.2629 -0.2510  0.8375
 5831SOL    HW229127   3.721   1.017   6.753 -1.7700 -1.6262 -0.1814
 5832SOL     OW29128   0.440   0.067   5.752 -0.2794  0.1080 -0.0858
 5832SOL    HW129129   0.377   0.116   5.804 -1.1387 -0.2472 -0.7912
 5832SOL    HW229130   0.429   0.100   5.663  3.4370  2.2465  0.2354
 5833SOL     OW29131   3.293   3.575  16.661  0.1176 -0.7508  0.4773
 5833SOL    HW129132   3.221   3.617  16.709  0.2129 -0.9379  0.7820
 5833SOL    HW229133   3.244   3.532  16.591 -2.8025 -1.7258  3.1056
 5834SOL     OW29134   3.869   2.825   7.739  0.2928 -0.4219 -0.7311
 5834SOL    HW129135   3.862   2.832   7.835 -0.3030 -1.4740 -0.6892
 5834SOL    HW229136   3.892   2.733   7.728 -1.5723 -1.2209  1.8838
 5835SOL     OW29137   0.029   4.720   1.671  0.2821  0.1735  0.0601
 5835SOL    HW129138   0.105   4.667   1.694  0.6967  0.3897 -0.8010
 5835SOL    HW229139   0.065   0.065   1.687 -1.7452  0.9248  0.5869
 5836SOL     OW29140   3.664   3.650  15.572  0.4150 -0.0874 -0.2209
 5836SOL    HW129141   3.667   3.744  15.589  1.1373 -0.2354  0.5103
 5836SOL    HW229142   3.575   3.627  15.548  0.4111 -0.2016 -0.0952
 5837SOL     OW29143   0.744   1.002   1.659  0.0386  0.4146 -0.0127
 5837SOL    HW129144   0.677   1.067   1.679 -0.2226 -0.0257  0.5416
 5837SOL    HW229145   0.684   0.928   1.646  2.1644 -1.5248  1.3115
 5838SOL     OW29146   0.898   4.723  16.417 -0.0092 -0.6622  0.0872
 5838SOL    HW129147   0.872   0.056  16.363  2.5773 -0.5547 -1.0050
 5838SOL    HW229148   0.898   0.018  16.505  0.0338 -0.4642  0.0051
 5839SOL     OW29149   4.265   2.747  15.219 -0.4073 -0.3874  0.1957
 5839SOL    HW129150   4.185   2.798  15.234  0.2473  0.6342  0.2315
 5839SOL    HW229151   4.233   2.692  15.148 -0.7086  0.9744 -0.7176
 5840SOL     OW29152   1.939   1.716   5.985  0.1125  0.1535 -0.3195
 5840SOL    HW129153   1.861   1.722   5.930  0.4177 -2.0148 -1.0157
 5840SOL    HW229154   1.921   1.758   6.068  2.1623  0.4618 -0.0180
 5841SOL     OW29155   2.068   2.644   6.129 -0.3832  0.2184 -0.4051
 5841SOL    HW129156   1.985   2.683   6.101 -1.2270 -0.1124  1.6543
 5841SOL    HW229157   2.067   2.654   6.224  0.6036 -0.1143 -0.3587
 5842SOL     OW29158   0.968   4.353   8.975 -0.0007 -0.4871  0.0843
 5842SOL    HW129159   0.935   4.322   9.059  0.9824  1.7080  1.2913
 5842SOL    HW229160   1.024   4.282   8.943 -0.3009 -1.9492  2.7742
 5843SOL     OW29161   3.823   2.756   8.907  0.2345 -0.0756 -0.0241
 5843SOL    HW129162   3.761   2.723   8.972 -1.9756  2.1779 -0.9749
 5843SOL    HW229163   3.854   2.836   8.949 -2.0521  0.2037  1.1440
 5844SOL     OW29164   4.280   1.087   5.784 -0.0613  0.1227 -0.2647
 5844SOL    HW129165   4.243   1.160   5.735 -0.0696  0.7266  0.6330
 5844SOL    HW229166   4.262   1.106   5.876 -0.6742 -1.6799 -0.0065
 5845SOL     OW29167   1.432   3.687   7.441  0.0188  0.1432 -0.0568
 5845SOL    HW129168   1.517   3.687   7.485  0.4826  0.1579 -0.9452
 5845SOL    HW229169   1.451   3.737   7.362 -0.2457  0.7180  0.2492
 5846SOL     OW29170   1.832   3.464   3.532  0.3210  0.6170  0.4675
 5846SOL    HW129171   1.798   3.553   3.524 -0.0105  0.2656 -2.1244
 5846SOL    HW229172   1.757   3.405   3.538 -0.4519  1.7349  1.6977
 5847SOL     OW29173   2.963   3.556  12.209 -0.5082 -0.4058 -1.3189
 5847SOL    HW129174   2.959   3.560  12.304  0.5121  2.0222 -1.3830
 5847SOL    HW229175   3.019   3.480  12.197  1.5973  0.5099  2.8951
 5848SOL     OW29176   0.086   0.158   5.396 -0.1789 -0.1676  0.2170
 5848SOL    HW129177   0.118   0.185   5.310  1.7967  0.2379  1.0758
 5848SOL    HW229178   0.035   0.237   5.417  1.3439  0.4447  1.6058
 5849SOL     OW29179   0.217   3.954   2.665 -0.4878 -0.6417  0.1194
 5849SOL    HW129180   0.292   4.013   2.674  0.6337 -1.7745 -1.7175
 5849SOL    HW229181   0.201   3.938   2.572  0.1649  3.0623 -0.5922
 5850SOL     OW29182   3.276   1.148   5.135 -0.1485 -0.4071  0.0435
 5850SOL    HW129183   3.308   1.058   5.133  3.1905  0.7931  1.5733
 5850SOL    HW229184   3.340   1.179   5.071 -0.0595  0.3981  0.5300
 5851SOL     OW29185   3.186   1.425  17.342  0.2778 -0.2834  0.2844
 5851SOL    HW129186   3.279   1.424  17.366 -0.1350 -2.1559  1.7892
 5851SOL    HW229187   3.188   1.342  17.295  1.4231  0.2006 -0.5285
 5852SOL     OW29188   3.622   4.691   3.489  1.1009 -0.3636 -0.5740
 5852SOL    HW129189   3.590   4.683   3.579 -0.0404  0.3146 -0.9122
 5852SOL    HW229190   3.581   4.613   3.451  1.8778  1.1321 -4.4516
 5853SOL     OW29191   4.319   2.450   4.878  0.3397 -0.0000  0.1379
 5853SOL    HW129192   4.349   2.505   4.951 -0.1278  1.4611 -0.7827
 5853SOL    HW229193   4.361   2.489   4.802  1.5770 -1.7769 -0.0752
 5854SOL     OW29194   1.992   4.658   1.153 -0.2522 -0.0945  0.8500
 5854SOL    HW129195   2.009   4.729   1.215  1.0594 -0.9004  1.3960
 5854SOL    HW229196   1.915   4.699   1.114 -0.3798 -1.9931 -0.8860
 5855SOL     OW29197   1.421   0.532  10.720  0.2100  0.2060  0.6903
 5855SOL    HW129198   1.510   0.565  10.723  0.6184 -0.6529 -2.4045
 5855SOL    HW229199   1.391   0.581  10.797 -0.5891 -1.4953  1.4613
 5856SOL     OW29200   0.947   0.541   4.817  0.4118 -0.3087  0.3592
 5856SOL    HW129201   0.939   0.490   4.898 -2.0575 -0.8776 -0.2638
 5856SOL    HW229202   0.869   0.520   4.766 -0.0165 -0.0690  0.9200
 5857SOL     OW29203   0.852   2.132  10.615  0.3403  0.1324  0.8818
 5857SOL    HW129204   0.942   2.162  10.631  1.7880 -3.8889  0.4311
 5857SOL    HW229205   0.796   2.201  10.650 -1.7911 -1.0053 -0.2966
 5858SOL     OW29206   3.402   2.572   5.869 -0.1942 -0.3344  1.0106
 5858SOL    HW129207   3.451   2.527   5.938  0.9699 -1.0030 -0.2249
 5858SOL    HW229208   3.432   2.529   5.788  1.0783 -0.2101  1.4043
 5859SOL     OW29209   1.155   3.035   2.491 -0.2270 -0.3385 -0.4935
 5859SOL    HW129210   1.180   3.052   2.582  2.0201 -2.3433 -0.7493
 5859SOL    HW229211   1.062   3.053   2.479 -0.3363  0.1826  1.2111
 5860SOL     OW29212   1.448   0.817   7.365 -0.0112  0.1161 -0.7541
 5860SOL    HW129213   1.428   0.764   7.288 -1.4388  1.0552 -1.0179
 5860SOL    HW229214   1.463   0.759   7.440  0.7937  1.8712  0.4622
 5861SOL     OW29215   3.518   3.041   6.388  0.2279 -0.5216  0.2940
 5861SOL    HW129216   3.422   3.035   6.385  0.2783 -0.2964 -1.5858
 5861SOL    HW229217   3.536   3.132   6.413  0.1409 -0.5556  0.4878
 5862SOL     OW29218   3.829   1.133  10.413  0.9073  0.1191 -0.1907
 5862SOL    HW129219   3.736   1.155  10.417  0.6219 -0.8131 -1.6917
 5862SOL    HW229220   3.869   1.205  10.462  0.3062  0.6660 -0.4931
 5863SOL     OW29221   1.275   4.409   8.474  0.4145  0.4088  0.7256
 5863SOL    HW129222   1.333   4.484   8.483  2.1854 -0.9236  0.5074
 5863SOL    HW229223   1.288   4.368   8.560  0.8322  0.4210  0.6684
 5864SOL     OW29224   3.036   3.762   8.398 -0.3882 -0.8236  0.7065
 5864SOL    HW129225   2.948   3.794   8.377  0.9320  1.0916 -1.9514
 5864SOL    HW229226   3.067   3.809   8.476 -0.5967 -4.1159  2.7848
 5865SOL     OW29227   0.176   3.436   6.744  0.5474  0.3170  0.1854
 5865SOL    HW129228   0.227   3.515   6.761  1.2180 -0.1274  0.2253
 5865SOL    HW229229   0.090   3.467   6.773  0.7299  0.7297  0.2735
 5866SOL     OW29230   0.665   1.317   2.248 -0.3553  0.2337 -0.4869
 5866SOL    HW129231   0.615   1.368   2.185 -0.9725  1.3474  0.9073
 5866SOL    HW229232   0.715   1.382   2.296 -3.9874  0.0797  3.5939
 5867SOL     OW29233   2.776   0.786   9.719 -0.2315 -0.0199 -0.0117
 5867SOL    HW129234   2.742   0.861   9.767 -0.8617 -1.1324  1.3116
 5867SOL    HW229235   2.697   0.735   9.698  0.0159 -0.9383  1.2183
 5868SOL     OW29236   3.207   2.249   2.315 -0.2054  0.5906  0.7749
 5868SOL    HW129237   3.287   2.204   2.291 -0.4930  0.5830 -0.1478
 5868SOL    HW229238   3.228   2.342   2.313 -0.0497  0.5471  0.4935
 5869SOL     OW29239   2.636   2.928  11.436 -0.0184  0.1606 -0.3233
 5869SOL    HW129240   2.688   2.893  11.509  0.3244  0.4663 -0.4168
 5869SOL    HW229241   2.698   2.982  11.386 -1.9918  2.8067  0.0792
 5870SOL     OW29242   2.796   0.725  13.396  0.5431 -0.2523 -0.7590
 5870SOL    HW129243   2.865   0.695  13.336 -0.0674 -1.7807 -0.7050
 5870SOL    HW229244   2.717   0.715  13.342  0.6139  0.2465 -0.9530
 5871SOL     OW29245   0.540   2.069   6.266  0.8078  0.1563 -0.4304
 5871SOL    HW129246   0.529   2.094   6.358  0.4533 -1.3487 -0.0728
 5871SOL    HW229247   0.588   2.146   6.237 -0.1445  0.7645 -0.4055
 5872SOL     OW29248   1.447   3.174   5.558 -0.5179 -0.0414  0.0874
 5872SOL    HW129249   1.355   3.196   5.574 -0.8264 -0.1692 -1.5105
 5872SOL    HW229250   1.470   3.234   5.487  0.5103 -2.2069 -1.4223
 5873SOL     OW29251   3.661   2.466   3.185 -0.4631 -0.5813  0.2033
 5873SOL    HW129252   3.692   2.554   3.205 -0.1000 -0.5780 -0.3627
 5873SOL    HW229253   3.634   2.426   3.268 -1.9563 -0.8880 -0.4255
 5874SOL     OW29254   3.851   3.522   6.750 -0.0259  0.1064  0.5687
 5874SOL    HW129255   3.873   3.493   6.839 -1.4133 -0.3695  0.7594
 5874SOL    HW229256   3.933   3.501   6.705  1.7157  4.0947  1.8825
 5875SOL     OW29257   1.427   4.133   2.420 -0.3748  0.3150  0.4399
 5875SOL    HW129258   1.392   4.072   2.355  0.1264 -2.1533  2.4820
 5875SOL    HW229259   1.352   4.172   2.465  1.0660  2.9762  0.5335
 5876SOL     OW29260   4.122   0.077   8.314  0.1776  0.4869 -0.2053
 5876SOL    HW129261   4.040   0.120   8.291  0.4499  0.7711 -0.6596
 5876SOL    HW229262   4.118   0.071   8.409  3.9632  1.7569  0.0477
 5877SOL     OW29263   1.003   3.010   5.860  0.1749 -0.1011 -0.1341
 5877SOL    HW129264   0.975   2.985   5.772 -0.6271 -1.2290  0.4512
 5877SOL    HW229265   1.039   2.928   5.894 -1.4100 -1.0151 -0.6860
 5878SOL     OW29266   3.244   2.224  14.246 -0.4975 -0.2668  0.4386
 5878SOL    HW129267   3.279   2.155  14.302 -0.7834 -0.5338  0.2930
 5878SOL    HW229268   3.150   2.215  14.264 -0.0109 -2.1356  2.0748
 5879SOL     OW29269   2.336   4.072   2.899 -0.0799 -0.4952  0.0099
 5879SOL    HW129270   2.247   4.069   2.933  0.5061  1.3113  1.6506
 5879SOL    HW229271   2.320   4.137   2.831 -1.6528 -1.0954 -0.1988
 5880SOL     OW29272   2.109   2.468   1.372  0.1332 -0.1937 -0.0006
 5880SOL    HW129273   2.125   2.480   1.466 -1.0096  1.0118  0.0396
 5880SOL    HW229274   2.099   2.557   1.338  0.4188 -0.5189 -0.9425
 5881SOL     OW29275   2.591   3.610  15.290 -0.0887 -0.6473 -0.3159
 5881SOL    HW129276   2.684   3.601  15.311  0.0229  0.7773 -0.2334
 5881SOL    HW229277   2.561   3.540  15.348 -2.5464 -0.0947 -0.9478
 5882SOL     OW29278   0.661   2.284   8.160 -0.0906  0.0684  0.3834
 5882SOL    HW129279   0.683   2.340   8.086 -0.8058  2.3976  1.9166
 5882SOL    HW229280   0.688   2.199   8.126  1.1281  0.8170 -0.4911
 5883SOL     OW29281   2.477   2.482   5.056  0.0809  0.2863  0.1943
 5883SOL    HW129282   2.480   2.569   5.096 -0.6444  0.6376 -0.5050
 5883SOL    HW229283   2.568   2.457   5.067  0.9443  3.1056 -0.5592
 5884SOL     OW29284   3.893   3.545  15.459 -0.3321 -0.1003 -0.4399
 5884SOL    HW129285   3.923   3.635  15.447 -1.0728  0.3452  1.0312
 5884SOL    HW229286   3.800   3.567  15.467 -0.5975 -0.8772 -1.4290
 5885SOL     OW29287   1.577   1.877   1.858  0.0374  0.3313 -0.0377
 5885SOL    HW129288   1.649   1.899   1.798  1.8480 -0.6373  1.7848
 5885SOL    HW229289   1.558   1.784   1.842 -1.2257  0.8856 -1.8211
 5886SOL     OW29290   4.443   3.709  16.544 -0.6883  0.0060  0.0274
 5886SOL    HW129291   4.529   3.751  16.542 -1.5978  1.8788  0.0385
 5886SOL    HW229292   4.385   3.765  16.493 -1.6366  0.2048  1.3062
 5887SOL     OW29293   3.845   2.615   3.380 -0.3894  0.1411  0.3452
 5887SOL    HW129294   3.927   2.581   3.416 -1.1464 -0.7332  1.2417
 5887SOL    HW229295   3.871   2.705   3.363  1.1243  0.0514  2.1949
 5888SOL     OW29296   0.433   2.631   3.625 -0.4338  0.3881 -0.5075
 5888SOL    HW129297   0.369   2.700   3.641 -2.1169 -1.8422  2.4334
 5888SOL    HW229298   0.446   2.598   3.714  0.6897 -0.2885 -0.9202
 5889SOL     OW29299   1.600   0.596   8.360 -0.3778  0.2364 -0.0316
 5889SOL    HW129300   1.665   0.550   8.413  0.3148 -0.0346 -1.1175
 5889SOL    HW229301   1.546   0.530   8.316  0.7108 -1.9256  1.9057
 5890SOL     OW29302   4.497   1.773   6.680 -0.0166 -0.4608  0.2194
 5890SOL    HW129303   4.525   1.685   6.703  0.7331 -0.3609 -0.3068
 5890SOL    HW229304   4.530   1.781   6.591  0.5405 -1.7263  0.3213
 5891SOL     OW29305   1.060   2.734   1.371 -0.1697  0.1575 -0.0870
 5891SOL    HW129306   1.109   2.762   1.294  1.7937 -0.5950  0.8962
 5891SOL    HW229307   0.988   2.694   1.322 -2.5316  3.7594  0.4380
 5892SOL     OW29308   3.251   0.472   6.274 -0.0525  0.3070 -0.7146
 5892SOL    HW129309   3.275   0.545   6.331  1.4026 -1.4852  0.9535
 5892SOL    HW229310   3.313   0.406   6.304  1.3358  1.5138 -0.9115
 5893SOL     OW29311   3.024   0.012   2.128  0.0596 -0.1078 -0.4878
 5893SOL    HW129312   3.040   0.095   2.084  1.6751 -0.0635  0.1742
 5893SOL    HW229313   3.060   0.036   2.213 -2.7766 -0.3988  0.8153
 5894SOL     OW29314   0.190   0.495   3.772  0.0418  0.6633  0.1403
 5894SOL    HW129315   0.193   0.549   3.692  0.1466  1.7139  0.8602
 5894SOL    HW229316   0.206   0.557   3.842 -0.1390  0.8354  0.0310
 5895SOL     OW29317   1.924   2.520   3.157  0.2709  0.3743  0.2499
 5895SOL    HW129318   1.901   2.606   3.122  1.8971 -0.2388 -2.2679
 5895SOL    HW229319   1.846   2.500   3.209  0.8677  0.5319  1.2111
 5896SOL     OW29320   0.932   2.914   5.594 -0.6012 -0.2053 -0.4996
 5896SOL    HW129321   0.864   2.853   5.568  2.0325 -2.7232 -1.5228
 5896SOL    HW229322   0.903   3.000   5.564  1.1505  0.2407 -0.9411
 5897SOL     OW29323   0.884   3.742   2.619 -0.0003  0.2513 -0.4444
 5897SOL    HW129324   0.888   3.657   2.575 -0.6597  1.1818 -2.3295
 5897SOL    HW229325   0.803   3.776   2.582  0.2486  0.2605 -0.9786
 5898SOL     OW29326   3.618   3.809   5.264  0.1271 -0.5935 -0.3121
 5898SOL    HW129327   3.545   3.760   5.301 -0.8978  1.4952  0.4539
 5898SOL    HW229328   3.578   3.870   5.203  0.3336  2.4140  2.5662
 5899SOL     OW29329   4.583   4.491   3.770  0.0056  0.3259  0.1740
 5899SOL    HW129330   4.579   4.497   3.674 -1.6607 -0.3981  0.1923
 5899SOL    HW229331   4.551   4.578   3.793  0.7635  0.8542 -0.7422
 5900SOL     OW29332   0.773   2.830   3.836  0.2331 -0.0133  0.0845
 5900SOL    HW129333   0.736   2.822   3.748  0.0044  2.1658 -0.0055
 5900SOL    HW229334   0.757   2.924   3.838  1.0355  0.1590 -0.9387
 5901SOL     OW29335   1.506   1.179   2.418 -0.3266  0.1439  0.2305
 5901SOL    HW129336   1.425   1.127   2.415 -0.4138  0.4586 -2.6223
 5901SOL    HW229337   1.558   1.125   2.477 -0.9824 -1.0511 -0.2870
 5902SOL     OW29338   1.419   2.850  11.161  0.2870 -1.0016  0.0700
 5902SOL    HW129339   1.417   2.764  11.203  0.7744 -1.2633 -0.4363
 5902SOL    HW229340   1.326   2.871  11.157  0.4287 -0.5369 -0.7625
 5903SOL     OW29341   0.402   2.187  16.430 -0.1951  0.2943  0.5323
 5903SOL    HW129342   0.373   2.153  16.514  0.8541 -0.8093  0.4600
 5903SOL    HW229343   0.417   2.107  16.379  2.7652  1.0543  0.2114
 5904SOL     OW29344   1.381   1.243   4.094  0.2463 -0.0473 -0.4303
 5904SOL    HW129345   1.418   1.325   4.063 -0.3329 -0.0209 -1.0484
 5904SOL    HW229346   1.449   1.177   4.081  1.4278  1.0101  0.4026
 5905SOL     OW29347   1.123   4.510   7.408  0.2933  0.0810  0.2582
 5905SOL    HW129348   1.133   4.417   7.430 -0.9296 -0.4276 -1.3474
 5905SOL    HW229349   1.044   4.508   7.354  1.8071 -0.0519 -1.9779
 5906SOL     OW29350   4.409   0.578   7.490  0.6222  0.1695 -0.1825
 5906SOL    HW129351   4.396   0.546   7.579 -0.4404 -1.1537 -0.8006
 5906SOL    HW229352   4.503   0.571   7.474  0.9921  2.2431  1.0616
 5907SOL     OW29353   1.559   2.404  15.453 -0.3860  0.3818 -0.0325
 5907SOL    HW129354   1.645   2.438  15.478 -0.1428 -0.0323 -0.3046
 5907SOL    HW229355   1.543   2.466  15.381  0.3560  1.3013  0.5925
 5908SOL     OW29356   3.675   3.388  15.697 -0.5354 -0.7398  0.2526
 5908SOL    HW129357   3.760   3.432  15.702 -0.3717 -1.1229  0.7454
 5908SOL    HW229358   3.612   3.456  15.669  0.7449  0.1184 -0.5718
 5909SOL     OW29359   4.115   0.893   5.141  0.2891 -0.2854 -0.3638
 5909SOL    HW129360   4.024   0.899   5.170  0.5524 -0.1732  0.4442
 5909SOL    HW229361   4.158   0.935   5.215 -2.4742 -2.1607  2.3260
 5910SOL     OW29362   1.917   3.792   3.180 -0.5167 -0.0975 -0.2650
 5910SOL    HW129363   1.828   3.827   3.182 -1.0780 -1.5561  0.7050
 5910SOL    HW229364   1.922   3.772   3.087 -0.0451  0.9680 -0.4673
 5911SOL     OW29365   3.340   0.931   3.987  0.5656 -0.5909 -0.4839
 5911SOL    HW129366   3.332   0.837   3.973  0.3950 -0.7132  0.4397
 5911SOL    HW229367   3.414   0.949   3.928  0.9194 -2.9490 -0.7428
 5912SOL     OW29368   0.738   4.096   8.707  0.3189  0.3792  0.5401
 5912SOL    HW129369   0.719   4.025   8.768 -2.0300  0.9895  0.5578
 5912SOL    HW229370   0.657   4.098   8.655 -0.1653 -1.7581  1.1950
 5913SOL     OW29371   3.761   0.373   3.253 -0.2546  0.8449  0.6876
 5913SOL    HW129372   3.694   0.338   3.193  1.9713  2.0340 -2.4707
 5913SOL    HW229373   3.797   0.289   3.283  1.1341  2.0186  2.2819
 5914SOL     OW29374   2.335   0.912   7.305 -0.0425 -0.0023  0.2885
 5914SOL    HW129375   2.250   0.944   7.336 -1.5814 -2.3364 -1.5822
 5914SOL    HW229376   2.398   0.908   7.377  1.3036 -1.8819 -0.9951
 5915SOL     OW29377   0.880   0.196   2.693  0.0488  0.7067 -0.2387
 5915SOL    HW129378   0.870   0.280   2.737  0.2464  0.6398 -0.0694
 5915SOL    HW229379   0.968   0.216   2.661 -0.4696 -1.7383 -3.2457
 5916SOL     OW29380   2.900   2.294   9.967  0.1425 -0.3937 -0.0889
 5916SOL    HW129381   2.932   2.303  10.056  0.9091  1.3685 -0.5488
 5916SOL    HW229382   2.890   2.199   9.957 -2.0677 -0.4196  2.5990
 5917SOL     OW29383   2.408   3.382   3.689  0.7082  0.4832 -0.3126
 5917SOL    HW129384   2.337   3.401   3.628  1.4303 -0.0673 -1.3229
 5917SOL    HW229385   2.449   3.306   3.648 -1.4751 -0.9051  0.0658
 5918SOL     OW29386   3.296   1.227  17.190 -0.1263 -0.6234  0.7101
 5918SOL    HW129387   3.351   1.236  17.112  0.0881 -3.4215  0.5380
 5918SOL    HW229388   3.285   1.132  17.194  1.7072 -1.0004 -2.7888
 5919SOL     OW29389   0.008   2.541   9.406 -0.3102  0.2565 -1.0715
 5919SOL    HW129390   4.656   2.529   9.422 -0.2478  0.9693 -0.1885
 5919SOL    HW229391   0.048   2.559   9.492 -1.2185 -0.5633 -0.4720
 5920SOL     OW29392   0.692   2.404   9.273 -0.3576  0.2229 -0.1287
 5920SOL    HW129393   0.737   2.450   9.344  1.3290  2.3528 -2.5428
 5920SOL    HW229394   0.650   2.339   9.329  0.4365 -0.8948 -0.8410
 5921SOL     OW29395   3.080   1.246   4.150  0.2705 -0.1948  0.2816
 5921SOL    HW129396   3.174   1.243   4.132 -0.1430 -3.2966 -1.2816
 5921SOL    HW229397   3.039   1.277   4.069 -2.3045 -0.8434  1.3419
 5922SOL     OW29398   4.626   2.863   2.417  0.2213  0.1034 -0.0356
 5922SOL    HW129399   4.679   2.930   2.374  0.5053 -0.1421 -0.0602
 5922SOL    HW229400   4.655   2.857   2.508 -0.9068  0.5975  0.3611
 5923SOL     OW29401   1.872   3.367  12.349 -0.3573  0.5374 -0.2159
 5923SOL    HW129402   1.812   3.413  12.408  0.7854 -0.7042  1.9169
 5923SOL    HW229403   1.806   3.338  12.286  0.2747  2.0891 -1.5860
 5924SOL     OW29404   0.730   3.928   6.322 -0.0990 -0.2678  0.0425
 5924SOL    HW129405   0.681   3.920   6.404 -1.9053 -3.5819 -1.3163
 5924SOL    HW229406   0.788   3.855   6.344 -0.9861 -1.0716 -0.2270
 5925SOL     OW29407   2.388   4.258   4.246 -0.1386 -0.4439  0.8892
 5925SOL    HW129408   2.419   4.204   4.318  1.0072 -3.1466 -1.6634
 5925SOL    HW229409   2.409   4.211   4.165 -1.0558  1.7449 -0.6430
 5926SOL     OW29410   3.445   1.238   5.466 -0.5651  0.4436  0.0915
 5926SOL    HW129411   3.480   1.240   5.376  0.6203  1.4117  0.5653
 5926SOL    HW229412   3.364   1.289   5.459 -0.8095  0.0789  0.2843
 5927SOL     OW29413   0.017   3.404   5.754  0.7818  0.1880 -0.4962
 5927SOL    HW129414   0.090   3.343   5.741 -0.7876 -2.0438  1.2551
 5927SOL    HW229415   0.055   3.492   5.746  0.2897  0.5087  0.6669
 5928SOL     OW29416   1.604   1.545  17.384 -0.8265  0.3047  0.1351
 5928SOL    HW129417   1.544   1.617  17.403 -0.1760  1.2638 -1.3783
 5928SOL    HW229418   1.661   1.578  17.315 -1.0879  2.2729  0.8393
 5929SOL     OW29419   2.663   3.898   5.646 -0.1188  0.1439  0.2342
 5929SOL    HW129420   2.639   3.807   5.659  0.6280 -0.1213 -0.2702
 5929SOL    HW229421   2.581   3.938   5.676 -0.4875  0.2908 -0.9466
 5930SOL     OW29422   1.083   1.747   6.861  0.7723  0.6462 -0.5457
 5930SOL    HW129423   1.031   1.674   6.827  1.5109 -0.6044  0.9846
 5930SOL    HW229424   1.138   1.699   6.923 -1.9743 -1.6163  0.1481
 5931SOL     OW29425   4.624   3.139   6.816 -0.4861  0.6234  0.0365
 5931SOL    HW129426   4.718   3.154   6.829  0.4638 -3.9774 -1.4492
 5931SOL    HW229427   4.598   3.211   6.759  1.8816  1.5352  0.1070
 5932SOL     OW29428   1.077   2.554   2.559 -0.2963  0.3320  0.0242
 5932SOL    HW129429   1.088   2.461   2.582 -3.4453  0.0766  0.5929
 5932SOL    HW229430   0.983   2.567   2.575 -0.7301 -0.3558 -1.9139
 5933SOL     OW29431   3.853   3.124   6.004 -0.4993 -0.1570  0.3019
 5933SOL    HW129432   3.866   3.216   6.026 -0.0314 -0.1308 -0.0787
 5933SOL    HW229433   3.879   3.079   6.085  0.7908 -0.7782 -0.4405
 5934SOL     OW29434   3.137   2.754  15.034 -0.1377  0.0530  0.8459
 5934SOL    HW129435   3.187   2.826  14.997  2.4770 -3.2085 -1.9107
 5934SOL    HW229436   3.110   2.703  14.958  0.4565  2.6400 -1.0822
 5935SOL     OW29437   2.251   3.066  16.990  0.1216  0.7237 -0.2881
 5935SOL    HW129438   2.202   3.031  16.915  0.0783 -0.3161  0.2198
 5935SOL    HW229439   2.253   3.161  16.976  0.4428  0.7154 -0.2922
 5936SOL     OW29440   1.282   2.279  14.679 -0.1488  0.1361 -0.6413
 5936SOL    HW129441   1.329   2.336  14.741 -0.3491 -1.1564  0.6927
 5936SOL    HW229442   1.193   2.284  14.714 -0.5595 -0.3534 -1.6187
 5937SOL     OW29443   0.536   4.544   7.741 -0.4711 -0.0558  0.3247
 5937SOL    HW129444   0.632   4.551   7.738 -0.6375  2.4778  0.6752
 5937SOL    HW229445   0.526   4.616   7.677  1.0457  0.1716  0.3428
 5938SOL     OW29446   3.771   3.655   5.709  0.0257  0.0162 -0.2394
 5938SOL    HW129447   3.851   3.608   5.689 -0.3247 -0.6354 -0.1251
 5938SOL    HW229448   3.762   3.646   5.804  0.4352 -0.1144 -0.2163
 5939SOL     OW29449   1.043   0.572   2.895  0.0159  0.0387 -0.1435
 5939SOL    HW129450   1.015   0.493   2.941  0.5011 -0.1832 -0.2285
 5939SOL    HW229451   0.997   0.571   2.812 -0.4108  0.5800  0.0854
 5940SOL     OW29452   4.505   1.627  17.292 -0.3407  0.0881  0.1428
 5940SOL    HW129453   4.511   1.671  17.207 -1.2212 -0.8073 -0.3753
 5940SOL    HW229454   4.540   1.695  17.350  2.0802 -0.2585 -0.8797
 5941SOL     OW29455   2.817   1.725   5.495  0.2086  0.1295  0.0079
 5941SOL    HW129456   2.872   1.798   5.523 -0.6977  1.1538 -0.8637
 5941SOL    HW229457   2.758   1.771   5.435 -1.1641 -0.8406  0.5996
 5942SOL     OW29458   3.783   0.630   0.456  0.0647 -0.3718 -0.2345
 5942SOL    HW129459   3.714   0.696   0.461 -0.1969 -0.6184 -0.5329
 5942SOL    HW229460   3.795   0.614   0.550  0.7824 -1.1433 -0.4561
 5943SOL     OW29461   3.051   3.823   3.280 -0.7926 -0.3773 -0.1691
 5943SOL    HW129462   3.120   3.761   3.305 -1.2322 -1.2854 -1.2201
 5943SOL    HW229463   2.989   3.760   3.243  0.1498 -0.6992 -1.1899
 5944SOL     OW29464   0.615   2.925   1.086 -0.0510  0.0619  0.1884
 5944SOL    HW129465   0.556   2.962   1.153 -1.1145  0.3655 -0.9117
 5944SOL    HW229466   0.685   2.891   1.142 -1.6032  0.5215  2.4287
 5945SOL     OW29467   4.198   3.798   5.799 -0.2399 -0.6033 -0.1411
 5945SOL    HW129468   4.227   3.827   5.713  0.0023  1.6210  0.6759
 5945SOL    HW229469   4.138   3.730   5.770 -1.9094  1.0925 -0.6945
 5946SOL     OW29470   4.559   2.815  13.395  0.4927 -0.0257  0.3872
 5946SOL    HW129471   4.464   2.813  13.409  0.4677  0.8671  0.3064
 5946SOL    HW229472   4.569   2.837  13.303 -1.2691 -1.5729 -0.1693
 5947SOL     OW29473   2.909   0.240   5.443  0.7262 -0.5608 -0.2531
 5947SOL    HW129474   2.861   0.230   5.526  0.1299 -1.3465 -0.6883
 5947SOL    HW229475   2.907   0.153   5.404  2.1188 -0.9123  0.4365
 5948SOL     OW29476   2.830   4.491  16.501 -0.1497  0.1815 -1.0548
 5948SOL    HW129477   2.758   4.443  16.542  1.1969 -0.4403  0.5631
 5948SOL    HW229478   2.808   4.477  16.409 -0.3107  0.7019 -1.0910
 5949SOL     OW29479   2.299   1.359   0.759  0.0397  0.2672  0.4489
 5949SOL    HW129480   2.353   1.332   0.834 -0.8245 -0.2093  0.9021
 5949SOL    HW229481   2.241   1.418   0.807 -2.0592  2.6898 -5.1635
 5950SOL     OW29482   0.504   0.058   7.188 -0.1338  0.4054  0.0513
 5950SOL    HW129483   0.493   0.153   7.194 -0.8923  0.2478  1.1103
 5950SOL    HW229484   0.474   0.036   7.100  0.8107  0.1295 -0.1983
 5951SOL     OW29485   3.614   2.139  15.413  0.7391  0.1290  0.4774
 5951SOL    HW129486   3.657   2.087  15.345  0.8299  1.6270 -0.6090
 5951SOL    HW229487   3.690   2.151  15.471 -0.0151  2.0339  1.0543
 5952SOL     OW29488   0.967   3.753   6.407 -0.0415 -0.3637 -0.2849
 5952SOL    HW129489   1.062   3.753   6.394  0.2597  0.9146  1.8716
 5952SOL    HW229490   0.961   3.790   6.495 -1.7837 -2.6561  0.5686
 5953SOL     OW29491   1.491   3.623  10.034  0.7805  0.4061  0.1087
 5953SOL    HW129492   1.457   3.552   9.979 -1.7112  1.0968  0.7375
 5953SOL    HW229493   1.530   3.681   9.970  1.0341  1.0071  0.8058
 5954SOL     OW29494   2.266   1.248   8.437  0.3136 -0.0444 -0.3321
 5954SOL    HW129495   2.171   1.255   8.433  0.3961  0.1489 -1.7877
 5954SOL    HW229496   2.281   1.165   8.392  0.8721  1.3809 -2.7419
 5955SOL     OW29497   4.121   2.858   8.610 -0.2777  0.3989  0.3023
 5955SOL    HW129498   4.185   2.905   8.557 -2.2389  1.9617 -0.7157
 5955SOL    HW229499   4.144   2.771   8.578 -3.0724 -0.4777  0.6680
 5956SOL     OW29500   3.871   1.750   6.804 -0.3200  0.4856 -0.0291
 5956SOL    HW129501   3.876   1.806   6.882  0.6283  0.2925  0.0550
 5956SOL    HW229502   3.891   1.814   6.735  0.8362 -0.0782 -0.2115
 5957SOL     OW29503   0.792   1.156   1.421 -0.5701  0.2128  0.2614
 5957SOL    HW129504   0.735   1.100   1.474 -2.0139 -0.4997 -2.0222
 5957SOL    HW229505   0.820   1.228   1.476  0.7803 -1.5873  1.9117
 5958SOL     OW29506   0.770   1.650   8.076 -0.1571  0.2364 -0.3552
 5958SOL    HW129507   0.779   1.677   7.985 -1.1101 -3.5182 -1.5767
 5958SOL    HW229508   0.676   1.632   8.072  0.1720 -1.6748  0.3017
 5959SOL     OW29509   4.308   4.481  15.462 -0.3223 -0.0024 -0.1484
 5959SOL    HW129510   4.223   4.517  15.436 -0.7885  0.1704  1.6649
 5959SOL    HW229511   4.305   4.403  15.406 -2.5428 -0.2986  0.3828
 5960SOL     OW29512   1.176   3.279  12.209 -0.5584  0.2870 -0.1360
 5960SOL    HW129513   1.245   3.266  12.145 -0.2957  0.1510  0.1741
 5960SOL    HW229514   1.131   3.360  12.184 -0.0535  0.6391  0.0830
 5961SOL     OW29515   1.600   2.407  10.973  0.3776 -0.4950 -0.7777
 5961SOL    HW129516   1.648   2.477  11.018 -0.0033 -0.8463  0.1475
 5961SOL    HW229517   1.670   2.344  10.953  0.5918 -0.7090  0.6804
 5962SOL     OW29518   0.814   2.402   8.402 -0.2208 -0.2852 -0.1322
 5962SOL    HW129519   0.764   2.457   8.463  0.4040 -0.1122  0.2280
 5962SOL    HW229520   0.742   2.361   8.356 -0.7129 -0.5338  0.8559
 5963SOL     OW29521   3.058   4.461  12.512 -0.6334 -0.2469 -0.0988
 5963SOL    HW129522   3.038   4.458  12.605 -0.0922  1.9735  0.0976
 5963SOL    HW229523   3.004   4.532  12.476  0.5047  0.0930 -1.1091
 5964SOL     OW29524   4.406   4.026  15.010 -0.1493 -0.2420  0.0882
 5964SOL    HW129525   4.395   4.115  14.975 -3.9033 -0.5926  0.4739
 5964SOL    HW229526   4.421   3.979  14.928 -0.6758  0.8433 -0.6385
 5965SOL     OW29527   0.570   0.186   2.521 -0.1121 -0.1377  0.7030
 5965SOL    HW129528   0.592   0.248   2.451 -0.4406 -1.5358 -0.6303
 5965SOL    HW229529   0.474   0.194   2.520  0.1850  3.6457  0.7384
 5966SOL     OW29530   2.742   2.869   2.681 -0.2189  0.1844 -0.0478
 5966SOL    HW129531   2.706   2.796   2.630 -0.6759  2.3737 -2.8127
 5966SOL    HW229532   2.835   2.844   2.683 -0.5571 -1.0098  0.5595
 5967SOL     OW29533   3.802   4.307   8.024 -0.6571  0.3024  0.2574
 5967SOL    HW129534   3.801   4.327   8.117  1.7539  2.9962 -0.2953
 5967SOL    HW229535   3.773   4.216   8.020 -0.0243  0.1534 -1.1796
 5968SOL     OW29536   3.659   4.194   9.345  0.5112 -0.5985 -0.4440
 5968SOL    HW129537   3.735   4.252   9.344  0.0765 -0.0129 -0.0218
 5968SOL    HW229538   3.631   4.204   9.254  1.2651 -0.7776 -0.6965
 5969SOL     OW29539   4.019   1.224   8.251 -0.5842  0.0576 -0.5856
 5969SOL    HW129540   4.080   1.153   8.229  0.1051  0.0316  1.4124
 5969SOL    HW229541   4.043   1.278   8.176  0.8934  0.3650  0.1074
 5970SOL     OW29542   4.303   4.029   2.652 -0.4507 -0.9510  0.6632
 5970SOL    HW129543   4.259   4.113   2.637  1.6776 -0.0195 -0.3383
 5970SOL    HW229544   4.396   4.049   2.662 -0.9472  1.8226 -0.2434
 5971SOL     OW29545   2.999   4.475   0.826  0.5379  0.8540  0.2379
 5971SOL    HW129546   3.074   4.533   0.837  0.8904  0.2497  0.9962
 5971SOL    HW229547   2.970   4.496   0.737  2.2499  3.8193  0.3817
 5972SOL     OW29548   1.110   1.059   5.260  0.4431  0.0690  0.3220
 5972SOL    HW129549   1.155   0.982   5.294  0.9747  0.2406  0.0028
 5972SOL    HW229550   1.183   1.118   5.280 -0.5941  1.5562 -0.3142
 5973SOL     OW29551   2.250   0.557   2.970 -0.2706 -0.2362 -0.2418
 5973SOL    HW129552   2.295   0.577   2.888 -0.0340  1.3918  0.2684
 5973SOL    HW229553   2.316   0.504   3.015  0.9148  1.9960  0.6583
 5974SOL     OW29554   2.364   2.145   6.777  0.5465 -0.4313 -0.4859
 5974SOL    HW129555   2.321   2.154   6.862 -0.5098  3.3832 -1.4351
 5974SOL    HW229556   2.292   2.111   6.725 -0.1038  3.0447 -1.8593
 5975SOL     OW29557   1.614   1.500   6.633  0.3096 -0.5492  0.7769
 5975SOL    HW129558   1.557   1.525   6.706  1.2453 -0.5390  1.5108
 5975SOL    HW229559   1.555   1.536   6.567  0.0885 -2.1570  0.0857
 5976SOL     OW29560   0.844   4.223   5.268 -0.0845  0.1457 -0.3187
 5976SOL    HW129561   0.880   4.252   5.185 -0.6277  0.6007 -0.3977
 5976SOL    HW229562   0.867   4.301   5.317 -0.1743  0.8487 -1.4060
 5977SOL     OW29563   0.430   4.678  12.207 -0.3065 -0.1242  0.5497
 5977SOL    HW129564   0.375   4.624  12.150  1.2572 -1.1404 -0.0052
 5977SOL    HW229565   0.476   4.604  12.247 -0.9459 -0.7268  0.1562
 5978SOL     OW29566   3.026   4.658   8.889 -0.2155  0.0661  0.1860
 5978SOL    HW129567   3.070   4.578   8.863 -2.6748 -0.9416 -0.9410
 5978SOL    HW229568   3.039   4.648   8.983 -0.9101 -2.7006 -0.0134
 5979SOL     OW29569   4.095   0.963   2.297 -0.1326 -0.2084  0.4379
 5979SOL    HW129570   4.178   0.971   2.249 -1.1800 -0.9157 -1.5092
 5979SOL    HW229571   4.063   1.047   2.263 -1.2725 -0.5120  0.7954
 5980SOL     OW29572   0.611   1.970  16.132  0.2908  0.5933 -0.2834
 5980SOL    HW129573   0.643   2.015  16.053 -1.8366  1.5629 -0.5995
 5980SOL    HW229574   0.522   1.937  16.120  0.2724  1.1284 -1.6716
 5981SOL     OW29575   2.340   0.448   6.835  0.0830 -0.3453  1.0055
 5981SOL    HW129576   2.342   0.352   6.831 -0.7120 -0.3796  1.3625
 5981SOL    HW229577   2.393   0.480   6.762  0.2806  1.1425  1.8005
 5982SOL     OW29578   3.691   0.964  17.316 -0.3027 -0.3637 -0.1923
 5982SOL    HW129579   3.674   1.029  17.247 -0.4593 -0.3355 -0.1273
 5982SOL    HW229580   3.619   0.986  17.374  0.6346 -0.9745  1.2045
 5983SOL     OW29581   1.658   0.427   7.340  0.0133 -0.0394 -0.1982
 5983SOL    HW129582   1.733   0.484   7.320 -0.4124  1.3100  2.1302
 5983SOL    HW229583   1.601   0.473   7.402  0.5391  0.0604  0.2074
 5984SOL     OW29584   2.779   3.015   2.245 -0.1112  0.0753  0.0841
 5984SOL    HW129585   2.788   3.080   2.175  0.8621  0.1324  0.2666
 5984SOL    HW229586   2.765   2.937   2.192  0.3649  0.3331 -0.4184
 5985SOL     OW29587   4.560   4.128   2.693 -0.6333  0.4642  0.2063
 5985SOL    HW129588   4.527   4.206   2.736 -0.5216 -0.0126  1.1588
 5985SOL    HW229589   4.648   4.158   2.672 -0.5175 -1.2120 -1.8321
 5986SOL     OW29590   1.420   3.256   4.900  0.7121 -0.6768 -0.0697
 5986SOL    HW129591   1.409   3.195   4.973  1.1013 -0.1218  0.4542
 5986SOL    HW229592   1.401   3.194   4.830  0.8572 -1.0069  0.1821
 5987SOL     OW29593   3.153   2.711   7.697 -0.8093  0.1453  0.9774
 5987SOL    HW129594   3.168   2.617   7.700  0.6975  0.3679  0.4523
 5987SOL    HW229595   3.241   2.748   7.690 -1.6074  1.7065 -0.7210
 5988SOL     OW29596   2.703   0.446  17.582 -0.2476  0.4387  0.0143
 5988SOL    HW129597   2.756   0.420  17.658  0.3621  1.3849 -0.0858
 5988SOL    HW229598   2.708   0.537  17.611 -1.2232  1.4640 -3.1385
 5989SOL     OW29599   0.775   1.400  15.689 -0.1156 -0.1778  0.2492
 5989SOL    HW129600   0.778   1.455  15.767 -2.8048  0.3542  0.0070
 5989SOL    HW229601   0.688   1.363  15.703  0.9914 -3.0490 -0.6076
 5990SOL     OW29602   1.056   1.244   8.475  0.0426 -0.1884 -0.5880
 5990SOL    HW129603   1.137   1.263   8.523  0.3590 -0.4089 -1.0262
 5990SOL    HW229604   0.994   1.306   8.512  0.0158 -0.6216  0.0909
 5991SOL     OW29605   1.691   1.162  15.198  0.1506  0.2196  0.4104
 5991SOL    HW129606   1.691   1.079  15.150 -0.4233  0.3265  0.2334
 5991SOL    HW229607   1.672   1.223  15.127  1.6788 -1.0876 -1.1371
 5992SOL     OW29608   4.279   3.088   2.651 -0.4415  0.4296 -0.0080
 5992SOL    HW129609   4.309   3.082   2.742  1.4662 -2.1755 -0.8036
 5992SOL    HW229610   4.346   3.148   2.619 -0.9665  1.1994  0.3322
 5993SOL     OW29611   4.351   0.032   3.992  0.0564 -0.4803  0.4450
 5993SOL    HW129612   4.394   4.693   4.017  0.7425  0.5969  2.7624
 5993SOL    HW229613   4.282   4.741   3.935 -1.2016  0.5963  1.3241
 5994SOL     OW29614   1.396   4.633   9.755  0.4760 -0.0496  0.3460
 5994SOL    HW129615   1.375   4.692   9.827  2.0617  0.8954  0.0474
 5994SOL    HW229616   1.452   4.568   9.797  1.4553  1.0737  0.7985
 5995SOL     OW29617   3.153   4.594   2.891  0.1661 -0.4396  0.6560
 5995SOL    HW129618   3.199   4.565   2.813  0.4398 -1.4569  1.1989
 5995SOL    HW229619   3.167   4.517   2.946 -0.5348 -1.3277 -0.3919
 5996SOL     OW29620   1.407   2.629  11.317 -0.1375 -0.0648 -0.3014
 5996SOL    HW129621   1.450   2.686  11.381 -1.5108 -0.0440  0.5856
 5996SOL    HW229622   1.437   2.545  11.350 -0.7938 -1.0208 -2.1714
 5997SOL     OW29623   4.072   4.183   1.202  0.5771 -0.2993 -0.0559
 5997SOL    HW129624   4.156   4.201   1.159  0.7646  1.2071  0.9593
 5997SOL    HW229625   4.084   4.215   1.291 -1.1997  0.4423 -0.0811
 5998SOL     OW29626   1.147   3.270   4.575 -0.4254  0.6706  0.1158
 5998SOL    HW129627   1.059   3.260   4.539 -1.1823 -0.6191  2.3308
 5998SOL    HW229628   1.137   3.197   4.636 -3.9411 -0.8008 -2.2078
 5999SOL     OW29629   3.105   3.753   3.610  1.0128  0.5441 -0.0681
 5999SOL    HW129630   3.114   3.826   3.549  1.9083  0.3056 -0.2270
 5999SOL    HW229631   3.104   3.682   3.546  1.5256  0.1209  0.3965
 6000SOL     OW29632   3.741   2.329   6.314  0.1970 -0.0760 -0.1236
 6000SOL    HW129633   3.758   2.410   6.267  3.5123 -0.3654  0.5255
 6000SOL    HW229634   3.729   2.272   6.239 -3.1218 -1.1023  1.2123
 6001SOL     OW29635   2.768   1.772   4.759  0.1116  0.7133 -0.2196
 6001SOL    HW129636   2.788   1.679   4.770 -0.6341  0.4880 -0.8508
 6001SOL    HW229637   2.775   1.799   4.851 -1.7969  0.0664  0.1126
 6002SOL     OW29638   0.385   1.089   8.048  0.8846  0.0787 -0.1669
 6002SOL    HW129639   0.389   1.008   8.098  1.6977  0.3903  0.2665
 6002SOL    HW229640   0.397   1.162   8.109 -0.2042  0.5690 -0.5401
 6003SOL     OW29641   4.337   1.426  12.882  0.1937  0.0482 -0.4001
 6003SOL    HW129642   4.409   1.378  12.922 -0.8920 -1.1016  0.1950
 6003SOL    HW229643   4.377   1.450  12.798  0.1395 -0.4909 -0.5842
 6004SOL     OW29644   2.390   3.384   9.535 -0.2678 -0.0900 -0.1141
 6004SOL    HW129645   2.398   3.476   9.512 -2.7752  0.5775  1.6437
 6004SOL    HW229646   2.476   3.366   9.573  0.3525 -0.0906 -1.5015
 6005SOL     OW29647   0.749   3.971   6.804 -0.9297  0.1390  0.2779
 6005SOL    HW129648   0.834   4.001   6.837 -0.7889 -0.6547  0.6423
 6005SOL    HW229649   0.727   3.903   6.868  0.1044 -2.1305 -1.7753
 6006SOL     OW29650   3.341   2.008   5.502 -0.1918 -0.1401  0.1540
 6006SOL    HW129651   3.283   1.952   5.553  0.8537 -1.4319 -0.0747
 6006SOL    HW229652   3.334   2.091   5.550  0.0477 -1.7057  2.8847
 6007SOL     OW29653   4.680   2.158   3.458 -0.2182  0.0776 -0.2632
 6007SOL    HW129654   4.655   2.189   3.370  0.9416 -0.6642 -0.8402
 6007SOL    HW229655   0.033   2.156   3.468 -0.4820 -1.3152  1.9921
 6008SOL     OW29656   2.296   2.501   3.895  0.4093 -0.6721  0.2248
 6008SOL    HW129657   2.287   2.405   3.891 -0.1265 -0.5794 -0.9586
 6008SOL    HW229658   2.207   2.532   3.879  0.1082 -2.1080 -0.8928
 6009SOL     OW29659   3.613   3.217  14.661  0.2101 -0.1675  0.1106
 6009SOL    HW129660   3.594   3.218  14.754 -0.1865 -0.7901  0.0371
 6009SOL    HW229661   3.527   3.235  14.623  0.0392 -1.6148 -0.2228
 6010SOL     OW29662   1.452   4.137   6.177  0.0073 -0.5417 -0.0655
 6010SOL    HW129663   1.406   4.221   6.170 -0.1424 -0.5803  0.4237
 6010SOL    HW229664   1.412   4.097   6.100 -0.5811 -3.6804  1.8639
 6011SOL     OW29665   1.665   0.096   8.518  0.4834  0.2597  0.1320
 6011SOL    HW129666   1.649   0.112   8.610 -0.0061 -2.3877  0.5068
 6011SOL    HW229667   1.741   0.154   8.520  1.2961 -0.8686  1.6985
 6012SOL     OW29668   3.039   3.341   5.610 -0.1148  0.1186 -0.1467
 6012SOL    HW129669   3.075   3.355   5.522  1.1226 -1.9832  0.0214
 6012SOL    HW229670   3.119   3.326   5.660 -0.6772  2.7631  1.5182
 6013SOL     OW29671   4.290   4.121  13.877 -0.0201 -0.4040 -0.4651
 6013SOL    HW129672   4.362   4.105  13.938 -0.4354  1.0947  0.4199
 6013SOL    HW229673   4.333   4.175  13.812 -1.7040  0.0826 -1.1845
 6014SOL     OW29674   3.870   2.549   4.878 -0.5900  0.3353 -0.0347
 6014SOL    HW129675   3.910   2.558   4.791 -0.9317 -2.2914 -0.4533
 6014SOL    HW229676   3.893   2.456   4.878 -2.4798 -0.1394 -1.3360
 6015SOL     OW29677   0.270   0.680   3.031  0.3102 -0.3187  0.5350
 6015SOL    HW129678   0.301   0.755   3.082 -0.4910  1.1419 -1.1092
 6015SOL    HW229679   0.318   0.601   3.055 -2.8748 -3.0713 -2.1936
 6016SOL     OW29680   0.168   1.727   7.833  0.5176  0.5076  0.2268
 6016SOL    HW129681   0.105   1.655   7.837 -0.7148  1.5475 -0.5065
 6016SOL    HW229682   0.172   1.765   7.920 -1.0677 -1.2142  1.0603
 6017SOL     OW29683   4.369   0.637  12.102  0.6236  0.3624 -0.1300
 6017SOL    HW129684   4.368   0.646  12.007  1.2338 -1.4819 -0.3235
 6017SOL    HW229685   4.291   0.684  12.130 -0.7618 -1.7094 -0.4591
 6018SOL     OW29686   2.844   0.719  12.147 -0.4869  0.0556 -0.2957
 6018SOL    HW129687   2.865   0.644  12.091 -0.2251 -0.1895  0.1304
 6018SOL    HW229688   2.916   0.719  12.210  0.5881 -0.7472 -1.4992
 6019SOL     OW29689   1.337   4.639   7.286  0.0396 -0.1763 -0.5986
 6019SOL    HW129690   1.341   4.583   7.209 -1.7784 -0.8135 -0.2274
 6019SOL    HW229691   1.260   4.604   7.331  1.1321  0.4934  1.8017
 6020SOL     OW29692   2.297   2.811  16.504 -0.0161  0.4409 -0.2354
 6020SOL    HW129693   2.227   2.871  16.478 -3.3687 -1.7232  3.5852
 6020SOL    HW229694   2.254   2.725  16.508  0.9605 -0.0638 -0.7637
 6021SOL     OW29695   2.232   1.086  11.421  0.3951 -0.4002  0.7734
 6021SOL    HW129696   2.280   1.163  11.449  0.3443 -0.0716 -0.0516
 6021SOL    HW229697   2.305   1.025  11.436 -0.4866 -1.3427  1.2933
 6022SOL     OW29698   3.242   0.721   5.492  0.0767 -0.3746 -0.1584
 6022SOL    HW129699   3.153   0.727   5.457  0.4536 -0.8464 -1.1903
 6022SOL    HW229700   3.217   0.688   5.578  1.1085 -0.9333 -0.0788
 6023SOL     OW29701   3.325   3.084   6.831  0.8020 -0.0141  0.5313
 6023SOL    HW129702   3.296   3.086   6.740 -1.0361  2.6312  1.1584
 6023SOL    HW229703   3.349   3.176   6.844 -1.9037  0.9868 -1.2796
 6024SOL     OW29704   2.385   1.251  16.841  0.3378 -0.5913 -0.0289
 6024SOL    HW129705   2.338   1.281  16.919 -1.3699 -1.0988 -0.8835
 6024SOL    HW229706   2.337   1.174  16.812 -0.8813 -0.0608  0.6155
 6025SOL     OW29707   4.338   4.209  17.362  0.2411 -0.8115 -0.6415
 6025SOL    HW129708   4.311   4.181  17.449  0.4674  1.1328  0.0503
 6025SOL    HW229709   4.322   4.303  17.370 -2.7613 -1.6630  3.2204
 6026SOL     OW29710   2.025   2.574   7.993  0.7815 -0.1356  0.1364
 6026SOL    HW129711   2.108   2.580   8.040 -1.1142 -0.2387  3.4611
 6026SOL    HW229712   1.969   2.624   8.052 -0.1380  1.2603 -1.8935
 6027SOL     OW29713   4.517   1.253  13.323  0.3464  0.4284  0.1362
 6027SOL    HW129714   4.549   1.263  13.233  0.4882  2.1407  0.3722
 6027SOL    HW229715   4.451   1.185  13.308  0.4611  0.5991 -1.2153
 6028SOL     OW29716   3.886   3.151   0.237  0.8354 -0.2876  0.3925
 6028SOL    HW129717   3.907   3.243   0.222  0.3515 -0.2477 -0.0450
 6028SOL    HW229718   3.926   3.096   0.170  1.3041  1.9142 -1.1571
 6029SOL     OW29719   1.351   4.356   4.384  0.8995  0.2062 -0.1970
 6029SOL    HW129720   1.311   4.443   4.391 -0.9549 -0.6044 -0.6793
 6029SOL    HW229721   1.327   4.342   4.292  3.0621  1.0514 -0.8892
 6030SOL     OW29722   3.158   4.682   4.253 -0.1295  0.0411 -0.4339
 6030SOL    HW129723   3.206   4.600   4.239  0.6203  0.1236  1.6200
 6030SOL    HW229724   3.177   4.729   4.173 -0.1845  3.3663  1.5141
 6031SOL     OW29725   2.881   0.624   8.156 -0.3830 -0.7355  0.2685
 6031SOL    HW129726   2.830   0.660   8.084  1.8141 -0.8487 -1.3432
 6031SOL    HW229727   2.828   0.658   8.228 -0.7853  1.6294 -1.1534
 6032SOL     OW29728   1.537   3.725   2.957  0.4341 -0.1273 -0.0244
 6032SOL    HW129729   1.549   3.643   2.911 -0.8290 -0.7807  0.8047
 6032SOL    HW229730   1.460   3.776   2.929  1.2982  0.0952 -2.0255
 6033SOL     OW29731   4.688   2.947   6.623  0.4972  0.7318 -0.1139
 6033SOL    HW129732   4.692   3.037   6.655 -1.3693  1.0474 -0.7980
 6033SOL    HW229733   4.608   2.955   6.572  1.0559 -1.0456 -1.3034
 6034SOL     OW29734   3.582   0.974  12.552  0.3755 -0.1344 -0.1272
 6034SOL    HW129735   3.615   0.891  12.587 -0.4141 -0.6590 -0.6246
 6034SOL    HW229736   3.494   0.977  12.590  1.3596  2.5918  1.9444
 6035SOL     OW29737   0.694   1.544   3.496 -0.6291  0.1350  0.1984
 6035SOL    HW129738   0.778   1.571   3.534  0.0294 -1.1238 -0.3512
 6035SOL    HW229739   0.698   1.450   3.517  0.3318 -0.0546 -0.8372
 6036SOL     OW29740   1.342   1.395   2.381 -0.0244  0.3277 -0.3123
 6036SOL    HW129741   1.408   1.329   2.403 -2.5893 -1.7093  1.1186
 6036SOL    HW229742   1.362   1.420   2.290 -2.4931 -0.9610 -1.1790
 6037SOL     OW29743   3.686   2.915   2.135  0.0666  0.1259  0.4271
 6037SOL    HW129744   3.694   2.823   2.156  2.6138  0.0122 -1.0403
 6037SOL    HW229745   3.695   2.957   2.220 -0.5471  0.4713  0.3246
 6038SOL     OW29746   4.362   4.068   4.945  0.1979  0.5347  0.4512
 6038SOL    HW129747   4.354   4.004   4.874  0.1305 -2.3054  3.0266
 6038SOL    HW229748   4.456   4.055   4.952 -0.1416  0.2784  4.3452
 6039SOL     OW29749   2.992   0.385   3.577 -0.4268 -0.1571 -0.1210
 6039SOL    HW129750   2.944   0.447   3.633 -0.3228 -1.3409  1.2916
 6039SOL    HW229751   2.970   0.304   3.622 -0.6931 -0.4405 -0.7708
 6040SOL     OW29752   0.207   2.330  10.428  0.6725 -0.3782 -0.3532
 6040SOL    HW129753   0.181   2.325  10.520  0.0911  1.4391 -0.4152
 6040SOL    HW229754   0.122   2.317  10.386  0.1406  0.3685  0.5083
 6041SOL     OW29755   4.264   2.268   8.224 -0.2332 -0.0989  0.4659
 6041SOL    HW129756   4.187   2.291   8.173 -0.0798  0.4525  0.4906
 6041SOL    HW229757   4.222   2.232   8.302 -1.8442 -0.4713 -0.5782
 6042SOL     OW29758   0.710   4.026  12.348 -0.2047 -0.6119 -0.8099
 6042SOL    HW129759   0.723   4.088  12.277  1.7406 -1.0441 -0.8231
 6042SOL    HW229760   0.648   3.957  12.325  0.3560 -1.4830  0.2498
 6043SOL     OW29761   0.032   0.056   4.355  0.3099 -0.1424  0.0903
 6043SOL    HW129762   4.705   0.054   4.288  2.0005  2.2461 -1.6779
 6043SOL    HW229763   4.717   0.048   4.432  1.5053  1.1790  1.0960
 6044SOL     OW29764   1.228   1.436   0.568  0.2523  0.1474 -0.7859
 6044SOL    HW129765   1.236   1.532   0.569  1.2205  0.0802 -1.5367
 6044SOL    HW229766   1.314   1.412   0.600 -0.0951  0.6741  0.5338
 6045SOL     OW29767   1.266   2.598   1.999 -0.1277 -0.5489  0.2310
 6045SOL    HW129768   1.305   2.634   1.919  0.2712  1.1252  1.1759
 6045SOL    HW229769   1.230   2.520   1.956 -0.0817 -0.0008 -0.8084
 6046SOL     OW29770   1.342   2.628   7.536  0.2011 -0.5179 -0.4679
 6046SOL    HW129771   1.378   2.617   7.448  0.0478 -0.8880 -0.4851
 6046SOL    HW229772   1.323   2.721   7.548 -2.2784 -0.8858 -1.6031
 6047SOL     OW29773   1.747   2.602   3.776  0.4555 -0.7681 -0.3339
 6047SOL    HW129774   1.729   2.659   3.701 -2.6569 -1.7957 -0.3884
 6047SOL    HW229775   1.762   2.669   3.842  0.5568 -0.4609 -0.6733
 6048SOL     OW29776   1.412   4.057   8.222 -0.2177 -0.3845  0.1151
 6048SOL    HW129777   1.369   4.140   8.198 -0.6865 -0.7983 -0.4833
 6048SOL    HW229778   1.399   4.056   8.317  1.5841  2.5636  0.3993
 6049SOL     OW29779   3.871   1.171   6.462 -0.6364  0.2960  0.2716
 6049SOL    HW129780   3.934   1.109   6.501 -1.1350  0.3604  1.1750
 6049SOL    HW229781   3.925   1.249   6.450 -0.4004  0.0186 -0.4354
 6050SOL     OW29782   0.962   0.560  14.831 -0.0770 -0.1087  0.6840
 6050SOL    HW129783   1.012   0.611  14.894 -0.8181  0.6167  0.6907
 6050SOL    HW229784   0.945   0.620  14.758 -0.4823 -0.9334  0.0936
 6051SOL     OW29785   2.586   4.169  17.169 -0.7153  0.1227  0.2296
 6051SOL    HW129786   2.605   4.262  17.177 -0.1352  0.0706 -0.5874
 6051SOL    HW229787   2.577   4.147  17.262 -1.0017  0.2307  0.2284
 6052SOL     OW29788   3.684   3.697  10.039  0.4068 -0.0765 -0.0299
 6052SOL    HW129789   3.591   3.703  10.016 -0.0714 -0.5444  1.7445
 6052SOL    HW229790   3.689   3.722  10.132 -0.3240 -3.7751  0.9917
 6053SOL     OW29791   0.765   2.735   3.395 -0.1113  0.0756 -0.4605
 6053SOL    HW129792   0.757   2.692   3.310 -1.1870 -0.2852 -0.1767
 6053SOL    HW229793   0.760   2.656   3.449 -2.7539 -0.3851 -1.3848
 6054SOL     OW29794   0.288   4.411   7.277  0.0765  0.6226  0.0837
 6054SOL    HW129795   0.310   4.434   7.367 -2.0034  2.4503  0.1155
 6054SOL    HW229796   0.281   4.316   7.284 -0.1345  0.5921 -0.5494
 6055SOL     OW29797   1.314   0.384   1.974  0.1206 -0.1610  0.0878
 6055SOL    HW129798   1.331   0.474   2.003 -2.5229  1.1324 -2.3685
 6055SOL    HW229799   1.300   0.350   2.063  0.8817  1.0714  0.6810
 6056SOL     OW29800   1.971   0.106   8.760 -0.4298  0.0575 -0.1106
 6056SOL    HW129801   2.044   0.137   8.814 -1.3780 -1.7549  2.2278
 6056SOL    HW229802   1.917   0.184   8.773 -2.4381 -1.4630  0.7541
 6057SOL     OW29803   1.853   3.203   5.643  0.0565 -0.0822 -0.3132
 6057SOL    HW129804   1.799   3.130   5.673 -0.6748  0.1611 -1.0436
 6057SOL    HW229805   1.863   3.175   5.552 -0.0406 -0.1473 -0.3030
 6058SOL     OW29806   3.083   3.579   5.016  0.0135  0.4712 -0.1003
 6058SOL    HW129807   3.075   3.596   5.109  0.3316 -0.0283  0.0175
 6058SOL    HW229808   3.173   3.603   4.993  0.3555  1.8315  2.6365
 6059SOL     OW29809   1.688   4.421   8.203  0.1484  0.4849  0.1376
 6059SOL    HW129810   1.598   4.396   8.184  0.5113 -1.3338  0.8727
 6059SOL    HW229811   1.683   4.516   8.190  0.5821  0.3790 -0.7947
 6060SOL     OW29812   1.158   0.705   6.741  0.2388 -0.3139  0.9151
 6060SOL    HW129813   1.185   0.694   6.650 -1.1027  1.9786  0.2640
 6060SOL    HW229814   1.226   0.769   6.763 -0.0161  0.7001 -1.2950
 6061SOL     OW29815   3.670   4.166   9.910 -0.0015 -0.3747 -0.4940
 6061SOL    HW129816   3.765   4.166   9.902  0.1328 -0.9471  1.0204
 6061SOL    HW229817   3.652   4.212   9.828 -0.5364  0.8357  0.3046
 6062SOL     OW29818   2.077   3.987   7.640 -0.6693  0.3619 -0.0806
 6062SOL    HW129819   2.098   4.079   7.654  1.0027 -0.4896  2.9663
 6062SOL    HW229820   2.031   3.972   7.722  0.7158  1.8959  0.9677
 6063SOL     OW29821   2.859   2.166  10.991  0.4035  0.1759 -0.1516
 6063SOL    HW129822   2.789   2.101  10.992  0.8147 -0.2459  1.7556
 6063SOL    HW229823   2.822   2.232  11.050  2.0736  1.6855 -0.7641
 6064SOL     OW29824   4.066   0.182   7.208 -0.2401 -0.4792 -0.3974
 6064SOL    HW129825   4.126   0.189   7.134  0.2463 -0.1272  0.0343
 6064SOL    HW229826   4.005   0.118   7.170  0.2595 -1.4756  0.4784
 6065SOL     OW29827   3.003   4.704   7.021  0.0009  0.2134 -0.4283
 6065SOL    HW129828   2.994   4.703   7.117 -0.3804 -1.5264 -0.4998
 6065SOL    HW229829   2.952   0.038   6.991 -3.0307 -1.4836  0.4958
 6066SOL     OW29830   1.524   2.041   8.027  0.3134 -0.2599  0.2753
 6066SOL    HW129831   1.600   2.086   8.066 -0.0335  2.3492 -2.0284
 6066SOL    HW229832   1.468   2.116   8.005  0.1106 -0.2134  0.9651
 6067SOL     OW29833   1.802   0.252   0.807 -0.5513  0.3291 -0.0576
 6067SOL    HW129834   1.726   0.229   0.754  1.8763 -0.0991 -3.3595
 6067SOL    HW229835   1.861   0.233   0.733 -1.1641  0.3985 -0.5646
 6068SOL     OW29836   0.757   0.440   9.662 -0.0857  0.1811 -0.1369
 6068SOL    HW129837   0.662   0.434   9.659 -0.2148  1.5753  1.6454
 6068SOL    HW229838   0.769   0.361   9.715 -2.5665  0.9303  1.5156
 6069SOL     OW29839   0.543   3.151   2.425  0.1838 -0.8132 -0.0094
 6069SOL    HW129840   0.621   3.110   2.463  0.9741 -0.9241 -1.7304
 6069SOL    HW229841   0.588   3.233   2.405  0.5747 -1.0851 -0.2409
 6070SOL     OW29842   3.988   4.062   2.550 -1.0636 -0.2124 -0.1060
 6070SOL    HW129843   3.966   4.016   2.631  1.1638  1.6349  1.5456
 6070SOL    HW229844   4.030   3.986   2.509 -1.4286  0.0649 -0.9953
 6071SOL     OW29845   1.350   0.410   4.800  0.0285  1.0954  0.1173
 6071SOL    HW129846   1.348   0.332   4.856 -2.4621  1.4385  0.4772
 6071SOL    HW229847   1.405   0.390   4.723 -0.8469  1.5708 -0.6276
 6072SOL     OW29848   1.152   0.838   8.916  0.8744  0.5538  0.6784
 6072SOL    HW129849   1.075   0.895   8.905  0.8610  0.0606 -1.7550
 6072SOL    HW229850   1.202   0.884   8.849 -1.4457  1.0647 -0.7012
 6073SOL     OW29851   0.710   4.404  17.544  0.0060  0.2127  0.6202
 6073SOL    HW129852   0.761   4.330  17.513  0.3718  0.2207  1.2074
 6073SOL    HW229853   0.660   4.371  17.618  0.4266  2.0342  1.7094
 6074SOL     OW29854   1.087   2.682   8.852 -0.5477  0.3097 -0.7110
 6074SOL    HW129855   1.024   2.663   8.782 -1.3859  1.7236 -0.3516
 6074SOL    HW229856   1.035   2.706   8.929 -0.8443 -1.5107 -0.3450
 6075SOL     OW29857   1.539   1.801   8.960 -0.0025 -0.3925 -0.3559
 6075SOL    HW129858   1.561   1.873   9.019  0.6719  0.6105 -1.8069
 6075SOL    HW229859   1.474   1.835   8.898 -0.9037  0.1617  0.8949
 6076SOL     OW29860   0.723   0.679   5.587 -0.1781 -0.3913 -0.0587
 6076SOL    HW129861   0.759   0.764   5.560 -0.8709 -0.2678 -0.5966
 6076SOL    HW229862   0.630   0.700   5.594  0.1245  0.4709  1.4244
 6077SOL     OW29863   0.283   0.759   6.265  0.0167 -0.4957 -0.1062
 6077SOL    HW129864   0.274   0.721   6.352  0.5094 -2.1569 -0.7791
 6077SOL    HW229865   0.298   0.676   6.220 -1.2425 -0.3125 -0.8660
 6078SOL     OW29866   1.079   1.480   9.493  0.3497 -0.0581 -0.1391
 6078SOL    HW129867   1.174   1.470   9.502  0.6235 -0.9156 -3.8586
 6078SOL    HW229868   1.065   1.572   9.471  1.4044 -0.5366 -2.8936
 6079SOL     OW29869   0.867   0.059   9.190 -0.4066  0.0116  0.1271
 6079SOL    HW129870   0.837   0.150   9.183 -0.5073  0.0520  1.1028
 6079SOL    HW229871   0.960   0.081   9.196 -0.9481  0.9375  4.7382
 6080SOL     OW29872   4.522   4.445   4.897 -0.2432  0.3444  0.3049
 6080SOL    HW129873   4.605   4.485   4.925 -1.3730  3.7267 -1.2087
 6080SOL    HW229874   4.495   4.397   4.975 -1.6465  1.3655  0.4410
 6081SOL     OW29875   3.207   1.817   2.234  0.2534 -0.2445  0.3630
 6081SOL    HW129876   3.276   1.815   2.300 -0.0137  0.2946  0.6558
 6081SOL    HW229877   3.130   1.804   2.289  0.3277 -1.1459  0.2538
 6082SOL     OW29878   4.490   2.128  17.760 -0.3384  0.2617 -0.2815
 6082SOL    HW129879   4.513   2.123  17.668 -0.5738 -0.0882 -0.3247
 6082SOL    HW229880   4.531   2.046   0.024 -3.3218  0.0623  3.6540
 6083SOL     OW29881   3.096   4.342   0.228 -0.6418  0.3618 -0.0434
 6083SOL    HW129882   3.108   4.253   0.262 -1.0573 -1.2707 -4.1018
 6083SOL    HW229883   3.088   4.319   0.135  0.9386  1.0768 -0.3502
 6084SOL     OW29884   2.163   3.365   6.874 -0.1195 -0.0684  0.3309
 6084SOL    HW129885   2.185   3.448   6.832  1.6254 -1.3290 -1.2261
 6084SOL    HW229886   2.202   3.304   6.812  1.7023 -1.5728  2.9696
 6085SOL     OW29887   0.644   3.977   7.711  0.1005  0.5272  0.2978
 6085SOL    HW129888   0.606   3.892   7.689  2.2246  0.3834 -2.7174
 6085SOL    HW229889   0.738   3.963   7.705 -0.4212 -1.9243 -2.1478
 6086SOL     OW29890   3.480   0.015   7.162 -0.0589 -0.6910 -0.4118
 6086SOL    HW129891   3.408   0.011   7.100 -0.6312 -0.4983  0.2361
 6086SOL    HW229892   3.470   4.673   7.207 -0.5911 -0.2519  0.2771
 6087SOL     OW29893   3.210   1.301   2.529 -0.0124 -0.4208 -0.4431
 6087SOL    HW129894   3.278   1.364   2.504 -2.2446  0.6803 -3.7850
 6087SOL    HW229895   3.168   1.279   2.446  0.5966  1.7212 -1.3356
 6088SOL     OW29896   4.059   1.769   6.171  0.2001 -0.0099 -0.1109
 6088SOL    HW129897   4.016   1.848   6.206 -0.7461  0.0839 -1.4722
 6088SOL    HW229898   4.038   1.701   6.235 -1.6231 -0.0372 -0.7430
 6089SOL     OW29899   1.908   4.160  11.198 -0.6751 -0.3119  0.4314
 6089SOL    HW129900   1.869   4.074  11.214  0.2348 -1.1479 -1.8513
 6089SOL    HW229901   1.895   4.200  11.284  0.9747  3.1016 -0.9086
 6090SOL     OW29902   2.254   2.187   0.548 -0.0788  0.0570  0.1135
 6090SOL    HW129903   2.247   2.272   0.506 -2.1184 -0.0276  0.2987
 6090SOL    HW229904   2.291   2.140   0.473  0.6969  1.1553 -0.1877
 6091SOL     OW29905   2.653   3.559  15.006  0.1909 -0.2261  0.0062
 6091SOL    HW129906   2.642   3.560  15.101  1.0851 -0.9291  0.1127
 6091SOL    HW229907   2.598   3.483  14.990  0.1141 -0.2800  0.5222
 6092SOL     OW29908   0.217   0.624   6.563  0.2564  0.3630 -0.5985
 6092SOL    HW129909   0.163   0.547   6.544  0.7302  1.0246 -4.7780
 6092SOL    HW229910   0.196   0.638   6.655 -2.3224 -3.0660 -0.6375
 6093SOL     OW29911   1.763   1.335   3.613  0.4112  0.0817  0.0184
 6093SOL    HW129912   1.846   1.336   3.660  0.2880  2.0244  0.1762
 6093SOL    HW229913   1.704   1.387   3.667 -1.1661 -1.3689 -0.2908
 6094SOL     OW29914   0.770   2.979   7.610 -0.4530  0.4794 -0.6564
 6094SOL    HW129915   0.765   2.944   7.521  0.7733  0.3214 -0.6630
 6094SOL    HW229916   0.844   2.936   7.654 -0.6737 -0.2999 -1.0440
 6095SOL     OW29917   0.419   3.578   9.836  0.1740  0.3115  0.3656
 6095SOL    HW129918   0.433   3.594   9.929  0.2499 -2.0256  0.7583
 6095SOL    HW229919   0.504   3.539   9.816  0.0277 -0.5329  1.4127
 6096SOL     OW29920   4.299   3.539   7.309  0.4458 -0.0990  0.3621
 6096SOL    HW129921   4.306   3.566   7.217 -0.1901 -0.4213  0.2209
 6096SOL    HW229922   4.345   3.606   7.359  2.8900 -1.1008 -0.5631
 6097SOL     OW29923   0.434   2.334  12.082  0.0002 -0.6877  0.4356
 6097SOL    HW129924   0.416   2.243  12.106 -1.5371 -0.2351  0.9739
 6097SOL    HW229925   0.464   2.373  12.164  0.9266 -0.4614 -0.0073
 6098SOL     OW29926   2.277   3.373   2.316 -0.1010 -0.3585 -0.1916
 6098SOL    HW129927   2.259   3.374   2.222 -2.4162 -1.0693  0.2529
 6098SOL    HW229928   2.357   3.426   2.319 -0.5903  0.3765 -0.3441
 6099SOL     OW29929   3.975   3.053  11.102 -0.0393 -0.5271 -0.1075
 6099SOL    HW129930   4.047   3.056  11.166 -0.9225  0.7389  0.8403
 6099SOL    HW229931   3.971   2.958  11.096 -1.2003 -0.4317 -0.6766
 6100SOL     OW29932   2.377   4.089   5.736 -0.0522 -0.2941  0.2487
 6100SOL    HW129933   2.373   3.998   5.767 -1.2773 -0.6784 -1.0644
 6100SOL    HW229934   2.348   4.138   5.813  1.7756  1.6141 -0.2929
 6101SOL     OW29935   0.456   3.624   8.787 -0.1673  0.2119  0.0202
 6101SOL    HW129936   0.361   3.628   8.778 -0.0532 -0.1807 -1.5200
 6101SOL    HW229937   0.469   3.552   8.849 -0.6045 -1.0309 -1.3202
 6102SOL     OW29938   0.073   0.737  11.015 -0.1738  0.6538 -0.7291
 6102SOL    HW129939   0.141   0.798  10.988  0.3062  0.2787 -0.3540
 6102SOL    HW229940   0.005   0.792  11.053 -1.2943 -0.6525 -0.8207
 6103SOL     OW29941   1.015   4.044   5.423 -0.0471  0.5356  0.5497
 6103SOL    HW129942   1.104   4.063   5.455 -0.5657  2.5040  0.8424
 6103SOL    HW229943   1.005   4.132   5.387 -0.2735  0.9888  1.7255
 6104SOL     OW29944   4.392   3.021  12.167  0.0715  0.1856 -0.2108
 6104SOL    HW129945   4.421   3.099  12.119 -1.0892  1.0692  0.5410
 6104SOL    HW229946   4.476   2.976  12.176 -0.5281 -0.6717  1.0652
 6105SOL     OW29947   1.950   0.095   1.965  0.1750  0.1647 -0.2850
 6105SOL    HW129948   2.032   0.050   1.947 -0.6549 -0.9414 -1.2909
 6105SOL    HW229949   1.995   0.173   1.997  0.3961 -0.0403 -0.0988
 6106SOL     OW29950   0.226   2.169   4.810 -0.6361 -0.3568  0.5326
 6106SOL    HW129951   0.141   2.171   4.854 -0.4166 -0.5342  0.9635
 6106SOL    HW229952   0.279   2.110   4.863  1.1567  1.3595  0.6615
 6107SOL     OW29953   3.615   1.649   3.594 -0.1477 -0.4973  0.1244
 6107SOL    HW129954   3.541   1.608   3.640 -0.8937  0.0617 -0.5899
 6107SOL    HW229955   3.627   1.724   3.652 -1.7859  0.3274 -0.6266
 6108SOL     OW29956   0.495   3.757  10.575 -0.1926 -0.0409  0.4632
 6108SOL    HW129957   0.429   3.744  10.506 -0.9117 -2.1774  1.5705
 6108SOL    HW229958   0.454   3.820  10.633  2.5303  0.8833  1.3600
 6109SOL     OW29959   1.789   0.773   0.869  0.9905 -0.0372 -0.1172
 6109SOL    HW129960   1.868   0.769   0.814  0.1742  1.4553 -1.3900
 6109SOL    HW229961   1.812   0.699   0.924 -0.6342 -2.2699 -2.4276
 6110SOL     OW29962   2.115   1.165  10.117  0.2994  0.0113  0.1320
 6110SOL    HW129963   2.040   1.220  10.140 -1.0136 -1.2228 -1.1710
 6110SOL    HW229964   2.087   1.089  10.168  3.0436 -1.0416  0.0555
 6111SOL     OW29965   2.618   1.709   6.046 -0.3259 -0.3155  0.3326
 6111SOL    HW129966   2.530   1.670   6.043 -0.5080  0.1315 -0.1893
 6111SOL    HW229967   2.599   1.801   6.028  0.2388 -0.1156  0.7405
 6112SOL     OW29968   0.484   3.888   4.742  0.0933  0.2042  0.1846
 6112SOL    HW129969   0.434   3.879   4.824 -4.6516  0.6397 -2.6670
 6112SOL    HW229970   0.556   3.833   4.771  0.9717  1.2586 -0.0252
 6113SOL     OW29971   0.472   2.423  14.780 -0.0186 -0.9217 -0.3181
 6113SOL    HW129972   0.445   2.513  14.794  1.9477 -0.3116 -0.4374
 6113SOL    HW229973   0.477   2.429  14.685 -0.0147  0.1630 -0.2452
 6114SOL     OW29974   4.075   4.343   5.360  0.7491  0.7561  1.2294
 6114SOL    HW129975   4.042   4.325   5.448  0.6189 -1.3537  0.7478
 6114SOL    HW229976   4.000   4.314   5.309  2.2750 -0.3219 -0.4272
 6115SOL     OW29977   2.557   1.021   7.526  0.0560 -0.5127 -0.1717
 6115SOL    HW129978   2.584   1.094   7.582  0.4301 -2.0606  1.6793
 6115SOL    HW229979   2.645   0.999   7.497  0.0777 -0.0104 -0.4910
 6116SOL     OW29980   1.149   1.985   4.917  0.3370  0.2961 -0.2962
 6116SOL    HW129981   1.176   1.995   5.008 -2.3182 -0.0074  0.5186
 6116SOL    HW229982   1.178   1.895   4.899  1.1637  0.6832 -0.8998
 6117SOL     OW29983   2.188   1.191   7.006 -0.4528  0.1033  0.1084
 6117SOL    HW129984   2.143   1.276   7.006 -0.6723 -0.0092  0.8138
 6117SOL    HW229985   2.280   1.218   7.011 -0.2824 -0.1917 -1.7441
 6118SOL     OW29986   4.428   3.818   8.418  0.2378  0.1645 -0.4404
 6118SOL    HW129987   4.496   3.751   8.414  1.7187  1.4194  3.4941
 6118SOL    HW229988   4.373   3.780   8.350 -1.7047  2.9423 -0.4329
 6119SOL     OW29989   4.368   4.121   5.819  0.1922  0.4161 -0.1212
 6119SOL    HW129990   4.423   4.045   5.801  0.8862  1.5402 -2.7605
 6119SOL    HW229991   4.323   4.137   5.736 -0.5994 -1.0363  0.0348
 6120SOL     OW29992   1.085   2.691  17.147 -0.1274  0.0837 -0.1453
 6120SOL    HW129993   1.179   2.704  17.138 -0.1264  1.4401  1.7607
 6120SOL    HW229994   1.055   2.750  17.077  0.4982 -0.6697 -1.0391
 6121SOL     OW29995   2.081   1.629   8.184 -0.3449 -0.1460  0.3424
 6121SOL    HW129996   2.024   1.660   8.254 -0.0244  1.5623 -0.1431
 6121SOL    HW229997   2.033   1.555   8.147 -2.9634  0.0890  3.3132
 6122SOL     OW29998   3.450   2.924   3.892 -0.0176 -0.0341 -0.3089
 6122SOL    HW129999   3.421   2.917   3.983  1.6906  1.1107  0.3193
 6122SOL    HW230000   3.416   3.008   3.861  1.2274  0.2761 -0.8525
 6123SOL     OW30001   2.413   1.813   2.233  0.2413 -0.0894 -0.0135
 6123SOL    HW130002   2.420   1.761   2.153  1.3862  0.4126 -0.2396
 6123SOL    HW230003   2.401   1.904   2.208 -0.5506  0.4982  2.5361
 6124SOL     OW30004   3.329   1.326  16.343 -0.0677 -0.0175 -0.5242
 6124SOL    HW130005   3.257   1.369  16.389  1.9030  1.4131  1.2813
 6124SOL    HW230006   3.266   1.286  16.284 -0.9670  1.4988 -0.5900
 6125SOL     OW30007   0.385   1.651  11.956  0.1320  0.0145  0.4544
 6125SOL    HW130008   0.295   1.675  11.981  0.7385  0.8123  1.8459
 6125SOL    HW230009   0.366   1.608  11.873 -0.1260 -0.7019  0.8886
 6126SOL     OW30010   2.096   3.682   6.983 -0.0320  0.2524 -0.0229
 6126SOL    HW130011   2.147   3.643   7.054  0.9519 -1.2946 -1.5773
 6126SOL    HW230012   2.162   3.675   6.914 -1.5422 -0.8265 -1.3717
 6127SOL     OW30013   2.059   1.721   0.597  0.1341 -0.2376 -0.2547
 6127SOL    HW130014   1.988   1.665   0.629  0.1743  0.3300  0.8358
 6127SOL    HW230015   2.077   1.779   0.671 -1.9117 -1.8348  1.5204
 6128SOL     OW30016   3.805   4.686   2.494  0.2006 -0.8631 -0.3513
 6128SOL    HW130017   3.719   4.656   2.464  0.4858 -0.4313 -1.5786
 6128SOL    HW230018   3.774   0.000   2.565  0.8437 -1.5959  0.5054
 6129SOL     OW30019   3.721   0.275   6.729 -0.2176 -0.2026 -0.0478
 6129SOL    HW130020   3.743   0.366   6.707  1.2865  0.0054  2.2924
 6129SOL    HW230021   3.669   0.289   6.808  1.1602  1.0656  0.6459
 6130SOL     OW30022   3.455   0.892   1.869  0.0435  0.1909  0.4005
 6130SOL    HW130023   3.501   0.884   1.786  1.6145 -2.3686  1.5226
 6130SOL    HW230024   3.425   0.804   1.891  0.4782  0.0178  0.3031
 6131SOL     OW30025   2.655   4.265  13.777  0.2481 -0.2654  0.7780
 6131SOL    HW130026   2.614   4.188  13.816 -0.7418 -0.2637 -0.2463
 6131SOL    HW230027   2.587   4.272  13.710  0.7061 -1.5086  0.1949
 6132SOL     OW30028   1.465   4.322  11.130  0.5401 -0.0901 -0.0722
 6132SOL    HW130029   1.402   4.269  11.081 -0.3409  1.6624 -0.8739
 6132SOL    HW230030   1.549   4.294  11.094  0.7245  0.1440  0.1803
 6133SOL     OW30031   0.838   0.066   2.223  0.3336  0.0160  0.1721
 6133SOL    HW130032   0.746   0.084   2.202  0.8652  1.5376 -0.8252
 6133SOL    HW230033   0.831   0.021   2.307 -0.8174 -1.6512 -0.7893
 6134SOL     OW30034   2.646   3.867  10.244  0.0886  0.1841  0.3120
 6134SOL    HW130035   2.667   3.957  10.221  0.8235  0.0080  0.2972
 6134SOL    HW230036   2.553   3.857  10.224 -0.2605  2.0065  1.0159
 6135SOL     OW30037   4.432   2.250   7.606  0.8202 -0.2981  0.3298
 6135SOL    HW130038   4.475   2.287   7.529  0.6299 -1.0403 -0.1291
 6135SOL    HW230039   4.419   2.158   7.581 -1.1939  0.8535 -2.8236
 6136SOL     OW30040   4.216   2.538  13.524 -0.1743  0.3320 -0.1000
 6136SOL    HW130041   4.284   2.520  13.589  1.4852  3.6797 -0.8532
 6136SOL    HW230042   4.152   2.468  13.537  0.3220  0.2484  1.8146
 6137SOL     OW30043   0.936   2.308   1.903 -0.2059  0.6997  0.6775
 6137SOL    HW130044   0.899   2.225   1.934 -0.7526  0.7632  0.1970
 6137SOL    HW230045   0.858   2.350   1.865 -0.3277  0.6051  0.8232
 6138SOL     OW30046   0.299   1.543   4.751  0.3102 -0.4140 -0.0581
 6138SOL    HW130047   0.318   1.532   4.657 -3.1581  0.0899 -0.7929
 6138SOL    HW230048   0.209   1.574   4.745  0.0870 -0.9406  0.6866
 6139SOL     OW30049   3.752   2.610  12.123  0.0648  0.8958  0.1662
 6139SOL    HW130050   3.772   2.587  12.213 -3.1419 -1.3996  0.3351
 6139SOL    HW230051   3.698   2.689  12.132 -1.1559  0.0724  0.1665
 6140SOL     OW30052   1.276   1.435   5.138  0.3246 -0.7817  0.0522
 6140SOL    HW130053   1.329   1.358   5.159  1.5865  0.4737  1.4475
 6140SOL    HW230054   1.319   1.513   5.174  0.2799  0.2544 -2.1232
 6141SOL     OW30055   1.342   1.942   6.380  0.1624  0.1269  0.0094
 6141SOL    HW130056   1.378   2.014   6.432  1.8766 -1.4830  1.0675
 6141SOL    HW230057   1.346   1.867   6.440  0.4914  1.3107  1.4688
 6142SOL     OW30058   2.254   2.790   4.128 -0.2331  0.4450 -0.4880
 6142SOL    HW130059   2.291   2.861   4.180 -0.5430  1.4553 -1.6498
 6142SOL    HW230060   2.291   2.719   4.181 -2.4921 -0.4870 -0.1328
 6143SOL     OW30061   1.041   1.769   1.836  0.4144  0.3736  0.6358
 6143SOL    HW130062   1.038   1.684   1.792 -2.5796  0.1839  1.2085
 6143SOL    HW230063   1.016   1.747   1.925 -1.8237  2.4859  0.5248
 6144SOL     OW30064   2.191   4.269   4.965  0.2245  0.3624  0.0711
 6144SOL    HW130065   2.229   4.227   5.042  0.8564 -0.3961 -0.6521
 6144SOL    HW230066   2.253   4.233   4.902  1.6873  0.4319  1.4714
 6145SOL     OW30067   1.189   2.322  13.335 -0.0394  0.5961 -0.4668
 6145SOL    HW130068   1.221   2.376  13.263  1.1976  1.4058  0.7016
 6145SOL    HW230069   1.111   2.275  13.305 -1.0319  1.2451  1.0975
 6146SOL     OW30070   3.809   3.280   2.372 -0.7869 -0.4675  0.0045
 6146SOL    HW130071   3.803   3.364   2.328  2.6610 -1.2684 -1.9261
 6146SOL    HW230072   3.827   3.314   2.460  3.6497 -2.2974 -0.2331
 6147SOL     OW30073   2.499   2.179   4.268  0.0349  0.3445 -0.2698
 6147SOL    HW130074   2.534   2.090   4.272  2.0745  1.1860  0.8000
 6147SOL    HW230075   2.533   2.230   4.342  0.8730 -0.0734 -0.3656
 6148SOL     OW30076   1.990   1.643  14.968 -0.4393  0.2761 -0.3412
 6148SOL    HW130077   1.926   1.676  15.031 -1.2965  0.3481 -1.2524
 6148SOL    HW230078   2.025   1.569  15.017 -1.2526 -2.4951 -3.9206
 6149SOL     OW30079   0.192   2.027   5.879  0.0169  0.4274 -0.3576
 6149SOL    HW130080   0.287   2.027   5.870  0.0016 -0.8399 -0.5139
 6149SOL    HW230081   0.178   2.121   5.867 -1.3435  0.2583 -0.1308
 6150SOL     OW30082   1.808   2.433   3.557 -0.3303 -0.2518 -0.0901
 6150SOL    HW130083   1.902   2.415   3.551 -0.7325 -2.1650 -0.5421
 6150SOL    HW230084   1.808   2.487   3.635 -3.3997  0.4386 -0.5635
 6151SOL     OW30085   3.928   4.043  15.302 -0.0900 -0.6646 -0.1086
 6151SOL    HW130086   4.014   4.043  15.259  0.8713 -0.2785  1.8220
 6151SOL    HW230087   3.873   4.047  15.224  1.1791  0.9774 -0.9101
 6152SOL     OW30088   4.106   1.151   6.701 -0.2671 -0.0059  0.0199
 6152SOL    HW130089   4.199   1.152   6.680  0.0206 -2.8800  1.1785
 6152SOL    HW230090   4.090   1.087   6.771  2.9772  0.3180  1.0465
 6153SOL     OW30091   2.414   4.509   4.692 -0.0252  0.3129 -0.0651
 6153SOL    HW130092   2.416   4.421   4.729  0.1431  0.8539  1.2240
 6153SOL    HW230093   2.319   4.517   4.682  0.1508  1.3014 -0.9625
 6154SOL     OW30094   3.271   3.231   5.793  0.1983  0.0561  0.2455
 6154SOL    HW130095   3.366   3.218   5.789  0.3610  1.4825 -0.6556
 6154SOL    HW230096   3.250   3.324   5.805 -1.6605 -0.1977 -1.0690
 6155SOL     OW30097   4.212   0.902  17.028  0.3357 -0.0174 -0.0862
 6155SOL    HW130098   4.254   0.902  16.942 -0.1531  1.0931 -0.3272
 6155SOL    HW230099   4.279   0.893  17.096  1.7531  0.7150 -1.3743
 6156SOL     OW30100   4.553   2.860  15.428  0.1085 -0.5927 -0.2699
 6156SOL    HW130101   4.619   2.795  15.453 -1.5605 -2.4794 -0.6792
 6156SOL    HW230102   4.603   2.941  15.433 -0.6038 -0.1408 -0.3616
 6157SOL     OW30103   1.497   3.510   7.121 -0.3299  0.3467 -0.0822
 6157SOL    HW130104   1.490   3.451   7.196  3.6069 -0.2231 -0.1765
 6157SOL    HW230105   1.551   3.578   7.161 -1.3480  1.0994 -0.0072
 6158SOL     OW30106   0.122   2.675  16.921  0.2030 -0.2786  0.3642
 6158SOL    HW130107   0.071   2.726  16.858 -0.1498  0.3760  1.1803
 6158SOL    HW230108   0.098   2.715  17.005  0.6920  1.1219 -0.1617
 6159SOL     OW30109   0.048   0.105   5.693 -0.3099 -0.1582 -0.1157
 6159SOL    HW130110   4.722   0.048   5.729 -1.1767  0.9388 -0.0004
 6159SOL    HW230111   0.074   0.057   5.614 -1.3351  0.4953 -0.8600
 6160SOL     OW30112   2.507   2.097   6.514  0.0752 -0.1072  0.1130
 6160SOL    HW130113   2.582   2.120   6.569 -0.2189  3.0875 -0.8373
 6160SOL    HW230114   2.450   2.039   6.565 -2.6418 -1.2117 -4.2376
 6161SOL     OW30115   3.453   0.756  12.057  0.3343 -0.1776 -0.4419
 6161SOL    HW130116   3.461   0.814  11.981  0.6868 -0.0470 -0.3089
 6161SOL    HW230117   3.396   0.684  12.032 -0.0686 -0.2580  0.7252
 6162SOL     OW30118   1.555   0.536   8.765 -0.2453 -0.1609  0.3395
 6162SOL    HW130119   1.574   0.572   8.852  1.2017 -2.3819  0.9420
 6162SOL    HW230120   1.635   0.549   8.715  0.5573  0.3914  1.7766
 6163SOL     OW30121   3.916   0.817   3.563 -0.0574  0.4268 -0.0401
 6163SOL    HW130122   3.862   0.875   3.510 -3.2518  0.3735  3.1733
 6163SOL    HW230123   3.858   0.742   3.573  1.5836 -0.8348  0.1749
 6164SOL     OW30124   4.264   0.944   9.044 -0.4422 -0.1622 -0.1230
 6164SOL    HW130125   4.266   0.855   9.079  1.5461  0.6174  1.7693
 6164SOL    HW230126   4.224   0.937   8.957 -2.0100  0.0502  0.5905
 6165SOL     OW30127   4.273   4.472   5.621 -0.0388  0.0801 -0.3824
 6165SOL    HW130128   4.273   4.449   5.528 -0.9866 -3.0276  0.3828
 6165SOL    HW230129   4.251   4.565   5.621 -1.1666 -0.1699  4.0147
 6166SOL     OW30130   2.479   0.256   1.705  0.4869 -0.0759  0.0488
 6166SOL    HW130131   2.523   0.210   1.777  0.7233 -0.1946 -0.1712
 6166SOL    HW230132   2.538   0.235   1.632  1.1507 -3.5512  1.5678
 6167SOL     OW30133   4.113   0.219   3.447  0.1580 -0.1441  0.1973
 6167SOL    HW130134   4.167   0.297   3.465  0.1519  0.1119 -0.8493
 6167SOL    HW230135   4.057   0.229   3.523 -0.4819  0.1831 -0.3193
 6168SOL     OW30136   2.350   0.793   6.471 -0.1336 -0.4474 -0.5830
 6168SOL    HW130137   2.387   0.852   6.537  1.9475 -0.5577 -1.6503
 6168SOL    HW230138   2.310   0.859   6.416 -0.1910  0.7717  0.9228
 6169SOL     OW30139   1.003   2.937   8.688 -0.0347 -0.0879 -0.0506
 6169SOL    HW130140   1.028   2.957   8.598 -0.7949  0.0457 -0.2232
 6169SOL    HW230141   0.948   3.012   8.706 -0.4800 -0.5302  0.4326
 6170SOL     OW30142   2.161   4.659   4.639 -0.6344  0.5997 -0.0994
 6170SOL    HW130143   2.157   4.612   4.555 -1.2488  2.8635 -1.3394
 6170SOL    HW230144   2.136   4.589   4.699 -1.9609  1.1557  0.0024
 6171SOL     OW30145   0.123   1.283   6.069  0.7759  0.4399 -0.1732
 6171SOL    HW130146   0.164   1.200   6.096  0.5554  0.7415  1.0883
 6171SOL    HW230147   0.173   1.348   6.118  3.8924 -2.0850  0.0349
 6172SOL     OW30148   3.717   0.680   1.931 -0.1704 -0.3857  0.2597
 6172SOL    HW130149   3.637   0.639   1.963 -1.7667 -0.4951 -3.8294
 6172SOL    HW230150   3.775   0.722   1.994 -1.5809 -0.4987  1.6365
 6173SOL     OW30151   2.359   1.267  10.337 -0.3681  0.3417 -0.1451
 6173SOL    HW130152   2.265   1.262  10.320 -0.4154  1.6934 -0.2474
 6173SOL    HW230153   2.377   1.301  10.425  0.4623 -0.8945  0.1711
 6174SOL     OW30154   3.094   3.957   7.740 -0.8471 -0.0214 -0.2356
 6174SOL    HW130155   3.000   3.961   7.722 -0.8621 -2.6529 -0.7053
 6174SOL    HW230156   3.126   4.025   7.680 -0.4737  0.6329  0.6960
 6175SOL     OW30157   4.009   4.538  15.403  0.0760  0.3353 -0.4769
 6175SOL    HW130158   3.947   4.602  15.438 -0.6850  1.1622 -3.4108
 6175SOL    HW230159   4.004   4.466  15.466 -2.0235  1.3105  0.4673
 6176SOL     OW30160   3.642   0.523   1.256 -0.3121 -0.1140 -0.4067
 6176SOL    HW130161   3.729   0.497   1.287 -0.1546  0.4818 -0.3368
 6176SOL    HW230162   3.663   0.558   1.169 -2.1241  1.2727 -0.2876
 6177SOL     OW30163   1.703   1.172   6.390  0.6231 -0.3518 -0.4620
 6177SOL    HW130164   1.714   1.077   6.387 -0.9743 -0.5484 -0.1343
 6177SOL    HW230165   1.681   1.193   6.481  1.6288  2.7139 -0.9516
 6178SOL     OW30166   1.957   4.486   8.650  0.0887  0.0836  0.0357
 6178SOL    HW130167   1.878   4.437   8.674  1.5980 -1.4505  1.8795
 6178SOL    HW230168   1.922   4.552   8.591 -0.0987 -1.4353 -1.5636
 6179SOL     OW30169   1.163   2.582   3.338 -0.4292  0.1820  0.0695
 6179SOL    HW130170   1.252   2.583   3.373 -0.2919  0.4802 -0.2877
 6179SOL    HW230171   1.111   2.636   3.399 -2.9903 -0.7628 -1.2659
 6180SOL     OW30172   1.024   0.620   2.468  0.0430 -0.0752  0.3516
 6180SOL    HW130173   1.110   0.577   2.474  0.0325 -0.2434 -0.6981
 6180SOL    HW230174   1.039   0.715   2.464  0.3761 -0.1213  0.4401
 6181SOL     OW30175   4.020   3.491   7.016  0.5623  0.1857 -0.5222
 6181SOL    HW130176   4.001   3.426   7.083  0.8517  0.3878 -0.2442
 6181SOL    HW230177   4.102   3.466   6.973  1.7181  1.3102  1.0360
 6182SOL     OW30178   2.335   3.046   5.611 -0.4845  0.5905  0.5880
 6182SOL    HW130179   2.256   3.002   5.579  0.0902  0.3518 -0.5016
 6182SOL    HW230180   2.371   2.992   5.681  0.8706  0.1054 -0.4829
 6183SOL     OW30181   3.126   4.024   0.823 -0.4800  0.4906  0.1048
 6183SOL    HW130182   3.162   4.103   0.783  1.5330  0.9015  2.7236
 6183SOL    HW230183   3.110   4.062   0.909 -1.4476 -0.3948  0.3168
 6184SOL     OW30184   1.605   2.905   9.786 -0.4036  0.3493  0.1501
 6184SOL    HW130185   1.679   2.856   9.752 -0.6903  0.1317 -0.1604
 6184SOL    HW230186   1.619   2.998   9.766  0.0529  0.2128 -0.1670
 6185SOL     OW30187   3.852   1.384   5.276  0.4489  0.4727 -0.5500
 6185SOL    HW130188   3.882   1.392   5.367 -0.0711  1.1917 -0.4388
 6185SOL    HW230189   3.916   1.443   5.236  0.9083  0.8184  0.6884
 6186SOL     OW30190   2.739   1.516   4.006  0.1392 -0.4210 -0.0054
 6186SOL    HW130191   2.651   1.478   4.009 -0.7582  1.7374  0.7586
 6186SOL    HW230192   2.793   1.445   3.971  1.3985  0.7907 -0.5044
 6187SOL     OW30193   4.605   2.723   4.259  0.6103 -0.1457 -0.3784
 6187SOL    HW130194   4.604   2.819   4.257 -1.3740 -0.1440  1.3330
 6187SOL    HW230195   4.666   2.713   4.332  1.1397  0.6040 -0.7128
 6188SOL     OW30196   4.086   1.239   9.463 -0.3170  0.0301 -0.3468
 6188SOL    HW130197   4.093   1.335   9.471 -0.6956 -0.0775  1.3058
 6188SOL    HW230198   4.121   1.214   9.549 -0.0784  0.3625 -0.3459
 6189SOL     OW30199   3.800   3.095   4.350 -0.1648  0.0989 -1.0216
 6189SOL    HW130200   3.775   3.009   4.382  1.1061  0.3323  0.5647
 6189SOL    HW230201   3.724   3.146   4.377 -0.4540 -0.7694 -0.2143
 6190SOL     OW30202   2.234   3.110  14.457  0.2730  0.3154  0.3460
 6190SOL    HW130203   2.239   3.204  14.477  1.0843  0.2783  0.2960
 6190SOL    HW230204   2.225   3.117  14.362 -5.0522  3.0382  1.0502
 6191SOL     OW30205   0.883   4.617  17.550 -0.3355 -0.0484  0.4971
 6191SOL    HW130206   0.863   4.673  17.475  2.1212 -0.4088 -0.4063
 6191SOL    HW230207   0.826   4.543  17.530 -0.4488 -0.3465  1.9258
 6192SOL     OW30208   2.445   1.112   5.459 -0.0533 -0.8858 -0.4656
 6192SOL    HW130209   2.400   1.186   5.419 -1.2271 -0.3258  1.9109
 6192SOL    HW230210   2.461   1.153   5.544 -0.7473 -1.1358 -0.2108
 6193SOL     OW30211   2.514   4.561   6.386 -1.0059 -0.5770 -0.6270
 6193SOL    HW130212   2.484   4.648   6.360  0.0206 -0.2055 -0.5812
 6193SOL    HW230213   2.433   4.511   6.395 -0.4582 -1.4109 -0.2972
 6194SOL     OW30214   2.724   3.333   3.913 -0.4499 -0.2974 -0.3198
 6194SOL    HW130215   2.745   3.239   3.915  0.1322 -0.1911 -1.3444
 6194SOL    HW230216   2.717   3.344   4.008 -3.6980  0.9654 -0.7063
 6195SOL     OW30217   2.220   2.706   1.557  0.3997  0.0339  0.0621
 6195SOL    HW130218   2.125   2.708   1.545  0.5224 -0.6262 -1.0347
 6195SOL    HW230219   2.236   2.718   1.651  0.2798  1.6062 -0.1120
 6196SOL     OW30220   2.905   1.027  17.558 -0.3629  0.2633 -0.4521
 6196SOL    HW130221   2.954   1.109  17.552 -1.8500  1.2190  0.4578
 6196SOL    HW230222   2.857   1.039  17.640  1.1088 -0.3141  0.4863
 6197SOL     OW30223   4.475   0.194   3.532  0.2496  0.0213 -0.2544
 6197SOL    HW130224   4.524   0.212   3.452  3.4523  0.6484  1.8181
 6197SOL    HW230225   4.403   0.255   3.519  0.1823  0.0763  0.3780
 6198SOL     OW30226   2.051   2.181   1.790  0.2219 -0.2789  0.3309
 6198SOL    HW130227   1.993   2.166   1.716 -0.3110 -0.1880  0.7355
 6198SOL    HW230228   2.060   2.277   1.795 -0.7202 -0.0834 -1.7211
 6199SOL     OW30229   0.173   2.222  12.277  0.3359 -0.1896 -0.3609
 6199SOL    HW130230   0.166   2.303  12.227 -0.6336 -1.0150 -1.5717
 6199SOL    HW230231   0.266   2.228  12.298 -0.0446 -1.9400  1.8981
 6200SOL     OW30232   1.601   1.961   0.718  0.5205  0.1433  0.2594
 6200SOL    HW130233   1.542   1.949   0.792 -1.5358 -0.5099 -1.4830
 6200SOL    HW230234   1.529   1.985   0.659 -0.2704 -0.9806  0.7697
 6201SOL     OW30235   0.393   3.453   4.345 -0.2503  0.2544 -0.5981
 6201SOL    HW130236   0.338   3.530   4.354  0.2776  0.6471 -0.7385
 6201SOL    HW230237   0.435   3.447   4.431 -0.8855  1.0420 -0.2413
 6202SOL     OW30238   2.920   4.038   6.308 -0.3545 -0.5224 -0.8375
 6202SOL    HW130239   2.868   4.083   6.374 -0.0407 -3.8922  1.7137
 6202SOL    HW230240   3.003   4.085   6.314 -0.7828  0.3654 -1.9919
 6203SOL     OW30241   4.274   4.005  12.710  0.2062  0.0927  0.1150
 6203SOL    HW130242   4.318   4.041  12.787  0.7042 -0.2136 -0.0293
 6203SOL    HW230243   4.275   4.075  12.645 -1.9791 -0.3639 -0.4080
 6204SOL     OW30244   3.457   2.063   0.862 -0.0508  0.3169 -0.2237
 6204SOL    HW130245   3.408   2.144   0.850  1.0705  0.9216 -0.6491
 6204SOL    HW230246   3.379   2.008   0.858 -1.4052  2.2906 -0.6702
 6205SOL     OW30247   2.340   4.049  11.070  0.0613 -1.2998  0.3950
 6205SOL    HW130248   2.273   4.117  11.070 -0.3824 -1.7477 -0.5530
 6205SOL    HW230249   2.400   4.084  11.004 -1.0037 -1.6575 -0.7621
 6206SOL     OW30250   1.491   2.384  15.740  0.2742  0.4742 -0.4221
 6206SOL    HW130251   1.528   2.296  15.735  1.7585  1.2237 -2.3824
 6206SOL    HW230252   1.488   2.405  15.647 -1.1343 -0.7582 -0.6610
 6207SOL     OW30253   4.368   3.939   4.471  0.0148  0.0866 -0.3621
 6207SOL    HW130254   4.351   3.911   4.561  0.6533  0.4303 -0.1339
 6207SOL    HW230255   4.289   3.913   4.424 -0.5298  0.0135  0.6053
 6208SOL     OW30256   1.223   2.833   4.856  0.1187  0.1037 -0.5101
 6208SOL    HW130257   1.207   2.815   4.948  1.4043 -1.4571 -0.5827
 6208SOL    HW230258   1.195   2.751   4.816  0.3688  0.5170 -1.5366
 6209SOL     OW30259   2.695   0.739   8.301 -0.0637 -0.0407 -0.2592
 6209SOL    HW130260   2.603   0.753   8.279 -0.0370 -0.8621 -0.8869
 6209SOL    HW230261   2.717   0.763   8.391  1.1217  1.4278 -0.9387
 6210SOL     OW30262   0.376   1.826   8.919 -0.8153 -0.1682 -0.1701
 6210SOL    HW130263   0.325   1.789   8.991 -0.0770 -0.5742  0.1506
 6210SOL    HW230264   0.337   1.912   8.909 -0.6522 -0.1805 -0.8647
 6211SOL     OW30265   2.127   2.987   2.738  0.5030  0.1777  0.1022
 6211SOL    HW130266   2.167   2.903   2.763  0.5647  0.0422 -0.4467
 6211SOL    HW230267   2.186   3.032   2.678  1.5319  1.4839  2.1083
 6212SOL     OW30268   2.562   3.535   1.047  0.1661 -0.1892 -0.0979
 6212SOL    HW130269   2.580   3.620   1.086  0.7499 -0.7478  0.8723
 6212SOL    HW230270   2.607   3.539   0.963 -0.0154  0.5368 -0.1547
 6213SOL     OW30271   1.670   2.644   4.242  0.0776  0.1763  0.1316
 6213SOL    HW130272   1.689   2.670   4.333  1.0796 -0.2744  0.0491
 6213SOL    HW230273   1.641   2.726   4.202  0.7386  1.1365  1.6009
 6214SOL     OW30274   2.836   4.174   8.694 -0.3814  0.1734  0.2169
 6214SOL    HW130275   2.862   4.161   8.603  2.1334  0.0761  0.9656
 6214SOL    HW230276   2.914   4.222   8.721 -1.1126  1.1019  0.6742
 6215SOL     OW30277   2.113   2.101   4.380  0.2938  0.5879 -0.4057
 6215SOL    HW130278   2.100   2.195   4.365  1.1864  1.0016  1.5140
 6215SOL    HW230279   2.134   2.076   4.290  3.4252  0.5321  0.3567
 6216SOL     OW30280   2.746   1.775   8.520  0.1126  0.0249  0.5711
 6216SOL    HW130281   2.836   1.759   8.550  0.7377  0.3232 -1.1552
 6216SOL    HW230282   2.718   1.690   8.488  0.5595 -0.2593  0.9171
 6217SOL     OW30283   2.155   0.396   1.446  0.1495  0.0270  0.2686
 6217SOL    HW130284   2.158   0.325   1.510  2.2193  0.2690  0.4725
 6217SOL    HW230285   2.203   0.470   1.484 -1.5346  0.4029  1.6848
 6218SOL     OW30286   4.358   2.908   5.048 -0.3222  0.3401 -0.1426
 6218SOL    HW130287   4.358   2.971   4.977 -1.9124  0.0425 -0.4024
 6218SOL    HW230288   4.407   2.952   5.117 -1.3143  1.3532 -0.0877
 6219SOL     OW30289   0.590   4.381   6.564 -0.3618 -0.2085  0.2486
 6219SOL    HW130290   0.560   4.298   6.526 -0.3939 -0.0940  0.0242
 6219SOL    HW230291   0.624   4.345   6.646 -1.1260 -0.4356  0.4683
 6220SOL     OW30292   4.348   1.795   3.501  0.1518 -0.1672  0.7166
 6220SOL    HW130293   4.365   1.704   3.480  3.0034  0.4186  0.3577
 6220SOL    HW230294   4.301   1.784   3.583  0.2371 -1.6496  0.5608
 6221SOL     OW30295   2.254   1.978   5.803  0.3538 -0.0301 -0.6292
 6221SOL    HW130296   2.267   1.996   5.710  1.8384  1.1082 -0.2094
 6221SOL    HW230297   2.197   1.903   5.790 -0.0281 -0.0978  1.4277
 6222SOL     OW30298   1.092   3.112  13.388 -0.2210 -0.1290  0.0625
 6222SOL    HW130299   1.116   3.117  13.480  1.7462  0.7042 -0.4920
 6222SOL    HW230300   1.176   3.090  13.347 -0.5560  0.2032 -0.8007
 6223SOL     OW30301   0.707   4.656   0.793 -0.1003 -0.2502 -0.4910
 6223SOL    HW130302   0.721   4.726   0.858  0.2652 -0.9853  0.2257
 6223SOL    HW230303   0.770   4.695   0.732  2.2082 -0.7366  1.5360
 6224SOL     OW30304   0.637   2.755   8.667 -0.6641 -0.3702  0.4196
 6224SOL    HW130305   0.659   2.790   8.581 -0.1790 -0.7419  0.3984
 6224SOL    HW230306   0.711   2.696   8.679  1.6046  2.3604 -0.3699
 6225SOL     OW30307   4.295   4.066  11.915 -0.3517 -0.7127  0.1943
 6225SOL    HW130308   4.238   4.024  11.980 -0.4283  0.6631  1.0122
 6225SOL    HW230309   4.275   4.158  11.933  0.7444 -0.1430 -1.4725
 6226SOL     OW30310   0.352   1.557   2.796  0.2629  0.3962  0.3164
 6226SOL    HW130311   0.283   1.533   2.734 -1.3972  0.6177  2.0774
 6226SOL    HW230312   0.302   1.605   2.863 -0.0679  1.1626 -0.4755
 6227SOL     OW30313   2.491   1.804  15.794 -0.2951 -0.3984 -0.2190
 6227SOL    HW130314   2.525   1.809  15.705 -0.0204 -2.2145 -0.2120
 6227SOL    HW230315   2.547   1.731  15.820 -1.1646 -1.4175 -1.1761
 6228SOL     OW30316   4.643   3.377   7.902  0.0073 -0.2723 -0.6030
 6228SOL    HW130317   4.607   3.349   7.986  1.2322 -0.3743 -0.1145
 6228SOL    HW230318   4.707   3.436   7.941 -3.3778  3.1852 -0.2987
 6229SOL     OW30319   2.439   4.718   3.028 -0.2856 -0.3384  0.1041
 6229SOL    HW130320   2.382   4.681   3.095 -1.8950 -1.2423 -1.7608
 6229SOL    HW230321   2.468   4.636   2.988  2.9689  1.0547 -0.4023
 6230SOL     OW30322   4.223   3.814  15.444  0.3394 -0.1418 -0.1065
 6230SOL    HW130323   4.130   3.808  15.421  0.1051  0.8699  0.6196
 6230SOL    HW230324   4.229   3.853  15.531  1.3872 -0.0394 -0.2183
 6231SOL     OW30325   1.659   4.097   5.706  0.2047  0.4713 -0.2719
 6231SOL    HW130326   1.647   4.090   5.611  0.5912  1.6737 -0.4089
 6231SOL    HW230327   1.585   4.043   5.737  1.4699 -0.8191  0.5152
 6232SOL     OW30328   2.618   0.043  11.377  0.2668  0.0924 -0.3238
 6232SOL    HW130329   2.646   0.124  11.419 -1.5407  0.6819 -0.2235
 6232SOL    HW230330   2.680   4.719  11.408  0.9626  0.6350 -0.5801
 6233SOL     OW30331   1.755   3.156  12.945  0.7578 -0.3881 -0.0452
 6233SOL    HW130332   1.795   3.100  12.879  1.8420 -1.0472  1.1820
 6233SOL    HW230333   1.689   3.096  12.981  0.4238 -0.2841 -0.4886
 6234SOL     OW30334   2.775   4.260   7.448 -0.0727  0.1705 -0.2149
 6234SOL    HW130335   2.778   4.166   7.432 -1.3036 -0.0734  1.0202
 6234SOL    HW230336   2.800   4.309   7.369 -0.3175 -1.9842 -1.6275
 6235SOL     OW30337   4.537   1.043   6.908 -0.1435 -0.1842  0.1167
 6235SOL    HW130338   4.582   1.024   6.826 -1.7940  0.0413 -0.8312
 6235SOL    HW230339   4.616   1.052   6.962 -2.3748  2.7683  2.8878
 6236SOL     OW30340   0.377   0.784   6.994 -0.3596  0.2392  0.6275
 6236SOL    HW130341   0.375   0.778   7.090 -1.5179  1.1213  0.6707
 6236SOL    HW230342   0.416   0.708   6.953 -1.0874 -0.9266  2.1078
 6237SOL     OW30343   0.477   0.333  12.268  0.0808 -0.5596 -0.2661
 6237SOL    HW130344   0.402   0.288  12.306 -1.2598  0.3359 -1.8386
 6237SOL    HW230345   0.525   0.355  12.347 -0.6737  1.4587 -0.3747
 6238SOL     OW30346   2.352   3.429   7.851 -0.2337 -0.5330 -0.1338
 6238SOL    HW130347   2.387   3.350   7.811 -0.1057 -1.7848  2.4839
 6238SOL    HW230348   2.271   3.394   7.887 -0.4011 -1.6521 -1.5955
 6239SOL     OW30349   2.442   0.770   8.915 -0.3318  0.3079  0.1224
 6239SOL    HW130350   2.448   0.830   8.840  0.7903 -0.5716 -0.4984
 6239SOL    HW230351   2.459   0.689   8.867 -0.8741  0.8889 -1.0721
 6240SOL     OW30352   2.930   0.164   9.380 -0.3510 -0.1963 -0.3721
 6240SOL    HW130353   2.835   0.163   9.369 -0.4256  0.2670  0.2168
 6240SOL    HW230354   2.932   0.259   9.371  2.5234 -0.2585 -0.2142
 6241SOL     OW30355   2.793   0.106   8.362  0.0623  0.4551 -0.3791
 6241SOL    HW130356   2.864   0.166   8.387  0.4329 -0.6623  1.2537
 6241SOL    HW230357   2.724   0.142   8.418 -1.6030 -0.5137 -1.8450
 6242SOL     OW30358   0.703   0.044   8.580  0.5321 -0.1614 -0.2895
 6242SOL    HW130359   0.666   4.699   8.562  1.4125 -0.6891  0.4564
 6242SOL    HW230360   0.768   0.021   8.647  1.7968 -0.0283 -1.4679
 6243SOL     OW30361   0.691   1.133   5.465  0.2650 -0.3777  0.1077
 6243SOL    HW130362   0.617   1.084   5.500  0.3509  0.0032  0.8116
 6243SOL    HW230363   0.655   1.154   5.379 -0.9811 -0.5967  0.5777
 6244SOL     OW30364   4.316   4.132   7.807 -0.7795  0.2806 -0.1162
 6244SOL    HW130365   4.356   4.169   7.886 -1.8396 -0.3292  0.7075
 6244SOL    HW230366   4.283   4.209   7.761 -0.8809  0.2161 -0.1500
 6245SOL     OW30367   3.165   3.491   2.897 -0.0057  0.3473  0.3128
 6245SOL    HW130368   3.079   3.528   2.877  0.8432  2.6253  0.9156
 6245SOL    HW230369   3.197   3.569   2.941  2.3466  0.0860 -0.9582
 6246SOL     OW30370   1.885   3.328  13.815  0.0642  0.6523  0.1704
 6246SOL    HW130371   1.962   3.282  13.780 -0.3603  0.1015 -0.0513
 6246SOL    HW230372   1.863   3.271  13.889 -0.8953  3.1569  1.8021
 6247SOL     OW30373   3.766   1.498   2.821 -0.1431 -0.2360 -0.7197
 6247SOL    HW130374   3.845   1.511   2.768  1.3913  0.5426  1.7950
 6247SOL    HW230375   3.771   1.407   2.851  0.6166  0.0445 -0.0013
 6248SOL     OW30376   0.208   3.810  12.131  0.6574  0.2926 -0.2304
 6248SOL    HW130377   0.245   3.794  12.218 -0.5326 -0.7237  0.0892
 6248SOL    HW230378   0.193   3.904  12.135  0.4106  0.1885  1.0588
 6249SOL     OW30379   3.933   3.959   1.198  0.1170 -0.2592 -0.8231
 6249SOL    HW130380   3.966   4.046   1.175 -0.6046  0.6877  1.7623
 6249SOL    HW230381   4.012   3.923   1.238  0.6490  0.7801 -0.9256
 6250SOL     OW30382   1.240   3.186  10.300  0.0217  0.1214  0.7426
 6250SOL    HW130383   1.229   3.153  10.211  1.7890 -0.2593  0.6759
 6250SOL    HW230384   1.152   3.204  10.332 -0.7328  0.4564 -1.5054
 6251SOL     OW30385   1.392   0.260   0.355 -0.1728  0.0103  0.0452
 6251SOL    HW130386   1.388   0.270   0.259 -2.5111  3.6742  0.5392
 6251SOL    HW230387   1.443   0.338   0.376  1.4067 -0.8553 -0.5800
 6252SOL     OW30388   2.719   4.658   3.076 -0.2603  0.4357 -0.2167
 6252SOL    HW130389   2.625   4.677   3.086 -0.2909  0.1405  0.0512
 6252SOL    HW230390   2.721   4.610   2.993  0.3842 -1.5827  0.9689
 6253SOL     OW30391   0.104   4.142   8.628  0.0993  0.6327 -0.0044
 6253SOL    HW130392   0.013   4.134   8.658  1.0827 -3.6481  1.8007
 6253SOL    HW230393   0.124   4.232   8.653 -0.6384  0.1651  2.3528
 6254SOL     OW30394   3.643   4.105   8.556  0.1812  0.0490  0.0944
 6254SOL    HW130395   3.636   4.039   8.625 -1.4464 -1.3006 -1.3414
 6254SOL    HW230396   3.665   4.050   8.481 -0.2375  0.2354 -0.1649
 6255SOL     OW30397   3.385   0.645  17.504  0.2434  0.6268  0.1118
 6255SOL    HW130398   3.305   0.606  17.469 -0.0610  2.3865 -1.1303
 6255SOL    HW230399   3.353   0.716  17.559 -1.9852 -0.0136 -0.3588
 6256SOL     OW30400   3.943   2.436   8.905 -0.9249  0.3944 -0.3533
 6256SOL    HW130401   4.004   2.504   8.932  0.6820 -0.8722 -0.7834
 6256SOL    HW230402   3.902   2.407   8.986 -0.9148 -2.1422 -1.2442
 6257SOL     OW30403   2.148   2.435  10.605 -0.0465  0.1900 -0.9387
 6257SOL    HW130404   2.098   2.357  10.628  0.6943 -0.3715 -1.2463
 6257SOL    HW230405   2.086   2.486  10.553 -0.8962 -0.0479 -0.1846
 6258SOL     OW30406   4.662   2.224   3.175  0.0760 -0.1256 -0.6802
 6258SOL    HW130407   4.597   2.294   3.165 -1.2642 -0.8949  2.6675
 6258SOL    HW230408   4.740   2.259   3.132  0.2612 -0.3096 -0.4959
 6259SOL     OW30409   3.169   2.580   8.486  0.2294 -0.5458  0.0297
 6259SOL    HW130410   3.199   2.636   8.557  2.0026 -1.2945 -0.1144
 6259SOL    HW230411   3.174   2.496   8.532  0.4672 -0.1905  0.6484
 6260SOL     OW30412   2.108   2.368  15.542  0.0695  0.3946  0.7014
 6260SOL    HW130413   2.060   2.424  15.603  0.2396  1.4572 -0.1591
 6260SOL    HW230414   2.047   2.362  15.468  0.0808  1.3813  0.6218
 6261SOL     OW30415   1.179   3.404   7.976 -0.4325 -0.2150 -0.7173
 6261SOL    HW130416   1.271   3.426   7.966 -0.3841  0.0252  0.2058
 6261SOL    HW230417   1.135   3.490   7.972  0.7600  0.5517  2.7276
 6262SOL     OW30418   3.240   1.589   6.249  0.1567 -0.0570  0.1458
 6262SOL    HW130419   3.219   1.497   6.230  2.0988 -0.6167  0.6538
 6262SOL    HW230420   3.310   1.576   6.314  0.3379 -1.8587 -0.4145
 6263SOL     OW30421   2.114   1.076   7.294 -0.0418 -0.1773  0.5442
 6263SOL    HW130422   2.034   1.023   7.293  0.7856 -1.4499  1.5893
 6263SOL    HW230423   2.092   1.135   7.221 -0.7006 -0.8051  0.2330
 6264SOL     OW30424   2.332   3.846   1.525  0.2408 -0.1940 -0.6065
 6264SOL    HW130425   2.395   3.787   1.567  0.8856 -0.2678 -1.6732
 6264SOL    HW230426   2.375   3.864   1.442 -1.8586 -0.4553 -1.7393
 6265SOL     OW30427   2.842   0.156   6.814  0.2889 -0.1452 -0.0012
 6265SOL    HW130428   2.839   0.065   6.785 -0.2112 -1.0623  2.9609
 6265SOL    HW230429   2.918   0.190   6.768  0.9861 -0.2702  1.0559
 6266SOL     OW30430   0.626   2.625   7.128  0.6368  0.3443 -0.3511
 6266SOL    HW130431   0.599   2.611   7.037 -0.8843  0.2555  0.1204
 6266SOL    HW230432   0.700   2.569   7.149  1.4658  1.2112 -0.9568
 6267SOL     OW30433   2.562   0.209   1.186  0.6950 -0.0155  0.7659
 6267SOL    HW130434   2.542   0.164   1.104  2.3748 -0.6282  0.6939
 6267SOL    HW230435   2.588   0.289   1.140  1.3368 -0.4917  0.3235
 6268SOL     OW30436   1.000   4.223   5.870 -0.0674  0.3202  0.0944
 6268SOL    HW130437   1.059   4.148   5.872 -1.0847 -0.4848  0.1223
 6268SOL    HW230438   1.048   4.280   5.930  0.6901 -1.9597  1.6561
 6269SOL     OW30439   3.979   0.111  16.276  0.1334 -0.0649  0.1714
 6269SOL    HW130440   4.024   0.142  16.197 -0.8539  1.5653  0.2281
 6269SOL    HW230441   3.973   0.196  16.320  0.2651  0.1796 -0.2834
 6270SOL     OW30442   3.959   2.753  11.082  0.4070 -0.0110  0.5043
 6270SOL    HW130443   3.992   2.674  11.041  0.3082  0.9433 -1.4260
 6270SOL    HW230444   3.903   2.783  11.010 -0.1622  2.3237  1.9055
 6271SOL     OW30445   0.298   4.515   9.161 -0.2462 -0.8607 -0.6774
 6271SOL    HW130446   0.387   4.510   9.126  1.1322  2.7355  2.2977
 6271SOL    HW230447   0.310   4.496   9.254  1.9285  1.3585 -0.4713
 6272SOL     OW30448   3.875   3.524   3.834  0.3895 -0.8100 -0.6824
 6272SOL    HW130449   3.898   3.441   3.877  0.3479  0.9671  2.7801
 6272SOL    HW230450   3.941   3.525   3.766  1.5101 -2.8345  0.3843
 6273SOL     OW30451   0.767   3.153   1.314  0.5435 -0.2544  0.5074
 6273SOL    HW130452   0.690   3.115   1.357 -0.3021  0.5990 -0.2550
 6273SOL    HW230453   0.834   3.129   1.377 -0.0296 -0.9617  0.8494
 6274SOL     OW30454   2.156   2.215  14.255 -0.6140 -0.2134  0.5229
 6274SOL    HW130455   2.227   2.158  14.225 -0.5518  0.4402 -0.5819
 6274SOL    HW230456   2.079   2.183  14.208  0.4784 -0.0599 -1.4041
 6275SOL     OW30457   2.368   4.637  12.239 -0.3348 -0.5929  0.0528
 6275SOL    HW130458   2.410   4.700  12.298  0.6958 -1.0720 -0.1753
 6275SOL    HW230459   2.283   4.623  12.280 -0.0808 -1.8959  0.1410
 6276SOL     OW30460   2.759   2.857  16.012  0.1947 -0.4324  0.0431
 6276SOL    HW130461   2.813   2.928  15.978  0.7373 -1.5160 -1.3326
 6276SOL    HW230462   2.788   2.784  15.958  0.2093 -1.0943  0.9426
 6277SOL     OW30463   4.694   2.312  10.317  0.2095  0.6417 -0.4179
 6277SOL    HW130464   4.687   2.342  10.226 -2.6410 -1.6711 -0.9589
 6277SOL    HW230465   4.645   2.377  10.366 -0.7027  0.1348 -0.6558
 6278SOL     OW30466   3.531   0.041   2.076  0.4837  0.0103  0.2906
 6278SOL    HW130467   3.502   0.060   1.987 -2.5388 -3.0582  0.6141
 6278SOL    HW230468   3.538   4.687   2.068 -0.6024 -0.0827  0.4374
 6279SOL     OW30469   2.475   4.383   1.527 -0.6572 -0.2699  0.1753
 6279SOL    HW130470   2.545   4.330   1.566 -1.4644  0.3785  2.4489
 6279SOL    HW230471   2.417   4.308   1.511  0.0013 -1.0382  1.4307
 6280SOL     OW30472   1.433   1.450   0.719 -0.4177  0.2595 -0.1017
 6280SOL    HW130473   1.438   1.458   0.814 -0.0240 -1.6592  0.0419
 6280SOL    HW230474   1.521   1.423   0.692 -0.9405 -0.3074 -1.2576
 6281SOL     OW30475   4.558   3.159   8.373 -0.8027  0.3760 -0.4252
 6281SOL    HW130476   4.532   3.185   8.285 -2.0568 -1.9425 -0.7441
 6281SOL    HW230477   4.478   3.118   8.407 -2.6286  3.7192 -0.7167
 6282SOL     OW30478   3.034   4.168   3.598  0.3887 -0.3078  0.1160
 6282SOL    HW130479   2.982   4.218   3.534 -0.5844  1.8527  2.6100
 6282SOL    HW230480   2.961   4.115   3.630 -0.6380  0.7616 -0.4747
 6283SOL     OW30481   3.801   4.662   8.316 -0.3018 -0.3298  0.3625
 6283SOL    HW130482   3.790   0.011   8.345 -1.1381  0.2018 -1.6279
 6283SOL    HW230483   3.739   4.619   8.375  0.3983  1.2689  2.2571
 6284SOL     OW30484   2.321   2.408   5.416  0.3997 -0.3392  0.2339
 6284SOL    HW130485   2.257   2.466   5.375 -0.8469 -1.6889  0.2686
 6284SOL    HW230486   2.275   2.361   5.486 -0.9852 -0.8317 -1.0035
 6285SOL     OW30487   2.719   2.341   7.088 -0.0250  0.2996 -0.1203
 6285SOL    HW130488   2.745   2.403   7.155 -1.1185 -0.7092  1.2528
 6285SOL    HW230489   2.681   2.394   7.018  0.7310  1.3261  0.2671
 6286SOL     OW30490   4.281   0.565   8.222 -0.0094  0.0043 -0.0271
 6286SOL    HW130491   4.349   0.548   8.288 -0.7509 -0.7930  0.5338
 6286SOL    HW230492   4.264   0.485   8.172  0.2534  1.3126 -2.2000
 6287SOL     OW30493   3.861   4.097  10.986  0.2282  0.3917  0.3401
 6287SOL    HW130494   3.924   4.168  10.987  0.9959 -0.3064  0.8922
 6287SOL    HW230495   3.904   4.034  11.043  1.8346  0.3939 -0.8663
 6288SOL     OW30496   1.875   3.035   0.833 -0.4102 -0.1587  0.5695
 6288SOL    HW130497   1.924   3.107   0.795 -2.3631  0.4187 -0.8800
 6288SOL    HW230498   1.902   2.976   0.762  2.1750  0.8070  0.7514
 6289SOL     OW30499   1.424   0.406  12.494  0.1692  0.4376 -0.0861
 6289SOL    HW130500   1.490   0.464  12.531  1.8727 -2.2501  1.0051
 6289SOL    HW230501   1.412   0.444  12.407 -0.3621 -1.0963 -0.6928
 6290SOL     OW30502   2.381   0.151   6.842 -0.2766  0.0696  0.6168
 6290SOL    HW130503   2.456   0.113   6.887 -0.0063 -1.0712 -0.8249
 6290SOL    HW230504   2.315   0.162   6.911 -0.4474 -0.8202  0.5998
 6291SOL     OW30505   1.370   2.221   7.169  0.4998  0.1365 -0.3489
 6291SOL    HW130506   1.275   2.229   7.177  0.6818  0.2975  1.5906
 6291SOL    HW230507   1.379   2.231   7.074 -3.3914  0.5623 -0.6844
 6292SOL     OW30508   2.990   2.606   8.124 -0.2168  0.0081 -0.0837
 6292SOL    HW130509   2.911   2.555   8.106  0.0320 -0.4123  0.0173
 6292SOL    HW230510   3.058   2.541   8.107  0.0896 -0.0851  1.4968
 6293SOL     OW30511   1.062   2.611   0.594 -0.5441 -0.3454  0.5320
 6293SOL    HW130512   1.150   2.604   0.631 -0.6827  0.0601  0.9527
 6293SOL    HW230513   1.050   2.706   0.584 -2.3195 -0.8601 -2.0515
 6294SOL     OW30514   3.115   3.669   5.296  0.1160  0.0662 -0.6085
 6294SOL    HW130515   3.036   3.615   5.299  0.1040  0.0850 -0.5838
 6294SOL    HW230516   3.080   3.759   5.293  0.8105  0.3604  0.1750
 6295SOL     OW30517   0.111   1.096   3.205 -0.0977  0.1881 -0.3710
 6295SOL    HW130518   0.103   1.191   3.206  0.2849  0.2226 -1.4613
 6295SOL    HW230519   0.199   1.088   3.241 -0.2672  0.0331  0.0143
 6296SOL     OW30520   4.691   3.793  16.642  0.2039 -0.4432  0.6398
 6296SOL    HW130521   0.025   3.812  16.699 -1.3002  3.2821  1.4173
 6296SOL    HW230522   4.726   3.742  16.569  1.1486  0.1694  0.6610
 6297SOL     OW30523   0.813   1.009   7.552 -0.1360  0.2260  0.7204
 6297SOL    HW130524   0.881   1.054   7.503  0.0559 -1.7410 -0.8364
 6297SOL    HW230525   0.852   0.924   7.573  0.7823  0.1541 -1.3244
 6298SOL     OW30526   2.606   4.503   5.090  0.4977 -0.1180  0.2825
 6298SOL    HW130527   2.519   4.472   5.116  0.8550  0.5695  2.2982
 6298SOL    HW230528   2.614   4.578   5.149  0.9937  1.0404 -1.2601
 6299SOL     OW30529   0.203   1.194   3.906 -0.3177 -0.8203 -0.7058
 6299SOL    HW130530   0.225   1.128   3.840 -0.0398 -2.2167  0.7886
 6299SOL    HW230531   0.291   1.230   3.917 -0.8852 -0.1277  1.4318
 6300SOL     OW30532   3.304   0.970  12.655 -0.7183 -0.1498 -0.5435
 6300SOL    HW130533   3.292   0.957  12.749 -0.4286  2.1435 -0.1720
 6300SOL    HW230534   3.281   0.883  12.623 -0.4106 -0.9077  1.2713
 6301SOL     OW30535   3.595   0.971   5.564 -0.8225  0.3722  0.3779
 6301SOL    HW130536   3.656   1.029   5.609  0.3730 -1.2511  0.8557
 6301SOL    HW230537   3.548   1.033   5.509  0.3756  2.0161  1.2024
 6302SOL     OW30538   3.857   1.664   2.488 -0.1705  0.2817  0.0177
 6302SOL    HW130539   3.911   1.604   2.540  1.3679  1.5321 -0.1558
 6302SOL    HW230540   3.787   1.603   2.463  0.2925 -1.0894  2.0753
 6303SOL     OW30541   4.527   2.418   9.531 -0.4679  0.1697 -0.2024
 6303SOL    HW130542   4.433   2.429   9.514 -0.8787 -3.4337 -0.2476
 6303SOL    HW230543   4.561   2.360   9.463 -0.4246 -1.0747  0.8637
 6304SOL     OW30544   3.464   1.821  15.145  0.1566  0.0042  0.2195
 6304SOL    HW130545   3.510   1.851  15.066  0.2976 -3.0576 -0.8464
 6304SOL    HW230546   3.394   1.886  15.154 -0.1996 -0.6669  2.2671
 6305SOL     OW30547   0.803   4.612   7.708  0.5070 -0.1615  0.0393
 6305SOL    HW130548   0.838   4.638   7.793  0.5881  2.1454 -0.7108
 6305SOL    HW230549   0.860   4.664   7.651 -0.0974  0.1790 -0.2454
 6306SOL     OW30550   4.045   2.157  11.413 -0.3188  0.4751  0.0405
 6306SOL    HW130551   4.060   2.232  11.356 -0.4037  2.0255  2.0583
 6306SOL    HW230552   3.964   2.177  11.460  0.1597  1.7767  0.2955
 6307SOL     OW30553   4.321   2.565  16.172 -0.1884  0.1369 -0.0937
 6307SOL    HW130554   4.404   2.525  16.197 -0.3220  0.6947  1.2308
 6307SOL    HW230555   4.347   2.656  16.157  2.2401 -0.5725 -0.2018
 6308SOL     OW30556   3.075   3.883  10.628  0.2025 -0.0760  0.5526
 6308SOL    HW130557   3.101   3.826  10.555 -0.0605 -0.7565  0.9953
 6308SOL    HW230558   3.131   3.837  10.691  0.4631 -0.7797 -0.1847
 6309SOL     OW30559   2.694   2.940   5.578 -0.1243  0.1326  0.5737
 6309SOL    HW130560   2.777   2.983   5.599 -0.7657  3.0215 -2.8887
 6309SOL    HW230561   2.642   2.978   5.648  0.4200  2.3410 -0.2370
 6310SOL     OW30562   0.854   2.220   5.007 -0.2412 -0.8405  0.1466
 6310SOL    HW130563   0.773   2.272   5.007  0.0887 -0.3284 -0.1117
 6310SOL    HW230564   0.829   2.154   4.942  1.4462 -0.2112 -1.1332
 6311SOL     OW30565   3.413   4.146   4.274  0.1905 -0.1824  0.2669
 6311SOL    HW130566   3.474   4.111   4.340 -0.2754  1.1926  1.4281
 6311SOL    HW230567   3.438   4.078   4.211  1.6937  0.9232 -0.3258
 6312SOL     OW30568   1.398   3.387   9.904  0.4374  0.8401 -0.3851
 6312SOL    HW130569   1.397   3.404   9.810 -0.8802  1.3055 -0.2851
 6312SOL    HW230570   1.367   3.297   9.892 -2.0570  2.0101 -2.5939
 6313SOL     OW30571   4.500   2.789  10.338  0.5969  0.3523  0.7158
 6313SOL    HW130572   4.569   2.852  10.359  1.4199 -0.5879  0.8186
 6313SOL    HW230573   4.429   2.838  10.378  0.2471  0.0027  0.5175
 6314SOL     OW30574   2.298   4.015   8.260 -0.1113  0.0394 -0.0502
 6314SOL    HW130575   2.338   4.067   8.190  2.3535 -0.7086  0.8218
 6314SOL    HW230576   2.334   4.058   8.337  0.4390  0.1551 -0.3725
 6315SOL     OW30577   0.060   1.449   8.347  0.2999  0.3373 -0.4849
 6315SOL    HW130578   0.064   1.381   8.414  0.9994  1.8703  1.0012
 6315SOL    HW230579   0.138   1.499   8.366 -0.3260  0.8045  0.8214
 6316SOL     OW30580   1.428   2.796   8.666 -0.2248 -0.6824 -0.3271
 6316SOL    HW130581   1.369   2.829   8.733 -1.7971 -0.6519 -1.7410
 6316SOL    HW230582   1.366   2.808   8.595 -1.6485  0.0046  1.0403
 6317SOL     OW30583   3.391   3.646   5.269 -0.1841 -0.0972  0.1804
 6317SOL    HW130584   3.379   3.652   5.174  0.9588  1.1412  0.1141
 6317SOL    HW230585   3.301   3.630   5.299 -0.3578  1.5497  0.5491
 6318SOL     OW30586   3.103   2.349   6.146 -0.0787 -0.2609 -0.0182
 6318SOL    HW130587   3.151   2.287   6.201 -1.6661  0.4150  2.1156
 6318SOL    HW230588   3.014   2.330   6.176 -0.5401  1.3917 -0.3422
 6319SOL     OW30589   0.253   1.543  15.628  0.0620  0.0072  0.0187
 6319SOL    HW130590   0.290   1.631  15.636  1.1438 -0.5798  1.4783
 6319SOL    HW230591   0.313   1.509  15.562 -0.6050  2.3887 -1.7851
 6320SOL     OW30592   3.963   2.971   7.007  0.0918 -0.1093 -0.1020
 6320SOL    HW130593   4.046   3.003   6.972  0.1719  0.0944  0.2725
 6320SOL    HW230594   3.992   2.946   7.094  0.4862 -0.5184 -0.3518
 6321SOL     OW30595   4.013   2.348  13.526  0.3005  0.4087  0.1296
 6321SOL    HW130596   4.051   2.260  13.521 -1.2005 -0.2784  1.0015
 6321SOL    HW230597   3.936   2.343  13.469  1.7586 -3.1990 -1.5456
 6322SOL     OW30598   0.964   3.799   8.226  0.4420  0.1357  0.1733
 6322SOL    HW130599   0.898   3.801   8.295 -0.1769  1.1161 -0.4363
 6322SOL    HW230600   0.968   3.893   8.205 -1.5699  0.0069 -0.8365
 6323SOL     OW30601   4.254   2.157   5.159 -0.1006 -0.0991  0.1139
 6323SOL    HW130602   4.191   2.090   5.184 -1.0048 -0.0847 -2.1498
 6323SOL    HW230603   4.212   2.194   5.081 -1.0374 -0.8949  0.2469
 6324SOL     OW30604   1.907   0.396   2.401 -0.0452 -0.0507 -0.2766
 6324SOL    HW130605   1.815   0.421   2.414  0.5291  1.4269  0.8537
 6324SOL    HW230606   1.948   0.420   2.483 -0.8817  0.4223 -0.0024
 6325SOL     OW30607   2.531   0.631  10.421 -0.1932 -0.2705 -0.3817
 6325SOL    HW130608   2.444   0.671  10.425  0.0105 -0.0694  2.5416
 6325SOL    HW230609   2.597   0.692  10.457 -0.6077 -0.4342  0.6578
 6326SOL     OW30610   2.604   3.583   3.326 -0.1228  0.1029  0.4232
 6326SOL    HW130611   2.565   3.511   3.278  1.3188 -1.0280  0.9320
 6326SOL    HW230612   2.528   3.637   3.348  0.9695  2.3378 -1.2001
 6327SOL     OW30613   0.050   3.900   8.175 -0.0169  0.4713  0.0395
 6327SOL    HW130614   0.132   3.916   8.128  0.2273 -0.9566 -0.0374
 6327SOL    HW230615   4.724   3.918   8.110  1.0890  0.2084 -1.1935
 6328SOL     OW30616   1.570   4.516   4.645 -0.0068  0.1514 -0.0676
 6328SOL    HW130617   1.521   4.596   4.663 -1.8319 -0.3828 -2.6452
 6328SOL    HW230618   1.626   4.502   4.721 -0.3061 -0.3301  0.0682
 6329SOL     OW30619   3.941   1.819   3.783 -0.2997 -0.0399  0.2058
 6329SOL    HW130620   4.036   1.813   3.770 -0.0001  2.9807  1.1720
 6329SOL    HW230621   3.919   1.728   3.764 -0.3041  0.5098 -2.4266
 6330SOL     OW30622   3.958   4.421   1.913 -0.0107 -0.2296  0.2890
 6330SOL    HW130623   3.862   4.415   1.915 -0.1291  1.3976 -0.0428
 6330SOL    HW230624   3.992   4.353   1.971  0.9287 -0.0092 -0.0159
 6331SOL     OW30625   0.681   2.653  14.926 -0.0037 -0.1903 -0.0112
 6331SOL    HW130626   0.587   2.650  14.945  0.0721 -1.2717  0.2043
 6331SOL    HW230627   0.671   2.664  14.831  0.4938 -1.1522 -0.1711
 6332SOL     OW30628   0.885   2.032   4.790  0.1017 -0.2091  0.1361
 6332SOL    HW130629   0.892   1.943   4.757 -1.0851 -0.4053  0.4070
 6332SOL    HW230630   0.968   2.038   4.837  0.6422  1.2759 -0.9849
 6333SOL     OW30631   2.248   3.978   9.362  0.4171  0.2054  0.1107
 6333SOL    HW130632   2.195   4.009   9.289  0.1773 -2.8362 -1.0074
 6333SOL    HW230633   2.213   3.889   9.369 -1.4884  0.7722 -2.4583
 6334SOL     OW30634   2.939   1.340   1.927  0.1949 -0.0969  0.4211
 6334SOL    HW130635   3.031   1.348   1.904 -0.4709  2.6134 -1.2638
 6334SOL    HW230636   2.919   1.413   1.986  1.0899  0.5189 -0.0444
 6335SOL     OW30637   3.330   4.509  10.621  0.6983 -0.0199  0.2065
 6335SOL    HW130638   3.271   4.444  10.583  0.3015  0.4234  0.0697
 6335SOL    HW230639   3.354   4.556  10.541 -0.2475  1.6181  0.8921
 6336SOL     OW30640   4.516   2.828   6.911 -0.4159 -0.2866 -0.1114
 6336SOL    HW130641   4.605   2.803   6.933 -0.1960  0.7288  0.1686
 6336SOL    HW230642   4.525   2.883   6.833 -0.3566  0.8355  0.6719
 6337SOL     OW30643   2.274   2.854  14.531  0.6534  0.8160  0.1113
 6337SOL    HW130644   2.243   2.819  14.448 -1.2171  0.5920  0.9033
 6337SOL    HW230645   2.292   2.942  14.497  0.6134  1.0892  0.7778
 6338SOL     OW30646   1.053   1.444  16.163  0.5684  0.9137  0.3076
 6338SOL    HW130647   1.113   1.370  16.157  0.8378  1.0345  1.5933
 6338SOL    HW230648   1.070   1.503  16.089 -0.4363  1.9926  0.9420
 6339SOL     OW30649   1.469   3.699   6.205 -0.8689  0.5351 -0.4942
 6339SOL    HW130650   1.520   3.723   6.128  0.5185  1.3795  0.7077
 6339SOL    HW230651   1.427   3.616   6.181  0.3022 -0.6524  1.5214
 6340SOL     OW30652   2.732   4.196   1.097 -0.2669  0.1081  0.9041
 6340SOL    HW130653   2.694   4.230   1.178 -1.2901  2.1883 -0.4639
 6340SOL    HW230654   2.699   4.259   1.034 -1.0750  0.0129  1.2327
 6341SOL     OW30655   2.516   4.525   0.357 -0.3488  0.1239 -0.6669
 6341SOL    HW130656   2.518   4.572   0.440  0.7591 -1.1248  0.0200
 6341SOL    HW230657   2.425   4.499   0.347 -0.5487  0.7751 -0.5294
 6342SOL     OW30658   3.398   3.663  10.047 -0.4335 -0.5760  0.4287
 6342SOL    HW130659   3.353   3.735  10.093 -0.3722  0.4912 -1.1834
 6342SOL    HW230660   3.325   3.601  10.049  1.8670 -3.2785  0.5839
 6343SOL     OW30661   3.311   2.855  12.682 -0.0973 -0.2069  0.0949
 6343SOL    HW130662   3.241   2.848  12.617  0.4838  2.9853 -0.8445
 6343SOL    HW230663   3.358   2.772  12.679 -0.4446 -0.3809 -0.7358
 6344SOL     OW30664   1.277   1.755   6.086 -0.0942 -0.3777 -0.1648
 6344SOL    HW130665   1.188   1.745   6.121  0.9369 -1.9393  2.0123
 6344SOL    HW230666   1.319   1.677   6.123 -0.3758  0.9949  3.0737
 6345SOL     OW30667   3.547   4.157  14.897 -0.1137  0.6146 -0.3074
 6345SOL    HW130668   3.490   4.234  14.898  0.0361  0.7224 -0.1219
 6345SOL    HW230669   3.628   4.184  14.853  0.2631  0.0685  0.0569
 6346SOL     OW30670   2.222   4.427   9.787  0.1866  0.1533  0.1987
 6346SOL    HW130671   2.284   4.470   9.729 -1.7144  0.7758 -1.3868
 6346SOL    HW230672   2.280   4.366   9.833 -0.5612  0.0476  1.0052
 6347SOL     OW30673   1.391   1.059   4.888  0.0181  0.5805 -0.3078
 6347SOL    HW130674   1.393   1.146   4.928  0.6600 -0.1618  1.2525
 6347SOL    HW230675   1.340   1.065   4.806 -0.3363  0.9914 -0.0587
 6348SOL     OW30676   4.006   4.042   5.134 -0.7128  0.3076 -0.1207
 6348SOL    HW130677   3.915   4.029   5.105 -1.5485  0.6569  2.3861
 6348SOL    HW230678   3.986   4.058   5.226  1.1038  1.8781 -0.0066
 6349SOL     OW30679   0.787   4.108   7.994 -0.1468  0.0046  0.2616
 6349SOL    HW130680   0.790   4.195   8.035 -1.3991  0.9738 -1.6734
 6349SOL    HW230681   0.882   4.094   7.995 -0.2323 -0.7242 -1.6124
 6350SOL     OW30682   1.103   4.036   1.777 -0.0021 -0.8311  0.3246
 6350SOL    HW130683   1.155   4.025   1.857  0.0909  1.1147  0.5266
 6350SOL    HW230684   1.178   4.072   1.730  0.4206 -0.0082  1.6307
 6351SOL     OW30685   1.187   2.005   8.137 -0.2651  0.2842  0.1697
 6351SOL    HW130686   1.124   1.938   8.165 -1.4486  0.4938 -1.9326
 6351SOL    HW230687   1.249   2.003   8.210 -0.7856 -4.2700  0.4400
 6352SOL     OW30688   4.728   1.350   7.195 -0.6652  0.0998 -0.4627
 6352SOL    HW130689   0.055   1.284   7.196  1.4700  2.3401  0.7693
 6352SOL    HW230690   4.668   1.309   7.258 -2.2063  0.5593 -1.6257
 6353SOL     OW30691   3.162   0.898   6.096 -0.0852  0.1938  0.1492
 6353SOL    HW130692   3.228   0.858   6.040 -0.0344  0.4656  0.0176
 6353SOL    HW230693   3.099   0.826   6.095  0.8011 -0.5919  1.2583
 6354SOL     OW30694   4.064   3.919   6.115 -0.1821  0.0144 -0.1093
 6354SOL    HW130695   4.112   3.837   6.103 -0.4901  0.0627 -1.7679
 6354SOL    HW230696   4.014   3.896   6.193  0.2138  1.4072  0.5546
 6355SOL     OW30697   3.207   2.207   8.048 -0.7205 -0.2232 -0.0542
 6355SOL    HW130698   3.247   2.174   8.129  1.7073  0.6669 -0.9005
 6355SOL    HW230699   3.201   2.130   7.990  1.9482 -0.0001 -0.6258
 6356SOL     OW30700   0.061   3.800   0.005  0.3502 -0.5776  0.4175
 6356SOL    HW130701   0.037   3.831   0.092 -2.4993 -0.3251 -0.4288
 6356SOL    HW230702   4.721   3.812  17.719  0.0421  0.0950  1.0843
 6357SOL     OW30703   2.785   0.097   7.731 -0.7537 -0.2687 -0.0841
 6357SOL    HW130704   2.876   0.068   7.735 -0.8370 -0.6129 -0.7686
 6357SOL    HW230705   2.798   0.178   7.683  2.0758 -0.7782 -0.1793
 6358SOL     OW30706   3.213   2.820   7.053 -0.5485 -0.2517  0.5455
 6358SOL    HW130707   3.259   2.789   6.975 -1.5084 -0.4774  0.0651
 6358SOL    HW230708   3.242   2.753   7.115  0.7263  1.4205  1.7426
 6359SOL     OW30709   2.431   0.082  14.195 -0.0387  0.3254  0.4729
 6359SOL    HW130710   2.469   0.039  14.118 -2.0081  1.5148 -1.1518
 6359SOL    HW230711   2.364   0.015  14.207 -0.3928  0.1392 -2.6885
 6360SOL     OW30712   0.149   3.546  11.451 -0.8446 -0.0904  0.7123
 6360SOL    HW130713   0.124   3.515  11.538  0.7739 -1.0578  0.8471
 6360SOL    HW230714   0.128   3.639  11.462 -1.1754  0.0705 -1.1951
 6361SOL     OW30715   4.673   0.686   1.575  0.0768  0.2065 -0.5802
 6361SOL    HW130716   4.594   0.729   1.542  0.6582  1.0237 -0.9136
 6361SOL    HW230717   4.696   0.619   1.511  2.0272  1.3326 -1.0920
 6362SOL     OW30718   3.258   1.626   4.156  1.1256  0.3654  0.4835
 6362SOL    HW130719   3.247   1.646   4.063  0.4804  0.2056  0.5246
 6362SOL    HW230720   3.169   1.616   4.191  1.7437  2.1909  2.5791
 6363SOL     OW30721   3.698   2.967   3.532  0.0565 -0.4486 -0.6146
 6363SOL    HW130722   3.742   2.917   3.464 -0.3606  2.4421 -3.0335
 6363SOL    HW230723   3.632   2.909   3.570 -0.2548  0.1133 -0.2786
 6364SOL     OW30724   2.434   4.401   5.788  0.1173  0.1128  0.1162
 6364SOL    HW130725   2.431   4.492   5.817  0.4538  1.1747 -3.1690
 6364SOL    HW230726   2.341   4.384   5.805  0.5502 -0.0711  2.3185
 6365SOL     OW30727   1.057   2.513  16.187  0.3687 -0.0582  0.1635
 6365SOL    HW130728   1.070   2.420  16.209  1.7793 -0.0867 -0.8058
 6365SOL    HW230729   0.963   2.519  16.204  0.7453  1.6165  1.7023
 6366SOL     OW30730   0.601   3.859   5.412  0.5105  0.7723  0.3915
 6366SOL    HW130731   0.677   3.820   5.456 -1.3492 -1.7241  1.4105
 6366SOL    HW230732   0.614   3.953   5.415  1.0703  0.6750  1.2868
 6367SOL     OW30733   3.013   4.653   2.399  0.2100  0.1798 -0.0715
 6367SOL    HW130734   3.050   4.606   2.474  0.0847  1.7344  0.9726
 6367SOL    HW230735   2.943   4.709   2.435  0.4180  0.4231 -0.0427
 6368SOL     OW30736   2.129   2.650   5.750 -0.2727  0.1538  0.1211
 6368SOL    HW130737   2.130   2.585   5.820  2.5662 -1.4640 -1.4425
 6368SOL    HW230738   2.047   2.698   5.765 -1.3965 -0.9187 -2.6356
 6369SOL     OW30739   2.987   2.054  17.629  0.7808  0.2204 -0.3708
 6369SOL    HW130740   3.017   1.990  17.565 -1.2007  1.4111 -2.5009
 6369SOL    HW230741   2.946   2.116  17.568 -0.7488 -0.9287 -0.5165
 6370SOL     OW30742   3.870   0.512  11.096  0.3678 -0.0761  0.1791
 6370SOL    HW130743   3.875   0.446  11.027 -2.5521  0.0106 -0.0928
 6370SOL    HW230744   3.955   0.557  11.092  0.7806 -0.7604  1.2475
 6371SOL     OW30745   1.722   3.014   3.574 -0.0667  0.4278 -0.0005
 6371SOL    HW130746   1.730   3.053   3.486 -1.9405 -0.6172 -0.6374
 6371SOL    HW230747   1.665   3.076   3.621  0.3644 -0.6440  1.8838
 6372SOL     OW30748   4.548   2.888   8.781  0.0855 -0.0514  0.0314
 6372SOL    HW130749   4.613   2.874   8.850 -3.8196  0.4355  3.7854
 6372SOL    HW230750   4.601   2.841   8.716  0.0704  1.2796 -0.9326
 6373SOL     OW30751   1.707   3.358   8.832 -0.1222  0.1355  0.3451
 6373SOL    HW130752   1.614   3.353   8.811 -0.5494 -1.0646  2.5080
 6373SOL    HW230753   1.741   3.443   8.804 -0.8054  0.4371  0.4175
 6374SOL     OW30754   0.387   3.155   8.101 -0.0880 -0.5428  0.0506
 6374SOL    HW130755   0.305   3.105   8.104  1.1256 -2.5386 -0.1720
 6374SOL    HW230756   0.378   3.200   8.016 -0.3029 -2.2357 -0.8143
 6375SOL     OW30757   3.077   1.308   7.415 -0.3128 -0.1735  0.1053
 6375SOL    HW130758   3.053   1.343   7.329  0.7365  0.5826  0.1098
 6375SOL    HW230759   3.114   1.387   7.455 -0.4475 -0.0271 -0.0617
 6376SOL     OW30760   0.935   1.598   3.584  0.0223 -0.8009 -0.3707
 6376SOL    HW130761   1.003   1.623   3.646 -1.2333  1.1429  0.2467
 6376SOL    HW230762   0.946   1.665   3.517  0.5300  0.8449  1.3427
 6377SOL     OW30763   1.239   4.013  16.517 -0.4337  0.0906  1.0357
 6377SOL    HW130764   1.177   3.996  16.447  0.1531 -1.7219  0.9488
 6377SOL    HW230765   1.241   3.931  16.567 -1.6914 -0.4185  0.2323
 6378SOL     OW30766   1.259   1.927   4.047  0.5221  0.1980 -0.6356
 6378SOL    HW130767   1.262   1.838   4.012  2.1934 -0.7170  1.8409
 6378SOL    HW230768   1.164   1.936   4.042  0.6021  1.8314  0.6784
 6379SOL     OW30769   3.509   0.581   8.242 -0.1613  0.2451 -0.2514
 6379SOL    HW130770   3.470   0.653   8.193 -0.2942  0.1358 -0.3093
 6379SOL    HW230771   3.519   0.513   8.175 -0.7897  1.6679 -1.7660
 6380SOL     OW30772   4.468   1.733  13.474  0.2196 -0.0665  0.5534
 6380SOL    HW130773   4.396   1.724  13.411  0.5689  0.2688  0.1016
 6380SOL    HW230774   4.490   1.825  13.456  1.1675 -0.3083  0.4745
 6381SOL     OW30775   0.964   3.996   2.700 -0.0383  0.0009 -0.0388
 6381SOL    HW130776   0.930   3.907   2.685  0.0207 -0.0030 -0.1490
 6381SOL    HW230777   1.011   4.010   2.618 -0.4393  1.9300  0.0650
 6382SOL     OW30778   0.413   3.612  12.059  0.5259  0.3941 -0.2788
 6382SOL    HW130779   0.342   3.674  12.041  0.1181  0.0002 -0.0320
 6382SOL    HW230780   0.488   3.646  12.010  1.0268  0.1134  0.2850
 6383SOL     OW30781   1.247   1.677   7.159  0.0037  0.2099  0.3336
 6383SOL    HW130782   1.267   1.590   7.126  0.0818 -0.5051  2.2793
 6383SOL    HW230783   1.308   1.682   7.232 -1.2226 -3.4745  1.5889
 6384SOL     OW30784   3.387   3.954   2.178  0.1102 -0.2451  0.0143
 6384SOL    HW130785   3.326   4.014   2.134  0.2472 -0.3548 -0.3218
 6384SOL    HW230786   3.339   3.932   2.258  0.0504  1.3765  0.4243
 6385SOL     OW30787   1.382   3.155   1.990 -0.9666  0.6433  0.0529
 6385SOL    HW130788   1.347   3.092   1.927  1.4699 -1.5398  0.8784
 6385SOL    HW230789   1.395   3.097   2.065  0.0132  1.6300  0.6630
 6386SOL     OW30790   3.457   0.532   3.481 -0.0357  0.6763 -0.4746
 6386SOL    HW130791   3.393   0.541   3.551  0.9628  2.6292  0.2137
 6386SOL    HW230792   3.420   0.593   3.417 -2.4070 -0.3536 -0.0871
 6387SOL     OW30793   1.096   4.377   3.794 -0.3197 -0.5890  0.6461
 6387SOL    HW130794   1.019   4.408   3.842 -0.7988 -2.5176  1.1281
 6387SOL    HW230795   1.065   4.352   3.707  0.0004  0.2617  0.2856
 6388SOL     OW30796   4.364   1.542   3.395 -0.1937  0.6579  1.1393
 6388SOL    HW130797   4.392   1.451   3.397  0.7690  0.9870  3.1166
 6388SOL    HW230798   4.302   1.538   3.323  0.3320 -1.3618  0.7899
 6389SOL     OW30799   4.680   3.885   2.088  0.1630 -1.0486 -0.6872
 6389SOL    HW130800   0.028   3.878   2.055  0.7633  0.4368  0.6045
 6389SOL    HW230801   4.696   3.850   2.176  1.5689  1.1726 -0.0534
 6390SOL     OW30802   4.478   1.554  11.837  0.4974  0.7740 -0.5599
 6390SOL    HW130803   4.545   1.506  11.788  0.1303  0.5081 -0.8042
 6390SOL    HW230804   4.453   1.492  11.906  0.5616  0.0835 -1.1594
 6391SOL     OW30805   2.185   4.025   6.254 -0.7297  0.2259  0.2331
 6391SOL    HW130806   2.240   3.992   6.183  1.6483  2.0167  1.2504
 6391SOL    HW230807   2.106   3.976   6.232 -0.1638  0.4653 -2.3736
 6392SOL     OW30808   2.293   4.084  14.911 -0.0166 -0.1688 -0.1571
 6392SOL    HW130809   2.281   4.139  14.833 -0.0679  1.7419  1.1762
 6392SOL    HW230810   2.352   4.016  14.880  1.6893  0.4201  1.7782
 6393SOL     OW30811   3.464   4.320   5.186  0.2442 -0.6065 -0.1679
 6393SOL    HW130812   3.505   4.362   5.110 -0.1672  1.4218  0.7307
 6393SOL    HW230813   3.373   4.324   5.155 -0.3884  2.2344  2.1093
 6394SOL     OW30814   0.245   3.195   7.844 -0.1337  0.0325  0.0026
 6394SOL    HW130815   0.323   3.190   7.788  2.2447  1.5902  3.1484
 6394SOL    HW230816   0.197   3.265   7.800  1.4056 -0.0463 -1.7749
 6395SOL     OW30817   1.910   0.554   0.996  0.1671  0.0034 -0.4649
 6395SOL    HW130818   1.903   0.467   1.035 -1.5898  0.3618 -0.0127
 6395SOL    HW230819   1.961   0.534   0.917 -1.0403  3.2670 -2.0666
 6396SOL     OW30820   3.006   0.038   1.124  0.0562 -0.1469  0.9353
 6396SOL    HW130821   3.087   0.058   1.172  0.0002 -0.9803  1.3820
 6396SOL    HW230822   3.040   4.732   1.048  2.5376  1.9207  0.7472
 6397SOL     OW30823   1.200   0.600  14.469  0.6983  0.0880 -0.2649
 6397SOL    HW130824   1.207   0.511  14.503  0.7346 -0.1502 -0.9010
 6397SOL    HW230825   1.133   0.602  14.401  1.1940 -1.0542 -0.7778
 6398SOL     OW30826   1.188   2.876   5.553  0.9479 -0.7690 -0.5065
 6398SOL    HW130827   1.095   2.899   5.561  0.9574 -1.0550  0.4084
 6398SOL    HW230828   1.195   2.803   5.614 -0.6397  0.1142  0.7366
 6399SOL     OW30829   2.386   0.068   4.879  0.7456  0.4198  1.0070
 6399SOL    HW130830   2.373   0.033   4.790 -0.4180  0.4464  1.1602
 6399SOL    HW230831   2.469   0.027   4.903  0.7966 -0.8345 -1.2734
 6400SOL     OW30832   0.258   3.043  13.484  0.2645 -0.5531  0.1179
 6400SOL    HW130833   0.326   2.976  13.495  0.8865  0.2565  1.1824
 6400SOL    HW230834   0.286   3.109  13.547  0.3198 -1.1289  0.6963
 6401SOL     OW30835   2.216   3.687   5.176  0.3186  0.1679  0.0185
 6401SOL    HW130836   2.311   3.672   5.180  0.0382 -0.3703  4.1690
 6401SOL    HW230837   2.187   3.606   5.134  3.5076 -1.5772  1.1849
 6402SOL     OW30838   2.323   4.558  14.798  0.2217 -1.0706 -0.0536
 6402SOL    HW130839   2.281   4.637  14.833  1.5330 -0.3789 -0.0231
 6402SOL    HW230840   2.410   4.588  14.771  0.0005 -0.1795  0.2084
 6403SOL     OW30841   4.440   3.969   5.308 -0.4828 -0.5469 -0.2353
 6403SOL    HW130842   4.459   3.963   5.402 -2.1117 -1.0884  0.0590
 6403SOL    HW230843   4.417   4.061   5.301 -0.4007 -0.6989 -2.3618
 6404SOL     OW30844   3.844   0.413   8.355 -0.4510 -0.1215  0.4748
 6404SOL    HW130845   3.773   0.452   8.406 -2.0004 -1.2840 -0.7913
 6404SOL    HW230846   3.907   0.483   8.337  0.1115 -0.6420  0.3992
 6405SOL     OW30847   0.842   0.292   8.226 -0.3010  0.3936 -0.4808
 6405SOL    HW130848   0.850   0.381   8.192 -0.4040  1.1762  1.5316
 6405SOL    HW230849   0.755   0.270   8.191  0.2279 -0.1477 -1.4355
 6406SOL     OW30850   0.557   0.461   8.392 -0.4487  0.6282  0.4500
 6406SOL    HW130851   0.567   0.389   8.455 -0.3342 -0.0525 -0.3431
 6406SOL    HW230852   0.544   0.405   8.315 -1.3817 -1.0119  1.8023
 6407SOL     OW30853   2.018   0.625   3.631 -0.6800  0.0152 -0.4947
 6407SOL    HW130854   1.953   0.556   3.618  0.4094 -1.1031 -0.0121
 6407SOL    HW230855   2.086   0.581   3.682  0.9820  0.4205 -2.3657
 6408SOL     OW30856   3.922   0.808  13.265  0.4825  0.0558 -0.3770
 6408SOL    HW130857   3.827   0.811  13.253  0.2688 -1.6896  0.9411
 6408SOL    HW230858   3.933   0.887  13.318 -0.8684  0.5804 -0.8821
 6409SOL     OW30859   3.376   2.807   7.620  0.0606  0.2681 -0.4224
 6409SOL    HW130860   3.391   2.723   7.577  0.5287 -0.4277  1.1290
 6409SOL    HW230861   3.454   2.859   7.601  0.9596 -1.1018 -0.4426
 6410SOL     OW30862   4.064   3.830  14.459 -0.3124 -0.0391  0.6129
 6410SOL    HW130863   4.026   3.745  14.481  2.0415 -1.2330 -0.0037
 6410SOL    HW230864   3.986   3.869  14.418  1.5495 -0.2680 -3.0304
 6411SOL     OW30865   1.808   0.961   3.408 -0.1451  0.7134 -0.6593
 6411SOL    HW130866   1.835   0.957   3.500  0.7151  2.5235 -0.8412
 6411SOL    HW230867   1.713   0.964   3.420  0.1299 -1.1867  2.1229
 6412SOL     OW30868   0.769   4.334   4.240  0.0203 -0.2234  0.3690
 6412SOL    HW130869   0.849   4.281   4.232  0.1087  0.0917 -0.8098
 6412SOL    HW230870   0.760   4.348   4.334  1.0510  2.6687  0.0469
 6413SOL     OW30871   1.526   1.896   3.779 -0.3931  0.4385 -0.0491
 6413SOL    HW130872   1.568   1.831   3.836 -1.1226 -1.7654 -2.0347
 6413SOL    HW230873   1.476   1.839   3.722  2.4839 -0.6584 -1.4612
 6414SOL     OW30874   4.304   0.296   6.225  0.2680 -0.7383  0.2603
 6414SOL    HW130875   4.284   0.350   6.149  0.6222  1.0472  1.4574
 6414SOL    HW230876   4.228   0.319   6.278  0.1847  0.2416 -0.2840
 6415SOL     OW30877   4.625   4.192  15.417  0.5992  0.1217 -0.3451
 6415SOL    HW130878   4.564   4.120  15.399 -0.0557  0.9851 -1.5848
 6415SOL    HW230879   4.709   4.145  15.418  1.0988  1.0432  0.5524
 6416SOL     OW30880   4.071   0.139  11.358  0.0324 -0.0695  0.0923
 6416SOL    HW130881   3.975   0.145  11.358  0.1776  1.9278  3.1084
 6416SOL    HW230882   4.088   0.130  11.451 -1.6296  1.1818  0.5360
 6417SOL     OW30883   0.139   1.954   5.501 -0.7101  0.4400  0.1284
 6417SOL    HW130884   0.204   2.004   5.551 -1.0060 -1.1989  2.1733
 6417SOL    HW230885   0.098   1.902   5.570 -1.0163 -1.5757 -1.5780
 6418SOL     OW30886   3.575   0.487   8.786  0.3812 -0.0624  0.7473
 6418SOL    HW130887   3.523   0.557   8.746  1.5794  0.3168 -0.1636
 6418SOL    HW230888   3.662   0.527   8.785 -0.3457  1.5446  0.7596
 6419SOL     OW30889   1.062   1.919   2.390  0.5156 -0.3154 -0.0094
 6419SOL    HW130890   0.995   1.976   2.351  0.4369  1.7163  3.0764
 6419SOL    HW230891   1.066   1.839   2.338 -0.5766  0.9351 -2.0339
 6420SOL     OW30892   3.463   1.754   2.439  0.2052 -0.0736 -0.4176
 6420SOL    HW130893   3.513   1.818   2.388  2.3147  0.0703  1.8429
 6420SOL    HW230894   3.517   1.770   2.516 -0.9246 -1.4445  0.6460
 6421SOL     OW30895   2.871   0.649   1.725  0.3235 -0.2324  0.2924
 6421SOL    HW130896   2.779   0.653   1.748  0.1899 -2.5578  0.2061
 6421SOL    HW230897   2.876   0.577   1.661 -0.9576  0.0540 -0.1235
 6422SOL     OW30898   0.905   0.635   7.065 -0.1979  0.0976  1.2435
 6422SOL    HW130899   0.995   0.630   7.032 -0.0216 -2.9853  2.2215
 6422SOL    HW230900   0.860   0.572   7.008  1.4921  0.0114  0.0190
 6423SOL     OW30901   4.264   2.210   4.321  0.1606  0.0143 -0.3524
 6423SOL    HW130902   4.307   2.125   4.307 -0.0291 -0.0068 -0.8003
 6423SOL    HW230903   4.333   2.268   4.289 -0.3182 -0.5136 -2.3600
 6424SOL     OW30904   3.190   1.237  16.114 -0.6563 -0.1329 -0.8295
 6424SOL    HW130905   3.185   1.315  16.058 -1.9856 -0.5940 -1.3328
 6424SOL    HW230906   3.275   1.206  16.083  0.5781  0.9105  1.5240
 6425SOL     OW30907   3.207   0.925   3.220 -0.3760  0.4587  0.1330
 6425SOL    HW130908   3.133   0.958   3.168 -1.2589 -0.8331  0.5712
 6425SOL    HW230909   3.262   1.000   3.242 -2.6165  1.6637  1.6403
 6426SOL     OW30910   1.212   1.371   6.786 -0.4564  0.3307 -0.2097
 6426SOL    HW130911   1.236   1.425   6.711 -1.0921  3.1876  1.6638
 6426SOL    HW230912   1.277   1.301   6.786 -0.3199  0.4565  2.2145
 6427SOL     OW30913   1.533   2.111  14.989 -0.2021 -0.3154  0.0353
 6427SOL    HW130914   1.616   2.099  15.035 -0.1449 -1.0250 -0.2497
 6427SOL    HW230915   1.555   2.102  14.896 -0.7440 -0.7537 -0.0573
 6428SOL     OW30916   0.648   1.606   9.719 -0.1606 -0.1228 -0.0065
 6428SOL    HW130917   0.660   1.597   9.813 -0.8336 -1.0128 -0.0080
 6428SOL    HW230918   0.646   1.701   9.721 -0.3450 -0.0781 -1.7930
 6429SOL     OW30919   2.250   4.668   0.626 -0.0057 -0.4122 -0.4166
 6429SOL    HW130920   2.228   4.699   0.538 -2.4501 -0.8928  0.0393
 6429SOL    HW230921   2.274   0.014   0.656 -1.5586 -0.3924  0.7558
 6430SOL     OW30922   1.680   1.809   6.472  0.1192 -0.0599  0.2399
 6430SOL    HW130923   1.640   1.848   6.550 -0.4306 -0.2130  0.0365
 6430SOL    HW230924   1.735   1.883   6.449 -0.2529  0.4279  0.9141
 6431SOL     OW30925   4.166   4.174   2.295 -0.0548 -0.3579  0.4451
 6431SOL    HW130926   4.235   4.107   2.297  1.5695  1.3170  0.0056
 6431SOL    HW230927   4.173   4.201   2.386  0.9157 -0.7316  0.4848
 6432SOL     OW30928   3.497   4.254  17.282  0.0507  0.7213 -0.4343
 6432SOL    HW130929   3.521   4.340  17.249  0.7630 -0.0324 -1.8697
 6432SOL    HW230930   3.455   4.211  17.208 -0.3049  0.8120 -0.2824
 6433SOL     OW30931   4.181   3.325   4.032 -0.3304  0.1866 -0.4557
 6433SOL    HW130932   4.166   3.231   4.026 -1.0199  0.2505  0.2870
 6433SOL    HW230933   4.225   3.346   3.949 -0.4300 -1.4103 -0.9037
 6434SOL     OW30934   3.187   0.031   3.992  0.1236 -0.3896 -0.3799
 6434SOL    HW130935   3.249   0.097   3.962 -0.0423 -0.6641 -1.3282
 6434SOL    HW230936   3.118   0.045   3.927 -1.1957 -0.2453  1.0461
 6435SOL     OW30937   3.508   2.143   6.590  0.0065 -0.1111  0.5883
 6435SOL    HW130938   3.484   2.091   6.514  0.8095  0.5433 -0.1090
 6435SOL    HW230939   3.498   2.074   6.656  0.9680  0.8115  1.7088
 6436SOL     OW30940   1.686   1.449   8.320  0.2976  0.0705  0.1549
 6436SOL    HW130941   1.766   1.414   8.358 -1.2360 -1.4688  1.9395
 6436SOL    HW230942   1.693   1.542   8.342 -1.8429  0.2813  0.0316
 6437SOL     OW30943   2.890   4.124   1.758 -0.2983 -0.4754  0.1818
 6437SOL    HW130944   2.932   4.175   1.827 -0.6668 -0.5331  0.4544
 6437SOL    HW230945   2.966   4.081   1.719  0.0008  0.6365 -0.4462
 6438SOL     OW30946   0.891   1.115  13.986 -0.8095 -0.3316  0.3416
 6438SOL    HW130947   0.880   1.022  13.969 -1.2728 -0.1569 -0.3400
 6438SOL    HW230948   0.948   1.135  13.911 -1.6076  1.5797  0.2350
 6439SOL     OW30949   3.400   2.474   5.607 -0.2390 -0.4400  0.3790
 6439SOL    HW130950   3.318   2.455   5.561  0.8322 -0.7059 -1.4390
 6439SOL    HW230951   3.453   2.395   5.591 -0.0284 -0.2800  0.2937
 6440SOL     OW30952   3.607   0.848  14.622  0.5272  0.7108 -0.4056
 6440SOL    HW130953   3.609   0.878  14.713  0.3876  0.6474 -0.3809
 6440SOL    HW230954   3.517   0.817  14.612  0.1544  1.7731 -0.3482
 6441SOL     OW30955   0.607   4.548   5.724 -0.0218  0.3530  0.4628
 6441SOL    HW130956   0.544   4.564   5.794  0.4254 -3.1187  1.6489
 6441SOL    HW230957   0.591   4.611   5.654  0.0269 -0.4331 -0.2520
 6442SOL     OW30958   3.521   0.849   2.735 -0.1733  0.9277  0.5887
 6442SOL    HW130959   3.524   0.920   2.799 -0.6516  0.4635  1.1306
 6442SOL    HW230960   3.561   0.777   2.782  1.3593  1.4634  0.0921
 6443SOL     OW30961   1.807   0.589  11.149 -0.5192 -0.3083  0.3741
 6443SOL    HW130962   1.884   0.613  11.098 -0.1545 -0.2446  0.9502
 6443SOL    HW230963   1.838   0.512  11.198  1.0914 -1.4985 -2.5227
 6444SOL     OW30964   1.686   3.166   8.208  0.0370  0.3772 -0.1656
 6444SOL    HW130965   1.746   3.210   8.269 -0.1901 -1.7765  1.6263
 6444SOL    HW230966   1.601   3.206   8.229 -0.9406 -2.3508  1.0741
 6445SOL     OW30967   1.838   3.110  17.061 -0.7081  0.4854 -0.1762
 6445SOL    HW130968   1.774   3.113  17.132  0.5195 -0.5313  0.9768
 6445SOL    HW230969   1.875   3.197  17.052  0.1267  0.2456  1.0160
 6446SOL     OW30970   1.973   0.760   2.316  0.3256 -0.4861  0.4506
 6446SOL    HW130971   1.932   0.735   2.400 -0.4940 -0.4802  0.0542
 6446SOL    HW230972   2.065   0.780   2.336  0.0365  1.9398 -0.6112
 6447SOL     OW30973   4.089   4.391   9.533 -0.0592  0.1882  0.2072
 6447SOL    HW130974   4.073   4.486   9.537 -0.6649  0.0244  1.9442
 6447SOL    HW230975   4.057   4.381   9.623  0.3489  2.6728  0.6442
 6448SOL     OW30976   0.099   1.042   2.923 -0.0025 -0.1930  0.2149
 6448SOL    HW130977   0.086   1.073   3.013 -1.5654 -1.9044  0.5749
 6448SOL    HW230978   0.183   0.999   2.935  1.3740  2.7843  1.3605
 6449SOL     OW30979   0.257   0.526   8.222  0.0550  0.3064 -0.0399
 6449SOL    HW130980   0.270   0.500   8.313 -0.5895  1.7808  0.4578
 6449SOL    HW230981   0.256   0.438   8.183 -2.1449 -1.1590  3.3543
 6450SOL     OW30982   4.401   1.232   0.414  0.3109 -0.1645 -0.0655
 6450SOL    HW130983   4.357   1.301   0.464 -0.4845 -0.7995  0.1117
 6450SOL    HW230984   4.431   1.164   0.475  1.4589 -1.2250 -1.8092
 6451SOL     OW30985   0.743   4.190   7.032 -0.1491 -0.7262  0.3032
 6451SOL    HW130986   0.796   4.213   7.109 -0.0655 -1.8024  0.5703
 6451SOL    HW230987   0.711   4.104   7.060  0.4505 -0.7301  0.9889
 6452SOL     OW30988   0.821   0.491   2.584 -0.3462  0.0478  0.4323
 6452SOL    HW130989   0.801   0.442   2.504  2.2363  2.1882 -1.5119
 6452SOL    HW230990   0.898   0.540   2.555 -1.4690  1.6556  0.1667
 6453SOL     OW30991   3.785   3.154  15.683 -0.1335 -0.1918 -0.1729
 6453SOL    HW130992   3.733   3.231  15.707  1.1725  0.4816  0.4578
 6453SOL    HW230993   3.857   3.197  15.638 -0.0566  0.3093  0.4366
 6454SOL     OW30994   0.124   2.444  14.728  0.4292  0.0049  0.9788
 6454SOL    HW130995   0.149   2.388  14.655  0.4593 -0.2555  1.1903
 6454SOL    HW230996   0.040   2.479  14.699  0.3382 -0.8802  0.1664
 6455SOL     OW30997   2.126   0.178   8.969  0.1547  0.1434  0.1117
 6455SOL    HW130998   2.092   0.220   9.048 -1.0213 -0.2908 -0.1529
 6455SOL    HW230999   2.221   0.189   8.973  0.2785 -0.1825 -2.0056
 6456SOL     OW31000   0.520   0.389  16.931 -0.1264 -0.1530  0.5070
 6456SOL    HW131001   0.570   0.397  17.012  1.3298 -1.9424 -0.2158
 6456SOL    HW231002   0.522   0.294  16.941 -0.2002 -0.1213  0.8122
 6457SOL     OW31003   2.193   1.359   7.567 -0.4263  0.0805  0.2276
 6457SOL    HW131004   2.240   1.349   7.484 -3.4645  1.0515 -1.6158
 6457SOL    HW231005   2.110   1.328   7.530 -0.3195 -0.3742  0.3723
 6458SOL     OW31006   2.450   0.551   6.601 -0.4900 -0.0463 -0.2018
 6458SOL    HW131007   2.421   0.612   6.533  2.0110 -1.1054 -2.1983
 6458SOL    HW231008   2.453   0.459   6.576 -0.7849 -0.3004  0.7103
 6459SOL     OW31009   4.176   4.030   8.110  0.9214 -0.1027 -0.3562
 6459SOL    HW131010   4.117   4.060   8.041 -0.0636 -1.1070  0.0604
 6459SOL    HW231011   4.243   3.988   8.055  0.2812 -1.2967 -0.2189
 6460SOL     OW31012   2.782   4.520   1.037  0.3721  0.7258  0.3177
 6460SOL    HW131013   2.845   4.484   0.975  0.5949  0.6443  0.5923
 6460SOL    HW231014   2.802   4.613   1.050  0.7813  0.9900 -2.1923
 6461SOL     OW31015   2.293   4.572   3.211  0.0286  0.3134 -0.1753
 6461SOL    HW131016   2.243   4.492   3.194 -0.6542  0.6781  0.1596
 6461SOL    HW231017   2.369   4.549   3.264 -0.0814 -0.0984 -0.1964
 6462SOL     OW31018   3.686   0.899   8.203 -0.0802  0.1418  0.0246
 6462SOL    HW131019   3.659   0.857   8.122 -1.0194 -3.0222  1.9753
 6462SOL    HW231020   3.606   0.950   8.214 -0.7696 -1.0331  0.5334
 6463SOL     OW31021   2.511   3.160   3.597 -0.0579 -0.5625  0.0285
 6463SOL    HW131022   2.570   3.128   3.666 -0.1938 -1.7660 -0.4089
 6463SOL    HW231023   2.563   3.115   3.530 -0.1066  0.1955 -0.5162
 6464SOL     OW31024   0.652   4.290   3.324  0.4421  0.4241 -0.5859
 6464SOL    HW131025   0.706   4.250   3.256 -1.8011 -1.6144 -1.1686
 6464SOL    HW231026   0.632   4.372   3.281  0.5213 -0.1848 -1.7749
 6465SOL     OW31027   3.733   0.839   7.139  0.0033 -0.2818 -0.6712
 6465SOL    HW131028   3.748   0.804   7.051  0.9389 -1.4130 -0.0479
 6465SOL    HW231029   3.650   0.886   7.129  0.5662  0.7545 -0.4512
 6466SOL     OW31030   3.942   2.438   5.741  0.0568 -0.0235 -0.2002
 6466SOL    HW131031   4.008   2.447   5.673  2.1866 -0.2845  1.8538
 6466SOL    HW231032   3.863   2.483   5.709 -0.7716 -1.7562 -0.5698
 6467SOL     OW31033   3.292   3.349   1.812  0.3956  0.0103  0.9465
 6467SOL    HW131034   3.244   3.282   1.860 -0.8554  2.6529  3.3784
 6467SOL    HW231035   3.383   3.319   1.813 -0.3201 -2.1418  0.9936
 6468SOL     OW31036   0.360   2.528   5.044 -0.4431 -0.2426 -0.0029
 6468SOL    HW131037   0.408   2.560   5.121  1.1608 -0.8209 -0.7729
 6468SOL    HW231038   0.274   2.552   5.079  0.0293  3.6221 -1.5660
 6469SOL     OW31039   4.202   3.871   5.520  0.4659  0.6290  0.4498
 6469SOL    HW131040   4.226   3.964   5.521 -0.8493  0.9723  0.6061
 6469SOL    HW231041   4.139   3.875   5.448 -1.9278 -0.6730  2.4865
 6470SOL     OW31042   1.005   4.505   8.386  0.5806  0.4194 -0.2434
 6470SOL    HW131043   1.090   4.483   8.424  0.8801 -0.3882 -1.3876
 6470SOL    HW231044   1.040   4.538   8.303 -1.0314  1.2403 -0.5964
 6471SOL     OW31045   4.056   4.001   7.344  0.5622 -0.1172  0.1246
 6471SOL    HW131046   4.121   4.028   7.408 -1.2570  0.6648  1.6408
 6471SOL    HW231047   4.023   3.919   7.382  1.1855  0.6235  2.2577
 6472SOL     OW31048   3.476   2.913   0.448  0.1523  0.5348 -0.4918
 6472SOL    HW131049   3.417   2.957   0.510  0.5436  0.0262  0.2459
 6472SOL    HW231050   3.504   2.983   0.390 -1.0355  1.1654 -0.2994
 6473SOL     OW31051   4.046   1.091   1.011 -0.2808 -0.5599 -0.4124
 6473SOL    HW131052   4.064   1.029   1.081 -0.2373 -0.2235 -0.1290
 6473SOL    HW231053   3.965   1.133   1.040  0.8400  0.0197  1.8308
 6474SOL     OW31054   3.761   3.719   8.761 -0.0059  0.7749  0.1144
 6474SOL    HW131055   3.676   3.746   8.795 -0.4224  1.3447 -1.3385
 6474SOL    HW231056   3.785   3.644   8.814  0.5657  1.2020  0.4542
 6475SOL     OW31057   4.707   3.873   1.740  0.2228  0.0829 -0.3058
 6475SOL    HW131058   4.625   3.852   1.785  0.0449 -2.2393 -1.6819
 6475SOL    HW231059   0.024   3.801   1.763 -0.2321 -0.4260 -0.7321
 6476SOL     OW31060   4.508   2.835   2.804  0.5037 -0.1969  0.3377
 6476SOL    HW131061   4.579   2.774   2.781 -0.4138 -1.4048  0.6932
 6476SOL    HW231062   4.558   2.880   2.872 -0.0223  2.4074 -1.0106
 6477SOL     OW31063   3.336   2.771   5.554 -0.1444  0.4123 -0.0824
 6477SOL    HW131064   3.351   2.713   5.629  0.6130 -1.0394 -1.3549
 6477SOL    HW231065   3.350   2.705   5.486 -1.2386  0.4909 -0.3844
 6478SOL     OW31066   3.590   0.717   2.221  0.0603 -0.2599  0.0822
 6478SOL    HW131067   3.536   0.763   2.286 -0.5537  0.5393 -0.9891
 6478SOL    HW231068   3.588   0.631   2.264  0.7058  0.1357  0.9025
 6479SOL     OW31069   1.725   3.732   5.645 -0.2589 -0.4525  0.1414
 6479SOL    HW131070   1.713   3.651   5.597  0.1557  0.1297 -0.9584
 6479SOL    HW231071   1.820   3.746   5.651 -0.0550 -0.5942 -2.9262
 6480SOL     OW31072   2.675   3.559   9.360 -0.3847 -0.5802 -1.1436
 6480SOL    HW131073   2.640   3.530   9.275  2.2017 -1.2225 -1.9810
 6480SOL    HW231074   2.596   3.597   9.399  1.4051 -0.1826  2.0114
 6481SOL     OW31075   3.572   2.933   9.115  0.2521  1.1342  0.2457
 6481SOL    HW131076   3.551   3.019   9.152  0.4445  0.8027  1.1305
 6481SOL    HW231077   3.668   2.942   9.112  0.5810 -2.3053 -0.4635
 6482SOL     OW31078   2.605   2.439  16.623  0.1970 -0.2775  0.1958
 6482SOL    HW131079   2.695   2.405  16.626  0.5152  0.5061 -0.4141
 6482SOL    HW231080   2.559   2.362  16.657  0.0802 -1.3345 -2.3756
 6483SOL     OW31081   3.344   3.707   5.759  0.0170  0.0250 -0.0343
 6483SOL    HW131082   3.373   3.759   5.834 -1.0543  0.2907  0.2042
 6483SOL    HW231083   3.416   3.720   5.697  0.5037  0.5318  0.6440
 6484SOL     OW31084   1.632   1.572   7.016  0.1153  0.5364  1.1301
 6484SOL    HW131085   1.617   1.660   7.050 -0.4670  0.4696  1.0346
 6484SOL    HW231086   1.704   1.576   6.953 -0.9222 -0.2420 -0.0998
 6485SOL     OW31087   2.807   0.059   1.469 -0.0870 -0.8616  0.2852
 6485SOL    HW131088   2.725   0.011   1.473 -0.7877  0.1856 -1.2434
 6485SOL    HW231089   2.782   0.141   1.513  1.0418 -0.7984  0.7984
 6486SOL     OW31090   4.599   1.269  13.605  0.0385 -0.2025 -0.5183
 6486SOL    HW131091   4.603   1.356  13.647  2.3910 -0.4981 -0.1079
 6486SOL    HW231092   4.581   1.300  13.517 -0.6776  2.6232  0.6102
 6487SOL     OW31093   3.077   1.718   2.936 -0.0437  0.4718 -0.2671
 6487SOL    HW131094   3.080   1.671   3.020 -1.8063  0.7279 -0.0629
 6487SOL    HW231095   3.148   1.669   2.896 -0.6965 -0.0492 -0.7900
 6488SOL     OW31096   4.533   1.453   7.572 -0.9506  0.0455 -0.1904
 6488SOL    HW131097   4.557   1.388   7.506 -3.0355  0.2285 -1.1214
 6488SOL    HW231098   4.601   1.517   7.548 -0.8904 -0.7163 -2.0240
 6489SOL     OW31099   1.137   0.442   3.746  0.3495 -0.4049 -0.5213
 6489SOL    HW131100   1.134   0.508   3.677 -0.3710  1.1563  0.9983
 6489SOL    HW231101   1.219   0.404   3.716  0.9781 -0.8783  1.7814
 6490SOL     OW31102   0.188   0.713  14.888 -0.3727  0.2996 -0.4310
 6490SOL    HW131103   0.267   0.767  14.875  0.7604 -1.3403 -0.3816
 6490SOL    HW231104   0.192   0.654  14.814  0.7319  0.2244 -0.3192
 6491SOL     OW31105   2.832   2.127   3.596 -0.2542 -0.4869  0.4020
 6491SOL    HW131106   2.812   2.206   3.545 -0.3451 -0.7511  0.0317
 6491SOL    HW231107   2.843   2.068   3.521 -2.4038 -2.0900  1.3278
 6492SOL     OW31108   4.414   1.205   2.225 -0.1135  0.8057  0.3269
 6492SOL    HW131109   4.491   1.205   2.283 -0.2677  0.5523  0.5309
 6492SOL    HW231110   4.372   1.121   2.244  1.0182  0.2451  0.3435
 6493SOL     OW31111   1.446   3.600   4.626  0.2616 -0.3440 -0.4514
 6493SOL    HW131112   1.445   3.696   4.628  0.3299 -0.3747  0.8959
 6493SOL    HW231113   1.371   3.585   4.570  0.5114  2.4309 -1.5493
 6494SOL     OW31114   1.702   4.372   7.050 -0.3368 -0.1855 -0.2786
 6494SOL    HW131115   1.743   4.398   7.133 -1.8024 -0.1084  0.4274
 6494SOL    HW231116   1.720   4.446   6.992  2.1900 -1.8921 -1.6644
 6495SOL     OW31117   4.211   4.053   3.483  0.0631  0.3693 -0.2629
 6495SOL    HW131118   4.302   4.079   3.499  0.0274 -0.7950  1.9275
 6495SOL    HW231119   4.228   3.981   3.422  2.2084  0.6966 -0.0321
 6496SOL     OW31120   3.853   3.635  12.252  0.3538  0.1963 -0.0796
 6496SOL    HW131121   3.780   3.685  12.288 -1.5743 -2.3025 -0.4790
 6496SOL    HW231122   3.916   3.640  12.324  0.6306  0.5229 -0.3447
 6497SOL     OW31123   4.652   2.506   4.081  0.4649  0.5641  0.0956
 6497SOL    HW131124   4.619   2.584   4.125  0.2244  0.0179  0.8782
 6497SOL    HW231125   4.731   2.546   4.045 -0.9585  1.8078 -1.6697
 6498SOL     OW31126   3.823   3.471   8.975 -0.4709  0.3445 -0.5469
 6498SOL    HW131127   3.892   3.428   8.925 -1.4595 -0.6769 -1.0244
 6498SOL    HW231128   3.750   3.431   8.927 -1.0781 -0.7558  1.3085
 6499SOL     OW31129   1.673   3.168   5.969  0.4646  0.3961 -0.1159
 6499SOL    HW131130   1.687   3.262   5.980 -1.0382  0.6705 -0.6959
 6499SOL    HW231131   1.689   3.138   6.059 -1.1631  0.7869  0.2988
 6500SOL     OW31132   3.982   1.489   2.649 -0.6727 -0.1183  0.3484
 6500SOL    HW131133   4.023   1.437   2.717 -3.4041 -0.7202  1.5548
 6500SOL    HW231134   4.066   1.509   2.608 -1.2515 -1.6223 -1.5841
 6501SOL     OW31135   2.990   4.073  15.677 -0.2044 -0.3607  0.4871
 6501SOL    HW131136   2.953   4.139  15.734  1.3065  0.8392  0.0806
 6501SOL    HW231137   2.923   4.067  15.609  1.3762 -1.0223 -1.0417
 6502SOL     OW31138   4.407   3.264  15.680  0.3425 -0.8079 -0.1134
 6502SOL    HW131139   4.377   3.240  15.768 -1.2945 -0.5823 -0.6112
 6502SOL    HW231140   4.329   3.314  15.657  2.0963  1.8691 -0.2463
 6503SOL     OW31141   1.730   3.855  17.058 -0.4116  0.3615  0.2157
 6503SOL    HW131142   1.771   3.857  16.971 -1.2571  0.6073 -0.1756
 6503SOL    HW231143   1.806   3.852  17.115  0.4948 -0.6494 -1.0204
 6504SOL     OW31144   1.166   0.837   0.404 -0.1236  0.5244 -0.0132
 6504SOL    HW131145   1.221   0.902   0.361  1.7149  0.3385  2.0395
 6504SOL    HW231146   1.212   0.829   0.488 -0.1501  1.1686  0.0623
 6505SOL     OW31147   1.453   0.382  11.036  0.6855  0.1537 -0.1088
 6505SOL    HW131148   1.431   0.475  11.045 -3.6858 -0.8930  0.0628
 6505SOL    HW231149   1.520   0.380  10.968 -1.2666 -1.2438 -1.9996
 6506SOL     OW31150   3.682   0.702  11.580 -0.3314 -0.2539  0.0413
 6506SOL    HW131151   3.621   0.680  11.511 -3.2317  0.0443  2.5163
 6506SOL    HW231152   3.665   0.633  11.644  0.6338  0.3976  1.0212
 6507SOL     OW31153   1.046   1.186   8.179  0.5748 -0.3438  0.1822
 6507SOL    HW131154   1.111   1.117   8.187  1.2824  0.3030 -0.0219
 6507SOL    HW231155   1.018   1.203   8.269  2.0295 -1.1988  0.7939
 6508SOL     OW31156   0.085   0.924   9.432 -0.1328 -0.3254  0.1075
 6508SOL    HW131157   0.033   0.857   9.388  0.0609  0.1658 -0.8657
 6508SOL    HW231158   0.173   0.888   9.417 -0.3834 -1.0321  0.3343
 6509SOL     OW31159   0.780   1.810   4.155  0.1951 -0.5827 -0.1224
 6509SOL    HW131160   0.686   1.815   4.172  0.0726  1.2583 -1.4059
 6509SOL    HW231161   0.813   1.836   4.241  0.2407  0.3516 -0.4224
 6510SOL     OW31162   3.388   3.934  10.261 -0.5178 -0.4295 -0.4941
 6510SOL    HW131163   3.373   3.987  10.183  3.2345  2.3909  0.6728
 6510SOL    HW231164   3.330   3.972  10.326  0.4670 -2.5743  1.6560
 6511SOL     OW31165   2.082   3.219   5.095 -0.4227  0.2568  0.2836
 6511SOL    HW131166   2.006   3.161   5.094  1.0870 -1.7563  1.1008
 6511SOL    HW231167   2.142   3.175   5.035 -0.2290  0.0493  0.6292
 6512SOL     OW31168   4.331   4.235   5.331  0.4531  0.1469 -0.3561
 6512SOL    HW131169   4.362   4.241   5.241  1.1407  0.3214 -0.1053
 6512SOL    HW231170   4.240   4.264   5.318 -0.3322 -1.4029  1.7263
 6513SOL     OW31171   3.669   1.735   4.623  0.0954 -0.2942 -0.3655
 6513SOL    HW131172   3.762   1.730   4.605  0.0347  0.2513 -0.8348
 6513SOL    HW231173   3.654   1.768   4.712  0.0408  0.6062 -0.7132
 6514SOL     OW31174   2.669   2.973  10.631 -0.1654  0.2035 -1.1454
 6514SOL    HW131175   2.758   2.950  10.658 -0.4076  0.8329  0.2192
 6514SOL    HW231176   2.647   2.892  10.586 -0.0166 -0.3449 -0.2399
 6515SOL     OW31177   4.231   1.150  14.406 -0.0543 -0.3486 -0.5898
 6515SOL    HW131178   4.231   1.171  14.312  1.1888  0.3681 -0.4292
 6515SOL    HW231179   4.318   1.113  14.416  1.7849  3.5019 -2.0127
 6516SOL     OW31180   2.262   3.701   3.751 -0.2336  0.2149  0.1809
 6516SOL    HW131181   2.265   3.677   3.659  0.5432  0.3164  0.1852
 6516SOL    HW231182   2.174   3.741   3.750  0.5449  1.9473  0.5029
 6517SOL     OW31183   3.221   2.511   2.268 -0.4897 -0.1877 -0.0266
 6517SOL    HW131184   3.159   2.521   2.195  1.3691 -1.0545 -1.7507
 6517SOL    HW231185   3.216   2.593   2.316 -1.8058 -1.6200  2.2958
 6518SOL     OW31186   3.996   0.770  10.102 -0.7693  0.0690  0.4073
 6518SOL    HW131187   3.933   0.735  10.038 -0.1377  0.4277 -0.4187
 6518SOL    HW231188   4.053   0.695  10.119  0.1104 -0.0017 -2.7448
 6519SOL     OW31189   0.648   2.902   8.900 -0.2538  0.5417  0.8976
 6519SOL    HW131190   0.599   2.971   8.856 -0.2017 -1.4298 -2.1633
 6519SOL    HW231191   0.653   2.845   8.824 -1.0464  0.3048  1.0245
 6520SOL     OW31192   1.034   0.733   3.112  0.3997 -0.0926  0.0429
 6520SOL    HW131193   1.069   0.816   3.082  1.9992 -0.3193  1.2945
 6520SOL    HW231194   1.022   0.695   3.025  1.2437  1.9051 -0.9355
 6521SOL     OW31195   4.604   0.917  12.216  0.4914 -0.0893 -0.4915
 6521SOL    HW131196   4.599   0.846  12.152 -1.3373 -2.4188  2.2735
 6521SOL    HW231197   4.662   0.875  12.280 -0.4015 -0.2819  0.1833
 6522SOL     OW31198   0.463   2.213   0.702 -0.5818  0.7680 -0.2506
 6522SOL    HW131199   0.385   2.220   0.758  0.0651 -0.4129  0.7755
 6522SOL    HW231200   0.420   2.227   0.617  1.6619  1.8922 -1.2004
 6523SOL     OW31201   1.772   4.157   9.281 -0.0054 -0.4446 -0.0797
 6523SOL    HW131202   1.849   4.109   9.251  1.5316  1.3848  0.9146
 6523SOL    HW231203   1.810   4.244   9.291 -2.1933  0.4706  0.2473
 6524SOL     OW31204   3.782   4.012  14.519  0.2289 -0.2396  0.5225
 6524SOL    HW131205   3.857   3.998  14.577  0.2500  3.1923  1.2853
 6524SOL    HW231206   3.807   3.969  14.437 -0.2501  2.4967 -1.0523
 6525SOL     OW31207   2.098   0.044   8.340 -0.0018  0.3649 -0.1954
 6525SOL    HW131208   2.126   4.736   8.417 -1.4667 -3.5209 -2.1638
 6525SOL    HW231209   2.172   0.022   8.283 -0.4215  1.0151 -0.9958
 6526SOL     OW31210   0.810   3.577   7.814  0.1631 -0.1316  0.3307
 6526SOL    HW131211   0.768   3.575   7.729  0.0490 -0.3972  0.3941
 6526SOL    HW231212   0.827   3.484   7.829  2.3588  0.1814 -0.1635
 6527SOL     OW31213   2.388   1.443   4.788  0.4001  0.3009 -0.0474
 6527SOL    HW131214   2.427   1.485   4.864 -0.2862 -0.2293  0.6046
 6527SOL    HW231215   2.298   1.441   4.822 -0.9344 -1.0094 -3.6709
 6528SOL     OW31216   1.776   1.025   4.242  0.6565 -0.3536 -0.7145
 6528SOL    HW131217   1.722   1.035   4.320 -0.1978 -2.3763 -1.0276
 6528SOL    HW231218   1.829   0.950   4.270 -0.3729 -0.4976  0.8342
 6529SOL     OW31219   0.081   3.097  11.146  0.2555 -0.5780 -0.5478
 6529SOL    HW131220   0.167   3.122  11.111 -0.0940 -0.7204 -1.5309
 6529SOL    HW231221   0.058   3.181  11.187  1.0707 -0.6176 -0.0326
 6530SOL     OW31222   3.591   1.849   2.645 -0.3804  0.0790  0.5728
 6530SOL    HW131223   3.645   1.779   2.681  0.5391  0.2080 -0.5405
 6530SOL    HW231224   3.654   1.900   2.593 -2.0440  1.7499  0.1781
 6531SOL     OW31225   2.821   1.090   2.271  0.3549  0.3828 -0.1117
 6531SOL    HW131226   2.842   1.039   2.193  0.3036  0.2355 -0.0301
 6531SOL    HW231227   2.768   1.161   2.236  0.7596  0.3249 -0.8226
 6532SOL     OW31228   3.314   3.802  14.534  0.4752 -0.2313  0.5479
 6532SOL    HW131229   3.400   3.827  14.568  1.4510  1.0019 -2.8262
 6532SOL    HW231230   3.330   3.814  14.441  0.1491  1.7976  0.7644
 6533SOL     OW31231   3.412   2.010  12.372  0.3178  0.1937  0.0475
 6533SOL    HW131232   3.465   1.942  12.414  1.7374  1.6272  0.6071
 6533SOL    HW231233   3.440   2.088  12.422  0.0755  1.1313 -1.2806
 6534SOL     OW31234   2.177   4.165   2.168  0.0143  0.1852  0.1826
 6534SOL    HW131235   2.168   4.260   2.159 -0.5541  0.1883  0.8385
 6534SOL    HW231236   2.141   4.162   2.256  1.6608 -0.6619  0.8343
 6535SOL     OW31237   0.781   4.639   9.372 -0.5541  0.0071  0.0814
 6535SOL    HW131238   0.823   4.681   9.296 -0.9331  1.7424  0.8387
 6535SOL    HW231239   0.862   4.611   9.414  0.0830  0.3389 -0.9088
 6536SOL     OW31240   3.153   0.631   5.043 -0.0885 -0.3229  0.3105
 6536SOL    HW131241   3.126   0.574   4.971  2.8807 -1.8612  0.4112
 6536SOL    HW231242   3.071   0.652   5.087  0.1652  1.0093  0.1247
 6537SOL     OW31243   2.946   3.518   7.217  0.1160 -0.4924 -0.4240
 6537SOL    HW131244   2.966   3.491   7.306  2.1966 -0.4713 -0.8833
 6537SOL    HW231245   2.874   3.458   7.203 -0.4724  0.1977 -0.3601
 6538SOL     OW31246   3.515   4.512   2.835  0.4955  0.1488 -0.4346
 6538SOL    HW131247   3.609   4.524   2.821  0.9737 -1.9137  1.1231
 6538SOL    HW231248   3.507   4.417   2.833  0.5174  0.1753 -1.7718
 6539SOL     OW31249   1.716   4.466  13.811  0.1170  0.0880 -0.1845
 6539SOL    HW131250   1.683   4.525  13.879 -1.2213 -0.6502 -0.2113
 6539SOL    HW231251   1.759   4.534  13.758  0.6463 -0.7134 -0.7784
 6540SOL     OW31252   3.674   1.833   8.102  0.7065  0.4233  0.7679
 6540SOL    HW131253   3.755   1.785   8.088  0.9258  0.7149  1.0457
 6540SOL    HW231254   3.631   1.765   8.155  0.4413 -0.6237 -0.7923
 6541SOL     OW31255   0.471   3.216   7.555  0.0861 -0.6834  0.0602
 6541SOL    HW131256   0.536   3.202   7.486  1.0312  1.0370  0.6055
 6541SOL    HW231257   0.397   3.239   7.498  0.9497  0.9471 -0.4174
 6542SOL     OW31258   1.277   2.668   2.972  0.2103 -0.2379  0.7388
 6542SOL    HW131259   1.200   2.619   2.942 -0.3824  0.0351  1.8279
 6542SOL    HW231260   1.340   2.604   2.937 -0.3552 -0.7190  0.5956
 6543SOL     OW31261   4.665   1.868   4.437 -0.2107  0.3186 -0.4438
 6543SOL    HW131262   4.606   1.826   4.500 -0.7026  0.3224 -0.9039
 6543SOL    HW231263   0.007   1.836   4.471 -0.6435  0.5950  0.8935
 6544SOL     OW31264   0.938   2.875  12.058  0.4976  0.0152 -0.0497
 6544SOL    HW131265   0.856   2.920  12.077  1.7417  1.4423  1.9472
 6544SOL    HW231266   0.988   2.954  12.036  1.1547  0.1274  1.8598
 6545SOL     OW31267   4.595   1.283   6.137 -0.5842  0.1090  0.1661
 6545SOL    HW131268   4.687   1.288   6.112 -0.9274 -0.0178 -1.1092
 6545SOL    HW231269   4.560   1.204   6.094  0.7877 -2.3082  3.5455
 6546SOL     OW31270   4.585   2.872  15.121  0.2467 -0.2845 -0.7067
 6546SOL    HW131271   4.531   2.944  15.087  0.6717 -0.4574 -1.7533
 6546SOL    HW231272   4.539   2.848  15.201  0.3446 -2.4176 -1.2876
 6547SOL     OW31273   4.699   2.772   7.215 -0.7805  0.4107 -0.1636
 6547SOL    HW131274   0.046   2.808   7.208 -0.8597  0.0618 -3.3502
 6547SOL    HW231275   4.717   2.690   7.261 -0.8639 -0.4793 -1.7152
 6548SOL     OW31276   2.603   2.225  12.357 -0.1727  0.3743  0.4551
 6548SOL    HW131277   2.688   2.255  12.390  0.2879 -1.5125  0.9910
 6548SOL    HW231278   2.572   2.296  12.301 -2.8203 -0.0014  1.4254
 6549SOL     OW31279   2.024   2.280   5.940 -0.4255  0.2066 -0.5099
 6549SOL    HW131280   2.057   2.192   5.956 -0.8179 -0.0883 -1.3710
 6549SOL    HW231281   1.989   2.281   5.852 -0.7078  0.6202 -0.3943
 6550SOL     OW31282   1.191   2.403   1.849  0.7496 -0.0853  0.1618
 6550SOL    HW131283   1.101   2.373   1.865  0.4861  0.4767 -0.2456
 6550SOL    HW231284   1.215   2.348   1.774  0.0702 -1.6625  1.0993
 6551SOL     OW31285   0.069   0.238   7.519 -0.3267 -0.2689  0.4618
 6551SOL    HW131286   0.083   0.166   7.580  0.7898 -2.8739 -2.8646
 6551SOL    HW231287   0.157   0.267   7.494 -0.3578 -1.4485 -1.0338
 6552SOL     OW31288   3.677   0.621   5.306  0.2054  0.0121  0.1361
 6552SOL    HW131289   3.703   0.665   5.225  1.3366 -0.5623  0.1892
 6552SOL    HW231290   3.600   0.674   5.327  1.9617  1.9388  1.7639
 6553SOL     OW31291   1.117   1.099  17.446 -0.1844  0.0078  0.3295
 6553SOL    HW131292   1.202   1.134  17.470  0.1183 -0.8951  0.5629
 6553SOL    HW231293   1.154   1.019  17.409 -3.5250 -1.0803 -0.7003
 6554SOL     OW31294   1.319   4.603  16.865 -0.6219  0.4324  0.1742
 6554SOL    HW131295   1.339   4.582  16.956  2.4815 -0.8882 -0.8218
 6554SOL    HW231296   1.238   4.653  16.872 -0.4823  0.6749  0.0491
 6555SOL     OW31297   4.560   4.014  11.914  0.0804 -0.1045  0.2837
 6555SOL    HW131298   4.571   3.936  11.968 -0.3494  0.7492  1.6191
 6555SOL    HW231299   4.469   4.021  11.886  0.0532  0.3619  0.4813
 6556SOL     OW31300   0.630   0.100  17.265 -0.0200  0.1044 -0.8996
 6556SOL    HW131301   0.610   0.065  17.178  0.0702 -1.7741 -0.1463
 6556SOL    HW231302   0.611   0.023  17.318  0.0217 -0.0559 -1.1150
 6557SOL     OW31303   0.250   2.490   3.180 -0.0211 -0.2518 -0.1556
 6557SOL    HW131304   0.292   2.500   3.266  0.2704 -1.7069 -0.1256
 6557SOL    HW231305   0.190   2.564   3.184  0.3178  0.0341 -0.3834
 6558SOL     OW31306   1.716   2.997  14.064 -0.5269  0.1309 -0.7210
 6558SOL    HW131307   1.671   2.925  14.019  1.1234 -1.4866  0.2088
 6558SOL    HW231308   1.789   2.943  14.094  0.3511  1.5417 -0.3670
 6559SOL     OW31309   1.919   0.291  10.386  0.3360 -0.6343 -0.0238
 6559SOL    HW131310   1.883   0.284  10.297 -1.8195 -1.1527  0.8736
 6559SOL    HW231311   1.959   0.205  10.391 -3.3799 -2.2388  2.8440
 6560SOL     OW31312   0.384   0.672  17.187  0.2173  0.0597 -0.5756
 6560SOL    HW131313   0.392   0.701  17.096 -0.6695  1.9981 -0.0397
 6560SOL    HW231314   0.313   0.610  17.174 -0.6905  1.1798 -0.9571
 6561SOL     OW31315   2.667   3.519   0.038  0.3799 -0.1177 -0.3339
 6561SOL    HW131316   2.672   3.553   0.127  3.6662 -0.3371 -0.4383
 6561SOL    HW231317   2.756   3.485   0.022  2.2163  3.6451  2.0004
 6562SOL     OW31318   1.587   1.813  15.871  0.0177 -0.2849  0.5960
 6562SOL    HW131319   1.618   1.811  15.781 -0.5225 -0.0078  0.4062
 6562SOL    HW231320   1.501   1.847  15.850  0.0956  0.4974  1.5262
 6563SOL     OW31321   3.930   4.578   7.328 -0.2057  0.4465  0.4373
 6563SOL    HW131322   3.877   4.642   7.281 -1.3028 -0.8304 -0.0666
 6563SOL    HW231323   4.002   4.628   7.367  0.3526 -1.1830  1.5311
 6564SOL     OW31324   3.478   0.397   5.715 -1.3234  0.5043  0.1924
 6564SOL    HW131325   3.421   0.439   5.651 -1.4387 -0.1255 -0.1224
 6564SOL    HW231326   3.535   0.470   5.739 -1.0939  0.2691  0.3645
 6565SOL     OW31327   2.197   0.165  15.223  0.6161  0.3699  0.1525
 6565SOL    HW131328   2.265   0.230  15.206 -0.3666  1.1613 -0.7565
 6565SOL    HW231329   2.114   0.212  15.213 -0.4003 -1.7046 -1.1761
 6566SOL     OW31330   3.942   1.922   2.129  0.0664 -0.6440 -0.2185
 6566SOL    HW131331   4.026   1.888   2.096  0.8488 -1.0472  2.2359
 6566SOL    HW231332   3.891   1.844   2.152 -1.8914  0.1597 -1.7855
 6567SOL     OW31333   3.504   1.191  15.967 -0.3572  0.4343 -0.1056
 6567SOL    HW131334   3.557   1.216  16.043 -0.4118 -2.7395  0.9844
 6567SOL    HW231335   3.576   1.141  15.929 -1.5869 -1.5926  0.2223
 6568SOL     OW31336   4.140   4.136   7.138  0.5071 -0.2915 -0.5627
 6568SOL    HW131337   4.231   4.105   7.130  0.1472 -1.7208  0.7228
 6568SOL    HW231338   4.099   4.070   7.194  0.2639  0.4893  0.1755
 6569SOL     OW31339   2.144   4.449   1.531 -0.1267 -0.2895  0.1173
 6569SOL    HW131340   2.239   4.443   1.538 -0.0529 -1.3046 -1.6657
 6569SOL    HW231341   2.134   4.544   1.534  0.0674 -0.1992 -2.3827
 6570SOL     OW31342   2.514   2.645   7.723 -0.1187 -0.3293  0.3113
 6570SOL    HW131343   2.495   2.587   7.798 -0.3369  1.5146  1.6785
 6570SOL    HW231344   2.477   2.589   7.655  0.7258 -2.2643  1.4353
 6571SOL     OW31345   1.764   4.374   5.239 -0.3448  1.0646 -0.5756
 6571SOL    HW131346   1.785   4.355   5.331  1.8132 -0.6171 -1.4229
 6571SOL    HW231347   1.838   4.354   5.183 -2.2375 -1.7220 -2.1188
 6572SOL     OW31348   4.034   3.380   3.086 -0.0944 -0.2160 -0.1885
 6572SOL    HW131349   4.097   3.450   3.068 -0.5802  0.6090  1.2601
 6572SOL    HW231350   4.097   3.309   3.098 -0.4164 -0.9295 -2.9414
 6573SOL     OW31351   1.616   3.578   8.628  0.6136  0.0342  0.1494
 6573SOL    HW131352   1.557   3.520   8.675  0.0126 -0.0559 -0.7181
 6573SOL    HW231353   1.598   3.666   8.661 -1.8787 -0.4637  0.0773
 6574SOL     OW31354   3.258   4.503   9.199  0.1133  0.3308  0.0793
 6574SOL    HW131355   3.218   4.427   9.241  0.5863 -0.6075 -1.1471
 6574SOL    HW231356   3.195   4.574   9.215 -0.3964  0.2862 -1.6543
 6575SOL     OW31357   2.244   1.223  11.027  0.4070 -0.0791 -0.0759
 6575SOL    HW131358   2.159   1.266  11.035  0.5776 -0.0993  1.8483
 6575SOL    HW231359   2.215   1.144  11.074  0.4496  0.2801  0.5476
 6576SOL     OW31360   1.235   3.289   2.813  0.5454 -0.6695  0.0519
 6576SOL    HW131361   1.162   3.276   2.873  1.2911 -0.6512  0.9677
 6576SOL    HW231362   1.248   3.207   2.766  1.2085 -1.4318  1.5628
 6577SOL     OW31363   1.418   1.604   4.202 -0.0558 -0.3133 -0.4726
 6577SOL    HW131364   1.477   1.529   4.205  2.1870  1.4967  0.0518
 6577SOL    HW231365   1.475   1.680   4.196  0.3806 -0.4897  1.8059
 6578SOL     OW31366   2.644   3.360   5.133 -0.3681 -0.3794 -0.5876
 6578SOL    HW131367   2.556   3.379   5.165 -0.2123 -1.1839  0.3295
 6578SOL    HW231368   2.633   3.359   5.038  1.3679 -0.9844 -0.7935
 6579SOL     OW31369   0.730   0.932   4.689  0.0586  0.0841 -0.4536
 6579SOL    HW131370   0.649   0.943   4.639  0.7914 -0.6769 -1.8250
 6579SOL    HW231371   0.785   0.880   4.630  0.8710  1.2861 -0.7855
 6580SOL     OW31372   4.590   0.354  13.404 -0.6897  0.9422 -0.2573
 6580SOL    HW131373   4.656   0.334  13.470  1.0998  1.9809 -1.7537
 6580SOL    HW231374   4.634   0.411  13.341  0.1921  1.8801  1.1867
 6581SOL     OW31375   0.656   3.520   6.627 -0.6882  0.3240 -0.5669
 6581SOL    HW131376   0.701   3.559   6.553  0.2903 -0.1063 -0.1980
 6581SOL    HW231377   0.588   3.583   6.651 -1.3997 -0.6350 -0.0202
 6582SOL     OW31378   2.559   4.542   0.803 -0.1735  0.2648  0.2623
 6582SOL    HW131379   2.614   4.535   0.880 -1.1566 -0.7214  0.8683
 6582SOL    HW231380   2.616   4.595   0.747 -0.8403 -0.9610 -1.5812
 6583SOL     OW31381   3.353   1.726   7.592  0.1127  0.0071  0.1196
 6583SOL    HW131382   3.426   1.788   7.593 -1.4820  1.8514  0.6720
 6583SOL    HW231383   3.357   1.693   7.682 -0.5089 -1.1401 -0.2669
 6584SOL     OW31384   4.311   0.001  17.431 -0.3610 -0.3076  0.2889
 6584SOL    HW131385   4.288   0.093  17.447  0.8442  0.4415 -2.2974
 6584SOL    HW231386   4.289   0.007  17.338  1.2398 -1.1298 -0.1449
 6585SOL     OW31387   0.163   2.896   4.187 -0.3852 -0.0203 -0.5023
 6585SOL    HW131388   0.140   2.904   4.279  2.7249 -0.4249  0.3116
 6585SOL    HW231389   0.168   2.984   4.149  2.0472  0.2768  0.4934
 6586SOL     OW31390   3.669   1.805  16.833  0.2761 -0.2588 -0.0779
 6586SOL    HW131391   3.629   1.851  16.759  1.8059  0.4506 -0.4636
 6586SOL    HW231392   3.636   1.716  16.825  3.6694 -1.4351 -1.1203
 6587SOL     OW31393   3.400   4.196   6.113  0.2818  0.5724 -0.2242
 6587SOL    HW131394   3.333   4.133   6.086 -0.5346  1.5916 -0.5828
 6587SOL    HW231395   3.473   4.141   6.142 -1.5710 -1.9975 -0.4097
 6588SOL     OW31396   0.994   1.900   3.998  0.7564 -0.1520 -0.1683
 6588SOL    HW131397   0.926   1.872   4.059  0.7012  0.5451  0.0835
 6588SOL    HW231398   0.944   1.898   3.916  1.8998  0.1690 -0.8677
 6589SOL     OW31399   1.516   4.314   5.136 -0.0106 -0.1056 -0.0870
 6589SOL    HW131400   1.601   4.333   5.176  0.0132 -1.2909  0.4381
 6589SOL    HW231401   1.477   4.401   5.135  0.8147  0.2432 -1.4372
 6590SOL     OW31402   4.504   1.810   7.965 -0.0222 -0.3617 -0.8398
 6590SOL    HW131403   4.577   1.782   8.021 -0.6583  1.4895  0.9338
 6590SOL    HW231404   4.538   1.898   7.951 -0.3529  0.0406  0.8937
 6591SOL     OW31405   4.708   0.483  11.894 -0.4923 -0.7049  0.0896
 6591SOL    HW131406   4.661   0.567  11.896 -0.8328 -0.8505 -1.7496
 6591SOL    HW231407   0.003   0.496  11.981  1.5037 -0.2808 -0.8127
 6592SOL     OW31408   2.096   0.469   6.975 -0.0489  0.3212 -0.3858
 6592SOL    HW131409   2.137   0.519   7.046  0.1883 -0.2676 -0.1127
 6592SOL    HW231410   2.148   0.497   6.900 -1.4270 -0.4495 -1.6291
 6593SOL     OW31411   0.886   3.684   6.935  0.1700 -0.0474  0.3174
 6593SOL    HW131412   0.963   3.710   6.985 -0.1458  1.7432 -0.1261
 6593SOL    HW231413   0.926   3.681   6.848 -0.4506  0.3492  0.0165
 6594SOL     OW31414   0.537   0.307   4.163  0.2668 -0.3332  0.2991
 6594SOL    HW131415   0.613   0.248   4.163 -0.6182 -1.4938 -0.9117
 6594SOL    HW231416   0.529   0.326   4.256 -2.9837  0.5789 -0.1422
 6595SOL     OW31417   3.404   3.367   5.204 -0.1688  0.0372 -0.7434
 6595SOL    HW131418   3.381   3.456   5.233 -2.9171 -0.5518 -1.1038
 6595SOL    HW231419   3.337   3.321   5.254  0.8857 -1.3548 -0.6103
 6596SOL     OW31420   2.562   3.176   1.420  0.4286 -0.3026 -0.1405
 6596SOL    HW131421   2.512   3.128   1.354 -0.9788  1.5639 -0.4421
 6596SOL    HW231422   2.591   3.244   1.360 -1.0538  1.6970  1.3974
 6597SOL     OW31423   2.444   3.701  14.499 -0.3523 -0.8438 -0.4159
 6597SOL    HW131424   2.350   3.685  14.492 -0.6847  0.3200  1.5076
 6597SOL    HW231425   2.440   3.777  14.557 -1.2965 -1.2831  0.1003
 6598SOL     OW31426   4.539   2.098   5.481  0.0832  0.7009 -0.1270
 6598SOL    HW131427   4.480   2.024   5.500  1.8450 -0.6283  0.1586
 6598SOL    HW231428   4.583   2.115   5.564 -3.3247  3.8021  1.0517
 6599SOL     OW31429   3.654   1.101   3.917  0.0284 -0.4075  0.1609
 6599SOL    HW131430   3.582   1.157   3.889 -0.8022 -2.6013 -2.1254
 6599SOL    HW231431   3.637   1.026   3.859 -1.5081 -1.3359  1.8131
 6600SOL     OW31432   4.478   1.327   4.158 -0.3178 -0.3633  0.5189
 6600SOL    HW131433   4.542   1.327   4.087  0.6579 -0.0537  1.4000
 6600SOL    HW231434   4.535   1.305   4.232 -0.1365  1.1924  0.8370
 6601SOL     OW31435   0.741   1.488   6.954  0.0479 -0.1167  0.6434
 6601SOL    HW131436   0.812   1.480   6.891 -0.2895 -0.3383  0.2906
 6601SOL    HW231437   0.667   1.454   6.904  1.1722 -1.4767 -0.0964
 6602SOL     OW31438   0.439   4.272   4.485 -0.1979 -0.1839 -0.3341
 6602SOL    HW131439   0.440   4.263   4.389 -2.4824  1.5377 -0.5366
 6602SOL    HW231440   0.354   4.312   4.504 -0.1613 -0.7673  1.0140
 6603SOL     OW31441   4.556   0.236  11.937 -0.8730  0.2799  0.0549
 6603SOL    HW131442   4.631   0.188  11.971 -1.3677 -0.3354  0.2831
 6603SOL    HW231443   4.597   0.313  11.899 -0.6092  0.0761 -0.0772
 6604SOL     OW31444   3.412   1.194   6.334  0.5032  0.0681 -0.2217
 6604SOL    HW131445   3.399   1.288   6.347 -0.0814 -0.3837  2.4303
 6604SOL    HW231446   3.472   1.177   6.407  0.4921  2.3304  0.3070
 6605SOL     OW31447   4.256   1.132   2.832 -0.2776 -0.8885  0.0963
 6605SOL    HW131448   4.278   1.039   2.843  1.1904 -0.6670 -1.0153
 6605SOL    HW231449   4.279   1.154   2.923  1.1515 -2.0931  0.0303
 6606SOL     OW31450   3.843   4.139  13.502 -0.4017  0.3521  0.0830
 6606SOL    HW131451   3.913   4.112  13.562 -0.9459 -0.9141  0.1466
 6606SOL    HW231452   3.801   4.197  13.565  0.3659  1.2996 -0.2755
 6607SOL     OW31453   0.562   2.912  13.273 -0.3379 -0.3139  0.6974
 6607SOL    HW131454   0.475   2.907  13.310  0.0565 -1.2743  1.5112
 6607SOL    HW231455   0.611   2.844  13.319 -0.4825 -1.7035 -1.1735
 6608SOL     OW31456   0.283   4.520   1.329  0.3294  0.5262 -0.4854
 6608SOL    HW131457   0.235   4.599   1.352  0.5343  0.4296  0.2578
 6608SOL    HW231458   0.307   4.538   1.238 -0.2946  2.9451 -0.1534
 6609SOL     OW31459   0.811   4.469   2.958  0.5868 -0.2787 -0.4133
 6609SOL    HW131460   0.771   4.541   3.007 -1.2111 -1.7566  0.3114
 6609SOL    HW231461   0.860   4.518   2.892  0.1911  0.2730 -0.2949
 6610SOL     OW31462   2.668   1.446   9.118  0.6429  0.1810  0.0798
 6610SOL    HW131463   2.666   1.442   9.214 -3.6751 -2.5243 -0.1135
 6610SOL    HW231464   2.727   1.372   9.104  0.5989  0.2860 -0.6428
 6611SOL     OW31465   1.988   1.855  15.863  0.6386 -0.4654  0.5652
 6611SOL    HW131466   1.915   1.913  15.839  0.3237 -0.3970  1.7066
 6611SOL    HW231467   1.950   1.815  15.941 -0.8938  0.5638  0.3666
 6612SOL     OW31468   3.291   2.180   4.340 -0.2460  0.1898  0.1009
 6612SOL    HW131469   3.308   2.273   4.329  3.5682 -0.4805  0.3408
 6612SOL    HW231470   3.262   2.144   4.256  0.1090 -2.6240  1.1634
 6613SOL     OW31471   3.881   0.297   5.842 -0.7395  0.0937  0.4493
 6613SOL    HW131472   3.904   0.382   5.879  2.9066 -0.4093 -0.6998
 6613SOL    HW231473   3.868   0.314   5.749  0.4914 -0.4089  0.1883
 6614SOL     OW31474   4.694   2.833   2.149 -0.2398 -0.2146  0.2562
 6614SOL    HW131475   4.611   2.852   2.105  0.2859  0.3229 -0.5079
 6614SOL    HW231476   4.663   2.784   2.225  2.1092 -1.2635  0.5175
 6615SOL     OW31477   0.001   1.487   5.343  0.3538  0.4552  0.1122
 6615SOL    HW131478   4.686   1.521   5.412  1.6617  0.0087  1.3889
 6615SOL    HW231479   0.069   1.443   5.394 -0.0401 -0.0551  0.2038
 6616SOL     OW31480   0.821   0.457  12.335  0.2631 -0.5324  0.1744
 6616SOL    HW131481   0.787   0.446  12.424 -0.4992  2.3408  0.2350
 6616SOL    HW231482   0.778   0.540  12.315 -0.0699 -0.7271  0.0828
 6617SOL     OW31483   1.124   3.012   4.659 -0.3687  0.3240  0.5995
 6617SOL    HW131484   1.044   2.960   4.650  0.6349 -1.1493  0.1092
 6617SOL    HW231485   1.170   2.976   4.735  1.2081 -4.0491 -2.3860
 6618SOL     OW31486   2.452   2.015  10.665 -0.3601  0.0706  0.2424
 6618SOL    HW131487   2.406   2.029  10.748  0.6282 -0.4308  0.8803
 6618SOL    HW231488   2.385   2.052  10.609  3.0938  3.8963 -1.3999
 6619SOL     OW31489   1.241   1.910   0.062 -0.1462  0.2633 -0.2173
 6619SOL    HW131490   1.229   1.896   0.156  3.5376  0.5316  0.2956
 6619SOL    HW231491   1.180   1.982   0.044  1.7974  2.2070  0.8171
 6620SOL     OW31492   3.866   4.651   1.176 -0.0457  0.7885 -0.4302
 6620SOL    HW131493   3.788   4.599   1.193  0.0424  0.4788 -0.9815
 6620SOL    HW231494   3.871   4.716   1.246 -1.0770 -0.7366  1.0594
 6621SOL     OW31495   1.716   1.536   2.832  0.8208 -0.1893 -0.0767
 6621SOL    HW131496   1.759   1.565   2.752  4.6877 -0.2215  1.9807
 6621SOL    HW231497   1.646   1.601   2.831  0.8757 -0.1265  0.0829
 6622SOL     OW31498   1.844   1.669   3.649 -0.1816 -0.3652 -0.2439
 6622SOL    HW131499   1.934   1.662   3.682 -0.0847  1.9033 -0.0418
 6622SOL    HW231500   1.853   1.717   3.566 -1.9925  1.5632  0.6739
 6623SOL     OW31501   2.974   0.789   1.407 -0.3412  0.2643  0.0501
 6623SOL    HW131502   3.037   0.827   1.345 -0.0717  1.6889  1.2061
 6623SOL    HW231503   3.004   0.812   1.495 -2.0415  1.0099  0.4343
 6624SOL     OW31504   3.641   1.617   7.650  0.5148 -0.1211 -0.0293
 6624SOL    HW131505   3.725   1.662   7.647  0.4444  0.0154  0.0648
 6624SOL    HW231506   3.644   1.570   7.566 -2.0564  0.3043 -0.3813
 6625SOL     OW31507   1.398   3.375   3.016 -0.3568 -0.0174 -0.5060
 6625SOL    HW131508   1.343   3.369   2.938 -0.5106  0.2562 -0.4194
 6625SOL    HW231509   1.483   3.353   2.976  0.1163 -0.3845  0.7184
 6626SOL     OW31510   0.795   2.416  14.906  0.2001  0.0080  0.0375
 6626SOL    HW131511   0.760   2.390  14.991  0.4009 -1.9150 -0.4600
 6626SOL    HW231512   0.755   2.503  14.908 -0.7492 -0.4082 -0.5814
 6627SOL     OW31513   2.373   4.218  12.686 -0.1237  0.1500 -0.0685
 6627SOL    HW131514   2.429   4.290  12.714 -0.0104  0.5250 -1.2558
 6627SOL    HW231515   2.420   4.142  12.719 -2.2866 -1.3238 -0.3886
 6628SOL     OW31516   0.532   3.821  10.120  0.2864  0.4180  0.2887
 6628SOL    HW131517   0.598   3.808  10.052  0.9589 -0.3260  1.0731
 6628SOL    HW231518   0.471   3.747  10.107 -0.6113  1.3245 -0.6374
 6629SOL     OW31519   1.647   2.465   5.615  0.7604  1.2046 -0.1550
 6629SOL    HW131520   1.663   2.537   5.554  1.6594  0.3936 -0.8758
 6629SOL    HW231521   1.635   2.394   5.552  2.2218 -2.2243  3.4134
 6630SOL     OW31522   3.911   0.537   1.386 -0.1794  0.0412 -0.5055
 6630SOL    HW131523   3.953   0.621   1.369 -2.5644  1.5250  1.0234
 6630SOL    HW231524   3.881   0.550   1.476 -0.5754  1.3625 -0.8380
 6631SOL     OW31525   3.938   1.970   4.572 -0.4527  0.3530 -0.3960
 6631SOL    HW131526   3.968   1.888   4.610  0.0626  1.6952  2.1263
 6631SOL    HW231527   4.024   1.995   4.537 -0.1014  0.9594  0.8933
 6632SOL     OW31528   3.416   0.903   9.469 -0.4707 -0.1438 -0.2879
 6632SOL    HW131529   3.503   0.910   9.428 -2.1455 -0.4885 -3.9165
 6632SOL    HW231530   3.366   0.920   9.390 -0.4799 -3.3397 -0.9814
 6633SOL     OW31531   1.066   3.713   3.916  0.3791 -0.5201  0.3227
 6633SOL    HW131532   1.038   3.667   3.995 -0.6823  0.3211  0.4325
 6633SOL    HW231533   1.021   3.663   3.848  0.4149 -1.4185  0.9685
 6634SOL     OW31534   3.878   0.175   7.839  0.3089  0.2288 -0.0908
 6634SOL    HW131535   3.805   0.234   7.819 -0.4846 -1.3023 -1.7520
 6634SOL    HW231536   3.833   0.097   7.807 -1.2454  0.9380  0.3675
 6635SOL     OW31537   2.773   3.916   8.034  0.0133 -0.3092 -0.6105
 6635SOL    HW131538   2.864   3.901   8.059 -0.2755 -0.9166  0.0697
 6635SOL    HW231539   2.758   3.835   7.986  1.5533 -0.6118 -0.5640
 6636SOL     OW31540   2.493   4.242   2.377  0.7021  0.1640  0.0236
 6636SOL    HW131541   2.481   4.182   2.303 -2.0601  1.0360 -0.2417
 6636SOL    HW231542   2.469   4.320   2.326 -0.6339  0.5597  1.2751
 6637SOL     OW31543   1.764   1.698   0.973 -0.2609 -0.4311 -0.5609
 6637SOL    HW131544   1.764   1.695   0.877 -1.9869  0.4305 -0.5986
 6637SOL    HW231545   1.770   1.607   0.999  0.7591 -0.6641 -1.6140
 6638SOL     OW31546   3.700   4.178   3.426  0.4776  0.1582 -0.8069
 6638SOL    HW131547   3.696   4.082   3.427  2.7968  0.0750  0.2425
 6638SOL    HW231548   3.619   4.196   3.474  0.5971 -1.9741  0.1939
 6639SOL     OW31549   3.221   4.699   7.360  0.1163  0.3395 -0.0375
 6639SOL    HW131550   3.208   0.016   7.286  1.6766 -1.5756 -1.8082
 6639SOL    HW231551   3.250   0.029   7.417  1.2426 -1.5173  1.7285
 6640SOL     OW31552   0.266   1.805   9.467 -0.5245 -0.2763  0.3040
 6640SOL    HW131553   0.218   1.847   9.538  0.8713  2.0384 -0.1215
 6640SOL    HW231554   0.233   1.861   9.396 -0.6493 -1.0080 -0.2086
 6641SOL     OW31555   4.141   2.555   7.534  0.3963  0.0985 -0.3135
 6641SOL    HW131556   4.060   2.575   7.488 -0.0667 -2.9630 -0.7984
 6641SOL    HW231557   4.212   2.589   7.480 -0.0874  0.7925 -0.5060
 6642SOL     OW31558   3.190   3.038   5.568  0.2489  0.3615 -0.1370
 6642SOL    HW131559   3.254   2.969   5.586  0.0962  0.4313  0.7001
 6642SOL    HW231560   3.224   3.115   5.614  0.0173  0.5434 -0.2695
 6643SOL     OW31561   3.867   4.672  17.240 -0.0333  0.2196  0.3968
 6643SOL    HW131562   3.949   4.629  17.217 -0.6376 -0.1806 -0.9662
 6643SOL    HW231563   3.906   0.007  17.284 -0.1923  0.9195 -0.6923
 6644SOL     OW31564   3.954   2.837   2.860 -0.2550  0.6750  0.9395
 6644SOL    HW131565   3.941   2.807   2.950 -0.3307 -0.3224  0.6030
 6644SOL    HW231566   3.870   2.820   2.819 -0.4751 -1.3862  2.2525
 6645SOL     OW31567   1.334   1.069   7.445  0.1858 -0.0173 -0.0989
 6645SOL    HW131568   1.381   0.989   7.423  2.8712  1.2140  1.0781
 6645SOL    HW231569   1.254   1.044   7.398  0.2166 -0.2571 -0.0205
 6646SOL     OW31570   1.415   1.551   6.245  0.1766 -0.0953 -0.1643
 6646SOL    HW131571   1.378   1.463   6.248 -0.7555  0.3714  1.6068
 6646SOL    HW231572   1.404   1.579   6.336  1.9460  0.0494  0.0158
 6647SOL     OW31573   1.148   0.168   2.895 -0.2494 -0.1782  0.0610
 6647SOL    HW131574   1.186   0.208   2.817 -1.9286 -1.1286 -1.2511
 6647SOL    HW231575   1.229   0.165   2.946 -2.0749  0.3445  3.0233
 6648SOL     OW31576   4.215   2.846  12.817  0.2111 -0.1939  0.0679
 6648SOL    HW131577   4.138   2.807  12.857  0.1427  0.2697  0.3979
 6648SOL    HW231578   4.191   2.938  12.829  1.5838  0.2324 -0.4337
 6649SOL     OW31579   2.665   4.221   4.745 -0.1154 -0.1313 -0.0778
 6649SOL    HW131580   2.648   4.222   4.651 -2.9843 -1.0196  0.4238
 6649SOL    HW231581   2.750   4.265   4.755 -0.9787  1.2904  0.8912
 6650SOL     OW31582   0.678   4.130   3.543 -0.1053 -0.3038 -0.1544
 6650SOL    HW131583   0.729   4.180   3.606 -1.5299  0.6824  0.2247
 6650SOL    HW231584   0.679   4.180   3.462  0.3640 -0.3096 -0.1540
 6651SOL     OW31585   3.857   3.973   2.787 -0.1393  0.0785  0.1348
 6651SOL    HW131586   3.912   3.898   2.810 -1.4064 -0.4959  1.2940
 6651SOL    HW231587   3.827   4.000   2.873  2.7922  3.4880  0.0731
 6652SOL     OW31588   2.116   4.584   3.439  0.0124 -0.2431  0.1015
 6652SOL    HW131589   2.169   4.560   3.515  0.8026 -0.0301 -0.3772
 6652SOL    HW231590   2.176   4.643   3.393  2.2161 -1.4944  1.3533
 6653SOL     OW31591   1.967   4.364   9.259  0.0672  0.1183 -0.2127
 6653SOL    HW131592   1.950   4.443   9.208  0.6236 -0.3608 -1.1445
 6653SOL    HW231593   2.048   4.396   9.299 -0.7389  0.2995  1.2979
 6654SOL     OW31594   3.875   1.329   0.806  0.0033 -0.9191  0.0154
 6654SOL    HW131595   3.878   1.283   0.890  0.3451 -0.1839  0.4042
 6654SOL    HW231596   3.870   1.419   0.838  1.6279 -1.0267  0.5844
 6655SOL     OW31597   2.941   4.300   8.285  0.1600  0.1664 -0.1408
 6655SOL    HW131598   2.953   4.393   8.263 -0.5551  1.1054  3.4454
 6655SOL    HW231599   2.929   4.261   8.198 -0.9459  0.6807 -0.2236
 6656SOL     OW31600   0.511   1.413   4.415  0.0360  0.0505  0.3536
 6656SOL    HW131601   0.572   1.482   4.440 -1.0597  1.5787 -1.2020
 6656SOL    HW231602   0.570   1.341   4.395  1.2977  1.5049 -1.1281
 6657SOL     OW31603   3.177   4.365  12.009  0.0909  0.1546 -0.1023
 6657SOL    HW131604   3.130   4.295  12.054 -1.1726  0.6024 -0.7073
 6657SOL    HW231605   3.133   4.442  12.047 -0.4207  0.0953 -0.5710
 6658SOL     OW31606   2.530   0.285  12.586  0.0833  0.2787  0.5342
 6658SOL    HW131607   2.540   0.370  12.544  2.0434  0.2805  1.0073
 6658SOL    HW231608   2.519   0.306  12.679 -0.2160  0.1472  0.5274
 6659SOL     OW31609   0.453   0.221   2.884 -0.1130  0.0189 -0.8655
 6659SOL    HW131610   0.436   0.191   2.974  2.7346  0.0600 -0.3238
 6659SOL    HW231611   0.532   0.172   2.862  0.9752 -0.2216  3.4846
 6660SOL     OW31612   0.142   3.902   4.384 -0.4239 -0.4805 -0.0178
 6660SOL    HW131613   0.223   3.934   4.423  0.1845  1.4891 -2.8711
 6660SOL    HW231614   0.074   3.964   4.409 -0.5300 -1.3254  1.7901
 6661SOL     OW31615   3.427   3.319  13.182  0.0377  0.5399  0.8033
 6661SOL    HW131616   3.485   3.296  13.254 -1.1649 -1.2326  1.2188
 6661SOL    HW231617   3.474   3.267  13.116 -0.7109  0.2869  0.4632
 6662SOL     OW31618   3.955   3.588   2.196 -0.3779  0.0707  0.0409
 6662SOL    HW131619   3.859   3.593   2.197 -0.3249  1.4228 -2.5663
 6662SOL    HW231620   3.968   3.510   2.142 -0.4715 -0.1790  0.3762
 6663SOL     OW31621   3.432   0.529   6.782  0.1003  0.3024 -0.1050
 6663SOL    HW131622   3.500   0.491   6.838 -0.5283  0.1290  0.5366
 6663SOL    HW231623   3.377   0.452   6.774  1.7087 -0.7536 -0.9579
 6664SOL     OW31624   1.566   1.688  11.002  0.2987 -0.1326  0.6680
 6664SOL    HW131625   1.626   1.632  10.952  2.0120  1.5007  0.9134
 6664SOL    HW231626   1.482   1.642  11.000  0.6826 -0.8015 -0.3621
 6665SOL     OW31627   2.669   2.726   9.136  0.1031  0.6125  0.1266
 6665SOL    HW131628   2.760   2.743   9.161  0.8972  0.1098 -2.4290
 6665SOL    HW231629   2.672   2.743   9.042  1.6910  2.3266  0.4869
 6666SOL     OW31630   2.108   0.121   7.877 -0.3638 -0.2080 -0.3824
 6666SOL    HW131631   2.052   0.067   7.933  1.4420 -0.5299  1.0771
 6666SOL    HW231632   2.139   0.053   7.817  2.3680 -0.1051  0.9701
 6667SOL     OW31633   0.990   4.687   2.874  0.0891 -0.5555 -0.0482
 6667SOL    HW131634   1.039   4.633   2.936  2.1199  0.9424 -0.3472
 6667SOL    HW231635   1.031   0.031   2.884 -1.9577  0.6179 -1.6463
 6668SOL     OW31636   2.320   0.343   7.220  0.1018  0.0434 -0.1321
 6668SOL    HW131637   2.292   0.252   7.223  1.2461 -0.3525 -1.4304
 6668SOL    HW231638   2.395   0.337   7.161  0.3555 -0.5375  0.2471
 6669SOL     OW31639   0.916   1.432   8.573 -0.9870 -0.4978 -0.1594
 6669SOL    HW131640   0.982   1.501   8.568 -3.5538  2.1511  1.5290
 6669SOL    HW231641   0.844   1.485   8.609  0.2443  0.8238  0.3522
 6670SOL     OW31642   0.205   1.982   6.542 -0.0626  0.2125 -0.8671
 6670SOL    HW131643   0.169   1.973   6.631  1.9093  0.8196 -0.0021
 6670SOL    HW231644   0.207   1.893   6.506 -3.2915  0.1670 -0.9144
 6671SOL     OW31645   0.889   0.127   4.621 -0.5694 -0.3170 -0.2265
 6671SOL    HW131646   0.984   0.128   4.638 -0.8352  0.0560  1.2382
 6671SOL    HW231647   0.884   0.140   4.526 -1.1418 -0.1805 -0.1770
 6672SOL     OW31648   1.589   3.989   9.722  0.1190 -0.4822  0.3461
 6672SOL    HW131649   1.673   4.015   9.683 -1.2240  1.3471 -1.3043
 6672SOL    HW231650   1.570   3.924   9.655 -0.3338  1.2163 -1.1716
 6673SOL     OW31651   3.469   4.191   3.573  0.3085  0.5029 -0.3971
 6673SOL    HW131652   3.476   4.255   3.643  0.4257  0.3741 -0.2908
 6673SOL    HW231653   3.394   4.137   3.596  1.9854 -0.9815  1.6304
 6674SOL     OW31654   4.706   4.233   6.269  0.1070  0.0902 -0.0076
 6674SOL    HW131655   4.657   4.315   6.261 -0.6748 -0.2720  1.1028
 6674SOL    HW231656   0.031   4.236   6.200  0.5528 -1.7193  0.3392
 6675SOL     OW31657   3.546   2.696   2.755  0.0031  0.5434  0.4733
 6675SOL    HW131658   3.637   2.688   2.726 -1.0677  1.1674 -2.9666
 6675SOL    HW231659   3.498   2.747   2.691 -0.2835 -0.8111 -0.4041
 6676SOL     OW31660   1.238   0.381   8.046 -0.2795  0.5639 -0.0668
 6676SOL    HW131661   1.213   0.467   8.081  2.2932  1.2502  0.0824
 6676SOL    HW231662   1.217   0.389   7.953  1.4816 -1.1181 -0.5983
 6677SOL     OW31663   3.634   2.757  13.447  0.3354  0.2930  0.0294
 6677SOL    HW131664   3.631   2.789  13.537 -1.4718  0.4615 -0.0971
 6677SOL    HW231665   3.612   2.839  13.402  0.6439 -0.0023 -0.6616
 6678SOL     OW31666   0.092   2.781  13.820 -0.2725 -0.1783  0.3525
 6678SOL    HW131667   0.060   2.801  13.732 -0.5525 -1.1722  0.2242
 6678SOL    HW231668   0.029   2.716  13.852 -2.2096  0.7743 -1.5346
 6679SOL     OW31669   1.903   1.815   4.143 -0.0942  0.1952  0.3516
 6679SOL    HW131670   1.978   1.831   4.086 -1.1001  2.6535 -0.2645
 6679SOL    HW231671   1.884   1.903   4.174 -1.0359  0.4012 -0.8011
 6680SOL     OW31672   4.002   2.666   2.523 -0.4059 -0.0666  0.4759
 6680SOL    HW131673   3.990   2.583   2.476 -0.6790  0.8072 -1.0095
 6680SOL    HW231674   3.989   2.737   2.460  2.4895 -0.0236 -0.0478
 6681SOL     OW31675   0.174   2.119   6.245  0.0147 -1.0502  0.5066
 6681SOL    HW131676   0.207   2.205   6.220  1.7929 -2.0640 -0.5770
 6681SOL    HW231677   0.170   2.129   6.340 -0.1605  0.7357  0.3015
 6682SOL     OW31678   0.026   1.792  13.310 -0.4933  0.0193  0.0084
 6682SOL    HW131679   4.677   1.824  13.316 -0.4316  0.0433  0.8583
 6682SOL    HW231680   0.054   1.837  13.230 -0.1746 -1.6465 -0.8113
 6683SOL     OW31681   0.439   3.291   6.474 -0.2293 -0.5719  0.4982
 6683SOL    HW131682   0.456   3.367   6.418 -1.1243 -0.5760  0.2139
 6683SOL    HW231683   0.455   3.304   6.568  0.0626  1.2064  0.2038
 6684SOL     OW31684   2.683   1.146   4.973 -0.4577  0.2085  0.0941
 6684SOL    HW131685   2.667   1.180   4.885  0.9199  0.3107 -0.1068
 6684SOL    HW231686   2.599   1.160   5.017 -0.7154 -0.4614 -0.1736
 6685SOL     OW31687   4.721   0.429  11.594 -0.2353 -0.4230 -0.1716
 6685SOL    HW131688   4.715   0.520  11.565  3.1343  0.0772  0.6516
 6685SOL    HW231689   4.723   0.441  11.689 -4.3261  0.4462 -0.2371
 6686SOL     OW31690   3.532   4.440   5.426 -0.2543 -0.4648 -0.1783
 6686SOL    HW131691   3.509   4.389   5.348  0.8982 -0.9951 -0.1589
 6686SOL    HW231692   3.595   4.500   5.387 -2.8894  0.0727 -3.6532
 6687SOL     OW31693   0.957   2.372  17.669 -0.2314 -0.4091 -0.0361
 6687SOL    HW131694   0.967   2.380   0.000 -1.6314  1.9244 -0.1012
 6687SOL    HW231695   1.038   2.408  17.632  0.8829 -1.4075  1.4312
 6688SOL     OW31696   1.962   1.804   6.240  0.1033  0.5072  0.3323
 6688SOL    HW131697   2.028   1.757   6.291  0.2111 -0.1949 -0.4496
 6688SOL    HW231698   1.961   1.881   6.296  1.4226  2.6919 -2.6775
 6689SOL     OW31699   0.305   3.263   7.026  0.0141  0.1056  0.4584
 6689SOL    HW131700   0.260   3.201   6.969  0.5554 -1.0807  1.3172
 6689SOL    HW231701   0.380   3.273   6.968  0.3469 -0.9705  0.7188
 6690SOL     OW31702   1.295   4.196   0.419 -0.5166  0.1690 -0.4797
 6690SOL    HW131703   1.373   4.236   0.456 -2.5203  0.2307  3.6840
 6690SOL    HW231704   1.228   4.247   0.466 -2.5067 -0.8317 -2.1834
 6691SOL     OW31705   1.887   2.503  14.391  0.1378  0.8757  0.0508
 6691SOL    HW131706   1.819   2.490  14.457  0.6107  2.2509  0.7960
 6691SOL    HW231707   1.933   2.574  14.434  0.1996  0.8852 -0.0302
 6692SOL     OW31708   3.956   2.305   5.219 -0.7482 -0.5561 -0.2072
 6692SOL    HW131709   3.987   2.394   5.199 -2.6331  0.4994  1.5791
 6692SOL    HW231710   3.971   2.292   5.312  0.5215 -1.3621 -0.5219
 6693SOL     OW31711   2.809   4.575   3.574  0.1528 -0.1819  0.2781
 6693SOL    HW131712   2.816   4.566   3.479  1.2566  1.1367  0.2454
 6693SOL    HW231713   2.893   4.536   3.596 -0.2575 -2.6445 -2.4879
 6694SOL     OW31714   4.680   4.616  13.626 -0.5742 -0.1782 -0.7899
 6694SOL    HW131715   4.683   4.637  13.532 -0.0992 -1.2816 -1.0169
 6694SOL    HW231716   4.710   4.699  13.664  1.6521  0.2918 -3.5549
 6695SOL     OW31717   3.003   1.096   5.114  0.3462  0.1552 -0.0119
 6695SOL    HW131718   2.959   1.135   5.038  2.5333  2.6289 -0.0070
 6695SOL    HW231719   3.095   1.122   5.111  0.1912  0.6597 -0.5622
 6696SOL     OW31720   3.247   3.611   4.404  0.0530 -0.1608  0.1736
 6696SOL    HW131721   3.333   3.638   4.434 -0.2737  0.1965  0.8039
 6696SOL    HW231722   3.220   3.563   4.482  0.7829  1.0009  1.1369
 6697SOL     OW31723   1.921   0.194   8.467 -0.3204 -0.0543 -0.3845
 6697SOL    HW131724   1.980   0.130   8.425  0.0808 -0.7688  1.2870
 6697SOL    HW231725   1.984   0.225   8.531 -2.1671  1.2758  0.7617
 6698SOL     OW31726   3.237   0.818   2.658 -0.1504  0.1570 -0.9162
 6698SOL    HW131727   3.222   0.822   2.753 -0.6559 -0.6694 -0.9649
 6698SOL    HW231728   3.305   0.752   2.655 -0.0250  0.2629 -0.3406
 6699SOL     OW31729   0.739   1.178   8.543  0.4186  0.0224  0.2992
 6699SOL    HW131730   0.746   1.189   8.448 -1.1537  0.2601  0.2042
 6699SOL    HW231731   0.780   1.255   8.581 -1.5601 -0.1290  2.7739
 6700SOL     OW31732   4.604   2.251   9.338 -0.0546  0.3125 -0.2870
 6700SOL    HW131733   4.627   2.165   9.373 -2.0285 -0.0749  0.0894
 6700SOL    HW231734   4.646   2.236   9.253  0.3637  0.5062 -0.1125
 6701SOL     OW31735   3.077   0.917   8.732  0.0915  0.0377  0.5816
 6701SOL    HW131736   3.073   0.945   8.641  0.3016  0.7979  0.8118
 6701SOL    HW231737   3.169   0.909   8.756  0.2304  1.7163  0.5720
 6702SOL     OW31738   1.403   3.862   2.153 -0.2301  0.0387  0.2231
 6702SOL    HW131739   1.400   3.795   2.220 -1.4782  1.9348  2.0663
 6702SOL    HW231740   1.497   3.879   2.140  0.6640 -3.1359  2.7045
 6703SOL     OW31741   4.583   1.229   4.740 -1.1067 -0.0683 -0.7947
 6703SOL    HW131742   4.578   1.270   4.827 -1.8058 -2.5240  0.3162
 6703SOL    HW231743   4.495   1.192   4.730 -1.5392  1.6315 -3.2784
 6704SOL     OW31744   4.453   4.487  17.351 -0.0357 -0.1731  0.4600
 6704SOL    HW131745   4.397   4.563  17.362  2.2903  1.5555  0.3950
 6704SOL    HW231746   4.479   4.466  17.440  3.5498 -1.8587 -0.9867
 6705SOL     OW31747   2.270   2.228   3.895  0.1239 -0.1699  0.2347
 6705SOL    HW131748   2.266   2.224   3.799 -0.8762  0.0066  0.2774
 6705SOL    HW231749   2.222   2.149   3.918 -2.6285  1.1401 -1.0759
 6706SOL     OW31750   2.731   0.904   5.500  0.4934 -0.0333 -0.7861
 6706SOL    HW131751   2.678   0.982   5.487 -0.2409 -1.2800 -5.1997
 6706SOL    HW231752   2.696   0.873   5.584  0.6706  1.9621  0.0239
 6707SOL     OW31753   4.176   4.643   7.057  0.5463 -0.3209  0.3479
 6707SOL    HW131754   4.174   4.548   7.069 -0.9354 -0.4847 -1.3033
 6707SOL    HW231755   4.251   4.673   7.109 -0.4392  0.5358  1.2833
 6708SOL     OW31756   1.966   2.047  16.878  0.2290 -0.8056 -0.6364
 6708SOL    HW131757   1.876   2.020  16.862  0.2018  0.1524 -2.0794
 6708SOL    HW231758   2.011   1.995  16.810 -0.8480 -1.2071 -1.0361
 6709SOL     OW31759   3.836   0.130   2.084  0.0559  0.5400 -0.0546
 6709SOL    HW131760   3.754   0.083   2.063  0.3776 -0.4030  0.7998
 6709SOL    HW231761   3.892   0.053   2.094  0.7389  0.9604 -0.6698
 6710SOL     OW31762   2.636   0.303  15.831  0.0003 -0.3430 -0.1367
 6710SOL    HW131763   2.654   0.234  15.768  1.6612 -0.0972  0.0792
 6710SOL    HW231764   2.722   0.321  15.868 -0.5204  0.0380  0.9011
 6711SOL     OW31765   4.188   4.437   4.060  0.3179 -0.6128  0.3139
 6711SOL    HW131766   4.208   4.528   4.037  0.1541  0.1436  3.2589
 6711SOL    HW231767   4.093   4.451   4.063  0.2071 -1.2728 -0.0638
 6712SOL     OW31768   3.586   0.362   3.039 -1.0384  0.0778 -0.2861
 6712SOL    HW131769   3.492   0.380   3.038 -1.5431 -2.4805  1.2256
 6712SOL    HW231770   3.600   0.338   2.948  2.6857 -0.6852  0.4927
 6713SOL     OW31771   3.451   4.300   0.085  0.3485 -0.9263 -0.2526
 6713SOL    HW131772   3.485   4.346   0.009  0.8393  1.1428  1.2204
 6713SOL    HW231773   3.361   4.286   0.056 -0.0993 -0.2874  0.8639
 6714SOL     OW31774   3.498   3.795   5.949 -0.1230 -0.0794  0.2045
 6714SOL    HW131775   3.554   3.859   5.993 -1.1579  0.8276  0.1937
 6714SOL    HW231776   3.469   3.742   6.024  1.3692  0.2646  1.0479
 6715SOL     OW31777   1.593   3.433  11.202 -0.4641 -0.2932  0.6415
 6715SOL    HW131778   1.641   3.435  11.120 -2.3791  1.5899 -0.4274
 6715SOL    HW231779   1.572   3.340  11.203 -0.8440 -0.2223 -0.8899
 6716SOL     OW31780   1.605   3.147   0.839  0.1602 -0.5180  0.1004
 6716SOL    HW131781   1.624   3.240   0.831 -1.0020 -0.3446 -0.7173
 6716SOL    HW231782   1.687   3.109   0.808 -1.1737 -3.1829 -0.2036
 6717SOL     OW31783   3.147   2.645  14.723 -0.3545 -0.6106 -1.1485
 6717SOL    HW131784   3.238   2.635  14.696  1.1364  1.0583  3.2011
 6717SOL    HW231785   3.127   2.738  14.723  0.3038 -0.4667 -0.3364
 6718SOL     OW31786   1.674   2.010   8.379 -0.0550 -0.3752  0.1934
 6718SOL    HW131787   1.641   2.059   8.305  0.2290  0.1589  0.4241
 6718SOL    HW231788   1.691   2.093   8.424  3.0699 -0.9277  0.0704
 6719SOL     OW31789   1.625   4.499   9.410 -0.0315  0.0418 -0.2765
 6719SOL    HW131790   1.549   4.467   9.458  0.4535  1.4979  1.4792
 6719SOL    HW231791   1.690   4.505   9.479 -2.0389  0.1728  1.5947
 6720SOL     OW31792   2.953   3.508   6.500  0.2299 -0.6901 -0.7636
 6720SOL    HW131793   2.961   3.602   6.520  1.7339 -1.4085  2.0691
 6720SOL    HW231794   3.026   3.472   6.552 -1.2183 -1.4701  0.7358
 6721SOL     OW31795   4.184   3.811  13.918  0.1230 -0.2606  0.2344
 6721SOL    HW131796   4.134   3.856  13.985 -1.3620 -0.7949 -0.5178
 6721SOL    HW231797   4.272   3.808  13.955 -0.0315 -1.9161  0.5042
 6722SOL     OW31798   2.876   3.514   5.272  0.4642  0.0749  1.0152
 6722SOL    HW131799   2.826   3.480   5.198  1.1972 -0.8845  0.9610
 6722SOL    HW231800   2.811   3.500   5.341  1.9949  1.0848  2.6592
 6723SOL     OW31801   1.708   2.256  16.617  0.0856 -0.1121  0.5917
 6723SOL    HW131802   1.664   2.231  16.536 -0.2058 -1.3447  1.1360
 6723SOL    HW231803   1.718   2.170  16.658 -0.5187 -1.0706 -1.2528
 6724SOL     OW31804   0.301   2.121  10.246 -0.2931  0.2000  0.1030
 6724SOL    HW131805   0.375   2.109  10.305  0.5553  0.6581 -0.8613
 6724SOL    HW231806   0.257   2.190  10.296 -1.9615 -0.7386 -0.0704
 6725SOL     OW31807   1.477   3.760  14.144 -0.4511 -0.2976 -0.1341
 6725SOL    HW131808   1.443   3.823  14.207  0.4966  0.2803 -0.1914
 6725SOL    HW231809   1.466   3.680  14.196 -0.0782 -0.6700 -0.6281
 6726SOL     OW31810   2.815   3.856   0.751 -0.2064  0.5745 -0.2040
 6726SOL    HW131811   2.800   3.879   0.843 -0.7916  1.8457 -0.6085
 6726SOL    HW231812   2.790   3.936   0.705 -1.5479  0.4190  0.2494
 6727SOL     OW31813   2.892   2.951   3.983  0.1226 -0.1831 -0.0267
 6727SOL    HW131814   2.975   2.911   4.007  0.0353 -0.2281  0.1951
 6727SOL    HW231815   2.892   3.033   4.033 -2.6062  2.9096 -5.1581
 6728SOL     OW31816   2.158   0.823   3.510  0.0509 -0.0551  0.3923
 6728SOL    HW131817   2.114   0.761   3.568 -0.9633 -0.8824 -1.2613
 6728SOL    HW231818   2.206   0.880   3.571  2.4206  1.4001 -2.8347
 6729SOL     OW31819   4.217   0.171  14.352 -0.4596 -0.0563  0.1698
 6729SOL    HW131820   4.131   0.181  14.312  0.6642 -1.1788 -2.4916
 6729SOL    HW231821   4.190   0.110  14.420  1.2183  0.3452  1.2340
 6730SOL     OW31822   3.396   0.967   7.165 -0.2145 -0.1091  0.0929
 6730SOL    HW131823   3.375   1.020   7.087  0.3096 -0.4219 -0.2572
 6730SOL    HW231824   3.322   0.906   7.165 -0.3172 -0.0083 -2.3356
 6731SOL     OW31825   2.793   0.368  14.799 -0.4265  0.5007 -0.3906
 6731SOL    HW131826   2.816   0.451  14.841 -0.5855 -0.0211  0.7299
 6731SOL    HW231827   2.783   0.396  14.708  3.1983 -0.2206 -1.0330
 6732SOL     OW31828   2.597   3.749   7.311  0.2012  0.3696  0.1010
 6732SOL    HW131829   2.665   3.749   7.244  0.2610 -0.0071  0.1611
 6732SOL    HW231830   2.585   3.655   7.324  1.3484  0.1716 -0.2917
 6733SOL     OW31831   0.949   3.476   3.272  0.1152 -0.2256  0.1954
 6733SOL    HW131832   0.968   3.399   3.325 -0.3924  0.5728  1.5166
 6733SOL    HW231833   1.023   3.535   3.286 -0.6753  0.2948  2.1637
 6734SOL     OW31834   1.970   4.708   8.069 -0.0569  0.2163  0.5063
 6734SOL    HW131835   1.994   4.656   8.146  0.2717 -0.5160 -0.0840
 6734SOL    HW231836   1.939   0.049   8.106  1.2852 -0.3470  2.8642
 6735SOL     OW31837   4.538   0.151   4.951  0.0951  0.4806  0.0516
 6735SOL    HW131838   4.511   0.216   5.015  1.2416 -0.9467  1.9871
 6735SOL    HW231839   4.458   0.098   4.947  1.0168 -0.9305  0.6195
 6736SOL     OW31840   4.320   2.717   5.833  0.0844 -0.0492 -0.8045
 6736SOL    HW131841   4.286   2.629   5.820 -2.4414  0.7161  0.6105
 6736SOL    HW231842   4.406   2.680   5.852  0.7629  1.3940 -1.0067
 6737SOL     OW31843   4.244   0.900   3.482  0.5325 -0.1392  0.0509
 6737SOL    HW131844   4.272   0.920   3.571  0.0985  2.0301 -0.3086
 6737SOL    HW231845   4.201   0.815   3.489  0.1693 -0.0574 -1.1088
 6738SOL     OW31846   4.238   3.737  12.734 -0.3845 -0.3041  0.2270
 6738SOL    HW131847   4.315   3.686  12.710  0.2386  0.3360  0.8469
 6738SOL    HW231848   4.271   3.825  12.716  1.1165 -1.4680 -2.6538
 6739SOL     OW31849   3.611   3.535   6.611  0.0451  0.1095 -0.1877
 6739SOL    HW131850   3.594   3.613   6.664  0.4551  0.7720 -1.0236
 6739SOL    HW231851   3.692   3.509   6.655  0.2355 -0.0338 -0.6181
 6740SOL     OW31852   1.253   1.612   0.074  0.3754  0.7894 -0.4102
 6740SOL    HW131853   1.299   1.693   0.095  0.5204  0.8533 -0.9739
 6740SOL    HW231854   1.223   1.584   0.160  0.4900 -1.3089 -1.0350
 6741SOL     OW31855   1.294   4.251   3.569  0.1862  0.0815  0.5327
 6741SOL    HW131856   1.216   4.216   3.525 -0.9490  1.8380  1.1511
 6741SOL    HW231857   1.283   4.341   3.536 -1.7270 -0.4510 -0.3069
 6742SOL     OW31858   2.619   3.566   4.415 -0.0243 -0.1673 -0.2592
 6742SOL    HW131859   2.555   3.636   4.430  1.8951  0.5933  4.3540
 6742SOL    HW231860   2.699   3.615   4.398 -0.1343  0.2988  0.5550
 6743SOL     OW31861   2.862   0.124   5.785 -0.3149  0.4983  0.1926
 6743SOL    HW131862   2.850   0.185   5.858  1.8770 -2.1410  2.7380
 6743SOL    HW231863   2.787   0.066   5.791 -0.4723  0.6558 -0.2221
 6744SOL     OW31864   1.039   0.914   2.443  0.1423  0.0678  0.2850
 6744SOL    HW131865   1.094   0.975   2.393  0.6278 -1.1624 -0.6724
 6744SOL    HW231866   0.986   0.977   2.492  0.5132  0.4981  0.1305
 6745SOL     OW31867   2.557   0.310   7.099  0.2932 -0.0030  0.3165
 6745SOL    HW131868   2.571   0.326   7.005  0.2835 -0.3062  0.2635
 6745SOL    HW231869   2.619   0.242   7.123 -0.1954  0.0970  1.8215
 6746SOL     OW31870   1.469   0.832   4.341  0.1748  0.6031  0.9695
 6746SOL    HW131871   1.443   0.799   4.427 -0.1209  0.7228  0.9254
 6746SOL    HW231872   1.539   0.889   4.373  0.8590 -0.1561  0.8409
 6747SOL     OW31873   0.117   2.959   6.326  0.0883 -0.3816 -0.2065
 6747SOL    HW131874   0.193   3.010   6.297 -1.1364  1.0825 -0.8544
 6747SOL    HW231875   0.133   2.947   6.419  2.6614 -2.7427 -0.9337
 6748SOL     OW31876   3.070   2.928   8.495 -0.1960  0.5834 -0.0129
 6748SOL    HW131877   3.081   2.873   8.417 -0.7774 -0.7450  0.8513
 6748SOL    HW231878   3.009   2.996   8.466 -1.1410  0.7489  2.4514
 6749SOL     OW31879   0.744   0.114  14.233  0.1143 -0.0332  0.3958
 6749SOL    HW131880   0.776   0.068  14.311  0.0693 -0.1014  0.3747
 6749SOL    HW231881   0.799   0.082  14.161  1.1054  0.2359  1.0296
 6750SOL     OW31882   3.524   1.413   6.654  0.4661  0.7247  0.4682
 6750SOL    HW131883   3.449   1.385   6.707 -0.3291  1.2412 -0.3888
 6750SOL    HW231884   3.567   1.328   6.653  0.6834  0.8438 -0.3984
 6751SOL     OW31885   1.632   1.087   2.784 -0.0420 -0.0953  0.2216
 6751SOL    HW131886   1.600   1.177   2.793 -0.8963 -0.5501  1.6438
 6751SOL    HW231887   1.678   1.066   2.865  2.1182 -0.7243 -1.1591
 6752SOL     OW31888   2.426   2.590   3.380  0.2279 -0.9185 -0.4519
 6752SOL    HW131889   2.472   2.672   3.399 -1.1712 -0.6105  1.6156
 6752SOL    HW231890   2.499   2.532   3.361  0.6822 -0.4675 -0.0997
 6753SOL     OW31891   4.734   2.148   7.035  0.0101 -0.2244  0.1978
 6753SOL    HW131892   4.716   2.172   6.944  0.6127  0.0894  0.1554
 6753SOL    HW231893   4.647   2.146   7.073 -0.3815 -0.7689 -0.7401
 6754SOL     OW31894   4.516   2.027   3.629  0.7004 -0.8389  0.0136
 6754SOL    HW131895   4.536   1.935   3.618  1.5305 -0.6911  0.2842
 6754SOL    HW231896   4.586   2.080   3.591  0.6102 -0.5560  0.2407
 6755SOL     OW31897   4.455   3.175   3.681 -0.0887 -0.6281  0.3477
 6755SOL    HW131898   4.407   3.109   3.630 -0.3112 -0.1362 -0.0789
 6755SOL    HW231899   4.495   3.114   3.742  0.7721 -0.0118  0.3886
 6756SOL     OW31900   1.106   3.779   7.375 -0.4583  0.6442  0.1230
 6756SOL    HW131901   1.148   3.852   7.419 -0.3137  1.5759 -1.5742
 6756SOL    HW231902   1.181   3.724   7.352 -2.4736 -1.5992 -1.1359
 6757SOL     OW31903   0.059   3.050   8.026  0.3379  0.1117 -0.1304
 6757SOL    HW131904   4.741   3.001   7.969  0.1658  0.9177 -0.6468
 6757SOL    HW231905   0.120   3.089   7.963  0.4718  2.1548  1.2377
 6758SOL     OW31906   3.760   4.350   4.130 -0.3015  0.2835 -0.0152
 6758SOL    HW131907   3.768   4.257   4.152  3.5255  1.0759  1.9259
 6758SOL    HW231908   3.665   4.350   4.115 -0.4448 -0.4221  0.8727
 6759SOL     OW31909   1.510   1.455   3.032 -0.0172 -0.4283 -0.0835
 6759SOL    HW131910   1.453   1.388   3.071  0.3606 -1.2515 -0.9373
 6759SOL    HW231911   1.562   1.491   3.103 -3.8751  1.0722  1.9873
 6760SOL     OW31912   1.175   4.571   4.637  0.6682  0.6466  0.0141
 6760SOL    HW131913   1.097   4.534   4.596  1.0268 -1.5649  1.2904
 6760SOL    HW231914   1.160   4.567   4.732  0.4967  1.6437  0.0243
 6761SOL     OW31915   1.167   0.231  15.212  0.4801  0.2141 -0.4403
 6761SOL    HW131916   1.251   0.185  15.210  0.2680 -0.1619 -0.9297
 6761SOL    HW231917   1.197   0.309  15.258 -1.7989  1.4610 -1.0588
 6762SOL     OW31918   2.415   3.369   5.329  0.6285  0.3669 -0.2710
 6762SOL    HW131919   2.319   3.375   5.325  0.5407 -0.2430  0.8046
 6762SOL    HW231920   2.428   3.276   5.342 -2.9068  0.3204  3.0726
 6763SOL     OW31921   0.097   2.325   7.226  0.1349  0.4469 -0.1236
 6763SOL    HW131922   0.087   2.230   7.233 -1.7354  0.7959  2.0076
 6763SOL    HW231923   0.026   2.344   7.164 -1.5356 -1.7245  1.1094
 6764SOL     OW31924   0.539   0.111   4.436 -1.1504  0.2499 -0.4810
 6764SOL    HW131925   0.452   0.077   4.416 -1.4955 -0.0352  1.5090
 6764SOL    HW231926   0.525   0.148   4.523  1.7455 -1.3833  0.6602
 6765SOL     OW31927   2.799   1.339   6.014  0.0068  0.4733  0.0525
 6765SOL    HW131928   2.729   1.376   5.959 -0.7970 -0.4389  0.4507
 6765SOL    HW231929   2.874   1.383   5.976 -1.1801  3.0476  0.6804
 6766SOL     OW31930   1.612   3.035  10.796  0.0344  0.3976  0.2412
 6766SOL    HW131931   1.535   3.037  10.853  0.2731  0.1529  0.5725
 6766SOL    HW231932   1.670   3.090  10.850 -1.0673  0.0426  1.7755
 6767SOL     OW31933   3.200   0.446  17.349 -0.0446 -0.0971  0.0971
 6767SOL    HW131934   3.237   0.362  17.322 -0.3610 -0.1144 -0.2809
 6767SOL    HW231935   3.149   0.471  17.272  0.7546  0.4025 -0.2728
 6768SOL     OW31936   3.747   0.530   6.621 -0.2440 -0.5608  0.6132
 6768SOL    HW131937   3.679   0.588   6.585  1.3106  0.9374  0.0742
 6768SOL    HW231938   3.822   0.587   6.604  0.0726 -1.4825 -1.0543
 6769SOL     OW31939   0.011   4.435   5.443 -0.0145 -0.1723 -0.2717
 6769SOL    HW131940   4.734   4.343   5.460 -1.1320  0.0341 -0.3742
 6769SOL    HW231941   4.678   4.474   5.489  0.1379  0.4938 -0.5929
 6770SOL     OW31942   4.255   2.372   8.527 -0.0580 -0.1218 -0.1410
 6770SOL    HW131943   4.334   2.344   8.480 -0.6623  2.3271 -2.6874
 6770SOL    HW231944   4.262   2.318   8.605 -0.9493  0.3809  0.2856
 6771SOL     OW31945   2.471   0.289   5.458  0.4192 -0.1539 -0.0509
 6771SOL    HW131946   2.404   0.340   5.414 -0.1230 -0.4829  0.3966
 6771SOL    HW231947   2.537   0.285   5.388  1.7852 -2.3967  1.3506
 6772SOL     OW31948   2.193   2.922   3.434 -0.0698  0.3492  0.0808
 6772SOL    HW131949   2.259   2.948   3.498  0.3020 -0.9717  0.2348
 6772SOL    HW231950   2.206   2.829   3.420  2.2882  0.6192  0.4626
 6773SOL     OW31951   0.161   1.930   7.081  0.6038 -0.1313  0.1103
 6773SOL    HW131952   0.087   1.989   7.094 -0.5062 -1.1915 -1.4932
 6773SOL    HW231953   0.211   1.946   7.161  1.8522  0.6558 -0.8274
 6774SOL     OW31954   1.973   3.062   6.819 -0.2251  0.2385 -0.3733
 6774SOL    HW131955   1.903   3.103   6.768 -2.4144 -1.9883  0.8107
 6774SOL    HW231956   2.047   3.093   6.767  0.6558  0.6512  1.1320
 6775SOL     OW31957   1.702   2.417   3.305  0.5830 -0.4973  0.3190
 6775SOL    HW131958   1.775   2.356   3.298  1.6405  0.7865  0.0081
 6775SOL    HW231959   1.707   2.431   3.400  0.4358  3.6378 -0.2596
 6776SOL     OW31960   0.180   4.417   0.512 -0.9427  0.2434 -0.3462
 6776SOL    HW131961   0.092   4.433   0.547  0.0470  3.0314  0.8948
 6776SOL    HW231962   0.222   4.358   0.575  0.2220  0.1777 -1.1896
 6777SOL     OW31963   4.457   3.507   5.171 -0.7639 -0.1455  0.3862
 6777SOL    HW131964   4.549   3.482   5.166 -0.2419  1.8443 -0.3618
 6777SOL    HW231965   4.445   3.521   5.265  1.0899 -1.7958  0.8516
 6778SOL     OW31966   2.440   0.425   7.459  0.0759 -0.6011  0.1327
 6778SOL    HW131967   2.393   0.505   7.482  1.0587 -0.0311  0.1302
 6778SOL    HW231968   2.410   0.405   7.370  0.1500  0.5148 -0.1437
 6779SOL     OW31969   0.222   1.238   0.376  0.6264 -0.5857 -0.0714
 6779SOL    HW131970   0.210   1.292   0.453  0.2572 -1.2551  0.3444
 6779SOL    HW231971   0.239   1.297   0.303  0.9584 -1.1104 -0.4225
 6780SOL     OW31972   3.980   1.981   9.406  0.2431  0.1218 -0.1433
 6780SOL    HW131973   4.009   2.071   9.388 -1.4865  0.9483  1.2240
 6780SOL    HW231974   4.004   1.932   9.327  0.3443 -1.3889  0.8226
 6781SOL     OW31975   1.380   2.976   4.024  0.2674 -0.0421  0.8092
 6781SOL    HW131976   1.346   2.983   4.114  1.9363  0.7467  1.3786
 6781SOL    HW231977   1.445   3.046   4.029 -0.5098  0.7345 -0.0943
 6782SOL     OW31978   4.430   4.685   5.404 -0.1152 -0.0357 -0.0175
 6782SOL    HW131979   4.344   4.699   5.366  0.4399  1.4775 -0.7539
 6782SOL    HW231980   4.407   4.673   5.496 -2.5926 -0.9237 -0.7849
 6783SOL     OW31981   1.637   2.571   6.806 -0.3242 -0.5589 -0.0717
 6783SOL    HW131982   1.668   2.496   6.754  1.7136 -2.0533  3.2771
 6783SOL    HW231983   1.648   2.632   6.733 -2.6566  1.3550  1.1934
 6784SOL     OW31984   4.558   3.515   2.174 -0.1658 -0.0318 -0.3763
 6784SOL    HW131985   4.609   3.558   2.243 -0.5940 -0.6888  0.3549
 6784SOL    HW231986   4.518   3.441   2.220 -0.1374  0.6315  0.7166
 6785SOL     OW31987   0.612   3.806   6.111  0.9696 -0.0754 -0.8179
 6785SOL    HW131988   0.656   3.846   6.186 -0.1007 -1.3178  0.4528
 6785SOL    HW231989   0.634   3.862   6.036  0.1699 -1.5156 -2.1470
 6786SOL     OW31990   4.542   2.122   6.497  0.4802  0.3390  0.4861
 6786SOL    HW131991   4.542   2.218   6.492  0.6465  0.2409 -1.6113
 6786SOL    HW231992   4.559   2.103   6.589  0.0285 -1.8914  0.1066
 6787SOL     OW31993   1.851   3.691  10.017 -0.0434 -0.2392 -0.0870
 6787SOL    HW131994   1.869   3.598  10.001 -0.3269  0.0485 -2.0992
 6787SOL    HW231995   1.814   3.685  10.106  0.0389  0.3035 -0.0188
 6788SOL     OW31996   1.849   0.388  10.062 -0.4267 -0.3611  0.2074
 6788SOL    HW131997   1.774   0.377  10.121 -0.4141  0.8972  0.4652
 6788SOL    HW231998   1.876   0.480  10.069 -0.2304 -0.3458 -0.7172
 6789SOL     OW31999   4.332   0.203   8.447  0.4094 -0.4254  0.2298
 6789SOL    HW132000   4.249   0.174   8.410 -0.7848  1.0553  1.7313
 6789SOL    HW232001   4.308   0.202   8.540  0.7853 -0.3146  0.3285
 6790SOL     OW32002   3.217   2.302   5.476 -0.2219 -0.1276  0.3339
 6790SOL    HW132003   3.136   2.252   5.483  0.3329 -1.3796 -2.1599
 6790SOL    HW232004   3.237   2.286   5.384 -0.0200 -0.9861  0.5351
 6791SOL     OW32005   3.126   3.301  12.148 -0.0316  0.3558 -0.1641
 6791SOL    HW132006   3.218   3.324  12.165  0.0531  2.1007 -2.9680
 6791SOL    HW232007   3.112   3.239  12.219 -0.6175  0.9921  0.2666
 6792SOL     OW32008   2.124   1.294   9.280 -0.2198 -0.5600 -0.6798
 6792SOL    HW132009   2.084   1.377   9.306 -0.3779 -0.1989 -2.0640
 6792SOL    HW232010   2.203   1.324   9.234 -0.2164 -0.1132 -0.3885
 6793SOL     OW32011   0.040   1.713   2.624  0.0062  0.6499 -0.1653
 6793SOL    HW132012   0.048   1.791   2.680  1.9861  0.5970 -0.3655
 6793SOL    HW232013   4.687   1.700   2.625 -0.1212  1.7011  1.7682
 6794SOL     OW32014   1.477   0.321   5.536 -0.2216 -0.5132 -0.1606
 6794SOL    HW132015   1.463   0.387   5.604 -2.7715 -0.9653 -0.2459
 6794SOL    HW232016   1.422   0.356   5.466  0.0632 -2.1882 -1.2260
 6795SOL     OW32017   3.657   0.360   7.839  0.0529 -0.2352 -0.3012
 6795SOL    HW132018   3.615   0.332   7.920  1.3607  0.3649  0.5985
 6795SOL    HW232019   3.699   0.441   7.867 -3.0112  1.1067  0.3286
 6796SOL     OW32020   2.685   1.305  12.911  0.0677 -0.1957 -0.1595
 6796SOL    HW132021   2.759   1.258  12.950 -0.8009 -2.1634 -0.8626
 6796SOL    HW232022   2.657   1.236  12.850  1.1631 -1.3426  0.6161
 6797SOL     OW32023   4.537   1.789  16.460 -0.2596 -0.9369  0.1312
 6797SOL    HW132024   4.452   1.755  16.489 -0.6057 -0.0517  0.1339
 6797SOL    HW232025   4.598   1.749  16.523 -0.0802 -0.5205  0.2225
 6798SOL     OW32026   1.218   2.707   1.153 -0.3669  0.0847  0.1343
 6798SOL    HW132027   1.310   2.722   1.173 -1.6498  3.6241  3.3290
 6798SOL    HW232028   1.213   2.732   1.061 -0.0016 -0.4750 -0.0393
 6799SOL     OW32029   4.734   2.602  10.678 -0.1443  0.0143 -0.4826
 6799SOL    HW132030   4.659   2.658  10.698 -0.4895 -0.4250 -0.5518
 6799SOL    HW232031   4.715   2.576  10.588 -0.7331  1.7799 -0.8705
 6800SOL     OW32032   0.090   2.825  16.103 -0.5574 -0.3686 -0.0043
 6800SOL    HW132033   0.153   2.795  16.169  0.5203 -0.2917 -1.0041
 6800SOL    HW232034   0.131   2.890  16.046 -0.7761 -0.6671 -0.5060
 6801SOL     OW32035   0.418   4.414   3.468 -0.5795  0.3719 -0.2571
 6801SOL    HW132036   0.487   4.460   3.420 -0.4130 -1.0851 -1.3632
 6801SOL    HW232037   0.431   4.451   3.556 -2.3786 -0.8286  0.4991
 6802SOL     OW32038   4.391   1.957  17.491 -0.0402 -0.5898 -0.3911
 6802SOL    HW132039   4.373   2.015  17.417 -0.0412 -0.7031 -0.4806
 6802SOL    HW232040   4.472   1.911  17.469  1.0231  1.3678 -0.5071
 6803SOL     OW32041   1.636   4.511   8.637 -0.3588  0.0155 -0.1155
 6803SOL    HW132042   1.571   4.461   8.686 -1.7515  0.9970 -0.9399
 6803SOL    HW232043   1.592   4.547   8.559 -2.4272 -2.5397 -0.1186
 6804SOL     OW32044   2.793   0.674   2.954 -0.3327 -0.1318  0.1929
 6804SOL    HW132045   2.729   0.743   2.968 -1.2130 -1.0705  0.7598
 6804SOL    HW232046   2.862   0.701   3.015 -0.9960  1.3718  0.2707
 6805SOL     OW32047   0.171   0.619   3.521 -0.2011 -0.0521  0.6215
 6805SOL    HW132048   0.267   0.628   3.525 -0.3923  2.5768 -0.8254
 6805SOL    HW232049   0.150   0.709   3.498 -0.4757 -0.2928 -0.0479
 6806SOL     OW32050   4.642   2.471   5.235  0.5452 -0.1866 -0.5690
 6806SOL    HW132051   4.554   2.445   5.261 -0.5741  1.8425 -2.2406
 6806SOL    HW232052   4.693   2.448   5.312  2.8713 -1.1139 -2.3689
 6807SOL     OW32053   2.978   3.617   4.583  0.5794  0.2036 -0.4275
 6807SOL    HW132054   3.005   3.527   4.566 -1.1631 -0.5103  0.6073
 6807SOL    HW232055   2.979   3.617   4.679  2.5196 -0.8016 -0.4448
 6808SOL     OW32056   0.411   0.505   5.812 -0.8700 -0.0807 -0.1485
 6808SOL    HW132057   0.490   0.451   5.815 -1.5770 -1.1428 -0.6101
 6808SOL    HW232058   0.380   0.501   5.722  1.8795 -0.9671 -1.0624
 6809SOL     OW32059   4.546   2.092   7.893 -0.4404  0.3289  0.4423
 6809SOL    HW132060   4.490   2.168   7.878 -0.9018  0.0063  0.5264
 6809SOL    HW232061   4.624   2.146   7.908 -0.9724  1.4147 -0.6597
 6810SOL     OW32062   1.328   1.985   8.947  0.4583 -0.4499  0.1691
 6810SOL    HW132063   1.235   2.006   8.959  0.6154 -0.3117  1.0929
 6810SOL    HW232064   1.326   1.898   8.987  4.0357 -0.8133 -0.4366
 6811SOL     OW32065   2.730   2.691   3.107  0.3426  0.1072  0.1472
 6811SOL    HW132066   2.778   2.647   3.037 -0.4737  0.8739 -0.8950
 6811SOL    HW232067   2.692   2.767   3.062 -1.2966 -0.6487  0.2362
 6812SOL     OW32068   2.686   4.393  10.328  0.4301 -0.0569  0.2079
 6812SOL    HW132069   2.661   4.462  10.267  2.4029  2.0903  1.8638
 6812SOL    HW232070   2.620   4.397  10.398 -0.1547  0.1625 -0.3601
 6813SOL     OW32071   1.398   2.326   2.616  0.5839  0.1106 -0.3630
 6813SOL    HW132072   1.346   2.248   2.597  0.5354  0.1634 -0.4471
 6813SOL    HW232073   1.483   2.293   2.645  0.8096  1.2352  0.2604
 6814SOL     OW32074   0.124   1.860   6.108  0.3379 -0.1843 -0.2767
 6814SOL    HW132075   0.185   1.907   6.165  0.9072 -0.8933 -0.2929
 6814SOL    HW232076   0.120   1.912   6.028 -0.7854 -0.0984 -0.1609
 6815SOL     OW32077   2.635   3.778   6.675  0.6942  0.7750 -0.0360
 6815SOL    HW132078   2.653   3.686   6.654  0.4558  0.7202 -0.0051
 6815SOL    HW232079   2.722   3.818   6.679  1.8593 -1.6296 -1.2844
 6816SOL     OW32080   1.787   1.438   7.232  0.2928 -0.4462 -0.0450
 6816SOL    HW132081   1.739   1.462   7.311  2.0876  2.2111  0.2536
 6816SOL    HW232082   1.733   1.480   7.165  0.6289  1.2134  0.7260
 6817SOL     OW32083   3.850   0.402   5.159  0.1000 -0.2499  0.3476
 6817SOL    HW132084   3.783   0.458   5.198 -0.5267 -0.2793 -0.6941
 6817SOL    HW232085   3.914   0.474   5.156  0.7552 -0.7818  1.4448
 6818SOL     OW32086   2.786   3.948   1.002  0.2683  0.4092 -0.0957
 6818SOL    HW132087   2.710   4.004   0.984 -0.1685  0.5481  2.1505
 6818SOL    HW232088   2.824   4.019   1.054  0.2276 -0.9578  1.7633
 6819SOL     OW32089   3.471   2.396   5.225 -0.0120 -0.4560  0.7286
 6819SOL    HW132090   3.558   2.397   5.264  0.9155 -1.1547 -1.3356
 6819SOL    HW232091   3.483   2.423   5.134  1.0933 -1.3237  0.6246
 6820SOL     OW32092   2.532   0.831   2.285  0.5063  0.5039 -0.1554
 6820SOL    HW132093   2.525   0.923   2.262  0.7993  0.6668  0.4211
 6820SOL    HW232094   2.624   0.829   2.310  0.6681 -1.1297 -0.8572
 6821SOL     OW32095   1.851   4.117   6.114  0.0455 -0.6761  0.3716
 6821SOL    HW132096   1.835   4.061   6.189 -1.5480  0.5866  0.9797
 6821SOL    HW232097   1.912   4.064   6.063 -0.8530 -0.4784 -0.8944
 6822SOL     OW32098   2.411   3.455   8.171 -0.6736  0.4719 -0.1787
 6822SOL    HW132099   2.383   3.493   8.088  0.3508 -0.4024 -0.9254
 6822SOL    HW232100   2.481   3.518   8.186 -0.8964  1.1945 -2.2775
 6823SOL     OW32101   1.252   3.849   8.480  0.6917  0.1132  0.2058
 6823SOL    HW132102   1.158   3.865   8.491  0.9643  1.5991  0.3248
 6823SOL    HW232103   1.255   3.754   8.471 -0.0324  0.1212 -0.1485
 6824SOL     OW32104   2.214   4.678  14.175  0.1287 -0.0030 -0.4007
 6824SOL    HW132105   2.152   0.002  14.142 -1.6896 -0.8496  1.2763
 6824SOL    HW232106   2.160   4.607  14.212  0.6184 -0.2224 -0.1075
 6825SOL     OW32107   0.342   3.965  17.307 -0.2102  0.1135 -0.7570
 6825SOL    HW132108   0.275   3.966  17.375 -0.9409  0.9097 -1.5024
 6825SOL    HW232109   0.409   3.924  17.362  0.0180 -0.7055 -1.6567
 6826SOL     OW32110   3.635   2.606   3.558 -0.1071  0.0478 -0.4852
 6826SOL    HW132111   3.577   2.672   3.521 -0.5283  0.6377  1.2464
 6826SOL    HW232112   3.703   2.605   3.491  0.7610  2.2844  0.3805
 6827SOL     OW32113   0.439   4.052  13.740 -0.3563  0.2785 -0.5121
 6827SOL    HW132114   0.484   4.099  13.810  0.6143  2.1887 -2.4218
 6827SOL    HW232115   0.403   3.984  13.799  1.4336  0.9994  1.4075
 6828SOL     OW32116   4.570   3.266   4.090  0.3089 -0.2394  0.2511
 6828SOL    HW132117   4.528   3.352   4.089  0.8233  0.0196  1.5142
 6828SOL    HW232118   4.635   3.263   4.160  1.6664  0.5433 -0.9785
 6829SOL     OW32119   4.632   4.009   8.000  0.3784 -0.0041 -0.0477
 6829SOL    HW132120   4.636   4.020   7.905  0.5302 -3.9000 -0.4834
 6829SOL    HW232121   4.639   4.097   8.037  0.9783 -0.8307  1.7964
 6830SOL     OW32122   2.310   3.305   6.238  0.3122  0.4226 -0.3423
 6830SOL    HW132123   2.350   3.389   6.216 -1.3583  1.2312 -0.2824
 6830SOL    HW232124   2.298   3.307   6.333  0.8159  0.3991 -0.2807
 6831SOL     OW32125   2.536   4.590  12.493 -0.1029 -0.1932  0.0444
 6831SOL    HW132126   2.445   4.561  12.489  0.1487 -0.7314 -1.9853
 6831SOL    HW232127   2.576   4.506  12.472  0.3555  0.0181  0.0584
 6832SOL     OW32128   3.538   0.403  14.119  0.3133 -0.4117 -0.1752
 6832SOL    HW132129   3.591   0.477  14.089 -0.5433 -0.0204 -0.7009
 6832SOL    HW232130   3.594   0.367  14.188 -1.9238  0.7263  2.2017
 6833SOL     OW32131   1.886   3.498   3.819  0.2847  0.1457  0.1396
 6833SOL    HW132132   1.947   3.427   3.798 -0.8161 -1.0237  0.8733
 6833SOL    HW232133   1.844   3.518   3.735 -1.1972 -1.7994  0.4192
 6834SOL     OW32134   3.299   4.521   6.502  0.2927 -0.2731  0.4625
 6834SOL    HW132135   3.369   4.578   6.469 -1.7787  2.0923  0.1811
 6834SOL    HW232136   3.316   4.438   6.457  2.2798 -0.5483  1.6728
 6835SOL     OW32137   2.445   1.158  15.335  0.5129 -0.2733  0.2250
 6835SOL    HW132138   2.495   1.201  15.265 -1.4446  2.5195  0.5546
 6835SOL    HW232139   2.471   1.066  15.325 -1.0930 -0.5267 -1.5684
 6836SOL     OW32140   0.322   1.288  17.438  0.1549  0.1709  0.0905
 6836SOL    HW132141   0.259   1.230  17.395  1.6372  0.0119 -1.8473
 6836SOL    HW232142   0.407   1.252  17.414  0.7041  1.4290  0.1689
 6837SOL     OW32143   1.999   4.341   3.380  0.5063 -0.0391  0.2545
 6837SOL    HW132144   2.049   4.415   3.412 -1.4238  1.3817 -0.0018
 6837SOL    HW232145   2.044   4.333   3.296  0.8167  3.2850  0.1109
 6838SOL     OW32146   1.533   0.959  13.970 -0.2055  0.0382  0.0374
 6838SOL    HW132147   1.531   0.934  14.062 -0.8617  1.3662  0.3814
 6838SOL    HW232148   1.443   0.956  13.938  0.2870  2.4189 -1.5499
 6839SOL     OW32149   1.639   0.631   2.737  0.1952  0.2358  0.2723
 6839SOL    HW132150   1.628   0.725   2.745 -1.1777  0.1455 -0.4570
 6839SOL    HW232151   1.722   0.608   2.778 -0.8750 -0.3048  2.1218
 6840SOL     OW32152   1.389   1.360  17.724  0.5133 -0.0406  0.2910
 6840SOL    HW132153   1.435   1.326   0.037 -0.0059 -2.7223 -0.5998
 6840SOL    HW232154   1.364   1.449  17.751  0.1572 -0.3134  0.8598
 6841SOL     OW32155   2.096   4.309   7.397  0.2093  0.7924 -0.4718
 6841SOL    HW132156   2.190   4.324   7.410 -0.1349  3.8797 -1.6647
 6841SOL    HW232157   2.072   4.338   7.485 -1.5514  1.6950 -1.2597
 6842SOL     OW32158   1.262   4.026   1.987 -0.5618  0.0075 -0.2799
 6842SOL    HW132159   1.234   4.089   2.053 -2.8871 -0.0081 -1.2596
 6842SOL    HW232160   1.307   3.959   2.038  1.4470 -0.0216 -2.0598
 6843SOL     OW32161   3.557   0.588   4.248  0.3489  0.4825  0.4177
 6843SOL    HW132162   3.484   0.649   4.249  0.0362  0.1083  0.5614
 6843SOL    HW232163   3.544   0.536   4.327  1.4028 -1.3486 -0.5901
 6844SOL     OW32164   1.077   4.400   7.940 -0.3129  0.2741  0.6058
 6844SOL    HW132165   1.083   4.341   8.015 -2.1052 -0.2637  0.3186
 6844SOL    HW232166   1.107   4.484   7.977 -0.1105  0.9028 -1.0004
 6845SOL     OW32167   0.733   3.541   9.336  0.0011  0.0463 -0.1949
 6845SOL    HW132168   0.720   3.447   9.331  1.6643 -0.2001  0.1157
 6845SOL    HW232169   0.827   3.551   9.352  0.9844 -4.3180 -3.5254
 6846SOL     OW32170   2.389   1.019   3.305 -0.4195 -0.6578  0.2978
 6846SOL    HW132171   2.407   0.927   3.327  0.1006 -0.5718  0.2347
 6846SOL    HW232172   2.415   1.015   3.213 -1.3129  1.4719 -0.0451
 6847SOL     OW32173   4.252   4.548  15.004  0.1814  0.3809 -0.4588
 6847SOL    HW132174   4.166   4.548  14.962 -0.8878 -0.7144  1.7302
 6847SOL    HW232175   4.227   4.556  15.096  1.4520  2.3269 -0.2794
 6848SOL     OW32176   1.494   2.918   8.027  0.0779  0.0868 -0.1547
 6848SOL    HW132177   1.437   2.965   7.967 -0.4620  1.8510  1.7247
 6848SOL    HW232178   1.439   2.936   8.103 -0.8473 -0.9024 -0.5997
 6849SOL     OW32179   1.751   1.603  10.406 -0.1016  0.5728  0.3623
 6849SOL    HW132180   1.700   1.639  10.479 -2.1463  0.4052 -0.9782
 6849SOL    HW232181   1.836   1.606  10.449  1.2641 -1.0954 -2.2288
 6850SOL     OW32182   2.645   3.726  16.662  0.1154  0.6262  0.1321
 6850SOL    HW132183   2.686   3.754  16.744 -0.2781 -0.4819  0.7103
 6850SOL    HW232184   2.595   3.649  16.690  0.5109  0.2279 -0.2516
 6851SOL     OW32185   3.679   4.277   1.844 -0.1563 -0.0676  0.0501
 6851SOL    HW132186   3.589   4.273   1.877  0.1421 -0.8944  0.7937
 6851SOL    HW232187   3.668   4.237   1.758 -0.7277 -1.3419  0.7083
 6852SOL     OW32188   0.497   3.837   9.559 -0.6728 -0.5706  0.2963
 6852SOL    HW132189   0.564   3.837   9.628 -0.5517 -0.8731  0.1810
 6852SOL    HW232190   0.555   3.851   9.484 -0.9332 -2.7672 -0.3283
 6853SOL     OW32191   1.059   4.366   5.633 -0.1932 -0.2632 -0.4166
 6853SOL    HW132192   0.998   4.430   5.668  0.3225 -0.5105  0.9270
 6853SOL    HW232193   1.064   4.312   5.712  1.2164 -0.5585 -0.7141
 6854SOL     OW32194   2.862   0.181   0.941 -0.0639 -0.2385  0.9875
 6854SOL    HW132195   2.895   0.137   1.019  1.0138 -0.2152  0.5488
 6854SOL    HW232196   2.944   0.230   0.930  0.9506 -1.9781  0.8777
 6855SOL     OW32197   3.227   4.178   2.549  0.1747 -0.6205 -0.3792
 6855SOL    HW132198   3.204   4.265   2.583  0.0292 -1.2772  1.2043
 6855SOL    HW232199   3.141   4.145   2.526  0.5782 -1.4376 -0.7409
 6856SOL     OW32200   1.816   0.731   8.285 -0.9436 -0.4846 -0.2941
 6856SOL    HW132201   1.762   0.655   8.305  1.5941 -1.2874  3.5710
 6856SOL    HW232202   1.794   0.794   8.354 -0.3600 -0.6369  0.0324
 6857SOL     OW32203   1.645   3.338   9.525 -0.3688  0.3630 -0.4156
 6857SOL    HW132204   1.739   3.337   9.509 -0.6945 -2.5701 -2.2190
 6857SOL    HW232205   1.612   3.263   9.475  0.3774 -1.2342  1.4991
 6858SOL     OW32206   1.229   0.929   1.521 -0.2755 -0.2713  0.4204
 6858SOL    HW132207   1.185   1.011   1.497 -0.5455 -0.1937  1.1651
 6858SOL    HW232208   1.167   0.872   1.476 -2.0489  1.0171  1.2353
 6859SOL     OW32209   2.271   0.549   8.776  0.4162  0.4766 -0.0922
 6859SOL    HW132210   2.245   0.560   8.867 -1.4671  0.6865 -0.6499
 6859SOL    HW232211   2.366   0.558   8.778  0.3154  1.8560 -1.0557
 6860SOL     OW32212   1.787   0.791   8.865  0.7016 -0.8307  0.1740
 6860SOL    HW132213   1.753   0.707   8.895  2.3959 -1.5082  0.1878
 6860SOL    HW232214   1.818   0.820   8.951  1.8675 -1.1582 -0.1348
 6861SOL     OW32215   1.332   2.373  16.747 -0.4474 -0.4509  0.0242
 6861SOL    HW132216   1.242   2.339  16.744 -0.8064  0.4564  0.5519
 6861SOL    HW232217   1.317   2.462  16.779  0.9852 -0.6307  1.1767
 6862SOL     OW32218   1.498   2.070   5.374  0.0835  0.3922  0.2970
 6862SOL    HW132219   1.489   2.104   5.463 -1.4826 -0.0974  0.3276
 6862SOL    HW232220   1.564   2.002   5.381 -2.2342 -1.9350 -0.4654
 6863SOL     OW32221   3.995   2.703  12.945 -0.4844  0.0901 -0.0837
 6863SOL    HW132222   4.001   2.698  13.041  3.8059 -1.3309 -0.4283
 6863SOL    HW232223   3.941   2.624  12.939  3.0552 -2.2898 -0.5238
 6864SOL     OW32224   4.455   1.739   6.185  0.1249 -0.3671  0.2081
 6864SOL    HW132225   4.460   1.644   6.195 -0.3588 -0.6694 -2.3193
 6864SOL    HW232226   4.527   1.753   6.123 -1.9316  1.2574 -1.8112
 6865SOL     OW32227   3.361   2.834  11.962  0.1489 -0.3679  0.3854
 6865SOL    HW132228   3.379   2.842  11.868  0.9191 -0.3086  0.5360
 6865SOL    HW232229   3.271   2.802  11.963 -0.1232  0.3637 -1.1912
 6866SOL     OW32230   4.360   0.912   2.223 -0.2444  0.0629 -0.0434
 6866SOL    HW132231   4.327   0.825   2.246  0.6531 -0.1987  0.2565
 6866SOL    HW232232   4.450   0.885   2.207 -0.0098  0.5519  0.4392
 6867SOL     OW32233   0.462   1.912   5.839 -0.2073  0.2510  0.6745
 6867SOL    HW132234   0.483   1.903   5.932 -0.8492  1.4930  0.9372
 6867SOL    HW232235   0.402   1.841   5.818 -0.1003 -0.4682  2.8171
 6868SOL     OW32236   2.203   2.514  14.595  0.4867 -0.2214 -0.2257
 6868SOL    HW132237   2.232   2.471  14.675 -1.4266 -1.1581 -0.0343
 6868SOL    HW232238   2.155   2.444  14.550  0.8656  0.9650 -2.4316
 6869SOL     OW32239   0.788   2.289   3.671  0.1502  0.1061 -0.6639
 6869SOL    HW132240   0.861   2.233   3.696 -0.4428 -0.5896 -0.4848
 6869SOL    HW232241   0.736   2.296   3.752  0.5910  0.2648 -0.3984
 6870SOL     OW32242   3.753   4.301  14.715 -0.1286 -0.2339 -0.5770
 6870SOL    HW132243   3.814   4.229  14.697 -0.4521 -0.4358 -0.8576
 6870SOL    HW232244   3.797   4.378  14.677 -1.1609  0.7409  0.1980
 6871SOL     OW32245   1.180   1.678   0.325 -0.7733  0.2148  0.6114
 6871SOL    HW132246   1.183   1.774   0.319  1.1783  0.3603  3.6273
 6871SOL    HW232247   1.094   1.657   0.360 -0.6469 -1.5765 -0.1470
 6872SOL     OW32248   3.396   0.753   8.041  0.4979  0.5815 -0.5748
 6872SOL    HW132249   3.446   0.709   7.972 -0.0084  0.0428 -0.5895
 6872SOL    HW232250   3.341   0.814   7.993  1.1645  0.0722 -1.9782
 6873SOL     OW32251   4.305   4.427  13.200 -0.3344 -0.2304  0.3822
 6873SOL    HW132252   4.298   4.487  13.274 -1.8233 -0.3448  0.3422
 6873SOL    HW232253   4.325   4.346  13.248 -0.8121  0.7224  2.1558
 6874SOL     OW32254   1.649   0.990   4.492  0.1968 -0.2281  0.3502
 6874SOL    HW132255   1.664   0.929   4.564 -0.9313  0.1972  0.9473
 6874SOL    HW232256   1.657   1.070   4.543 -0.3680 -0.2065  0.4071
 6875SOL     OW32257   2.754   2.960   4.372 -0.7951  0.3260  0.0433
 6875SOL    HW132258   2.733   3.021   4.443 -0.4869  3.3124 -2.4237
 6875SOL    HW232259   2.819   2.908   4.419  1.0397  0.4302 -2.3692
 6876SOL     OW32260   4.161   1.737   4.179 -0.1381 -0.0546  0.6202
 6876SOL    HW132261   4.200   1.700   4.099 -0.2256  0.5004  0.3226
 6876SOL    HW232262   4.236   1.795   4.191  1.0332 -0.9866 -2.0487
 6877SOL     OW32263   2.323   4.277  14.727  0.4399 -0.4720 -0.1814
 6877SOL    HW132264   2.353   4.265  14.637  1.8881  1.9062 -0.0191
 6877SOL    HW232265   2.360   4.363  14.744 -1.2993  0.2960 -0.3048
 6878SOL     OW32266   3.829   0.910   4.273  0.6738 -0.2122  0.3248
 6878SOL    HW132267   3.781   0.986   4.305  2.2241  0.4931  0.9761
 6878SOL    HW232268   3.841   0.953   4.188  1.5804  0.1111  0.6116
 6879SOL     OW32269   1.732   2.355   1.223 -0.4896  0.9022  0.2643
 6879SOL    HW132270   1.810   2.308   1.253 -0.8682 -0.2290 -0.5277
 6879SOL    HW232271   1.687   2.368   1.307 -0.1709  2.0685  0.2594
 6880SOL     OW32272   0.948   0.423   0.444  0.1872  0.1135  0.0850
 6880SOL    HW132273   0.917   0.498   0.494  0.5443 -0.4338  1.1416
 6880SOL    HW232274   0.877   0.365   0.472  0.6436  0.1635  1.3508
 6881SOL     OW32275   1.065   1.462   2.130 -0.6169 -0.4503 -0.2062
 6881SOL    HW132276   1.159   1.475   2.124 -0.1632 -2.6297  1.8725
 6881SOL    HW232277   1.046   1.386   2.075  0.4133 -1.2447  0.5449
 6882SOL     OW32278   1.343   2.219   3.217 -0.0494  0.6417 -0.2175
 6882SOL    HW132279   1.367   2.220   3.310  1.7817 -0.7108 -0.6682
 6882SOL    HW232280   1.253   2.251   3.214  0.3924  1.7037 -1.8067
 6883SOL     OW32281   1.314   2.444   4.567 -0.0436  0.5323 -0.1730
 6883SOL    HW132282   1.394   2.401   4.535 -0.0170  1.3091 -1.1248
 6883SOL    HW232283   1.364   2.521   4.591 -2.6165  1.8409  0.9722
 6884SOL     OW32284   4.277   3.689  12.037  0.0881 -0.3562  0.0160
 6884SOL    HW132285   4.232   3.634  12.102  1.4973  0.6462  1.8401
 6884SOL    HW232286   4.210   3.757  12.028  0.3687  0.2146  2.3076
 6885SOL     OW32287   1.790   1.617   9.591 -0.7459  0.2265 -0.2674
 6885SOL    HW132288   1.860   1.626   9.654  0.0080  0.4161 -1.1275
 6885SOL    HW232289   1.738   1.696   9.610 -1.8482 -0.4313 -0.5258
 6886SOL     OW32290   3.917   4.449   1.445  0.2818  0.3318  0.2548
 6886SOL    HW132291   4.006   4.469   1.474  1.3762  2.0107 -4.2339
 6886SOL    HW232292   3.875   4.470   1.529 -0.6450  4.8158 -1.3425
 6887SOL     OW32293   2.554   2.271  17.731  0.3948 -0.0156 -0.2966
 6887SOL    HW132294   2.505   2.250  17.651  0.9264  0.3235 -0.7137
 6887SOL    HW232295   2.615   2.198  17.729  0.2411 -0.1032 -2.2109
 6888SOL     OW32296   3.260   2.821   6.148 -0.7159  0.3981 -0.0618
 6888SOL    HW132297   3.197   2.749   6.161 -1.5330  0.7426 -2.1397
 6888SOL    HW232298   3.333   2.770   6.184 -0.7161 -1.1704 -2.2683
 6889SOL     OW32299   2.969   3.750   1.608 -0.3614 -0.1630 -0.1495
 6889SOL    HW132300   3.018   3.692   1.667  0.9101  0.5967 -0.4830
 6889SOL    HW232301   3.003   3.833   1.641  0.6107 -0.5326 -0.2375
 6890SOL     OW32302   4.293   0.096   2.831 -0.1306  0.1053 -0.0606
 6890SOL    HW132303   4.353   0.084   2.905  0.1670  1.4586 -0.0900
 6890SOL    HW232304   4.218   0.108   2.889  0.3031  1.6537  0.1728
 6891SOL     OW32305   4.170   3.337   9.607  0.7737  0.2570  0.5178
 6891SOL    HW132306   4.132   3.357   9.692  0.2056  2.0325 -0.1550
 6891SOL    HW232307   4.186   3.424   9.570  0.1608 -0.2556 -0.9874
 6892SOL     OW32308   3.407   2.407   8.393  0.1736  0.3646 -0.3295
 6892SOL    HW132309   3.339   2.346   8.363 -0.8651  1.4444 -0.1363
 6892SOL    HW232310   3.371   2.491   8.366 -2.8500 -0.8963 -0.3107
 6893SOL     OW32311   4.250   3.398   6.870 -0.3956  0.2068 -0.0432
 6893SOL    HW132312   4.338   3.427   6.850 -0.5158 -0.4764 -1.6037
 6893SOL    HW232313   4.195   3.436   6.802  0.0326 -0.2683 -0.6481
 6894SOL     OW32314   1.905   3.419   9.039 -0.5078  0.0157 -0.8017
 6894SOL    HW132315   1.991   3.378   9.028  0.4555  2.1894 -1.2703
 6894SOL    HW232316   1.845   3.355   8.999 -0.4414 -1.3936  1.3412
 6895SOL     OW32317   0.152   3.172   2.845  0.2183 -0.0820  0.3031
 6895SOL    HW132318   0.151   3.231   2.920 -1.1483  0.5482 -0.1980
 6895SOL    HW232319   0.185   3.224   2.771  1.4820 -1.2287  0.0540
 6896SOL     OW32320   1.864   0.649   5.537 -0.5086  0.3093  0.0955
 6896SOL    HW132321   1.899   0.568   5.575 -2.3016 -1.8386 -2.8310
 6896SOL    HW232322   1.868   0.632   5.443 -1.1597 -0.7452  0.2600
 6897SOL     OW32323   2.794   1.832  12.239  0.1287  0.3189 -0.0916
 6897SOL    HW132324   2.734   1.865  12.305 -0.2194  2.1340 -1.3211
 6897SOL    HW232325   2.851   1.906  12.217 -0.2411  0.1932 -1.5133
 6898SOL     OW32326   1.935   4.047   8.355 -0.7343 -0.1451  0.0563
 6898SOL    HW132327   1.862   4.032   8.416 -0.7724 -0.6218 -0.1059
 6898SOL    HW232328   1.973   4.132   8.379 -0.3649  0.3042 -2.1535
 6899SOL     OW32329   3.276   4.261   7.567 -0.2053  0.2807 -0.3378
 6899SOL    HW132330   3.306   4.288   7.480 -0.5664  2.2134  0.1281
 6899SOL    HW232331   3.252   4.170   7.548 -1.0343  0.3632  0.3201
 6900SOL     OW32332   1.111   2.370   3.173  0.0624  0.0627  0.1453
 6900SOL    HW132333   1.034   2.325   3.208 -0.9858 -0.2804 -2.6019
 6900SOL    HW232334   1.112   2.444   3.233  3.1957 -1.7423  2.3179
 6901SOL     OW32335   3.073   1.967   4.408  1.2217 -0.0544  0.4616
 6901SOL    HW132336   3.154   2.013   4.434  0.5115  0.7252  1.2922
 6901SOL    HW232337   3.033   2.044   4.368  0.3826 -2.0044 -2.3680
 6902SOL     OW32338   2.556   0.277   8.043 -0.3725 -0.0025  0.0308
 6902SOL    HW132339   2.483   0.243   8.096 -0.6726 -0.5650 -0.7485
 6902SOL    HW232340   2.614   0.316   8.109  0.4804 -0.6921 -0.3067
 6903SOL     OW32341   3.886   0.489  13.469 -0.3923  0.5063  0.1732
 6903SOL    HW132342   3.831   0.469  13.393 -0.3276  2.1652 -0.3016
 6903SOL    HW232343   3.964   0.520  13.424 -0.0734  0.2805  0.5673
 6904SOL     OW32344   2.870   0.550   5.107 -0.3706  0.0066  0.4294
 6904SOL    HW132345   2.896   0.464   5.141  1.3758  0.8005  1.0866
 6904SOL    HW232346   2.801   0.574   5.169  0.3385 -1.2752  1.7157
 6905SOL     OW32347   4.148   1.666   4.456  0.7206  0.5851  0.4130
 6905SOL    HW132348   4.193   1.584   4.435 -0.9815 -0.0381 -0.8108
 6905SOL    HW232349   4.139   1.704   4.369 -0.6171 -0.1166  0.2573
 6906SOL     OW32350   1.556   0.733   5.210 -0.5461  0.6993  0.5098
 6906SOL    HW132351   1.616   0.798   5.174  2.0739 -2.5709 -1.0541
 6906SOL    HW232352   1.521   0.696   5.130  2.6469 -0.3823 -0.3824
 6907SOL     OW32353   3.282   0.130  15.616  0.4154  0.4546  0.7565
 6907SOL    HW132354   3.292   0.034  15.612  0.8375  0.5711 -1.0752
 6907SOL    HW232355   3.358   0.148  15.672  0.8261 -0.6818  0.5741
 6908SOL     OW32356   0.744   1.796  13.489  0.5199 -0.3913  0.5637
 6908SOL    HW132357   0.774   1.800  13.398 -0.9157  3.5116  0.2680
 6908SOL    HW232358   0.812   1.852  13.527  0.4512  0.9426 -1.2817
 6909SOL     OW32359   0.016   2.792  12.736  0.3938  0.4692 -0.2091
 6909SOL    HW132360   4.682   2.816  12.789 -0.0591  1.4943 -1.3068
 6909SOL    HW232361   4.737   2.700  12.721 -1.6817  0.9350 -0.2594
 6910SOL     OW32362   3.242   3.264   1.548  0.1473  0.4892 -0.6244
 6910SOL    HW132363   3.291   3.318   1.609 -0.2729  1.2118 -0.9181
 6910SOL    HW232364   3.154   3.272   1.585 -0.3853 -1.0212 -1.5474
 6911SOL     OW32365   4.556   0.345  10.406  0.3743  0.2122 -0.1264
 6911SOL    HW132366   4.649   0.331  10.428 -0.1590 -1.1117  1.2865
 6911SOL    HW232367   4.523   0.317  10.491 -0.4618 -0.6934 -0.7567
 6912SOL     OW32368   3.944   1.975   6.675  0.2166 -0.1403 -0.4570
 6912SOL    HW132369   4.005   2.005   6.607  1.6869  1.1454  1.4213
 6912SOL    HW232370   3.894   2.056   6.685  2.0133  1.2780 -2.7185
 6913SOL     OW32371   0.142   0.277  15.331  0.2683 -0.1330 -0.1310
 6913SOL    HW132372   0.148   0.372  15.344 -1.3316 -0.1797  1.0175
 6913SOL    HW232373   0.070   0.253  15.390  0.3640 -1.0928 -0.4191
 6914SOL     OW32374   1.740   0.489  14.285 -0.0175  0.4596  0.0362
 6914SOL    HW132375   1.688   0.517  14.210  0.8533 -1.1155 -1.1826
 6914SOL    HW232376   1.799   0.564  14.292  0.2822  0.3467 -1.3102
 6915SOL     OW32377   0.509   0.191   4.990  0.0223 -0.4919 -0.5326
 6915SOL    HW132378   0.442   0.134   4.950  1.3328 -1.8079 -0.8491
 6915SOL    HW232379   0.491   0.279   4.957 -2.5756 -1.3697 -1.5065
 6916SOL     OW32380   0.516   2.782   3.032  0.1910 -0.8837  0.0304
 6916SOL    HW132381   0.521   2.878   3.032  2.0390 -0.9833  0.2399
 6916SOL    HW232382   0.469   2.770   3.114 -0.0364  1.4663  0.2523
 6917SOL     OW32383   1.869   4.727   4.724  0.0047  0.2007 -0.1210
 6917SOL    HW132384   1.953   0.027   4.743 -0.5739  2.0500 -1.6515
 6917SOL    HW232385   1.896   4.688   4.641 -0.9471  1.1884 -0.8927
 6918SOL     OW32386   1.287   4.155   9.169 -0.1837  0.5003 -0.8102
 6918SOL    HW132387   1.205   4.109   9.151  1.4017 -1.8987 -1.8555
 6918SOL    HW232388   1.263   4.215   9.240 -0.3249  0.9405 -1.2309
 6919SOL     OW32389   1.996   4.380  12.362 -1.0436  0.2774  0.5718
 6919SOL    HW132390   1.997   4.285  12.371 -1.7865  0.2719  0.6229
 6919SOL    HW232391   2.004   4.403  12.455  0.1753  2.4010 -0.0631
 6920SOL     OW32392   2.270   3.651   6.768 -0.1563  0.8684  0.5705
 6920SOL    HW132393   2.326   3.724   6.743  1.0359  0.1267  1.0829
 6920SOL    HW232394   2.339   3.587   6.789 -1.1609 -0.8597 -1.3484
 6921SOL     OW32395   0.473   4.201   8.164 -0.9713  0.2979 -0.1517
 6921SOL    HW132396   0.418   4.249   8.102  0.3946  3.1106  0.8026
 6921SOL    HW232397   0.431   4.243   8.238  2.2319  1.4188  1.0517
 6922SOL     OW32398   3.152   0.357   1.810 -0.0480  0.2788 -0.0775
 6922SOL    HW132399   3.156   0.452   1.802 -0.3153  0.0885 -2.3082
 6922SOL    HW232400   3.219   0.345   1.877 -0.3350  2.1437  0.5300
 6923SOL     OW32401   0.233   3.234   9.094  0.0272 -0.1444  0.4722
 6923SOL    HW132402   0.196   3.284   9.021  0.5821 -1.0736 -0.4416
 6923SOL    HW232403   0.183   3.153   9.085 -0.7684  0.3030  0.8362
 6924SOL     OW32404   0.422   3.502   1.187 -0.4069 -0.7146 -0.0398
 6924SOL    HW132405   0.438   3.584   1.141  0.2212 -0.6423  0.3059
 6924SOL    HW232406   0.426   3.440   1.114 -0.2142  0.4500 -1.0078
 6925SOL     OW32407   4.127   3.511   6.650  0.6267  0.4993 -0.7099
 6925SOL    HW132408   4.189   3.479   6.584  1.1771  0.9764 -0.4197
 6925SOL    HW232409   4.120   3.605   6.633 -1.5358  0.3189 -0.8408
 6926SOL     OW32410   0.498   1.106   2.316  0.1263 -0.0492  1.2568
 6926SOL    HW132411   0.563   1.176   2.307  0.0226 -0.0608  0.4192
 6926SOL    HW232412   0.544   1.048   2.376  0.1435 -2.7362 -1.3624
 6927SOL     OW32413   0.373   4.266   8.776  0.3962 -0.5285  0.5343
 6927SOL    HW132414   0.437   4.262   8.848  0.0012  0.3249  0.9324
 6927SOL    HW232415   0.346   4.357   8.783 -0.1670 -0.6714  0.1732
 6928SOL     OW32416   4.132   3.041   5.234 -0.3185  0.1033  0.2284
 6928SOL    HW132417   4.163   2.951   5.239 -1.7480 -0.2588  2.3356
 6928SOL    HW232418   4.191   3.092   5.289 -1.8119  0.9440  1.0450
 6929SOL     OW32419   0.720   1.489   4.560  0.4984  0.2008 -1.2152
 6929SOL    HW132420   0.768   1.486   4.643 -1.6382 -0.4720 -0.0138
 6929SOL    HW232421   0.794   1.495   4.500  0.7242 -2.0390 -1.1827
 6930SOL     OW32422   0.832   3.462   3.944 -0.1268 -0.3895  0.2542
 6930SOL    HW132423   0.847   3.381   3.993  1.2136  1.1777  2.4611
 6930SOL    HW232424   0.813   3.520   4.018  0.8218 -1.6299  1.5014
 6931SOL     OW32425   3.505   1.305   6.971  0.0195  0.1032  0.0406
 6931SOL    HW132426   3.450   1.271   6.900 -2.0359  2.5970  0.3904
 6931SOL    HW232427   3.429   1.321   7.028 -0.8927 -0.3040 -1.0506
 6932SOL     OW32428   3.164   0.958  15.674  0.1538  0.0967  0.0711
 6932SOL    HW132429   3.193   1.014  15.746 -0.9441 -0.6538  1.0962
 6932SOL    HW232430   3.119   1.025  15.622 -2.0808 -0.6402  1.0328
 6933SOL     OW32431   1.024   2.524   4.982 -0.2728  0.1943 -0.1762
 6933SOL    HW132432   1.036   2.511   4.888  0.7862  0.5086 -0.0809
 6933SOL    HW232433   1.064   2.445   5.019 -1.5274 -0.8989 -1.1566
 6934SOL     OW32434   2.245   3.108   8.758 -0.2056 -0.0707  0.6353
 6934SOL    HW132435   2.272   3.030   8.806  0.1309 -1.0754 -1.1495
 6934SOL    HW232436   2.307   3.174   8.788  1.1564  0.0023 -2.2887
 6935SOL     OW32437   1.857   2.418   3.939 -0.1538 -0.3133 -0.7114
 6935SOL    HW132438   1.826   2.491   3.884 -0.4926 -1.4578 -2.0334
 6935SOL    HW232439   1.901   2.468   4.008  0.9939 -0.7517 -1.1169
 6936SOL     OW32440   3.474   0.308  17.530 -0.3218  0.5078 -0.2770
 6936SOL    HW132441   3.453   0.386  17.478  3.0980  0.1116 -2.2377
 6936SOL    HW232442   3.391   0.282  17.570  0.5676  0.8650  1.7886
 6937SOL     OW32443   2.132   2.095   2.090  0.4156 -0.2856 -0.0792
 6937SOL    HW132444   2.187   2.040   2.145  2.3455  1.3472 -0.4096
 6937SOL    HW232445   2.185   2.099   2.011  0.2553  3.8157  0.0089
 6938SOL     OW32446   1.938   4.216   1.871  0.0388  0.0619  0.8465
 6938SOL    HW132447   1.858   4.171   1.897  0.0710 -0.9572 -0.7596
 6938SOL    HW232448   1.986   4.141   1.835 -0.2132  0.1412  0.3438
 6939SOL     OW32449   2.595   4.720   5.816  0.3258 -0.0406  0.1750
 6939SOL    HW132450   2.500   4.714   5.803  0.6049 -2.8808 -0.4561
 6939SOL    HW232451   2.606   4.676   5.900 -0.4431  0.0473  0.3238
 6940SOL     OW32452   3.043   2.426   3.039 -0.5061 -0.0734 -0.1043
 6940SOL    HW132453   3.063   2.380   3.120 -0.8401  0.1985  0.1312
 6940SOL    HW232454   3.034   2.341   2.996 -0.8272 -0.1182  0.0452
 6941SOL     OW32455   2.330   1.480   7.187  0.3595  0.4089  0.4992
 6941SOL    HW132456   2.343   1.403   7.241  1.0858  0.4651  0.3981
 6941SOL    HW232457   2.250   1.514   7.228 -1.5346 -1.4569 -1.6021
 6942SOL     OW32458   1.893   4.370   1.619  0.5610 -0.1528  0.5331
 6942SOL    HW132459   1.978   4.409   1.597  2.6237 -4.3468  1.2572
 6942SOL    HW232460   1.931   4.303   1.675  1.1110 -1.3164 -1.2315
 6943SOL     OW32461   2.796   1.393   4.341  0.4682  0.0635  0.1923
 6943SOL    HW132462   2.887   1.383   4.312  0.0401  3.1043 -2.1835
 6943SOL    HW232463   2.742   1.361   4.268  3.4736  0.6398 -2.3134
 6944SOL     OW32464   4.624   1.377   0.334  0.0138 -0.1931 -0.4673
 6944SOL    HW132465   4.639   1.298   0.281  1.6546 -0.6632  0.7099
 6944SOL    HW232466   4.530   1.367   0.350 -0.1635  0.9528 -0.8423
 6945SOL     OW32467   3.112   1.368   8.737  0.6467  0.3361  0.0574
 6945SOL    HW132468   3.165   1.448   8.741 -1.1382  1.4363  1.3260
 6945SOL    HW232469   3.188   1.309   8.732  0.1596 -0.2600 -0.3116
 6946SOL     OW32470   4.139   0.884   6.552 -0.5478 -0.2994  0.1535
 6946SOL    HW132471   4.124   0.975   6.578  1.2188 -0.7078  2.6257
 6946SOL    HW232472   4.233   0.875   6.570 -0.3896  2.4815  0.6261
 6947SOL     OW32473   4.574   2.382   0.793 -0.3553 -0.1531  0.2191
 6947SOL    HW132474   4.647   2.433   0.759 -0.3935  0.5296  1.1601
 6947SOL    HW232475   4.528   2.435   0.858  0.3654 -0.0270  0.6293
 6948SOL     OW32476   4.374   4.490  15.716 -0.2002  0.0110 -0.0199
 6948SOL    HW132477   4.340   4.478  15.627 -1.4084  0.3553  0.3869
 6948SOL    HW232478   4.429   4.562  15.687  0.7652 -0.4724  0.6073
 6949SOL     OW32479   4.305   2.016  13.243  0.6092  0.1740  0.2283
 6949SOL    HW132480   4.250   1.939  13.230  0.4568  0.2603  0.3560
 6949SOL    HW232481   4.255   2.064  13.309  0.0700 -2.4322  1.7225
 6950SOL     OW32482   4.148   0.956   4.881  0.2385 -0.1737 -0.1570
 6950SOL    HW132483   4.240   0.981   4.873 -0.2284  2.0389  1.2859
 6950SOL    HW232484   4.155   0.936   4.975  1.3135  0.4939 -0.0883
 6951SOL     OW32485   4.365   0.190  16.410  0.1879 -0.4034 -0.3415
 6951SOL    HW132486   4.326   0.205  16.324  3.4404 -0.0927 -1.7330
 6951SOL    HW232487   4.286   0.181  16.464 -0.5112 -0.4608 -1.3787
 6952SOL     OW32488   1.619   0.729  11.044  0.0838 -1.0569  0.5352
 6952SOL    HW132489   1.662   0.704  10.962  0.6591 -0.1743  0.5716
 6952SOL    HW232490   1.680   0.696  11.110  2.8766 -0.0338 -1.5021
 6953SOL     OW32491   4.243   4.205   0.176  0.2994  0.6148  0.1073
 6953SOL    HW132492   4.245   4.203   0.272 -1.5897 -1.1502  0.0957
 6953SOL    HW232493   4.182   4.275   0.151  0.2438  0.8736  0.9552
 6954SOL     OW32494   1.026   3.001   9.914  0.5153 -0.0137 -0.8921
 6954SOL    HW132495   1.073   2.937   9.859  0.2051 -2.7411  1.9975
 6954SOL    HW232496   0.944   2.951   9.914 -0.3944  1.4694 -1.5035
 6955SOL     OW32497   3.434   3.319   6.078  0.0424 -0.4557 -0.2279
 6955SOL    HW132498   3.434   3.228   6.046 -1.6201 -0.8725  0.9336
 6955SOL    HW232499   3.459   3.353   5.992 -0.3893  0.1929 -0.0947
 6956SOL     OW32500   0.694   0.743   8.115 -0.2166 -0.1391  0.4677
 6956SOL    HW132501   0.617   0.782   8.157  0.9178  0.7970  1.6693
 6956SOL    HW232502   0.658   0.721   8.029  0.3300  1.0247 -0.0639
 6957SOL     OW32503   3.788   2.579   6.190 -0.0034 -0.1556 -0.8681
 6957SOL    HW132504   3.861   2.574   6.128  0.1151  0.3594 -0.7695
 6957SOL    HW232505   3.793   2.673   6.210 -0.6822 -0.6551  1.6180
 6958SOL     OW32506   1.965   4.548   4.083 -0.2503 -0.1240 -0.4233
 6958SOL    HW132507   1.944   4.534   3.991 -2.3941  0.9529 -0.0846
 6958SOL    HW232508   1.881   4.558   4.128 -0.7364 -1.8754 -0.9782
 6959SOL     OW32509   0.955   0.042  16.740  0.3475 -0.2505 -0.2824
 6959SOL    HW132510   0.919   4.695  16.745 -1.9768  0.6900 -0.0427
 6959SOL    HW232511   0.878   0.091  16.711 -0.2214 -1.0155 -0.0617
 6960SOL     OW32512   1.741   1.975   1.672  0.2360  0.1456  0.2750
 6960SOL    HW132513   1.691   2.049   1.637  0.5194 -0.8207 -2.1408
 6960SOL    HW232514   1.830   2.002   1.650  0.0383  2.6782  2.4818
 6961SOL     OW32515   4.085   1.997   9.684  0.2367  0.4992  0.0626
 6961SOL    HW132516   4.114   2.086   9.701 -1.6110  1.1987 -0.4685
 6961SOL    HW232517   4.061   2.002   9.591  0.0824  0.7407  0.1136
 6962SOL     OW32518   1.730   3.903   0.925 -0.3066 -0.3283 -0.3199
 6962SOL    HW132519   1.729   3.857   1.009 -0.3323 -0.4804 -0.4035
 6962SOL    HW232520   1.761   3.990   0.951 -0.0628 -0.7937  0.9726
 6963SOL     OW32521   4.503   1.510   3.721 -0.2923 -0.2179  0.4347
 6963SOL    HW132522   4.588   1.468   3.707  1.0182  2.4741  0.3958
 6963SOL    HW232523   4.477   1.529   3.631 -1.0152  1.5495  1.0163
 6964SOL     OW32524   4.556   0.305   7.602  0.1950  0.4940  0.5049
 6964SOL    HW132525   4.548   0.210   7.615  1.9212  0.3570  0.6009
 6964SOL    HW232526   4.644   0.299   7.565  0.2336  1.1524  0.4993
 6965SOL     OW32527   2.054   4.169  10.322  0.2226 -0.0646  0.2657
 6965SOL    HW132528   1.961   4.189  10.314  0.4402  0.0953 -1.7224
 6965SOL    HW232529   2.072   4.138  10.233  2.6498 -1.7445  1.3290
 6966SOL     OW32530   1.804   2.421  11.696 -0.0251  0.5015 -0.2984
 6966SOL    HW132531   1.801   2.416  11.600  1.5167 -2.6622 -0.1658
 6966SOL    HW232532   1.894   2.395  11.715 -0.0835 -0.2264 -1.0344
 6967SOL     OW32533   1.808   3.910  11.249 -0.2687 -0.1421  0.5922
 6967SOL    HW132534   1.818   3.814  11.245  1.4151  0.0396  0.3120
 6967SOL    HW232535   1.798   3.918  11.344 -0.8154 -0.9565  0.6080
 6968SOL     OW32536   2.473   1.998   8.053  0.4752  0.6205 -0.9189
 6968SOL    HW132537   2.414   1.965   8.121  1.1171 -0.3864 -0.8528
 6968SOL    HW232538   2.414   2.001   7.977  0.8166  0.9741 -1.1717
 6969SOL     OW32539   1.803   3.937  11.502  0.9775  0.7759 -0.5328
 6969SOL    HW132540   1.830   3.968  11.589  0.9236 -2.0508  0.4881
 6969SOL    HW232541   1.737   3.869  11.515  1.2141  0.2785 -1.8874
 6970SOL     OW32542   0.332   4.183   4.165  0.6614 -0.4255 -0.4668
 6970SOL    HW132543   0.237   4.189   4.173  0.8814  2.9700 -0.2967
 6970SOL    HW232544   0.363   4.268   4.135 -1.0760 -0.6665 -2.8774
 6971SOL     OW32545   0.397   4.543   6.670 -0.1097  0.6932  0.2726
 6971SOL    HW132546   0.316   4.528   6.621  1.0249 -1.6675 -0.8308
 6971SOL    HW232547   0.454   4.488   6.617  0.1838  0.3476  0.9528
 6972SOL     OW32548   0.249   2.280   5.186  0.2573  0.0196  0.1362
 6972SOL    HW132549   0.287   2.342   5.125  0.3689  1.2165  1.4121
 6972SOL    HW232550   0.266   2.319   5.272 -0.4611 -0.5090  0.5207
 6973SOL     OW32551   0.848   3.137   9.470 -0.1361 -0.1313 -0.1781
 6973SOL    HW132552   0.888   3.072   9.412 -1.8483 -1.6384  0.3031
 6973SOL    HW232553   0.919   3.201   9.477  0.3382 -0.4265 -2.1650
 6974SOL     OW32554   4.508   3.247   9.428  0.3572  0.2469 -0.1913
 6974SOL    HW132555   4.555   3.165   9.440 -0.8153 -0.5841 -1.2591
 6974SOL    HW232556   4.495   3.276   9.518 -0.5283  0.0044 -0.2373
 6975SOL     OW32557   4.061   1.971   5.289 -0.5223  0.4836  0.5039
 6975SOL    HW132558   4.045   2.036   5.358 -2.3042  0.7150 -0.1069
 6975SOL    HW232559   3.969   1.946   5.278 -0.3467 -0.6899  1.7495
 6976SOL     OW32560   4.539   3.629   5.870 -0.4745  0.0195 -0.2911
 6976SOL    HW132561   4.612   3.587   5.916  0.1078 -1.3799 -2.5204
 6976SOL    HW232562   4.542   3.719   5.902 -1.9460  0.6669 -1.9845
 6977SOL     OW32563   0.857   4.359   7.706 -0.2696 -0.4736 -0.0981
 6977SOL    HW132564   0.879   4.340   7.797  1.1108  2.5750  0.1855
 6977SOL    HW232565   0.839   4.453   7.705  1.2196 -0.1977 -0.8118
 6978SOL     OW32566   2.676   0.516   3.254  0.1226 -0.2911  0.1581
 6978SOL    HW132567   2.702   0.547   3.341  0.6539 -0.3819  0.0350
 6978SOL    HW232568   2.735   0.441   3.249 -1.5782 -1.8133  3.0806
 6979SOL     OW32569   3.687   2.054   4.683 -0.1694  0.1045 -0.5508
 6979SOL    HW132570   3.744   2.016   4.616 -3.9453 -0.5282 -3.4148
 6979SOL    HW232571   3.726   2.022   4.764 -0.7129 -0.3138 -0.4533
 6980SOL     OW32572   1.255   2.042   4.300 -0.5719  0.1278 -0.1540
 6980SOL    HW132573   1.284   1.990   4.225  0.3045  1.3513 -0.6610
 6980SOL    HW232574   1.253   1.974   4.368  0.7397  0.4040  0.1556
 6981SOL     OW32575   3.998   1.503  15.890 -0.0199 -0.5170 -0.5490
 6981SOL    HW132576   3.909   1.478  15.914  0.0421  0.7336  1.0245
 6981SOL    HW232577   3.992   1.509  15.795  1.6958 -1.0175 -0.6844
 6982SOL     OW32578   1.976   1.930   7.984 -0.7063 -0.7113 -0.0413
 6982SOL    HW132579   1.971   1.948   8.078 -3.7939  0.0351 -0.3279
 6982SOL    HW232580   2.068   1.910   7.966 -0.9676 -1.1802 -0.8676
 6983SOL     OW32581   4.315   3.256   8.495 -0.5244 -0.6147 -0.1672
 6983SOL    HW132582   4.353   3.303   8.420  3.1300 -2.0106  0.8465
 6983SOL    HW232583   4.221   3.245   8.480 -0.3586 -1.9221 -0.1936
 6984SOL     OW32584   0.993   0.340   3.022  0.2112  0.0429 -0.6063
 6984SOL    HW132585   1.026   0.345   3.112  0.1325  1.7943 -0.6759
 6984SOL    HW232586   1.055   0.272   2.996  0.7610  0.0999  0.5449
 6985SOL     OW32587   4.342   3.110   4.863 -0.4842  0.0491 -0.5706
 6985SOL    HW132588   4.280   3.179   4.888 -1.4914 -0.6599 -1.1571
 6985SOL    HW232589   4.405   3.167   4.818 -0.8059  0.6782 -0.2395
 6986SOL     OW32590   3.160   1.063   4.838 -0.3991 -0.2197 -0.0717
 6986SOL    HW132591   3.182   0.970   4.832 -2.9596 -0.8927  1.0357
 6986SOL    HW232592   3.248   1.099   4.847 -0.6009  0.1678  0.3380
 6987SOL     OW32593   2.877   3.178   9.964  0.5818 -0.6059 -0.0526
 6987SOL    HW132594   2.956   3.136   9.997  0.8138  1.3639  1.8436
 6987SOL    HW232595   2.885   3.257  10.018  0.4360 -1.8540  1.7964
 6988SOL     OW32596   0.037   3.834   4.125  0.0318 -0.4201 -0.0694
 6988SOL    HW132597   0.077   3.859   4.209 -1.0633 -0.6122  0.5149
 6988SOL    HW232598   0.027   3.743   4.153 -0.2656 -0.9758 -2.0520
 6989SOL     OW32599   1.566   0.127   3.506  0.0555 -0.1299 -0.0064
 6989SOL    HW132600   1.527   0.052   3.551 -0.9992 -0.5711 -1.6434
 6989SOL    HW232601   1.584   0.177   3.585 -1.4421  0.7145 -0.2147
 6990SOL     OW32602   4.222   4.361   7.704  0.2178  0.6214 -0.0354
 6990SOL    HW132603   4.266   4.436   7.665 -0.1361  1.0480  0.3764
 6990SOL    HW232604   4.138   4.403   7.727 -0.0746  1.3489 -2.4812
 6991SOL     OW32605   4.057   1.627   7.851 -0.3169 -0.0885  0.0635
 6991SOL    HW132606   4.083   1.547   7.897  0.9663  0.3449  0.1066
 6991SOL    HW232607   4.141   1.672   7.854  0.2637 -1.3728  2.9055
 6992SOL     OW32608   1.803   2.499  10.374  0.5128  0.0321  0.4983
 6992SOL    HW132609   1.830   2.537  10.290 -2.0343 -1.7415 -1.0814
 6992SOL    HW232610   1.881   2.501  10.429  1.4415  0.5994 -0.8331
 6993SOL     OW32611   0.502   2.510   3.851  0.1763  0.3236  0.2082
 6993SOL    HW132612   0.466   2.423   3.868  0.3268  0.3293  0.5594
 6993SOL    HW232613   0.596   2.496   3.841  0.3128  0.9125  0.6433
 6994SOL     OW32614   1.335   2.170   3.924  0.4468 -0.0254  0.1349
 6994SOL    HW132615   1.307   2.081   3.944  0.1850 -0.0314 -0.2536
 6994SOL    HW232616   1.336   2.152   3.830  0.2592 -1.4209  0.3921
 6995SOL     OW32617   3.935   2.916   7.992 -0.3898  0.4162 -0.5751
 6995SOL    HW132618   3.961   2.862   8.067 -1.4949  0.1773 -0.3739
 6995SOL    HW232619   3.908   2.988   8.049  0.5838 -1.9093  2.8386
 6996SOL     OW32620   4.620   1.617  12.930 -0.3501  0.1518 -0.5680
 6996SOL    HW132621   4.692   1.556  12.913 -0.7189 -1.0545  2.1730
 6996SOL    HW232622   4.549   1.570  12.885 -0.9461  2.6208 -2.2405
 6997SOL     OW32623   1.832   3.899  16.220  0.6357  0.3454 -0.7932
 6997SOL    HW132624   1.753   3.950  16.238 -0.3143 -1.6795  0.8038
 6997SOL    HW232625   1.817   3.816  16.265  0.3005  0.4494 -0.7167
 6998SOL     OW32626   3.358   2.654   8.243 -0.0821 -0.4462 -0.6616
 6998SOL    HW132627   3.364   2.691   8.155  1.6539 -0.1407 -0.4200
 6998SOL    HW232628   3.280   2.701   8.273  0.7117 -0.1577  0.9354
 6999SOL     OW32629   2.771   3.909   2.892 -0.0845 -0.6015  0.2117
 6999SOL    HW132630   2.748   3.817   2.905 -1.5707 -0.2956 -0.2836
 6999SOL    HW232631   2.744   3.945   2.976  1.3444 -2.8320  1.6177
 7000SOL     OW32632   3.105   3.998   1.628  1.0539 -0.5222  0.8083
 7000SOL    HW132633   3.113   3.959   1.715  1.8992  1.1852  1.5003
 7000SOL    HW232634   3.193   4.012   1.595  0.4064  4.1645  1.0788
 7001SOL     OW32635   0.591   3.335   6.977 -0.3168 -0.1572  0.0045
 7001SOL    HW132636   0.597   3.430   6.983 -1.4090  0.0582 -2.1921
 7001SOL    HW232637   0.685   3.318   6.980 -0.1851  0.5398 -0.1714
 7002SOL     OW32638   4.567   3.197   8.988 -0.3343 -0.0369 -0.4060
 7002SOL    HW132639   4.488   3.150   9.016  0.3522 -0.0901  1.4535
 7002SOL    HW232640   4.538   3.221   8.900 -0.3370  0.4167 -0.2844
 7003SOL     OW32641   0.819   4.360   8.613 -0.0972  0.3162 -0.4010
 7003SOL    HW132642   0.806   4.268   8.637 -0.5652  0.3934 -0.3575
 7003SOL    HW232643   0.906   4.359   8.574  0.9649 -0.8504  2.0612
 7004SOL     OW32644   3.901   1.172   5.941  0.4450  0.3146  0.0562
 7004SOL    HW132645   3.847   1.250   5.929  0.9323  0.4606 -1.1618
 7004SOL    HW232646   3.879   1.164   6.034 -1.8058  0.5824 -0.4556
 7005SOL     OW32647   1.142   3.540   2.986 -0.4271  0.0736 -0.7320
 7005SOL    HW132648   1.119   3.448   2.997  1.1085 -0.4779 -2.0727
 7005SOL    HW232649   1.225   3.545   2.937 -0.1673  1.5900 -0.1187
 7006SOL     OW32650   4.605   0.852   5.429  0.4820  0.0616  0.2310
 7006SOL    HW132651   4.537   0.864   5.495 -0.1806  0.5233 -0.5333
 7006SOL    HW232652   4.574   0.794   5.359 -1.6845  0.1279  1.1238
 7007SOL     OW32653   3.188   0.108  12.659  0.1504 -0.2898 -0.2268
 7007SOL    HW132654   3.206   0.173  12.727  0.2185  1.8560 -2.2914
 7007SOL    HW232655   3.100   0.072  12.675  0.2273 -0.5667 -0.4358
 7008SOL     OW32656   2.833   4.699  14.822  0.0275 -0.0172 -0.0945
 7008SOL    HW132657   2.837   0.038  14.874 -1.5799  0.5466 -0.8336
 7008SOL    HW232658   2.816   4.633  14.889  2.4202  0.5487  1.0464
 7009SOL     OW32659   4.573   1.853   5.920 -0.3689  0.1900 -0.5084
 7009SOL    HW132660   4.501   1.826   5.863 -0.6104  2.2338 -1.1749
 7009SOL    HW232661   4.522   1.922   5.963 -0.7647 -0.5189  0.1401
 7010SOL     OW32662   4.335   1.161   0.135  0.0685  0.0868 -0.3699
 7010SOL    HW132663   4.266   1.227   0.126 -1.3076 -1.3619 -0.4104
 7010SOL    HW232664   4.355   1.166   0.229 -0.4563 -0.3592 -0.2389
 7011SOL     OW32665   0.596   3.972  16.078 -0.1655 -0.4479 -0.0992
 7011SOL    HW132666   0.628   3.984  15.988 -2.9108 -0.5408 -1.0751
 7011SOL    HW232667   0.514   4.019  16.090 -0.1869 -0.4388 -0.2801
 7012SOL     OW32668   0.746   2.451   3.907 -0.1671  0.3415  0.4489
 7012SOL    HW132669   0.802   2.489   3.839 -0.9561  2.0148  0.7437
 7012SOL    HW232670   0.811   2.434   3.975 -1.3573 -1.4151  1.1605
 7013SOL     OW32671   1.185   4.309   2.470 -0.0002  0.0971  0.0241
 7013SOL    HW132672   1.106   4.359   2.452 -0.7282 -0.9422  0.3191
 7013SOL    HW232673   1.248   4.376   2.445  1.1279 -0.9056  0.1539
 7014SOL     OW32674   1.853   2.909  16.882  0.1887 -0.4588  0.1234
 7014SOL    HW132675   1.939   2.941  16.856 -0.4579  1.8070  0.7512
 7014SOL    HW232676   1.839   2.958  16.963 -1.7897 -0.9129  0.0656
 7015SOL     OW32677   2.284   3.987  10.684 -0.2609 -0.2311  0.0157
 7015SOL    HW132678   2.307   3.904  10.724  1.9543  0.0082 -0.7949
 7015SOL    HW232679   2.286   4.045  10.760 -0.4755 -2.7420  1.9432
 7016SOL     OW32680   3.066   1.515   3.113  0.5592 -0.4934  0.3754
 7016SOL    HW132681   3.075   1.550   3.201  2.1749 -3.0878  1.2390
 7016SOL    HW232682   3.140   1.457   3.092  1.4257  0.6712  0.2018
 7017SOL     OW32683   0.200   1.192   7.198  0.1295 -0.3050 -0.2217
 7017SOL    HW132684   0.209   1.108   7.243 -0.0820 -1.7629 -2.8871
 7017SOL    HW232685   0.283   1.232   7.228  0.7106 -0.6459 -1.3771
 7018SOL     OW32686   3.452   0.990  11.592 -0.2693  0.0397  0.1782
 7018SOL    HW132687   3.443   0.924  11.523  0.3209  0.3724 -0.2198
 7018SOL    HW232688   3.457   1.073  11.545  1.0023 -1.2857 -2.0437
 7019SOL     OW32689   2.494   4.606   8.462  0.3018  0.8782  0.2268
 7019SOL    HW132690   2.526   4.693   8.487  2.5976 -0.3178  1.3824
 7019SOL    HW232691   2.578   4.561   8.452 -1.6967 -2.5513 -0.9572
 7020SOL     OW32692   1.235   2.771   7.114  0.3298 -0.7132 -0.1606
 7020SOL    HW132693   1.198   2.816   7.191  0.1189 -0.4626 -0.4091
 7020SOL    HW232694   1.317   2.730   7.141  1.5651  1.4576 -0.5576
 7021SOL     OW32695   1.675   0.058  11.735 -0.4952  0.3402 -0.5800
 7021SOL    HW132696   1.765   0.051  11.705 -0.7258  0.1582 -1.2358
 7021SOL    HW232697   1.690   0.046  11.829 -0.3198 -1.4898 -0.8596
 7022SOL     OW32698   3.892   0.106   0.541  0.0960  0.0774  0.6108
 7022SOL    HW132699   3.949   0.179   0.565  1.5098 -0.1674 -2.0250
 7022SOL    HW232700   3.959   0.037   0.545  0.5184  0.7221  4.7382
 7023SOL     OW32701   0.672   1.666   5.334  0.3670  0.6381  0.1962
 7023SOL    HW132702   0.642   1.621   5.255 -2.6934 -0.3161  1.9162
 7023SOL    HW232703   0.595   1.675   5.390 -0.1460  0.3795 -0.4781
 7024SOL     OW32704   2.287   2.684   5.272  0.5132 -0.6073 -0.0502
 7024SOL    HW132705   2.245   2.673   5.358 -0.4790 -0.6759 -0.5446
 7024SOL    HW232706   2.318   2.774   5.282 -0.6394 -0.1697 -0.4568
 7025SOL     OW32707   3.247   2.189   7.699  0.3092 -0.4323  0.1089
 7025SOL    HW132708   3.340   2.166   7.707  0.9078  2.5664  1.5644
 7025SOL    HW232709   3.206   2.122   7.753 -0.3458  0.1215  0.2818
 7026SOL     OW32710   4.101   4.518   9.987  0.0222  0.4081  0.1473
 7026SOL    HW132711   4.104   4.611  10.005  0.2205  0.5580 -0.6502
 7026SOL    HW232712   4.009   4.512  10.014  0.3565 -0.2748  1.1206
 7027SOL     OW32713   3.419   2.456   2.866  0.3569 -0.2948  0.4009
 7027SOL    HW132714   3.408   2.486   2.956 -2.0727 -2.1344  0.7077
 7027SOL    HW232715   3.460   2.537   2.835  0.7674 -0.7820 -0.3049
 7028SOL     OW32716   3.480   0.275   3.400  0.3272 -0.2072 -0.0419
 7028SOL    HW132717   3.390   0.252   3.420  0.1174  0.0425 -0.6873
 7028SOL    HW232718   3.488   0.369   3.418  0.3850 -0.2083 -0.0607
 7029SOL     OW32719   1.661   3.383   0.693 -0.5431 -0.2870 -0.1289
 7029SOL    HW132720   1.569   3.397   0.673 -0.4479 -2.6381 -2.2488
 7029SOL    HW232721   1.683   3.305   0.642 -1.2963 -0.3215 -0.3995
 7030SOL     OW32722   1.021   0.996   6.193  0.0674 -1.0286 -0.1407
 7030SOL    HW132723   0.944   0.956   6.233 -0.7093  1.2797  0.6593
 7030SOL    HW232724   0.988   1.000   6.104 -0.3824  0.8297  0.1258
 7031SOL     OW32725   2.013   4.476   0.474 -0.2988 -0.2766 -0.3811
 7031SOL    HW132726   1.931   4.426   0.468 -1.9383  2.3601  0.2467
 7031SOL    HW232727   2.034   4.441   0.561 -0.9137 -0.9307 -0.4990
 7032SOL     OW32728   4.155   1.792   2.100 -0.3616 -0.1080 -0.0765
 7032SOL    HW132729   4.231   1.761   2.051 -0.4528  0.4463 -0.5670
 7032SOL    HW232730   4.189   1.810   2.188 -0.5398  3.6043 -0.7926
 7033SOL     OW32731   2.764   4.386   5.427 -0.1834 -0.6619 -0.8732
 7033SOL    HW132732   2.703   4.326   5.470  0.6563  0.3975  1.8543
 7033SOL    HW232733   2.831   4.391   5.495 -1.4980  4.3931  0.0164
 7034SOL     OW32734   0.555   1.817   9.474  0.4566  0.1977 -0.9453
 7034SOL    HW132735   0.600   1.734   9.460  0.8742  0.1812  0.4543
 7034SOL    HW232736   0.464   1.790   9.465  0.4038 -0.4579  1.4634
 7035SOL     OW32737   2.040   0.866   4.876 -0.9623 -0.2587  0.2197
 7035SOL    HW132738   2.117   0.831   4.923 -1.4640  0.5941  1.6521
 7035SOL    HW232739   2.070   0.874   4.786 -1.6036 -3.5046 -0.2782
 7036SOL     OW32740   1.692   2.879   9.151  0.0584  0.5884 -0.3664
 7036SOL    HW132741   1.639   2.814   9.105 -0.9388  0.6314  0.7051
 7036SOL    HW232742   1.667   2.948   9.090 -0.3633 -0.3005 -1.2044
 7037SOL     OW32743   4.701   3.644   6.114 -0.0916  0.1927 -0.2112
 7037SOL    HW132744   0.019   3.692   6.172 -0.8792  3.0416 -1.8101
 7037SOL    HW232745   4.730   3.554   6.130  0.2476  0.2122 -0.7124
 7038SOL     OW32746   1.886   4.067   1.498  0.2585 -0.2100 -0.9251
 7038SOL    HW132747   1.960   4.028   1.544 -0.3832 -1.1133 -0.6692
 7038SOL    HW232748   1.821   4.072   1.568  0.8969  3.5115 -0.5957
 7039SOL     OW32749   4.218   2.423   1.688  0.5398  0.1074  0.2794
 7039SOL    HW132750   4.239   2.362   1.760 -2.3445 -1.9283 -0.6038
 7039SOL    HW232751   4.228   2.356   1.620  2.5283 -0.6731  1.3142
 7040SOL     OW32752   2.904   0.368  11.217  0.8458  0.2344 -0.0630
 7040SOL    HW132753   2.904   0.460  11.190  0.9370  0.4252  0.5709
 7040SOL    HW232754   2.851   0.330  11.148 -0.7640 -1.2997  2.0061
 7041SOL     OW32755   3.708   3.242   3.496  0.1952  0.6607  0.5072
 7041SOL    HW132756   3.796   3.278   3.487 -0.2269  1.6170  0.1627
 7041SOL    HW232757   3.728   3.149   3.501 -1.7962  0.1642 -0.8069
 7042SOL     OW32758   3.979   3.762   2.513 -0.3107 -0.0652 -0.3184
 7042SOL    HW132759   3.912   3.695   2.503 -0.4295 -0.3566  2.5644
 7042SOL    HW232760   4.058   3.715   2.484  0.7461  0.8791  0.9998
 7043SOL     OW32761   1.699   0.214   5.300 -0.1964  0.0825 -0.0976
 7043SOL    HW132762   1.721   0.214   5.394  2.1688  4.2993 -0.6149
 7043SOL    HW232763   1.745   0.294   5.274 -0.6426  0.9869  1.8874
 7044SOL     OW32764   0.329   3.393   4.813 -0.4927 -0.1717 -0.0507
 7044SOL    HW132765   0.282   3.429   4.888 -1.3350 -0.5917 -0.3770
 7044SOL    HW232766   0.341   3.301   4.838 -2.3946  0.4889  3.2585
 7045SOL     OW32767   3.888   4.001   8.972  0.1281 -0.2855  0.5174
 7045SOL    HW132768   3.880   3.962   8.885  0.9727 -0.5317  0.5497
 7045SOL    HW232769   3.958   4.064   8.957 -0.0468 -0.5606 -1.4737
 7046SOL     OW32770   1.344   4.560   8.840 -0.0665 -0.1364 -0.0556
 7046SOL    HW132771   1.329   4.653   8.825 -0.2553 -0.3635 -1.2392
 7046SOL    HW232772   1.422   4.562   8.895  0.1201  0.7859 -0.3554
 7047SOL     OW32773   3.101   3.826  15.752  0.1225 -0.9057  0.0562
 7047SOL    HW132774   3.050   3.903  15.724  1.7415 -0.1458 -0.7657
 7047SOL    HW232775   3.155   3.877  15.811 -0.9103 -0.7289  0.8540
 7048SOL     OW32776   0.835   1.118   2.292  0.0517  0.2967  0.2914
 7048SOL    HW132777   0.809   1.084   2.206  0.0871 -0.3934  0.5525
 7048SOL    HW232778   0.788   1.201   2.285 -0.0040  0.1705 -0.8051
 7049SOL     OW32779   2.702   0.151   4.418  0.4568  0.4781  0.5708
 7049SOL    HW132780   2.644   0.181   4.488 -0.5711 -2.3885  0.9344
 7049SOL    HW232781   2.742   0.237   4.405  1.9207  0.0544  2.3979
 7050SOL     OW32782   3.225   3.380   6.625 -0.3069 -0.2547 -0.0350
 7050SOL    HW132783   3.228   3.375   6.529  0.4297 -1.0003  0.0320
 7050SOL    HW232784   3.186   3.294   6.643  2.3782 -1.3474  0.4386
 7051SOL     OW32785   2.768   0.847   1.242 -0.0223  0.1673 -0.0712
 7051SOL    HW132786   2.807   0.855   1.329 -0.2937  1.3266 -0.0453
 7051SOL    HW232787   2.764   0.939   1.214 -0.0527  0.1510 -0.1206
 7052SOL     OW32788   2.585   0.542   2.274 -0.2315  0.7997 -0.6627
 7052SOL    HW132789   2.521   0.607   2.245 -0.5347  0.1978 -1.3497
 7052SOL    HW232790   2.654   0.605   2.294 -3.0395  3.1025  1.8380
 7053SOL     OW32791   4.429   2.659   4.661  0.1643  0.0335  0.0591
 7053SOL    HW132792   4.380   2.741   4.664 -3.0896 -1.9774  1.1175
 7053SOL    HW232793   4.396   2.630   4.577 -0.8162  0.3712  0.3323
 7054SOL     OW32794   3.609   1.675   4.045 -0.2639  0.0927 -0.7979
 7054SOL    HW132795   3.626   1.768   4.025 -1.2095  0.2129 -1.0325
 7054SOL    HW232796   3.689   1.657   4.095 -0.1010 -0.2813 -1.1908
 7055SOL     OW32797   1.813   4.630   6.958  0.3917  0.2255  0.5091
 7055SOL    HW132798   1.880   4.618   7.025  1.6226  0.2090 -0.7533
 7055SOL    HW232799   1.869   4.672   6.894  0.5741  1.8916  1.7504
 7056SOL     OW32800   0.154   3.570   1.258 -0.0196  0.1971  0.2557
 7056SOL    HW132801   0.246   3.549   1.243 -0.7307 -2.0916 -0.8378
 7056SOL    HW232802   0.116   3.526   1.182  2.3036 -0.0508 -0.7724
 7057SOL     OW32803   4.371   0.760   4.871  0.0640 -0.4418 -0.0435
 7057SOL    HW132804   4.422   0.707   4.931 -0.5426 -2.0518 -0.9184
 7057SOL    HW232805   4.297   0.704   4.846  0.3927 -2.4393  3.4503
 7058SOL     OW32806   1.488   1.237  12.097  0.2748  0.6357 -0.2247
 7058SOL    HW132807   1.513   1.177  12.028 -1.7884  0.6101 -0.9544
 7058SOL    HW232808   1.561   1.298  12.089  0.7579 -0.2473 -2.3850
 7059SOL     OW32809   2.205   3.784   5.617 -0.4256  0.3839 -0.4382
 7059SOL    HW132810   2.192   3.697   5.578  1.4489 -0.0425 -0.0965
 7059SOL    HW232811   2.123   3.830   5.598 -0.8238 -0.4990 -0.8872
 7060SOL     OW32812   4.231   3.408   8.722  0.0144 -0.1761  0.6284
 7060SOL    HW132813   4.261   3.333   8.671 -1.4767  0.2063 -0.8079
 7060SOL    HW232814   4.306   3.458   8.753 -0.3524 -0.0294  1.2723
 7061SOL     OW32815   1.000   1.404   7.527  0.2357  0.3747 -0.1622
 7061SOL    HW132816   1.003   1.345   7.603 -0.1464  1.3587  0.6159
 7061SOL    HW232817   1.088   1.431   7.503  1.2649 -2.3766  0.4163
 7062SOL     OW32818   1.805   0.175   3.218  0.4890 -0.1701  0.6210
 7062SOL    HW132819   1.864   0.187   3.144  0.7931  0.7934  1.0195
 7062SOL    HW232820   1.868   0.175   3.289  0.9915  1.4900  0.1623
 7063SOL     OW32821   3.818   0.929   7.369  0.1168  0.3791  0.9668
 7063SOL    HW132822   3.794   0.892   7.284 -0.1239  2.1184  0.2797
 7063SOL    HW232823   3.747   0.902   7.426  0.3985 -1.5800  0.3810
 7064SOL     OW32824   1.145   3.144   8.085 -0.2194  0.5592  0.7057
 7064SOL    HW132825   1.149   3.240   8.079  1.5506  0.5302  1.7866
 7064SOL    HW232826   1.058   3.132   8.046 -0.0775 -2.4336  1.3479
 7065SOL     OW32827   0.323   1.920   3.993  0.2303 -0.0867 -0.0393
 7065SOL    HW132828   0.271   1.892   4.068  0.5264 -0.0593  0.1791
 7065SOL    HW232829   0.369   1.995   4.031  0.5480  0.6342 -1.8179
 7066SOL     OW32830   1.361   4.394   6.248  0.4584  0.0559  0.3581
 7066SOL    HW132831   1.441   4.445   6.262 -0.0705  0.8397  0.5228
 7066SOL    HW232832   1.354   4.368   6.340  1.8404  1.6994  0.9187
 7067SOL     OW32833   1.735   4.678  11.952 -0.1769  0.1170 -0.0499
 7067SOL    HW132834   1.799   4.611  11.928 -0.1580  0.5931 -1.2917
 7067SOL    HW232835   1.678   4.620  12.003  0.1163 -0.2423 -0.1297
 7068SOL     OW32836   1.345   2.356  10.217 -0.4994 -0.6525  0.4402
 7068SOL    HW132837   1.384   2.442  10.227 -1.1942 -0.2682 -0.0749
 7068SOL    HW232838   1.305   2.366  10.130 -0.1756 -1.2811  0.2188
 7069SOL     OW32839   3.483   0.781   5.365  0.1223  0.4132  0.5843
 7069SOL    HW132840   3.401   0.744   5.397  0.1064 -0.1243 -0.0958
 7069SOL    HW232841   3.483   0.876   5.379 -1.1801  0.8092 -2.2165
 7070SOL     OW32842   0.870   1.198   3.146  0.2763  0.2999 -0.5832
 7070SOL    HW132843   0.893   1.289   3.164  0.6302 -0.5503  3.2639
 7070SOL    HW232844   0.850   1.201   3.052 -0.3193  1.2975 -0.4180
 7071SOL     OW32845   3.020   3.039   6.252 -0.1221  0.3753  0.0361
 7071SOL    HW132846   2.953   3.080   6.197 -0.7491 -0.5901  0.0879
 7071SOL    HW232847   2.962   3.008   6.321 -0.5967 -2.2923 -1.5752
 7072SOL     OW32848   4.357   2.679   7.422 -0.6023  0.2237  0.0726
 7072SOL    HW132849   4.383   2.704   7.333  0.2781  3.4813  1.2322
 7072SOL    HW232850   4.356   2.770   7.451  0.0771  0.0533  0.6461
 7073SOL     OW32851   3.239   1.855   3.432  0.7383 -0.3147  0.3838
 7073SOL    HW132852   3.310   1.855   3.496  0.7827  0.7371  0.3278
 7073SOL    HW232853   3.265   1.923   3.370  0.2595 -1.1675 -0.7614
 7074SOL     OW32854   1.972   3.466  11.039  0.6099  0.3527 -0.4706
 7074SOL    HW132855   2.015   3.505  10.963  0.1428  1.4002 -0.1963
 7074SOL    HW232856   2.038   3.411  11.081  1.5548  1.3276 -0.6663
 7075SOL     OW32857   0.596   1.282   3.552 -0.0437  0.3436 -0.1780
 7075SOL    HW132858   0.540   1.298   3.628  0.7156 -0.7236  0.5977
 7075SOL    HW232859   0.592   1.188   3.538 -2.4466  0.4894 -0.4579
 7076SOL     OW32860   3.268   0.736   6.892  0.3030  0.3786 -0.3793
 7076SOL    HW132861   3.202   0.729   6.824 -0.8436  0.3874  0.7366
 7076SOL    HW232862   3.332   0.668   6.872  0.7575  1.6485 -3.1621
 7077SOL     OW32863   1.671   1.724  10.177 -0.3163 -0.2094  0.6689
 7077SOL    HW132864   1.676   1.816  10.202 -2.0027  0.7334 -2.4175
 7077SOL    HW232865   1.695   1.682  10.259 -3.2561 -0.0262  1.6214
 7078SOL     OW32866   1.935   2.362   6.437  0.5340 -0.2113 -0.3430
 7078SOL    HW132867   1.938   2.397   6.347  1.5717  1.4175  0.3164
 7078SOL    HW232868   1.989   2.283   6.428  0.5348 -0.2450 -0.0375
 7079SOL     OW32869   1.415   3.722   0.891 -0.2912  0.2959 -0.3916
 7079SOL    HW132870   1.325   3.735   0.861 -0.1369  1.5718 -0.2921
 7079SOL    HW232871   1.465   3.770   0.825  0.0931 -1.1908 -1.1983
 7080SOL     OW32872   4.667   4.715   4.606 -0.6490 -0.0014  0.5221
 7080SOL    HW132873   4.579   4.687   4.631 -1.1861  0.3542 -0.9576
 7080SOL    HW232874   4.718   4.659   4.665 -0.3661  0.8093  1.0433
 7081SOL     OW32875   0.846   0.095   1.591  0.8923 -0.4691 -0.2582
 7081SOL    HW132876   0.799   0.016   1.617  0.4552 -0.4299 -0.9341
 7081SOL    HW232877   0.894   0.114   1.672 -1.3076  0.5788  0.7948
 7082SOL     OW32878   0.813   0.133   5.136 -0.0604  0.2614  0.3054
 7082SOL    HW132879   0.794   0.097   5.049  0.4109 -0.3327  0.4447
 7082SOL    HW232880   0.808   0.054   5.190 -1.6433 -0.0842 -0.3547
 7083SOL     OW32881   3.409   0.001   0.444  0.3691  0.4606 -0.7591
 7083SOL    HW132882   3.371   0.047   0.369 -0.6702 -0.4178 -0.7768
 7083SOL    HW232883   3.497   0.039   0.446 -0.0553  1.3961  0.6505
 7084SOL     OW32884   4.427   4.675   9.845  0.0100  0.2145  0.4940
 7084SOL    HW132885   4.435   4.718   9.930 -0.5512  1.4550 -0.0835
 7084SOL    HW232886   4.431   4.582   9.866 -2.1712  0.2300  1.0042
 7085SOL     OW32887   0.360   3.044   2.260  0.0122  0.1082 -0.0015
 7085SOL    HW132888   0.419   3.041   2.336  1.5628  1.9725 -1.1466
 7085SOL    HW232889   0.389   2.961   2.223  0.8138 -1.1651  3.4144
 7086SOL     OW32890   2.688   4.251   5.023  0.3119 -0.2826  0.0842
 7086SOL    HW132891   2.686   4.347   5.034 -1.3860 -0.2080 -0.8003
 7086SOL    HW232892   2.650   4.234   4.937 -1.8086  1.2983  0.7123
 7087SOL     OW32893   0.414   1.762  15.702 -0.4243  0.3267 -0.5150
 7087SOL    HW132894   0.472   1.828  15.740 -1.7721  0.6592  0.9650
 7087SOL    HW232895   0.383   1.810  15.625 -1.9486  0.1795  0.0050
 7088SOL     OW32896   0.697   0.407  13.834  0.0829  0.4130  0.2623
 7088SOL    HW132897   0.651   0.459  13.899  1.4933  0.1476  1.4770
 7088SOL    HW232898   0.729   0.329  13.878  0.4574  0.5466  0.2327
 7089SOL     OW32899   1.875   0.730  10.580 -0.3821 -0.2118 -0.0765
 7089SOL    HW132900   1.961   0.700  10.608 -0.1739  1.8812  1.4913
 7089SOL    HW232901   1.890   0.819  10.549 -0.7454 -0.5288 -1.1862
 7090SOL     OW32902   3.131   3.196  16.413  0.5910 -0.0723 -0.3687
 7090SOL    HW132903   3.045   3.166  16.383  1.3342  0.0651 -2.6640
 7090SOL    HW232904   3.151   3.122  16.471 -2.4847 -0.1796  0.5655
 7091SOL     OW32905   1.459   2.432  16.020 -0.7753 -0.2190  0.6333
 7091SOL    HW132906   1.430   2.523  16.029 -0.5124 -0.2939  2.2272
 7091SOL    HW232907   1.455   2.420  15.925  1.0640 -0.1575  0.5511
 7092SOL     OW32908   3.908   4.368   9.322  0.3067 -0.2248 -0.4046
 7092SOL    HW132909   3.966   4.327   9.386  0.2296 -0.6868 -0.6358
 7092SOL    HW232910   3.969   4.374   9.250 -2.0930 -0.9194 -2.4991
 7093SOL     OW32911   4.288   4.025   4.185 -0.2539 -0.4999 -0.2060
 7093SOL    HW132912   4.277   4.085   4.111 -0.4190  2.7471  2.4541
 7093SOL    HW232913   4.320   3.944   4.144  0.8842  0.7559 -1.8261
 7094SOL     OW32914   0.705   1.748   4.867  0.2806  0.0020  0.2229
 7094SOL    HW132915   0.715   1.740   4.962 -2.2060  0.6650  0.5477
 7094SOL    HW232916   0.675   1.660   4.847 -1.4138  0.6750 -0.1474
 7095SOL     OW32917   0.816   0.955   4.219 -0.4834 -0.0438 -0.3489
 7095SOL    HW132918   0.799   0.960   4.125  1.8505 -0.2741 -0.7809
 7095SOL    HW232919   0.911   0.946   4.223 -0.5733 -0.4597  0.9139
 7096SOL     OW32920   4.186   2.007   0.166  0.0440  0.2364  0.3734
 7096SOL    HW132921   4.116   1.942   0.165  0.1159  0.1434  1.2650
 7096SOL    HW232922   4.229   1.987   0.083 -0.7752 -3.7111  0.9178
 7097SOL     OW32923   0.728   3.042   6.483  0.0072 -0.4801  0.0112
 7097SOL    HW132924   0.714   3.130   6.516  2.0631 -0.9582  2.1663
 7097SOL    HW232925   0.732   2.985   6.560  1.2288  0.1981  0.4496
 7098SOL     OW32926   4.076   4.062   3.092  0.0549  0.5588  0.0667
 7098SOL    HW132927   4.034   4.126   3.035  1.5196  0.4502 -1.1333
 7098SOL    HW232928   4.092   4.120   3.167 -2.7929  1.2304  0.1510
 7099SOL     OW32929   4.107   0.889   8.439  0.0685  0.1729 -0.3247
 7099SOL    HW132930   4.023   0.922   8.406 -0.0220 -0.1502 -0.4217
 7099SOL    HW232931   4.084   0.852   8.525  0.9036 -0.7049 -0.4824
 7100SOL     OW32932   2.336   0.922   7.945  0.1207  0.0220  0.0340
 7100SOL    HW132933   2.286   1.002   7.960 -0.3232 -0.1439 -0.5720
 7100SOL    HW232934   2.326   0.859   8.016 -1.4642  0.3591  0.1126
 7101SOL     OW32935   3.285   1.765  17.621  0.2935 -0.1597 -0.8235
 7101SOL    HW132936   3.299   1.836  17.684 -1.6728  0.0567 -0.6449
 7101SOL    HW232937   3.227   1.817  17.566 -2.0112 -0.5648  1.2050
 7102SOL     OW32938   1.697   1.337  11.717 -0.2110 -0.2947 -0.0409
 7102SOL    HW132939   1.705   1.317  11.811  1.6332 -0.6342 -0.2717
 7102SOL    HW232940   1.761   1.273  11.688 -1.7328 -1.3812 -0.9730
 7103SOL     OW32941   0.888   4.488   3.898  0.4133  0.0693 -0.7200
 7103SOL    HW132942   0.797   4.480   3.925  1.0354  0.2628  1.4306
 7103SOL    HW232943   0.895   4.578   3.867 -1.7001  1.0812  1.8861
 7104SOL     OW32944   0.047   1.228  13.288 -0.2139 -0.3694  0.3419
 7104SOL    HW132945   0.048   1.165  13.361 -0.0425  0.4352  1.0326
 7104SOL    HW232946   4.721   1.282  13.329 -0.5681 -1.0794  0.7003
 7105SOL     OW32947   3.764   0.561   5.934 -0.4512  0.1980  0.0528
 7105SOL    HW132948   3.767   0.613   5.854 -1.4012  0.4248  0.1679
 7105SOL    HW232949   3.672   0.533   5.937  0.1899 -2.0721 -1.3983
 7106SOL     OW32950   1.414   0.503   5.756  0.0212 -0.1384  0.1788
 7106SOL    HW132951   1.479   0.553   5.806 -1.3684  0.4420  1.3984
 7106SOL    HW232952   1.333   0.535   5.796  0.5689  1.1890  0.2182
 7107SOL     OW32953   3.066   0.738   0.148 -0.6534  0.1808  0.0686
 7107SOL    HW132954   3.153   0.733   0.107 -1.0372 -2.5070 -0.4509
 7107SOL    HW232955   3.039   0.827   0.125 -2.0725 -0.0352  0.9069
 7108SOL     OW32956   0.899   1.871  10.252  0.7895  0.1184  0.8639
 7108SOL    HW132957   0.963   1.862  10.181  0.0270  0.7977  0.0943
 7108SOL    HW232958   0.945   1.919  10.322  0.6391  0.5647  0.6549
 7109SOL     OW32959   3.122   2.604   2.031  0.4352 -0.1221 -0.2157
 7109SOL    HW132960   3.074   2.686   2.015  1.5599  0.1615 -2.1291
 7109SOL    HW232961   3.160   2.597   1.944  2.4533 -1.8180  0.8079
 7110SOL     OW32962   4.590   4.090   8.746  0.1996 -0.3361 -0.6270
 7110SOL    HW132963   4.502   4.109   8.712 -0.3678 -1.1731  0.3820
 7110SOL    HW232964   4.616   4.146   8.819 -0.3762 -2.1357  0.9432
 7111SOL     OW32965   0.080   0.626   7.850  0.7961 -0.1485 -0.5232
 7111SOL    HW132966   0.102   0.693   7.914 -0.3810  0.6855 -1.0034
 7111SOL    HW232967   0.155   0.567   7.850 -1.1515 -2.6309  0.2972
 7112SOL     OW32968   4.137   0.926   8.809 -0.3401  0.2473  0.6402
 7112SOL    HW132969   4.095   1.008   8.780  0.2123 -0.1217 -1.1739
 7112SOL    HW232970   4.075   0.865   8.768  0.5059  1.4677 -2.4999
 7113SOL     OW32971   4.098   0.662   3.246 -0.0408  0.0055 -0.2769
 7113SOL    HW132972   4.143   0.672   3.329  0.0087  1.2959 -0.4536
 7113SOL    HW232973   4.147   0.585   3.216  0.4588 -0.8242  2.6780
 7114SOL     OW32974   3.515   0.616  15.303 -0.0019  0.2683  0.0986
 7114SOL    HW132975   3.556   0.700  15.279 -1.2813  1.0706  0.7122
 7114SOL    HW232976   3.502   0.568  15.221 -1.4868  0.3544  0.2985
 7115SOL     OW32977   2.438   4.509   2.304 -0.0610 -0.1895 -0.3923
 7115SOL    HW132978   2.423   4.588   2.253  0.2690 -0.3241 -0.6925
 7115SOL    HW232979   2.454   4.549   2.390  2.0574  1.2562 -1.4870
 7116SOL     OW32980   3.038   0.398   4.511 -0.0984 -0.8776  0.8040
 7116SOL    HW132981   3.116   0.452   4.496 -0.2330 -1.4601 -1.8646
 7116SOL    HW232982   2.974   0.455   4.468  1.3002 -0.5841 -0.8897
 7117SOL     OW32983   4.447   0.224   5.425  0.4930  0.1125 -0.6385
 7117SOL    HW132984   4.434   0.265   5.510 -0.8696 -0.1287 -0.7167
 7117SOL    HW232985   4.477   0.135   5.441  0.6393  0.0715 -1.1407
 7118SOL     OW32986   0.264   2.568   6.519 -0.4204  0.5295  0.5438
 7118SOL    HW132987   0.183   2.600   6.560 -0.2172 -0.1234  1.4600
 7118SOL    HW232988   0.315   2.649   6.518  1.4985 -0.6814  0.4949
 7119SOL     OW32989   0.701   0.067  17.633 -0.4029 -0.4154  0.2253
 7119SOL    HW132990   0.730   0.149  17.593 -0.3072 -0.0829  0.9827
 7119SOL    HW232991   0.778   0.011  17.643  0.1708  0.2674 -0.3874
 7120SOL     OW32992   1.405   2.822  16.712  0.5514  0.3962 -0.4956
 7120SOL    HW132993   1.489   2.812  16.668  0.2117  0.7127 -1.2171
 7120SOL    HW232994   1.401   2.915  16.732 -0.9333 -0.4831  3.2295
 7121SOL     OW32995   2.964   4.210  16.142  0.1780 -0.5674 -0.0316
 7121SOL    HW132996   2.911   4.151  16.196  2.6210 -1.5615  1.2487
 7121SOL    HW232997   3.031   4.227  16.208  0.2080 -1.6627  0.2216
 7122SOL     OW32998   4.337   1.454   4.391  0.3502 -0.2458 -0.3645
 7122SOL    HW132999   4.417   1.441   4.442  0.9140  1.7950 -0.7027
 7122SOL    HW233000   4.360   1.405   4.312  0.6272  0.5381 -0.7685
 7123SOL     OW33001   4.549   2.279  14.807 -0.1184 -0.8119  0.0503
 7123SOL    HW133002   4.619   2.266  14.744  0.5238  1.1849  0.3468
 7123SOL    HW233003   4.565   2.367  14.842 -1.8567 -1.0923  1.5957
 7124SOL     OW33004   2.510   4.079   0.840 -0.3906 -0.7981  0.1321
 7124SOL    HW133005   2.522   4.007   0.779  0.9828 -1.4256  1.1513
 7124SOL    HW233006   2.471   4.148   0.786  1.8896 -0.4702 -1.0535
 7125SOL     OW33007   0.732   2.342   2.666  0.1055 -0.1377  0.7107
 7125SOL    HW133008   0.810   2.292   2.641 -0.2976  0.7699 -2.3142
 7125SOL    HW233009   0.668   2.271   2.674  1.9860 -2.0434 -1.3076
 7126SOL     OW33010   3.797   0.863  16.076  0.4808 -0.1316 -0.1293
 7126SOL    HW133011   3.842   0.816  16.147 -1.1809  1.1185  1.7491
 7126SOL    HW233012   3.768   0.783  16.032 -1.5012 -0.3708  1.6046
 7127SOL     OW33013   2.843   1.548   4.888 -0.2628 -0.0705 -0.0201
 7127SOL    HW133014   2.924   1.509   4.920 -0.0894 -0.1762 -0.5917
 7127SOL    HW233015   2.828   1.493   4.811 -1.9637  2.4806 -1.5085
 7128SOL     OW33016   1.949   0.730   6.116 -0.3570  0.0869 -0.1165
 7128SOL    HW133017   1.901   0.810   6.140  1.0988  1.3599 -1.4157
 7128SOL    HW233018   1.941   0.744   6.021  0.0173  0.1133 -0.1436
 7129SOL     OW33019   3.539   1.954  11.295 -0.2250  0.6805 -0.6650
 7129SOL    HW133020   3.633   1.965  11.309 -0.2353  0.7089 -0.6184
 7129SOL    HW233021   3.508   1.971  11.384 -1.3115  2.0125 -1.2967
 7130SOL     OW33022   4.149   1.621  13.653  0.6984 -0.1454  0.3642
 7130SOL    HW133023   4.177   1.540  13.609  0.0361 -0.8303  1.1874
 7130SOL    HW233024   4.220   1.618  13.717  0.7697  1.6918  0.3659
 7131SOL     OW33025   1.246   0.033  16.374 -0.4920 -0.1365  0.3736
 7131SOL    HW133026   1.199   0.077  16.444  1.3902  2.1667  0.1783
 7131SOL    HW233027   1.287   4.701  16.421 -0.6144 -0.7031 -0.4019
 7132SOL     OW33028   0.896   4.712  12.134 -0.0456 -0.0626 -0.0935
 7132SOL    HW133029   0.882   0.065  12.137 -0.9991 -0.2263  0.7476
 7132SOL    HW233030   0.961   4.692  12.201  0.5663  0.9640 -0.3881
 7133SOL     OW33031   3.775   0.999  10.648  0.7348  0.4912  0.0898
 7133SOL    HW133032   3.809   0.913  10.670 -1.1329 -0.3074 -0.1318
 7133SOL    HW233033   3.784   1.008  10.553  0.1522 -0.4249 -0.0589
 7134SOL     OW33034   1.950   3.656   9.158  0.0030 -0.0768 -0.1817
 7134SOL    HW133035   1.902   3.622   9.233 -2.1023 -0.0681 -1.5272
 7134SOL    HW233036   1.918   3.594   9.092  0.7077 -0.7939  0.1538
 7135SOL     OW33037   3.957   2.767  12.470 -0.0552 -0.2051  0.1550
 7135SOL    HW133038   4.017   2.700  12.436 -2.4764 -2.7804  1.0210
 7135SOL    HW233039   4.022   2.837  12.483 -0.0515 -0.1801  0.0045
 7136SOL     OW33040   3.762   2.592   3.967 -0.3172 -0.1550 -0.3710
 7136SOL    HW133041   3.829   2.660   3.974  0.5935 -0.9822 -1.1125
 7136SOL    HW233042   3.701   2.632   3.904 -0.0738  1.5774  0.5040
 7137SOL     OW33043   3.797   0.640   3.257 -0.0161  0.0388  0.1870
 7137SOL    HW133044   3.888   0.658   3.234  0.1197 -1.3621 -0.3673
 7137SOL    HW233045   3.789   0.545   3.263 -0.0074  0.0536  0.4297
 7138SOL     OW33046   0.378   1.877   8.650  0.0994  0.7483  0.2909
 7138SOL    HW133047   0.365   1.825   8.730  0.0793 -0.5177 -0.5386
 7138SOL    HW233048   0.464   1.847   8.620 -1.6635 -2.6390 -1.4117
 7139SOL     OW33049   0.640   2.299   0.970  0.0418 -0.7654 -0.1971
 7139SOL    HW133050   0.689   2.322   0.891 -1.6557 -0.6118 -1.2069
 7139SOL    HW233051   0.557   2.272   0.931 -0.1977  0.6174 -0.6684
 7140SOL     OW33052   2.945   1.615   8.650  0.4339 -0.0902  0.2304
 7140SOL    HW133053   2.981   1.594   8.564  0.2398  0.2482  0.0704
 7140SOL    HW233054   2.964   1.536   8.701  0.2446 -0.2277  0.0846
 7141SOL     OW33055   3.090   0.529  17.128 -0.3741 -0.3115  0.4925
 7141SOL    HW133056   3.058   0.470  17.060 -1.3277  0.8667 -0.0825
 7141SOL    HW233057   3.006   0.551  17.168 -1.3449 -2.0797 -0.6142
 7142SOL     OW33058   4.546   4.413   4.263  0.2997  0.0797  0.1129
 7142SOL    HW133059   4.508   4.434   4.178 -1.2322  0.4331  0.8877
 7142SOL    HW233060   4.470   4.385   4.314  0.7207  0.0589  0.7394
 7143SOL     OW33061   4.177   3.906  14.691  0.4917 -0.0149  0.1441
 7143SOL    HW133062   4.153   3.895  14.599  0.0615 -0.3952  0.3018
 7143SOL    HW233063   4.269   3.932  14.690  0.4571  0.0131 -2.4638
 7144SOL     OW33064   0.123   3.517   0.074 -0.0589 -0.3710 -0.3882
 7144SOL    HW133065   0.211   3.490   0.046  0.4327  1.0039 -0.1811
 7144SOL    HW233066   0.121   3.613   0.075 -0.4491 -0.3830 -0.2150
 7145SOL     OW33067   0.822   2.528   3.547  0.1007  0.0342 -0.5676
 7145SOL    HW133068   0.859   2.570   3.624  0.1153 -1.8313  0.4621
 7145SOL    HW233069   0.831   2.438   3.579 -1.3069 -0.2040 -0.8095
 7146SOL     OW33070   1.961   2.945  13.216  0.1868 -0.4944  0.0925
 7146SOL    HW133071   1.991   3.018  13.162  1.1724 -0.6373  0.4650
 7146SOL    HW233072   1.882   2.919  13.168 -0.1394  1.0212 -0.1959
 7147SOL     OW33073   1.870   4.274   8.942  0.1916 -0.3850  0.1654
 7147SOL    HW133074   1.840   4.247   8.855 -0.1982  2.1163 -0.4729
 7147SOL    HW233075   1.876   4.194   8.995 -0.0738 -0.0951  0.6269
 7148SOL     OW33076   2.974   0.527   7.011 -0.4716 -0.1876 -0.0273
 7148SOL    HW133077   2.934   0.445   6.984  0.3682 -1.1026  1.5090
 7148SOL    HW233078   3.065   0.500   7.025 -0.6399 -1.2972 -1.1353
 7149SOL     OW33079   1.787   3.417  10.288 -0.1577  0.0512 -0.3612
 7149SOL    HW133080   1.757   3.414  10.197 -2.0345  1.3696  0.2074
 7149SOL    HW233081   1.710   3.381  10.332  1.5402 -0.8057  1.8874
 7150SOL     OW33082   1.358   0.907   5.866 -0.4546  0.0020  0.2352
 7150SOL    HW133083   1.312   0.865   5.938 -1.0596 -0.5116 -0.4486
 7150SOL    HW233084   1.278   0.937   5.822  0.9002  2.0709 -0.8414
 7151SOL     OW33085   1.757   3.783  17.723  0.0212 -0.1067  0.0931
 7151SOL    HW133086   1.720   3.851  17.667 -1.2966 -2.3718 -1.7940
 7151SOL    HW233087   1.714   3.810   0.041 -1.3313  0.0025 -0.6559
 7152SOL     OW33088   1.040   4.286   4.259  0.3536  0.6197 -0.2630
 7152SOL    HW133089   1.117   4.230   4.259 -1.4239 -1.8047 -1.8986
 7152SOL    HW233090   1.066   4.376   4.239 -0.1179  1.3237  2.3376
 7153SOL     OW33091   3.142   2.927   8.925 -0.1693 -0.1071  0.0723
 7153SOL    HW133092   3.070   2.986   8.906  0.2088  0.2273 -0.3380
 7153SOL    HW233093   3.218   2.982   8.904  1.4459 -1.9118  1.1314
 7154SOL     OW33094   3.393   2.820   9.293  0.3275 -0.6029 -0.6356
 7154SOL    HW133095   3.333   2.805   9.219  0.1544  2.9371 -1.2037
 7154SOL    HW233096   3.473   2.842   9.245  0.2887  3.4031  1.1413
 7155SOL     OW33097   0.861   0.030   8.797  0.2934  0.0970  0.2329
 7155SOL    HW133098   0.922   0.103   8.793 -0.5953  0.9536  2.2134
 7155SOL    HW233099   0.925   4.701   8.789  0.9645  0.8621 -0.9868
 7156SOL     OW33100   3.534   1.176  11.314  0.6816  0.4979 -0.1254
 7156SOL    HW133101   3.591   1.129  11.253  2.3044 -0.5763  2.2187
 7156SOL    HW233102   3.598   1.164  11.384 -0.7181 -1.6273  0.8105
 7157SOL     OW33103   1.164   0.420   1.741 -0.5979  0.7048 -0.1450
 7157SOL    HW133104   1.138   0.512   1.730  1.5293  1.1385 -1.4039
 7157SOL    HW233105   1.231   0.415   1.809 -1.3671  1.3347  0.6676
 7158SOL     OW33106   3.193   0.544   9.402  0.1940  0.2227 -0.1764
 7158SOL    HW133107   3.253   0.481   9.442  0.1636  0.3710  0.1084
 7158SOL    HW233108   3.170   0.593   9.481  3.2166 -1.5747  1.8452
 7159SOL     OW33109   3.911   1.007   3.988  0.5602  0.3528 -0.3018
 7159SOL    HW133110   3.823   1.040   3.970  0.5265  0.3442 -0.1546
 7159SOL    HW233111   3.923   0.959   3.906  1.2187  0.4276 -0.2455
 7160SOL     OW33112   3.408   1.589   6.916 -0.0369 -0.3497  0.2267
 7160SOL    HW133113   3.437   1.501   6.891  0.1138 -0.7534  1.8318
 7160SOL    HW233114   3.476   1.646   6.879  0.2836 -1.2838 -0.6519
 7161SOL     OW33115   2.938   3.425   3.251 -0.6000  0.0531 -0.3412
 7161SOL    HW133116   2.867   3.393   3.307 -0.0937  0.6014  0.6198
 7161SOL    HW233117   2.957   3.342   3.207  1.1196 -0.3368  1.0918
 7162SOL     OW33118   1.151   2.097   1.913  0.2725 -0.0872  0.7971
 7162SOL    HW133119   1.207   2.097   1.990  2.2330  1.2717 -0.6317
 7162SOL    HW233120   1.065   2.121   1.950 -0.0299 -0.3465  0.2622
 7163SOL     OW33121   0.406   2.489   5.668 -0.1638  0.6710 -0.3411
 7163SOL    HW133122   0.422   2.524   5.580 -0.9359  0.9658 -0.3634
 7163SOL    HW233123   0.486   2.514   5.714  0.4598 -2.6600  0.3308
 7164SOL     OW33124   0.912   2.129   2.284 -0.0514 -0.0755  0.4687
 7164SOL    HW133125   0.979   2.187   2.249 -2.0983  2.1623  0.2828
 7164SOL    HW233126   0.876   2.092   2.203  0.5284  1.3751 -0.4487
 7165SOL     OW33127   0.621   0.900   6.567  0.0944 -0.1204 -0.0778
 7165SOL    HW133128   0.526   0.889   6.570  0.1224 -0.2148  0.5621
 7165SOL    HW233129   0.643   0.897   6.660  2.4431  1.3904 -0.5840
 7166SOL     OW33130   2.210   0.189   4.641  0.0642 -0.3043 -0.0384
 7166SOL    HW133131   2.197   0.095   4.625  1.1964 -0.6241  0.8738
 7166SOL    HW233132   2.128   0.235   4.625  0.2960  0.9244  2.3628
 7167SOL     OW33133   4.610   0.030  16.059  0.4737  0.0750  0.3473
 7167SOL    HW133134   4.638   4.686  16.026  0.5849  0.6744 -1.1376
 7167SOL    HW233135   4.700   0.054  16.079  1.0029 -0.6157 -1.1568
 7168SOL     OW33136   2.667   0.979   0.778 -0.3275  0.6767  0.4543
 7168SOL    HW133137   2.692   0.967   0.686 -0.6354 -0.8711  0.5600
 7168SOL    HW233138   2.753   0.971   0.819 -0.9947 -0.7250  1.6054
 7169SOL     OW33139   3.730   4.735  16.253  0.3368 -0.3421 -0.2330
 7169SOL    HW133140   3.780   4.655  16.240  3.0944  1.5715 -1.5885
 7169SOL    HW233141   3.796   0.063  16.262 -1.4223  1.3409 -0.3626
 7170SOL     OW33142   4.355   1.768   5.798 -0.1304 -0.3284 -0.4076
 7170SOL    HW133143   4.374   1.678   5.822  1.1727  0.5762  1.9771
 7170SOL    HW233144   4.261   1.766   5.820  0.3674 -0.2471  1.6901
 7171SOL     OW33145   0.466   4.459   1.638 -0.3313  0.3227  0.6430
 7171SOL    HW133146   0.509   4.542   1.658 -0.9829  0.9348 -0.5288
 7171SOL    HW233147   0.515   4.429   1.561  0.6892  3.5688  0.0332
 7172SOL     OW33148   4.435   3.293   2.813 -0.0439 -0.8823 -0.2641
 7172SOL    HW133149   4.409   3.375   2.771  0.2317 -0.7667 -0.2099
 7172SOL    HW233150   4.488   3.256   2.743  2.6602  1.7109  0.3982
 7173SOL     OW33151   1.560   2.591  10.452  0.0490 -0.4838  0.2328
 7173SOL    HW133152   1.558   2.556  10.541  2.3630 -0.6188  0.2329
 7173SOL    HW233153   1.643   2.547  10.436 -0.3406 -0.6438 -1.3263
 7174SOL     OW33154   1.670   2.183   6.725 -0.2477 -0.7273  0.1165
 7174SOL    HW133155   1.739   2.204   6.787  2.3503 -0.3463 -2.9085
 7174SOL    HW233156   1.694   2.250   6.660  0.0547 -0.2700  0.7035
 7175SOL     OW33157   3.085   2.151   6.714 -0.2304  0.1694  0.2021
 7175SOL    HW133158   3.053   2.176   6.800  2.1850 -0.7123  1.3467
 7175SOL    HW233159   3.117   2.065   6.740 -1.0796 -0.0448  0.5308
 7176SOL     OW33160   1.064   0.385   3.284 -0.3621  0.4732  0.0112
 7176SOL    HW133161   1.142   0.438   3.275 -0.8310  0.8656 -1.6561
 7176SOL    HW233162   0.998   0.453   3.291  0.2877  0.9450  1.6491
 7177SOL     OW33163   0.165   2.137   2.284  0.4815 -0.1748 -0.4695
 7177SOL    HW133164   0.187   2.044   2.291 -0.1382 -0.2342  0.6288
 7177SOL    HW233165   0.099   2.129   2.215  0.9590 -2.5490 -0.6547
 7178SOL     OW33166   1.064   1.925   3.719 -0.3532  0.1040  0.2686
 7178SOL    HW133167   1.137   1.981   3.693  0.4609 -0.9220  0.3674
 7178SOL    HW233168   1.090   1.836   3.696  0.1400 -0.0131  1.2612
 7179SOL     OW33169   3.958   2.071   8.712  0.3494  0.0041  0.1832
 7179SOL    HW133170   3.992   1.983   8.695  0.3531  0.1884 -0.7342
 7179SOL    HW233171   3.888   2.086   8.649  0.6927  1.8050  0.2526
 7180SOL     OW33172   4.022   1.425   6.774 -0.2541  0.5189 -0.0799
 7180SOL    HW133173   4.090   1.452   6.712  1.4565 -0.1415  1.5145
 7180SOL    HW233174   4.023   1.329   6.770  0.7827  0.5333 -0.3687
 7181SOL     OW33175   4.467   0.698   6.434  0.5522 -0.0478  0.0662
 7181SOL    HW133176   4.497   0.679   6.345  0.7596 -0.0130  0.1297
 7181SOL    HW233177   4.498   0.616   6.472 -0.5750 -1.5686 -2.2999
 7182SOL     OW33178   3.771   1.348  16.725  0.2661  0.0200 -0.0041
 7182SOL    HW133179   3.845   1.408  16.715 -1.4184  1.6508 -2.6669
 7182SOL    HW233180   3.813   1.275  16.680  0.3841 -0.5704  1.0605
 7183SOL     OW33181   3.097   0.871   0.464 -0.5888 -0.0937 -0.6463
 7183SOL    HW133182   3.124   0.900   0.377 -0.2266  2.3453  0.2817
 7183SOL    HW233183   3.148   0.791   0.480 -0.9172  0.2247  2.0197
 7184SOL     OW33184   2.454   1.616   2.047  0.3462 -0.4192  0.4937
 7184SOL    HW133185   2.396   1.547   2.013  0.2509 -0.2329  0.2763
 7184SOL    HW233186   2.480   1.642   1.958  2.0299 -2.2127  0.4703
 7185SOL     OW33187   2.248   2.791   6.282  0.6018 -0.3245 -0.1726
 7185SOL    HW133188   2.236   2.740   6.202 -1.2385 -0.0499 -0.0836
 7185SOL    HW233189   2.175   2.764   6.338 -0.5462  0.5885 -1.2260
 7186SOL     OW33190   1.224   0.326   7.765 -0.1691  0.4223 -0.3851
 7186SOL    HW133191   1.205   0.237   7.797  0.7961  1.0199  1.8215
 7186SOL    HW233192   1.307   0.310   7.721 -0.4717  0.3622 -0.9413
 7187SOL     OW33193   3.452   2.408   2.017 -0.6453 -0.0062  0.4384
 7187SOL    HW133194   3.372   2.445   2.055 -0.5962 -0.3633  0.8948
 7187SOL    HW233195   3.431   2.330   1.966  0.9390  0.0647 -0.3335
 7188SOL     OW33196   2.435   2.213  16.059 -0.5620 -0.0308  0.3412
 7188SOL    HW133197   2.369   2.227  16.127  1.9061  1.5790  2.4159
 7188SOL    HW233198   2.448   2.298  16.018 -2.2630  0.6521  1.2080
 7189SOL     OW33199   0.988   4.000   4.844  0.6583  0.0668 -0.5713
 7189SOL    HW133200   0.994   3.933   4.776  0.5922  0.0968 -0.6062
 7189SOL    HW233201   1.026   4.076   4.801 -2.1392  1.8384  0.0610
 7190SOL     OW33202   0.946   0.259   7.731 -0.0649 -0.0577 -0.0036
 7190SOL    HW133203   1.023   0.305   7.764  0.1517 -1.8032  1.9015
 7190SOL    HW233204   0.972   0.250   7.639 -1.7705 -0.5205 -0.4429
 7191SOL     OW33205   3.439   2.087   8.517  0.5857 -0.3418 -0.3376
 7191SOL    HW133206   3.470   2.166   8.561  0.4778 -0.2780 -0.3760
 7191SOL    HW233207   3.346   2.081   8.542  1.5255 -1.5327  2.7966
 7192SOL     OW33208   2.395   1.565   4.394 -0.5328 -0.0312 -0.0817
 7192SOL    HW133209   2.389   1.631   4.325 -3.5569 -0.6037 -0.3747
 7192SOL    HW233210   2.374   1.618   4.470  3.8392 -2.1447  2.5592
 7193SOL     OW33211   3.939   1.720  13.784 -1.2347  0.4199 -0.9260
 7193SOL    HW133212   4.014   1.685  13.736 -0.3114  1.4444 -0.2190
 7193SOL    HW233213   3.892   1.766  13.715  1.0525  2.9656 -0.7891
 7194SOL     OW33214   2.961   3.575   8.837  0.2598  0.5768  0.1396
 7194SOL    HW133215   2.954   3.490   8.881 -2.3577 -0.9164 -3.0805
 7194SOL    HW233216   3.026   3.616   8.893 -0.1535  2.2080 -0.5650
 7195SOL     OW33217   0.432   3.594   6.067 -0.6375  0.2540  0.1637
 7195SOL    HW133218   0.362   3.637   6.018 -2.0213 -2.3239 -0.1395
 7195SOL    HW233219   0.500   3.660   6.077  1.3371 -1.9702  1.0912
 7196SOL     OW33220   3.312   3.906  17.642  0.0468 -0.5263  0.3570
 7196SOL    HW133221   3.370   3.979  17.664 -0.3394 -0.4143  1.0059
 7196SOL    HW233222   3.248   3.902  17.713 -0.6677  0.8012 -0.2135
 7197SOL     OW33223   0.005   1.261   8.110 -0.3069 -0.1299  0.0101
 7197SOL    HW133224   4.674   1.313   8.078 -0.0543  0.9765  1.2214
 7197SOL    HW233225   0.085   1.294   8.069 -0.8882  1.4002  0.1078
 7198SOL     OW33226   1.258   2.655  13.694  0.0339 -0.6042  0.0756
 7198SOL    HW133227   1.335   2.696  13.655 -1.4608 -0.2165 -2.4298
 7198SOL    HW233228   1.261   2.574  13.643  2.6635 -1.5903  1.7955
 7199SOL     OW33229   2.125   0.464   3.323  0.3251  0.2212 -0.2421
 7199SOL    HW133230   2.104   0.446   3.232 -0.8881  0.7130 -0.0608
 7199SOL    HW233231   2.061   0.532   3.343 -0.5008  0.0889 -2.4892
 7200SOL     OW33232   2.105   0.361   5.754 -0.0943  0.1119 -0.1063
 7200SOL    HW133233   2.183   0.402   5.792 -0.4722  0.1674  0.6126
 7200SOL    HW233234   2.112   0.386   5.662  1.6613 -1.3138 -0.3762
 7201SOL     OW33235   2.110   4.418   1.030 -0.0468 -0.4070  0.3583
 7201SOL    HW133236   2.067   4.464   1.103  1.0517  1.7033 -0.3335
 7201SOL    HW233237   2.189   4.381   1.070 -0.3469 -0.4783  0.8879
 7202SOL     OW33238   3.359   2.548   3.125 -0.4502 -0.3229 -0.0646
 7202SOL    HW133239   3.438   2.509   3.163  1.2243  2.8248 -0.3981
 7202SOL    HW233240   3.327   2.608   3.192  0.3796  2.2172 -1.9399
 7203SOL     OW33241   1.793   1.804  16.052 -0.1478 -0.1652  0.1234
 7203SOL    HW133242   1.720   1.805  15.991 -1.5232  2.0454  1.8205
 7203SOL    HW233243   1.798   1.710  16.070 -0.8888 -0.6408 -2.2093
 7204SOL     OW33244   2.169   4.337   3.159  0.2785  0.2721  0.0475
 7204SOL    HW133245   2.144   4.296   3.076  0.5592  1.1321 -0.4618
 7204SOL    HW233246   2.232   4.277   3.199 -0.9634 -1.7450 -1.0284
 7205SOL     OW33247   2.703   2.006  16.250 -0.5705 -0.0291  0.2043
 7205SOL    HW133248   2.656   2.062  16.311 -0.3849  0.7747 -0.3865
 7205SOL    HW233249   2.651   2.020  16.171 -2.7358 -0.3304  1.5935
 7206SOL     OW33250   2.149   0.631   8.533  0.0415 -0.3331  0.0821
 7206SOL    HW133251   2.199   0.590   8.604 -0.3110 -2.6344 -1.0059
 7206SOL    HW233252   2.068   0.667   8.569 -0.0906 -0.3673 -0.1839
 7207SOL     OW33253   1.843   2.342  11.453 -0.1991 -0.3797  0.8265
 7207SOL    HW133254   1.840   2.294  11.371  0.8200  0.5113  0.2643
 7207SOL    HW233255   1.904   2.414  11.434 -0.4013 -0.4551 -0.1130
 7208SOL     OW33256   3.706   3.727  17.728 -0.0859  0.2367  0.0895
 7208SOL    HW133257   3.748   3.677   0.034  0.7239 -0.7637 -1.1034
 7208SOL    HW233258   3.625   3.763  17.762  0.4728  2.6701 -1.1007
 7209SOL     OW33259   2.428   1.323   5.704  0.1476 -0.0937  0.1150
 7209SOL    HW133260   2.336   1.303   5.720 -0.4830  0.6715 -2.4961
 7209SOL    HW233261   2.449   1.370   5.785 -1.4816  3.0234 -1.2818
 7210SOL     OW33262   2.475   3.333   3.253 -0.0762 -0.1785  0.0860
 7210SOL    HW133263   2.394   3.296   3.290 -0.8090 -0.3244 -1.6808
 7210SOL    HW233264   2.494   3.273   3.182  0.9026  0.2619 -0.0252
 7211SOL     OW33265   1.810   1.652   6.808 -0.1563 -0.6433 -0.1843
 7211SOL    HW133266   1.766   1.734   6.784  0.6630 -0.3666 -0.7424
 7211SOL    HW233267   1.817   1.604   6.726 -0.0483 -0.2565 -0.4046
 7212SOL     OW33268   3.865   3.441   9.361  0.2062  0.4826  0.5078
 7212SOL    HW133269   3.958   3.453   9.341  0.6232  0.7087  2.5561
 7212SOL    HW233270   3.853   3.481   9.448 -3.5017 -0.5032  0.4329
 7213SOL     OW33271   3.444   4.623  16.987  0.1836 -0.1761 -0.2479
 7213SOL    HW133272   3.355   4.610  16.956  0.4836 -0.8123 -0.8242
 7213SOL    HW233273   3.426   4.690  17.054  1.2732 -2.2856  2.1339
 7214SOL     OW33274   2.306   1.012   5.729  0.1722 -0.5004 -0.5460
 7214SOL    HW133275   2.213   1.030   5.745  0.4793 -0.2460  0.8832
 7214SOL    HW233276   2.280   0.928   5.690 -0.1551 -0.2150 -0.9553
 7215SOL     OW33277   2.282   3.260   7.089 -0.5677  0.0515  0.1755
 7215SOL    HW133278   2.264   3.167   7.081  0.9929 -0.0758 -1.9545
 7215SOL    HW233279   2.258   3.291   7.001 -2.7617 -2.0338  0.0361
 7216SOL     OW33280   0.880   2.126   4.296  0.8041  0.2136  0.1090
 7216SOL    HW133281   0.889   2.170   4.211  1.5637 -0.3836 -0.1169
 7216SOL    HW233282   0.948   2.170   4.348  1.5203 -2.2256  1.2680
 7217SOL     OW33283   3.618   3.660   3.629 -0.2260 -0.4812 -0.0839
 7217SOL    HW133284   3.547   3.721   3.651  0.1147 -1.2155  2.9310
 7217SOL    HW233285   3.573   3.577   3.647 -0.7718  0.2002  1.6893
 7218SOL     OW33286   4.159   2.121   1.847  0.0400  0.0186  0.2555
 7218SOL    HW133287   4.219   2.098   1.917 -0.8498 -0.0731  0.9922
 7218SOL    HW233288   4.076   2.093   1.887  0.0131 -2.6227 -1.6991
 7219SOL     OW33289   2.331   2.945   2.258  0.5564 -0.7654  0.2742
 7219SOL    HW133290   2.377   3.025   2.233  0.8417 -0.6351  1.2304
 7219SOL    HW233291   2.380   2.911   2.333 -1.8689 -2.0062  1.2975
 7220SOL     OW33292   4.150   4.463  10.816 -0.7431  0.0009  0.0726
 7220SOL    HW133293   4.071   4.516  10.820 -0.8265 -0.4556  3.8342
 7220SOL    HW233294   4.176   4.493  10.729  0.4911  0.4823  0.6060
 7221SOL     OW33295   1.192   3.797   3.091 -0.2862  0.2001  0.0735
 7221SOL    HW133296   1.129   3.828   3.156 -1.4196 -1.7598 -0.1232
 7221SOL    HW233297   1.143   3.727   3.049 -3.8420  1.8638  1.4229
 7222SOL     OW33298   1.054   1.281   7.154  0.1938  0.1513 -0.1766
 7222SOL    HW133299   1.136   1.329   7.142 -1.0403  2.6166  1.1838
 7222SOL    HW233300   1.075   1.212   7.217 -0.6623 -0.5244 -0.6289
 7223SOL     OW33301   0.759   0.948   9.274  0.3695  0.3089  0.3363
 7223SOL    HW133302   0.720   0.979   9.192 -0.5384  0.0288  0.6654
 7223SOL    HW233303   0.836   1.004   9.271  1.4423 -1.0776  1.7961
 7224SOL     OW33304   3.886   4.171   4.690  0.4791  0.2039 -0.6968
 7224SOL    HW133305   3.927   4.096   4.648 -0.7117 -0.2447 -1.0475
 7224SOL    HW233306   3.809   4.185   4.635 -0.2053 -1.4841 -0.1679
 7225SOL     OW33307   0.760   1.969   7.039 -0.4549  0.4441 -0.1570
 7225SOL    HW133308   0.670   2.003   7.038 -0.4397  0.5705  2.4614
 7225SOL    HW233309   0.735   1.881   7.065  0.3741 -0.9848 -4.1904
 7226SOL     OW33310   4.349   2.240   8.818  0.6915  0.4288 -0.3096
 7226SOL    HW133311   4.262   2.208   8.841  0.8499  1.3392  1.5873
 7226SOL    HW233312   4.404   2.162   8.815 -0.1034 -0.1815  0.8967
 7227SOL     OW33313   0.001   2.775   8.609  0.1005  0.8106 -0.4331
 7227SOL    HW133314   0.018   2.716   8.536  2.0992 -0.1355  0.8189
 7227SOL    HW233315   0.002   2.858   8.560  2.3273  0.8265 -0.3428
 7228SOL     OW33316   2.457   0.567   5.150 -0.0814 -0.5841  0.1233
 7228SOL    HW133317   2.519   0.584   5.221 -1.6071 -1.3262  1.6437
 7228SOL    HW233318   2.392   0.508   5.189  0.1171 -0.5460  0.5193
 7229SOL     OW33319   0.890   2.585   7.312 -0.0024 -0.0652 -0.1763
 7229SOL    HW133320   0.919   2.518   7.374  2.1443  0.6190 -0.4492
 7229SOL    HW233321   0.935   2.566   7.230 -0.2761  1.3717 -0.6716
 7230SOL     OW33322   3.365   1.545  11.169 -0.4538  0.4836  0.9029
 7230SOL    HW133323   3.421   1.512  11.239 -0.5450  0.9397  1.1892
 7230SOL    HW233324   3.326   1.624  11.205 -1.2849  1.0726 -1.2676
 7231SOL     OW33325   0.080   4.248   2.636 -0.4300 -0.3289  0.2988
 7231SOL    HW133326   0.126   4.230   2.554  0.8140  1.6392  0.5489
 7231SOL    HW233327   0.077   4.344   2.629  0.3000 -0.1927  1.7685
 7232SOL     OW33328   2.029   3.301   4.795 -0.1654  0.2375  0.5051
 7232SOL    HW133329   2.034   3.269   4.705  1.3897  0.3287  0.5491
 7232SOL    HW233330   2.124   3.301   4.808  0.0232 -2.2505 -0.8131
 7233SOL     OW33331   4.553   3.868   7.243  0.2222 -0.0426 -0.1967
 7233SOL    HW133332   4.611   3.793   7.235 -0.3937 -0.6085  0.5875
 7233SOL    HW233333   4.562   3.881   7.338 -1.8290  2.9083 -0.3780
 7234SOL     OW33334   3.112   0.269   9.798 -0.0706  0.3065 -0.0086
 7234SOL    HW133335   3.194   0.259   9.847  0.3857  2.5481 -0.3272
 7234SOL    HW233336   3.097   0.191   9.745 -1.3266  2.3306 -2.5993
 7235SOL     OW33337   3.867   4.313   6.264 -0.1795 -0.0960  0.2528
 7235SOL    HW133338   3.928   4.248   6.229  0.0788 -0.3843  1.2175
 7235SOL    HW233339   3.909   4.320   6.350 -1.0667 -1.0454  0.7750
 7236SOL     OW33340   3.618   4.050   6.002 -0.3307 -0.2067  0.1440
 7236SOL    HW133341   3.619   4.139   5.967 -0.6116  0.8425  2.8051
 7236SOL    HW233342   3.694   4.010   5.960  0.2970  1.1320  0.0280
 7237SOL     OW33343   4.516   1.670   2.354 -0.2115  0.2635 -0.2952
 7237SOL    HW133344   4.437   1.698   2.307 -0.6013  2.6009  1.7591
 7237SOL    HW233345   4.554   1.758   2.360 -2.3811  1.3290 -2.1368
 7238SOL     OW33346   3.630   3.875   9.045 -0.1864  0.2384 -0.0741
 7238SOL    HW133347   3.713   3.915   9.018  1.1107 -1.5884  1.2299
 7238SOL    HW233348   3.643   3.882   9.139 -0.1150  1.2131 -0.1631
 7239SOL     OW33349   0.225   1.168   0.763  0.4997  0.8891 -0.4350
 7239SOL    HW133350   0.269   1.108   0.824 -1.2278  0.1232  0.0629
 7239SOL    HW233351   0.135   1.135   0.759  0.8041  0.0213 -0.2068
 7240SOL     OW33352   1.187   0.127   9.710 -0.2569  0.0422 -0.0231
 7240SOL    HW133353   1.176   0.222   9.721  0.3397 -0.0036  0.9830
 7240SOL    HW233354   1.263   0.109   9.765 -0.1303  0.5214 -0.0395
 7241SOL     OW33355   1.366   2.052   2.856  0.4212 -0.7632  0.0471
 7241SOL    HW133356   1.283   2.085   2.821  0.0614  0.5470  2.1040
 7241SOL    HW233357   1.433   2.116   2.833  0.4329 -0.2725  1.4372
 7242SOL     OW33358   1.785   4.739  10.463 -0.1152 -0.4366  0.7774
 7242SOL    HW133359   1.802   0.037  10.377  1.2629 -0.1808  1.1543
 7242SOL    HW233360   1.796   4.645  10.456  1.0064 -0.3225  0.8902
 7243SOL     OW33361   3.260   3.953  16.422  0.8771 -0.8790  0.1212
 7243SOL    HW133362   3.335   4.011  16.409  1.4435 -1.5740  0.2929
 7243SOL    HW233363   3.241   3.976  16.513 -3.3524  0.7393 -1.1559
 7244SOL     OW33364   0.232   3.716   6.860 -0.7356 -0.2306  0.1341
 7244SOL    HW133365   0.156   3.770   6.837 -2.3066 -1.7763  1.6874
 7244SOL    HW233366   0.219   3.701   6.954  1.7797 -0.1264  0.4973
 7245SOL     OW33367   1.377   4.416   3.861 -0.0172 -0.3000 -0.2943
 7245SOL    HW133368   1.448   4.406   3.799 -0.8090  1.6144 -1.5154
 7245SOL    HW233369   1.301   4.416   3.803 -1.3781  0.9165  1.4859
 7246SOL     OW33370   1.508   3.154   1.098  0.2235  0.1425 -0.0257
 7246SOL    HW133371   1.416   3.160   1.122  0.2334 -0.9965  0.3307
 7246SOL    HW233372   1.512   3.158   1.002 -0.6915  1.4032 -0.0089
 7247SOL     OW33373   2.710   4.668   9.870 -0.5827  0.5497  0.4253
 7247SOL    HW133374   2.667   4.656   9.786 -0.6231  3.1335  0.0623
 7247SOL    HW233375   2.699   4.582   9.911 -1.1733  0.0049 -0.8812
 7248SOL     OW33376   3.587   0.830   0.492  0.3994 -0.6040  0.2536
 7248SOL    HW133377   3.523   0.825   0.420  0.3099  1.5412  0.1961
 7248SOL    HW233378   3.527   0.837   0.566  2.0853  0.5090  1.4893
 7249SOL     OW33379   0.528   3.506   2.527  0.1313  0.3287  0.1564
 7249SOL    HW133380   0.581   3.513   2.606 -0.6667  2.8862  0.4841
 7249SOL    HW233381   0.590   3.457   2.473  0.1479  1.5217 -0.9350
 7250SOL     OW33382   3.722   4.271   5.585 -0.0202  0.4617 -0.1382
 7250SOL    HW133383   3.673   4.212   5.642 -1.3473  0.4985 -1.2159
 7250SOL    HW233384   3.672   4.352   5.595 -0.9680 -0.1268 -0.0416
 7251SOL     OW33385   1.367   1.573   7.680  0.0607  0.5469  0.2306
 7251SOL    HW133386   1.334   1.540   7.763  3.2898  0.7161  1.5660
 7251SOL    HW233387   1.441   1.623   7.714  0.0855 -0.0222  1.0030
 7252SOL     OW33388   3.215   3.185  15.026 -0.0597  0.7687  0.1516
 7252SOL    HW133389   3.119   3.183  15.020  0.0377 -1.1647 -0.7499
 7252SOL    HW233390   3.224   3.205  15.119  0.7856  1.2804 -0.0433
 7253SOL     OW33391   3.709   2.147   7.636  0.1637  0.2696  0.0331
 7253SOL    HW133392   3.799   2.119   7.620 -0.0186  1.6889 -3.3599
 7253SOL    HW233393   3.705   2.234   7.596  0.2628  0.0476 -0.4497
 7254SOL     OW33394   0.927   3.382   7.497  0.6791 -0.0025  0.0288
 7254SOL    HW133395   0.914   3.474   7.520 -2.3343 -0.4332  0.0866
 7254SOL    HW233396   0.976   3.365   7.577 -1.0169 -0.0640  1.0705
 7255SOL     OW33397   3.166   4.453   0.463 -0.2233 -0.2709 -0.5910
 7255SOL    HW133398   3.162   4.415   0.376  0.0287  0.4333 -0.9127
 7255SOL    HW233399   3.261   4.451   0.461 -0.2427 -1.2482 -0.4338
 7256SOL     OW33400   2.663   1.216   7.263  0.0457 -0.5341  1.0426
 7256SOL    HW133401   2.670   1.214   7.359 -0.6208  3.2327  1.1668
 7256SOL    HW233402   2.746   1.177   7.235  1.4488  2.2997  1.2104
 7257SOL     OW33403   2.751   4.468   8.478 -0.6488  0.3398  0.4967
 7257SOL    HW133404   2.799   4.473   8.395 -2.3697 -0.4070 -0.5504
 7257SOL    HW233405   2.732   4.375   8.487  2.2374 -0.0083  3.0420
 7258SOL     OW33406   2.829   0.181   9.932 -0.6282 -0.3026  0.2950
 7258SOL    HW133407   2.814   0.087   9.947  0.5161 -0.9801 -2.7246
 7258SOL    HW233408   2.822   0.186   9.837 -0.0073 -0.1675  0.2620
 7259SOL     OW33409   3.119   1.676   2.009  0.2149  0.0478 -0.2042
 7259SOL    HW133410   3.146   1.741   2.074 -0.8201  1.7604 -1.5096
 7259SOL    HW233411   3.133   1.718   1.924 -0.5558  0.9051  0.0920
 7260SOL     OW33412   4.565   4.488   6.218 -0.1865  0.0816 -0.4117
 7260SOL    HW133413   4.524   4.518   6.299 -0.6307  0.0852 -0.6401
 7260SOL    HW233414   4.495   4.516   6.159 -1.6293  2.3275  2.3164
 7261SOL     OW33415   4.187   4.179   6.705 -0.4048  0.0328 -0.0916
 7261SOL    HW133416   4.187   4.219   6.792 -2.9192  1.8029 -0.8955
 7261SOL    HW233417   4.150   4.094   6.729 -0.3078 -0.0567 -0.2581
 7262SOL     OW33418   0.501   4.312   7.589  0.5390 -0.2877 -0.2796
 7262SOL    HW133419   0.463   4.269   7.666 -1.8224 -0.6586 -1.6570
 7262SOL    HW233420   0.512   4.400   7.626  0.8618 -0.6191  0.4025
 7263SOL     OW33421   3.021   0.776   5.758  0.2447  0.4712 -0.5712
 7263SOL    HW133422   2.962   0.845   5.789  0.2014 -0.0821  0.5593
 7263SOL    HW233423   3.004   0.776   5.663 -1.5906  0.2728 -0.2358
 7264SOL     OW33424   0.266   0.976   7.506  0.2536  0.4001  0.1843
 7264SOL    HW133425   0.258   0.885   7.534 -2.2044  0.3551 -0.6584
 7264SOL    HW233426   0.353   0.968   7.466 -0.4478 -0.5302 -1.1783
 7265SOL     OW33427   0.188   4.505  13.768 -0.6649 -0.4588 -0.1072
 7265SOL    HW133428   0.202   4.572  13.835  0.0013 -0.6556 -0.0417
 7265SOL    HW233429   0.147   4.534  13.687  0.1888  2.0663  0.3847
 7266SOL     OW33430   2.547   1.582   8.065 -0.2566 -0.0032  0.2430
 7266SOL    HW133431   2.634   1.548   8.087  0.0107  1.5842  1.5992
 7266SOL    HW233432   2.546   1.540   7.979  3.6828 -0.3378  0.3399
 7267SOL     OW33433   0.062   3.962   5.991  0.5181  0.7021 -0.3568
 7267SOL    HW133434   0.036   3.917   6.071  1.2650  2.1911  0.7434
 7267SOL    HW233435   0.157   3.954   5.998  0.6288  1.5768 -0.8150
 7268SOL     OW33436   1.500   2.014   4.935  0.4879  0.7732 -0.0165
 7268SOL    HW133437   1.476   1.922   4.923 -2.8926  1.5907  0.4674
 7268SOL    HW233438   1.478   2.056   4.852 -0.1124 -2.3824 -1.4461
 7269SOL     OW33439   2.337   3.943  12.035  0.2254 -0.1207  0.4770
 7269SOL    HW133440   2.418   3.994  12.028 -0.7820  1.3427 -0.4053
 7269SOL    HW233441   2.341   3.888  11.957  0.3668 -3.9831  3.2172
 7270SOL     OW33442   0.657   3.853   6.577  0.1211  0.5823  0.3380
 7270SOL    HW133443   0.580   3.809   6.613 -0.5159  2.4323  1.2223
 7270SOL    HW233444   0.691   3.891   6.658 -0.3562  1.8716 -0.0542
 7271SOL     OW33445   3.649   4.411   6.374 -0.0261  0.0482  0.0030
 7271SOL    HW133446   3.625   4.481   6.314 -1.6328 -0.2799  0.2701
 7271SOL    HW233447   3.740   4.395   6.348  0.3620  1.7274  0.3392
 7272SOL     OW33448   3.724   1.846   4.883  0.3745  0.1064 -0.2347
 7272SOL    HW133449   3.674   1.885   4.955 -0.6860 -2.5086  0.4471
 7272SOL    HW233450   3.776   1.781   4.930  1.5303  1.8006  0.8018
 7273SOL     OW33451   1.379   1.890  10.130  0.6452 -0.0786 -0.9207
 7273SOL    HW133452   1.342   1.964  10.178 -0.6485 -1.0227 -0.4692
 7273SOL    HW233453   1.431   1.935  10.064  0.0734  0.0409 -1.2895
 7274SOL     OW33454   3.761   0.316   7.440  0.2474  0.6193  0.0423
 7274SOL    HW133455   3.726   0.354   7.520 -0.4864  0.9554 -0.4369
 7274SOL    HW233456   3.828   0.381   7.417  2.0781 -1.1336  0.4284
 7275SOL     OW33457   4.371   2.339   3.019 -0.1842 -0.4191  0.0450
 7275SOL    HW133458   4.399   2.427   2.991 -0.4829 -0.6482 -0.9684
 7275SOL    HW233459   4.367   2.342   3.115 -0.6209 -0.5484  0.0282
 7276SOL     OW33460   3.187   0.621  10.019 -0.1184 -0.2998  0.5378
 7276SOL    HW133461   3.155   0.540  10.061 -0.0213 -0.4873  0.2483
 7276SOL    HW233462   3.228   0.574   9.947  0.5529  1.5052 -0.2530
 7277SOL     OW33463   3.807   1.106   8.587 -0.2171  0.0285 -0.6231
 7277SOL    HW133464   3.719   1.135   8.610  0.9045  2.4616  0.5099
 7277SOL    HW233465   3.787   1.036   8.525  0.1020 -2.4986  2.1218
 7278SOL     OW33466   2.174   2.652   3.305 -0.0903  0.1310  0.0268
 7278SOL    HW133467   2.249   2.616   3.353  1.1016  1.0011 -1.1987
 7278SOL    HW233468   2.186   2.622   3.215  1.9028  2.5280 -0.4989
 7279SOL     OW33469   2.930   1.673   4.142  0.0377  0.2987  0.6606
 7279SOL    HW133470   2.871   1.745   4.120  0.9872  0.7202 -0.5592
 7279SOL    HW233471   2.877   1.604   4.102 -0.5720  0.9053  0.4136
 7280SOL     OW33472   4.325   0.958  12.324  0.2045 -0.3311 -0.8346
 7280SOL    HW133473   4.402   0.927  12.276  1.5023  0.2295  0.8786
 7280SOL    HW233474   4.353   0.933  12.413  0.3418  0.9247 -0.5311
 7281SOL     OW33475   2.520   2.819   6.292  0.0293  0.0613  0.6242
 7281SOL    HW133476   2.438   2.772   6.283 -0.8235  1.5593  0.5269
 7281SOL    HW233477   2.560   2.800   6.207 -0.8905  0.9587 -0.0103
 7282SOL     OW33478   1.354   1.524   2.641  0.3591  0.0271 -0.2336
 7282SOL    HW133479   1.372   1.482   2.556 -0.1565 -0.3680 -0.1473
 7282SOL    HW233480   1.356   1.617   2.620 -0.9380  0.4828  1.7052
 7283SOL     OW33481   4.040   0.182   5.191 -0.4106 -0.0073  0.1619
 7283SOL    HW133482   3.975   0.251   5.209  1.1263  1.5669 -0.3261
 7283SOL    HW233483   4.032   0.132   5.272 -1.8591  0.2921  0.2106
 7284SOL     OW33484   4.257   1.478  14.406 -0.5201  0.1074  0.2744
 7284SOL    HW133485   4.331   1.464  14.346 -0.2604  1.1254  0.3548
 7284SOL    HW233486   4.178   1.480  14.352  0.1139  3.7214 -0.5083
 7285SOL     OW33487   3.435   3.019   8.901  0.0982 -0.2462 -0.3174
 7285SOL    HW133488   3.439   3.012   8.997 -2.0434  0.5694 -0.1677
 7285SOL    HW233489   3.467   2.933   8.874 -1.0388 -2.0625  4.1124
 7286SOL     OW33490   2.988   0.545   1.228  0.1186  0.0908 -0.1192
 7286SOL    HW133491   3.002   0.569   1.320 -0.1926 -0.5925  0.1097
 7286SOL    HW233492   2.942   0.461   1.235 -0.6534  0.4602 -0.7990
 7287SOL     OW33493   0.882   0.551   8.124  0.3726  0.2683 -0.2237
 7287SOL    HW133494   0.819   0.622   8.138  1.0670  0.8647 -0.1557
 7287SOL    HW233495   0.934   0.581   8.199  1.6580 -0.5129 -0.8040
 7288SOL     OW33496   3.647   3.414   6.235 -0.1451 -0.6522 -0.3836
 7288SOL    HW133497   3.568   3.386   6.188  0.7960 -1.0508 -1.7509
 7288SOL    HW233498   3.638   3.359   6.312  0.2189  1.2867  1.0447
 7289SOL     OW33499   4.099   2.870   6.109  0.0600 -0.0145  0.1687
 7289SOL    HW133500   4.013   2.845   6.075  0.3787 -0.2926 -0.4182
 7289SOL    HW233501   4.094   2.961   6.080 -0.4713  0.0636  0.5136
 7290SOL     OW33502   1.403   3.506   3.751 -0.6117 -0.5818 -0.0939
 7290SOL    HW133503   1.339   3.533   3.686 -0.1129 -2.0976 -1.2111
 7290SOL    HW233504   1.445   3.590   3.773  0.8659 -1.7844  1.6512
 7291SOL     OW33505   2.834   2.264  12.478 -0.6119  0.1317 -0.4178
 7291SOL    HW133506   2.855   2.240  12.568 -0.5835 -1.3717 -0.8423
 7291SOL    HW233507   2.900   2.330  12.455  0.4839 -0.4655  1.0727
 7292SOL     OW33508   2.594   1.090   1.801  0.4749 -0.0787 -0.0908
 7292SOL    HW133509   2.619   1.107   1.711 -0.6214  3.2044  0.2480
 7292SOL    HW233510   2.621   1.174   1.838  0.6235  0.2031 -0.8439
 7293SOL     OW33511   2.590   1.138   4.317  0.2159  0.4520  0.2396
 7293SOL    HW133512   2.622   1.063   4.366 -1.3233 -0.4605 -0.1364
 7293SOL    HW233513   2.609   1.200   4.387 -2.0209 -0.2281  1.4660
 7294SOL     OW33514   3.430   3.287  14.890  0.2919 -0.0020  0.5362
 7294SOL    HW133515   3.466   3.341  14.960 -0.6153  0.9705  0.2697
 7294SOL    HW233516   3.363   3.238  14.939  1.6922  0.0294  2.4878
 7295SOL     OW33517   3.633   1.969   3.308 -0.4081  0.7108  0.3566
 7295SOL    HW133518   3.546   2.006   3.325 -1.1980 -1.1874  0.3989
 7295SOL    HW233519   3.647   2.015   3.225 -2.2067  0.7200  0.0624
 7296SOL     OW33520   1.746   3.770   4.312 -0.6580 -0.2242 -0.3447
 7296SOL    HW133521   1.833   3.807   4.325 -0.9139  0.3077 -0.1284
 7296SOL    HW233522   1.731   3.721   4.393  3.1305 -0.6183  0.1418
 7297SOL     OW33523   3.918   2.644   1.273  0.2349 -0.1116  0.2108
 7297SOL    HW133524   3.958   2.585   1.210  0.3939  0.5623 -0.3178
 7297SOL    HW233525   3.924   2.733   1.237  2.2613 -1.3637 -2.4821
 7298SOL     OW33526   3.057   3.004  12.094  0.1219 -0.4630 -0.1283
 7298SOL    HW133527   3.067   3.047  12.179  0.3421  0.9711 -0.8780
 7298SOL    HW233528   2.998   3.069  12.055  1.0751 -0.9075 -2.2734
 7299SOL     OW33529   0.607   1.392   1.392 -0.2379 -0.0895 -0.2501
 7299SOL    HW133530   0.671   1.420   1.326 -2.1554  1.4593 -1.4567
 7299SOL    HW233531   0.631   1.301   1.412  0.7220  0.9170  3.1525
 7300SOL     OW33532   4.059   3.803   7.077 -0.1178 -0.4058  0.1499
 7300SOL    HW133533   4.027   3.837   7.160  0.5424  1.0661 -0.1926
 7300SOL    HW233534   4.018   3.718   7.063 -1.1951  0.4558 -1.9331
 7301SOL     OW33535   3.111   3.223   1.962  0.3554  0.3030  0.1535
 7301SOL    HW133536   3.037   3.275   1.991  0.2087  0.7040 -0.9375
 7301SOL    HW233537   3.135   3.166   2.035  0.0064  1.4592  1.1588
 7302SOL     OW33538   3.831   3.942   1.446  0.3811 -0.4088 -0.2045
 7302SOL    HW133539   3.925   3.937   1.468 -0.4248 -0.6000  3.1700
 7302SOL    HW233540   3.834   3.939   1.351  0.2920  1.7172 -0.2734
 7303SOL     OW33541   4.637   3.356  14.426  0.0457 -0.2865 -0.4839
 7303SOL    HW133542   4.675   3.414  14.360  1.0478  0.3590  0.6515
 7303SOL    HW233543   4.683   3.276  14.401  0.6685 -0.1246  0.1381
 7304SOL     OW33544   1.508   0.987   7.132  0.3947 -0.1096 -0.3390
 7304SOL    HW133545   1.490   0.929   7.206 -2.9722  2.2430  0.6898
 7304SOL    HW233546   1.602   1.004   7.125  0.0363  2.0177 -0.0576
 7305SOL     OW33547   1.624   4.164   2.768 -0.4988 -0.0433 -0.0786
 7305SOL    HW133548   1.640   4.257   2.784  1.5315 -0.5275  0.7886
 7305SOL    HW233549   1.567   4.148   2.843  0.6249  0.2076  0.8205
 7306SOL     OW33550   4.291   0.089   5.056  0.2049  0.0115  0.3895
 7306SOL    HW133551   4.208   0.132   5.081  0.2385  1.4016 -1.8878
 7306SOL    HW233552   4.264   0.001   5.082  0.2826  0.0444  0.5809
 7307SOL     OW33553   3.192   3.248   2.361  0.2610 -0.1890 -0.0165
 7307SOL    HW133554   3.223   3.181   2.299  1.8912  0.2776  0.2904
 7307SOL    HW233555   3.263   3.238   2.424 -0.4825 -0.0121  0.8383
 7308SOL     OW33556   4.359   4.551  16.389  0.4761  0.1195  0.2453
 7308SOL    HW133557   4.357   4.646  16.404  1.8021  0.5284 -2.2264
 7308SOL    HW233558   4.365   4.557  16.294  1.1855 -3.8826  0.0698
 7309SOL     OW33559   4.623   2.978   6.196 -0.1216  0.3476  0.2428
 7309SOL    HW133560   4.651   3.039   6.128  1.3487 -2.1159 -1.3651
 7309SOL    HW233561   4.708   2.963   6.236  0.6842  1.4110 -1.0822
 7310SOL     OW33562   1.271   0.659   6.488 -0.1875  0.0713  0.6478
 7310SOL    HW133563   1.347   0.717   6.476 -0.4467  0.6565  1.8076
 7310SOL    HW233564   1.292   0.572   6.452 -2.9785  0.3745 -1.6620
 7311SOL     OW33565   0.226   0.798   5.876  0.0242 -0.1327  0.2330
 7311SOL    HW133566   0.194   0.708   5.867 -1.0329  0.0142  2.5332
 7311SOL    HW233567   0.190   0.836   5.956 -1.4136 -0.8989 -0.0476
 7312SOL     OW33568   1.474   3.109   3.692  0.0017  0.8674 -0.3713
 7312SOL    HW133569   1.437   3.099   3.780  0.3023  2.1080 -0.1082
 7312SOL    HW233570   1.398   3.126   3.637  1.4459  2.8414 -1.7554
 7313SOL     OW33571   0.460   0.035   1.081 -0.1201 -0.1102  0.1298
 7313SOL    HW133572   0.452   0.120   1.124  2.2066  1.2031 -1.9814
 7313SOL    HW233573   0.528   0.051   1.015  3.3365 -2.3196  3.1395
 7314SOL     OW33574   0.871   2.226   5.283 -0.3411  0.1641 -0.1581
 7314SOL    HW133575   0.829   2.140   5.275  2.0260 -1.0105  0.1243
 7314SOL    HW233576   0.892   2.230   5.189 -0.2133  1.1314 -0.0865
 7315SOL     OW33577   0.862   2.519   4.668 -0.5681 -0.5226 -0.0006
 7315SOL    HW133578   0.789   2.569   4.632 -0.6777 -0.2243  0.6297
 7315SOL    HW233579   0.832   2.428   4.657  1.2540 -1.2289  0.8406
 7316SOL     OW33580   1.840   3.751  10.924 -0.4927  0.0223 -0.9299
 7316SOL    HW133581   1.920   3.701  10.907 -0.0999 -0.1214  1.2615
 7316SOL    HW233582   1.872   3.839  10.946  1.2808 -1.1290  1.1345
 7317SOL     OW33583   3.555   2.948   7.068  0.9020  0.1326  0.1429
 7317SOL    HW133584   3.461   2.960   7.054  0.8633 -1.0087 -0.5671
 7317SOL    HW233585   3.575   2.858   7.093 -2.2984 -0.9342 -1.2933
 7318SOL     OW33586   3.023   3.329   8.990  0.0781 -0.2040 -0.2942
 7318SOL    HW133587   2.989   3.259   8.935 -0.5006  0.3816 -0.6811
 7318SOL    HW233588   3.007   3.312   9.083 -0.2432 -0.2184 -0.3550
 7319SOL     OW33589   0.202   4.634   0.342  0.2722  0.2838 -0.1775
 7319SOL    HW133590   0.207   4.553   0.394  0.4156  0.2984 -0.1669
 7319SOL    HW233591   0.113   4.661   0.365  0.8056  1.1276  0.9000
 7320SOL     OW33592   3.241   0.624   8.820  0.0016  0.1601 -0.6429
 7320SOL    HW133593   3.200   0.633   8.906  0.0478 -0.1292 -0.5918
 7320SOL    HW233594   3.183   0.686   8.777  1.3864  1.5030 -0.6066
 7321SOL     OW33595   1.579   4.361   7.606  0.1976  0.2818  0.1640
 7321SOL    HW133596   1.608   4.441   7.650 -1.0377 -0.5680  2.5001
 7321SOL    HW233597   1.529   4.322   7.678 -1.0911  1.1716 -0.2403
 7322SOL     OW33598   2.666   1.483  13.122 -0.7567  0.7614 -0.1241
 7322SOL    HW133599   2.660   1.432  13.041  2.1316  3.9498 -2.3182
 7322SOL    HW233600   2.590   1.450  13.171  0.4606  0.0818  1.2985
 7323SOL     OW33601   2.306   0.901  12.064  0.1576 -0.1985  0.5231
 7323SOL    HW133602   2.382   0.921  12.010 -0.0495 -0.4323  0.1451
 7323SOL    HW233603   2.329   0.954  12.140  0.6176  0.4652 -0.0897
 7324SOL     OW33604   0.101   2.737  13.438  0.9733 -0.4211  0.6545
 7324SOL    HW133605   0.159   2.799  13.482 -0.2917 -0.5018  2.4469
 7324SOL    HW233606   0.018   2.784  13.446  0.8546 -0.8054  1.7240
 7325SOL     OW33607   2.663   3.770   1.173 -0.1151 -0.5323 -0.4029
 7325SOL    HW133608   2.717   3.810   1.105 -4.1897  2.0896 -2.0950
 7325SOL    HW233609   2.729   3.789   1.239  0.0278  0.5673 -0.8650
 7326SOL     OW33610   1.813   0.175   8.202  0.1815  0.1835  0.1590
 7326SOL    HW133611   1.850   0.249   8.154 -0.4742 -0.1257 -0.8322
 7326SOL    HW233612   1.834   0.200   8.292 -0.1413 -2.0890  0.8638
 7327SOL     OW33613   3.453   2.816   1.944 -0.0082 -0.3247 -0.0456
 7327SOL    HW133614   3.514   2.745   1.924  1.3009  0.4269  1.2298
 7327SOL    HW233615   3.501   2.855   2.018  2.4406 -3.9292  0.2996
 7328SOL     OW33616   0.838   2.318   9.069  0.4616 -0.2745  0.5683
 7328SOL    HW133617   0.825   2.226   9.090  0.1161 -0.4238 -0.3213
 7328SOL    HW233618   0.791   2.364   9.139 -1.5725 -0.2651 -0.8068
 7329SOL     OW33619   2.837   0.893   2.054 -0.0327 -0.2375  0.2005
 7329SOL    HW133620   2.876   0.815   2.094 -0.0572 -0.5179 -0.3219
 7329SOL    HW233621   2.755   0.859   2.018 -0.7769  1.6817  0.0670
 7330SOL     OW33622   0.936   0.359   9.478 -0.4456  0.0436  0.2703
 7330SOL    HW133623   0.874   0.377   9.548  0.9645 -0.1970  1.5936
 7330SOL    HW233624   0.997   0.433   9.482  1.2043 -1.1903 -2.3016
 7331SOL     OW33625   2.913   1.097  12.591 -0.0131  0.8240 -0.0089
 7331SOL    HW133626   2.976   1.044  12.641 -2.6768 -0.5814  1.8754
 7331SOL    HW233627   2.968   1.152  12.535  0.5436  1.3001  0.9982
 7332SOL     OW33628   2.661   0.762   2.674  0.0716  0.0663 -0.2562
 7332SOL    HW133629   2.754   0.781   2.680  0.0536  0.1293 -0.1788
 7332SOL    HW233630   2.648   0.686   2.617 -0.0215 -0.0510 -0.0798
 7333SOL     OW33631   2.091   0.999   8.487  0.3696  0.2490  0.3982
 7333SOL    HW133632   2.134   1.036   8.564  0.9280  0.5776 -0.0763
 7333SOL    HW233633   2.046   0.927   8.533 -0.4118  1.0873  0.9574
 7334SOL     OW33634   2.974   3.660   1.992  0.2093  1.1097  0.1571
 7334SOL    HW133635   3.060   3.653   2.034 -0.2542  0.6584  1.0247
 7334SOL    HW233636   2.994   3.618   1.908 -2.8238 -0.2961  0.1513
 7335SOL     OW33637   3.404   1.846  17.279 -0.4661  0.5333  0.0360
 7335SOL    HW133638   3.353   1.927  17.279  0.3710  1.0582  2.4171
 7335SOL    HW233639   3.342   1.773  17.284 -0.2715  0.2573 -1.6588
 7336SOL     OW33640   4.145   3.054   3.979 -0.2019 -0.9796 -0.1231
 7336SOL    HW133641   4.126   3.043   3.886  0.0185 -1.2483 -0.1385
 7336SOL    HW233642   4.121   2.964   4.003  0.0934 -0.7462  1.0711
 7337SOL     OW33643   0.184   3.595   8.816 -0.6592 -0.3212 -0.2089
 7337SOL    HW133644   0.115   3.529   8.829 -0.8079 -0.3844 -1.2416
 7337SOL    HW233645   0.189   3.633   8.903 -1.3740 -2.6308  0.8309
 7338SOL     OW33646   2.263   4.468   0.214  0.1430 -0.7625  0.0335
 7338SOL    HW133647   2.246   4.380   0.245  0.9266 -0.2108  2.0361
 7338SOL    HW233648   2.176   4.504   0.200  0.6997  0.1712 -1.0383
 7339SOL     OW33649   4.301   0.059   3.342  0.6070 -0.5368  0.2515
 7339SOL    HW133650   4.230   0.121   3.360  1.3812 -0.1912  2.1431
 7339SOL    HW233651   4.312   0.013   3.425 -2.9820 -1.6868  0.0838
 7340SOL     OW33652   0.924   0.192   7.112 -0.4909  1.1805 -0.1046
 7340SOL    HW133653   0.989   0.261   7.100  0.7823  0.2113  1.2429
 7340SOL    HW233654   0.874   0.195   7.030 -2.0721 -2.8058  0.7483
 7341SOL     OW33655   0.853   1.194   6.284 -0.0849 -0.3207 -0.4925
 7341SOL    HW133656   0.790   1.122   6.282 -1.9402  1.3042 -0.7458
 7341SOL    HW233657   0.936   1.154   6.258  0.2699  0.2245 -0.2146
 7342SOL     OW33658   2.467   2.513  14.322 -0.3993 -0.2191 -0.5512
 7342SOL    HW133659   2.514   2.509  14.406  2.1752  0.4903 -1.9681
 7342SOL    HW233660   2.378   2.514  14.357 -0.4007  3.9286 -0.6810
 7343SOL     OW33661   3.495   3.691   4.557 -0.3561 -0.5453 -0.3637
 7343SOL    HW133662   3.521   3.706   4.466 -0.7321  2.7488  0.0855
 7343SOL    HW233663   3.535   3.606   4.573  0.8644 -0.2288 -1.7149
 7344SOL     OW33664   2.292   4.034   4.401  0.6706 -0.6702 -0.1359
 7344SOL    HW133665   2.280   3.958   4.344  1.8695 -0.3128 -0.8659
 7344SOL    HW233666   2.293   3.995   4.489  1.4694 -0.8820 -0.2421
 7345SOL     OW33667   0.297   1.365   6.267 -0.0845  0.0865  0.5072
 7345SOL    HW133668   0.349   1.411   6.333 -0.2497  1.9834 -0.6724
 7345SOL    HW233669   0.317   1.272   6.280  0.8196  0.3266  0.8219
 7346SOL     OW33670   2.011   0.638  15.105 -0.0431 -0.0935  0.7346
 7346SOL    HW133671   1.961   0.683  15.174 -1.6522 -0.2856 -0.2998
 7346SOL    HW233672   2.081   0.698  15.078 -0.2880 -1.0053 -1.9373
 7347SOL     OW33673   1.409   4.343  16.978 -0.2453  0.3197 -0.1388
 7347SOL    HW133674   1.341   4.279  16.960  1.4973 -1.0523 -1.8398
 7347SOL    HW233675   1.488   4.290  16.987  0.0659  1.0505  1.4123
 7348SOL     OW33676   3.499   2.047  16.475 -0.2844  0.1360  0.0620
 7348SOL    HW133677   3.451   2.075  16.397 -1.4651  1.9872  1.4513
 7348SOL    HW233678   3.591   2.059  16.449  0.0385  0.4359  1.3155
 7349SOL     OW33679   2.480   0.612   4.886  0.6179  0.2730  0.3436
 7349SOL    HW133680   2.467   0.586   4.977 -0.1120 -1.4043 -0.2287
 7349SOL    HW233681   2.568   0.581   4.866  0.6397  2.0142 -2.2728
 7350SOL     OW33682   3.411   1.298   8.424 -0.1635  0.1123 -0.1398
 7350SOL    HW133683   3.449   1.384   8.441 -0.1410 -0.4690  2.8194
 7350SOL    HW233684   3.320   1.316   8.399  0.2927  1.7060 -0.6816
 7351SOL     OW33685   1.931   3.119   4.573 -0.8670 -0.8331  0.2599
 7351SOL    HW133686   1.886   3.073   4.644  2.5739  0.1416  3.0799
 7351SOL    HW233687   2.024   3.102   4.588 -1.2111 -2.1899  0.8560
 7352SOL     OW33688   3.472   4.464   3.401  0.2022 -0.6567 -0.1914
 7352SOL    HW133689   3.521   4.448   3.320 -0.5415  0.9036 -0.9366
 7352SOL    HW233690   3.421   4.383   3.398  0.3212 -0.7543  0.3249
 7353SOL     OW33691   0.821   3.267   7.896 -0.0321  0.1899 -0.5020
 7353SOL    HW133692   0.869   3.185   7.889  2.8975  1.9648 -0.9423
 7353SOL    HW233693   0.738   3.247   7.853 -1.3565 -0.5457  2.3255
 7354SOL     OW33694   1.072   1.370  15.296 -0.1380  0.1736  0.3196
 7354SOL    HW133695   1.129   1.394  15.369  1.0568  2.3661 -1.3415
 7354SOL    HW233696   1.133   1.353  15.225 -0.9109  1.3723 -0.6382
 7355SOL     OW33697   4.261   2.645   2.309 -0.8603 -0.2951 -0.0860
 7355SOL    HW133698   4.345   2.609   2.338 -0.1940  1.7747  0.5463
 7355SOL    HW233699   4.255   2.722   2.365 -0.3452 -1.3761  1.4357
 7356SOL     OW33700   2.417   3.489   4.205 -0.4009 -0.2232  0.4939
 7356SOL    HW133701   2.430   3.553   4.275 -1.6471  0.3162  0.2418
 7356SOL    HW233702   2.365   3.533   4.137  1.1378  1.7054  0.5806
 7357SOL     OW33703   0.620   2.421   5.912  0.2562  0.5646 -0.1074
 7357SOL    HW133704   0.671   2.351   5.871  1.0700  0.6538  0.7654
 7357SOL    HW233705   0.602   2.372   5.993  1.0102  0.4666 -0.0011
 7358SOL     OW33706   1.825   3.326   4.383 -0.4778 -0.0442 -0.1469
 7358SOL    HW133707   1.740   3.362   4.409 -0.0346 -1.6834  3.5428
 7358SOL    HW233708   1.825   3.242   4.428  3.3570 -1.0425 -1.9990
 7359SOL     OW33709   1.741   4.065   1.720  0.1239 -0.1748  0.1088
 7359SOL    HW133710   1.657   4.095   1.755 -0.9159 -1.5333 -1.2669
 7359SOL    HW233711   1.763   3.993   1.778  0.4965 -1.3512 -1.5073
 7360SOL     OW33712   1.348   0.285  17.045 -0.4716  0.3359  0.2427
 7360SOL    HW133713   1.264   0.246  17.023  0.7565 -0.6797 -2.6100
 7360SOL    HW233714   1.375   0.252  17.131  0.1039  0.1506 -0.0127
 7361SOL     OW33715   2.045   0.632   8.192 -0.6320 -0.3551 -0.2181
 7361SOL    HW133716   1.967   0.663   8.238  0.0694 -0.5641  1.1188
 7361SOL    HW233717   2.092   0.716   8.193 -1.6256  0.1862  0.6022
 7362SOL     OW33718   1.959   2.157   3.889 -0.5326 -0.1128  0.1372
 7362SOL    HW133719   1.932   2.247   3.907 -1.3925 -0.3806  0.1957
 7362SOL    HW233720   1.874   2.118   3.869 -2.1610  3.8231 -0.6209
 7363SOL     OW33721   3.641   2.998  15.906 -0.3784  0.0827 -0.1183
 7363SOL    HW133722   3.569   3.061  15.904 -0.1598  0.3888  1.7214
 7363SOL    HW233723   3.700   3.041  15.845 -0.5461 -0.3963 -0.6271
 7364SOL     OW33724   2.826   1.058   2.545  0.5680  0.3010 -0.3194
 7364SOL    HW133725   2.818   1.084   2.453  1.1679 -0.8777 -0.7090
 7364SOL    HW233726   2.733   1.060   2.570  0.3011 -0.0665 -1.2433
 7365SOL     OW33727   1.147   2.632  16.617 -1.3273  0.1416  0.6693
 7365SOL    HW133728   1.167   2.717  16.656 -0.0913  1.4779 -2.8512
 7365SOL    HW233729   1.081   2.600  16.678 -1.7461  1.7691  1.0813
 7366SOL     OW33730   3.566   3.325   5.828 -0.2937 -0.3755 -0.0390
 7366SOL    HW133731   3.544   3.373   5.748  0.5195  0.6313  0.3470
 7366SOL    HW233732   3.640   3.269   5.802  0.7300  0.6585  0.6798
 7367SOL     OW33733   4.228   4.050   9.043  0.3638  0.1024  0.0457
 7367SOL    HW133734   4.265   4.115   8.984 -0.7516  1.5452  0.9364
 7367SOL    HW233735   4.308   4.034   9.094 -0.3616  0.6803  1.3721
 7368SOL     OW33736   3.887   3.895   5.598 -0.0285  0.4862  0.8426
 7368SOL    HW133737   3.841   3.824   5.642 -0.8471  0.1109 -0.6287
 7368SOL    HW233738   3.927   3.942   5.672 -2.4722 -0.2926  2.6623
 7369SOL     OW33739   2.941   4.460  17.537 -0.4715 -0.0402  0.0873
 7369SOL    HW133740   2.890   4.540  17.523 -1.9538 -1.0953 -0.5614
 7369SOL    HW233741   2.929   4.419  17.451  2.8236 -2.1590  0.6420
 7370SOL     OW33742   0.095   3.103   5.351 -0.5685  0.4482 -0.1474
 7370SOL    HW133743   4.741   3.105   5.345 -0.5290 -0.9722 -1.2798
 7370SOL    HW233744   0.114   3.196   5.335  1.8956 -0.0789 -0.2949
 7371SOL     OW33745   1.732   0.371   4.444  0.1063 -0.3990  0.5443
 7371SOL    HW133746   1.735   0.311   4.370 -1.0210  0.3274 -0.1000
 7371SOL    HW233747   1.713   0.450   4.394  1.0096 -1.0335 -0.8037
 7372SOL     OW33748   1.879   2.092   4.535  0.3075 -0.7789 -0.3709
 7372SOL    HW133749   1.924   2.045   4.605  0.7788  1.6952  0.9715
 7372SOL    HW233750   1.936   2.066   4.462  2.3721  0.6490  0.7304
 7373SOL     OW33751   2.500   2.004   4.596 -0.7623  0.1033 -0.1632
 7373SOL    HW133752   2.408   1.982   4.607 -0.4298 -1.9842 -1.3804
 7373SOL    HW233753   2.535   1.917   4.572 -3.9712 -1.2128 -0.0125
 7374SOL     OW33754   0.613   4.348   2.789  0.1447 -0.2349 -0.9524
 7374SOL    HW133755   0.654   4.407   2.853  1.1335 -0.6117 -1.2405
 7374SOL    HW233756   0.671   4.275   2.811  0.6813 -0.0191 -1.6423
 7375SOL     OW33757   0.638   1.895  10.170 -0.6987  0.0242  0.5672
 7375SOL    HW133758   0.629   1.804  10.140 -0.4307 -0.3422  1.5910
 7375SOL    HW233759   0.726   1.890  10.207 -0.0396 -1.7138 -1.1809
 7376SOL     OW33760   3.936   4.389  14.150 -0.1856  0.6634  0.0502
 7376SOL    HW133761   3.869   4.341  14.199 -0.0707  0.8132  0.3541
 7376SOL    HW233762   3.999   4.321  14.125  0.2268  1.0163  0.1328
 7377SOL     OW33763   2.220   2.092  10.520  0.5241 -0.1900  0.5419
 7377SOL    HW133764   2.151   2.060  10.462  1.7848 -0.1722 -0.9736
 7377SOL    HW233765   2.180   2.123  10.601  2.6623  0.7546  1.2218
 7378SOL     OW33766   1.939   1.502   0.694  0.2370 -0.6463 -0.5382
 7378SOL    HW133767   1.971   1.461   0.775  0.1878 -0.2286 -0.3038
 7378SOL    HW233768   1.997   1.464   0.628  2.7549  0.9155  0.7425
 7379SOL     OW33769   0.000   1.605   6.027  0.0785  0.5049 -0.0968
 7379SOL    HW133770   0.029   1.695   6.045 -0.6415  0.6608  0.2593
 7379SOL    HW233771   0.086   1.564   6.039 -0.4828 -0.0926  1.8904
 7380SOL     OW33772   0.346   3.248  11.456 -0.5279 -0.4335 -0.1339
 7380SOL    HW133773   0.346   3.253  11.360  1.0527  0.9851 -0.0473
 7380SOL    HW233774   0.434   3.274  11.483  0.6162 -2.2557 -2.1101
 7381SOL     OW33775   0.389   1.588  10.261  0.6323 -0.1790  0.1117
 7381SOL    HW133776   0.325   1.642  10.214  2.2324 -0.9396 -2.9412
 7381SOL    HW233777   0.447   1.576  10.186  3.1244 -0.4306  2.0760
 7382SOL     OW33778   3.878   2.692   9.302  0.6044 -0.1525  0.3801
 7382SOL    HW133779   3.962   2.706   9.345  1.2336 -0.8913 -0.6311
 7382SOL    HW233780   3.871   2.774   9.252  0.8075 -0.8225 -0.7387
 7383SOL     OW33781   4.422   0.954   7.837 -0.4834  0.4609 -0.4139
 7383SOL    HW133782   4.381   0.960   7.750 -1.0515  1.4653 -0.0812
 7383SOL    HW233783   4.379   0.890   7.893  1.7974 -0.3223  0.4152
 7384SOL     OW33784   0.866   1.804   8.541  0.3054 -0.0903 -0.2926
 7384SOL    HW133785   0.885   1.820   8.633 -0.0375 -2.3318  0.1749
 7384SOL    HW233786   0.940   1.748   8.517 -0.4993 -0.7224 -1.3298
 7385SOL     OW33787   3.657   4.648   5.240  0.2147 -0.6372  0.6843
 7385SOL    HW133788   3.724   4.598   5.194 -1.7324 -1.3381 -1.3955
 7385SOL    HW233789   3.674   4.735   5.203  0.8956 -1.8318 -1.8069
 7386SOL     OW33790   4.607   4.652   1.181 -0.1715 -0.4050  1.0896
 7386SOL    HW133791   4.610   4.701   1.264 -2.8627 -0.7201  1.3721
 7386SOL    HW233792   4.513   4.635   1.174 -0.2248  1.5250 -2.8451
 7387SOL     OW33793   2.976   0.691   6.122  0.3705  0.4242 -0.3888
 7387SOL    HW133794   2.890   0.720   6.093  1.1116  0.8449 -2.1977
 7387SOL    HW233795   2.981   0.617   6.061 -2.0522  0.3565 -0.5204
 7388SOL     OW33796   1.364   4.453   6.810 -0.1329  0.5442  0.3870
 7388SOL    HW133797   1.302   4.406   6.866  0.0677 -2.5020 -1.9696
 7388SOL    HW233798   1.445   4.403   6.809  0.0805  0.8916  0.3749
 7389SOL     OW33799   2.453   1.315  11.154  0.2190  0.0988 -0.1859
 7389SOL    HW133800   2.506   1.311  11.074 -0.0172  1.9862 -0.4466
 7389SOL    HW233801   2.373   1.280  11.115 -2.1854  4.1356  1.1570
 7390SOL     OW33802   3.724   1.272   8.282 -0.5363 -0.2169 -0.2428
 7390SOL    HW133803   3.813   1.256   8.253 -1.2963 -1.4604 -1.8772
 7390SOL    HW233804   3.733   1.305   8.372 -2.0669 -2.0215  0.5734
 7391SOL     OW33805   4.598   2.058  14.314 -0.6008  0.2568 -0.1949
 7391SOL    HW133806   4.670   2.038  14.255 -1.7080  0.1807 -1.5244
 7391SOL    HW233807   4.562   1.973  14.339  0.3595  0.0943  0.6025
 7392SOL     OW33808   2.006   1.825   1.312  0.4832  1.2540  0.1681
 7392SOL    HW133809   1.938   1.820   1.378  0.5779 -1.1751  0.0933
 7392SOL    HW233810   2.014   1.731   1.298  1.4969  1.3026  0.4393
 7393SOL     OW33811   3.167   2.589  17.302  1.0990  0.1300 -0.5510
 7393SOL    HW133812   3.091   2.644  17.284 -0.9075 -1.9322  1.6134
 7393SOL    HW233813   3.170   2.599  17.397 -1.4064  0.5906 -0.4994
 7394SOL     OW33814   3.206   3.540  14.620 -0.0943  0.0842  0.4656
 7394SOL    HW133815   3.242   3.461  14.579  1.1948  1.4584 -1.0459
 7394SOL    HW233816   3.261   3.611  14.589 -1.2019 -0.5853 -2.9846
 7395SOL     OW33817   3.833   1.116  15.996  0.8791 -0.1255 -0.0799
 7395SOL    HW133818   3.808   1.025  15.979 -1.9155 -0.1532  4.1076
 7395SOL    HW233819   3.858   1.099  16.087  1.7892 -1.8504 -0.6476
 7396SOL     OW33820   0.770   2.841   7.348 -0.5072  0.3466 -0.9555
 7396SOL    HW133821   0.677   2.836   7.326 -0.5903  2.7339 -1.1966
 7396SOL    HW233822   0.794   2.748   7.349 -0.0942  0.4553 -0.9600
 7397SOL     OW33823   0.788   0.846   6.842 -0.3519  0.4288  0.1522
 7397SOL    HW133824   0.820   0.795   6.916  0.0288  0.2143 -0.1634
 7397SOL    HW233825   0.852   0.825   6.775 -2.9795  0.6318 -2.4051
 7398SOL     OW33826   1.012   3.672  13.172 -0.4357  0.4483 -0.1485
 7398SOL    HW133827   0.958   3.724  13.113 -0.8488 -0.1616 -0.3044
 7398SOL    HW233828   0.967   3.588  13.160 -1.7262  1.2453 -0.8677
 7399SOL     OW33829   3.709   1.706  14.777 -0.4699  0.0718 -0.4864
 7399SOL    HW133830   3.744   1.786  14.815 -0.5665 -0.0646 -0.1052
 7399SOL    HW233831   3.777   1.675  14.717 -1.2394 -1.2891 -0.6578
 7400SOL     OW33832   1.045   2.564   8.365  0.2819 -0.1873  0.5967
 7400SOL    HW133833   1.114   2.504   8.337  0.3888  0.9378 -1.4673
 7400SOL    HW233834   0.963   2.518   8.346  0.7921 -0.3082 -1.2178
 7401SOL     OW33835   2.316   3.283   8.419  0.1730  0.0704  0.1000
 7401SOL    HW133836   2.252   3.319   8.480 -1.0309 -0.6003 -0.7555
 7401SOL    HW233837   2.390   3.341   8.437 -1.7388  2.1148  1.3407
 7402SOL     OW33838   3.240   1.612  11.851 -0.2021  1.1352 -0.3845
 7402SOL    HW133839   3.231   1.605  11.946 -1.6092  2.0167 -0.4473
 7402SOL    HW233840   3.244   1.520  11.826  0.6896  0.8207  0.9493
 7403SOL     OW33841   3.819   3.414   5.002 -0.3592 -0.1003 -0.0143
 7403SOL    HW133842   3.827   3.371   4.917  0.6980 -1.5851  0.8347
 7403SOL    HW233843   3.876   3.365   5.062 -1.2653 -0.3205  0.6685
 7404SOL     OW33844   2.286   2.775   2.603 -0.1057  0.3228  0.4279
 7404SOL    HW133845   2.294   2.719   2.526  0.4680 -1.6287  1.9121
 7404SOL    HW233846   2.375   2.811   2.613 -0.7955  1.8870  0.8647
 7405SOL     OW33847   1.014   0.688   6.326 -0.4153 -0.1274  0.4678
 7405SOL    HW133848   0.991   0.631   6.253 -0.8176 -1.2114  1.4382
 7405SOL    HW233849   1.098   0.649   6.348 -1.0366 -2.5159 -1.4195
 7406SOL     OW33850   4.183   0.263   5.715 -0.0357  0.1882  0.0538
 7406SOL    HW133851   4.129   0.208   5.771 -0.2027  0.2833 -0.0137
 7406SOL    HW233852   4.114   0.303   5.662 -0.9522  1.1634  1.9806
 7407SOL     OW33853   3.481   0.510   3.807 -0.1214 -0.0568  0.7216
 7407SOL    HW133854   3.521   0.437   3.760 -1.7304  0.0171 -0.7830
 7407SOL    HW233855   3.555   0.555   3.848  1.1726 -0.8569 -0.7255
 7408SOL     OW33856   1.058   1.846   5.204 -0.0753 -0.2559  0.0729
 7408SOL    HW133857   1.026   1.827   5.292 -0.2093 -0.2323  0.0296
 7408SOL    HW233858   1.148   1.875   5.218  0.4915 -2.5054  1.0021
 7409SOL     OW33859   2.641   0.989   0.443 -0.3590  0.6439 -0.0020
 7409SOL    HW133860   2.635   0.963   0.351  0.3459 -0.9263  0.3910
 7409SOL    HW233861   2.721   0.949   0.478  0.0145  1.2067 -0.2118
 7410SOL     OW33862   3.436   3.130   3.450  0.0444  0.0774 -0.3747
 7410SOL    HW133863   3.442   3.092   3.362 -0.8647  0.4329 -0.5877
 7410SOL    HW233864   3.524   3.167   3.448 -0.0443  0.3294  0.5926
 7411SOL     OW33865   3.105   3.712   9.097  0.0912 -0.0195  0.0027
 7411SOL    HW133866   3.130   3.720   9.189  1.9811 -1.1450 -0.4278
 7411SOL    HW233867   3.193   3.729   9.064  0.0124 -0.0184 -0.2105
 7412SOL     OW33868   1.612   3.791  11.070 -0.3250 -0.0413  0.1581
 7412SOL    HW133869   1.673   3.846  11.119  0.7894 -1.7782  0.7138
 7412SOL    HW233870   1.672   3.747  11.009 -2.2555 -1.3951 -0.7562
 7413SOL     OW33871   0.411   1.175  13.795 -0.2905  0.8530 -0.3068
 7413SOL    HW133872   0.481   1.147  13.736  0.1653  0.1487  0.5684
 7413SOL    HW233873   0.441   1.265  13.810 -0.2501  0.8692 -0.4870
 7414SOL     OW33874   1.354   4.114  16.762  0.4328 -0.1592 -0.4387
 7414SOL    HW133875   1.385   4.035  16.807 -2.7061 -0.6221  0.9159
 7414SOL    HW233876   1.310   4.076  16.686 -0.7748 -0.7125  0.5207
 7415SOL     OW33877   1.366   2.330   7.606  0.2935 -0.1387 -0.3678
 7415SOL    HW133878   1.397   2.402   7.551 -3.5551  0.7684 -1.3422
 7415SOL    HW233879   1.415   2.253   7.577  1.8787  0.7377 -0.0150
 7416SOL     OW33880   4.486   3.257   5.597 -0.1772  0.6681 -0.0089
 7416SOL    HW133881   4.460   3.341   5.635  0.1140 -0.1437  1.9948
 7416SOL    HW233882   4.517   3.211   5.676 -1.3763  0.4392  0.3380
 7417SOL     OW33883   2.709   3.323  16.510 -0.1006  0.2570  0.6680
 7417SOL    HW133884   2.648   3.385  16.551  1.1482  1.3639  0.8553
 7417SOL    HW233885   2.768   3.393  16.482 -1.3293  1.6417  1.5420
 7418SOL     OW33886   3.409   1.597   8.054  0.1029  0.1509  0.4265
 7418SOL    HW133887   3.351   1.552   8.116  1.1805 -2.1782 -0.2435
 7418SOL    HW233888   3.489   1.565   8.096  0.5830 -2.0503 -2.1740
 7419SOL     OW33889   0.172   0.941   2.363  0.0562 -0.3627 -0.3924
 7419SOL    HW133890   0.199   0.942   2.455  0.2091  1.9118 -0.4601
 7419SOL    HW233891   0.084   0.977   2.369  0.7426  1.6757 -2.4735
 7420SOL     OW33892   3.142   2.895  14.616 -0.3703  0.2126 -0.7176
 7420SOL    HW133893   3.059   2.943  14.623 -1.4902 -1.9232  0.5534
 7420SOL    HW233894   3.155   2.888  14.522  0.1064  1.6037 -0.7479
 7421SOL     OW33895   0.324   1.237   1.761 -0.0029 -0.1461  0.2891
 7421SOL    HW133896   0.247   1.288   1.736 -1.0581 -1.6279  0.5010
 7421SOL    HW233897   0.285   1.162   1.805 -0.9007  0.3804  0.3885
 7422SOL     OW33898   3.700   4.584  17.491  0.2456 -0.5394  0.1985
 7422SOL    HW133899   3.740   4.588  17.404  0.1864  1.6069  0.2812
 7422SOL    HW233900   3.673   4.676  17.494 -1.6202 -1.2227  3.8421
 7423SOL     OW33901   1.962   0.976  10.253  0.4957  0.2683 -0.1210
 7423SOL    HW133902   2.020   0.906  10.283 -1.8691 -1.1640  1.0152
 7423SOL    HW233903   1.878   0.947  10.287  0.9374  1.0473  1.6673
 7424SOL     OW33904   1.938   3.921   6.307  0.0275 -0.1421  0.5679
 7424SOL    HW133905   1.932   3.926   6.402  0.7496 -2.5035  0.7467
 7424SOL    HW233906   1.950   3.828   6.285 -0.6036  0.1802 -1.1880
 7425SOL     OW33907   2.096   0.864   1.606  0.4389 -0.3269 -0.1437
 7425SOL    HW133908   2.189   0.887   1.613  0.1150  1.3249 -1.3337
 7425SOL    HW233909   2.065   0.903   1.687  1.6578  1.4707 -0.5576
 7426SOL     OW33910   1.947   2.259  10.135  0.0882 -0.0864  0.3155
 7426SOL    HW133911   1.935   2.249  10.041 -0.5711 -0.7061  0.4660
 7426SOL    HW233912   1.961   2.353  10.143 -0.3134  0.0283 -0.3776
 7427SOL     OW33913   0.670   0.406   2.062  0.0742 -0.7866 -0.7620
 7427SOL    HW133914   0.765   0.414   2.070 -0.4072  0.8369  3.0614
 7427SOL    HW233915   0.646   0.488   2.104 -0.1019 -1.7425  0.9913
 7428SOL     OW33916   4.678   1.739   7.256  0.1549  0.4081 -0.0973
 7428SOL    HW133917   4.684   1.748   7.352 -1.9800 -0.0501  0.0698
 7428SOL    HW233918   4.642   1.825   7.236 -1.2747 -0.4223 -1.0092
 7429SOL     OW33919   1.718   1.677   5.690  0.2924 -0.4626 -0.0452
 7429SOL    HW133920   1.811   1.661   5.677  0.6235  0.4094  1.2431
 7429SOL    HW233921   1.703   1.659   5.783 -2.6467  0.5365 -0.3176
 7430SOL     OW33922   3.810   4.331   1.205  0.0121 -0.3035  0.0201
 7430SOL    HW133923   3.838   4.385   1.279  1.6938 -1.5715  0.2986
 7430SOL    HW233924   3.894   4.294   1.181 -0.3997 -1.7685  0.8643
 7431SOL     OW33925   2.134   0.797   3.158  0.2090 -0.1804  0.0271
 7431SOL    HW133926   2.220   0.758   3.147 -0.6116 -1.7852 -0.6283
 7431SOL    HW233927   2.094   0.716   3.188 -0.2366  0.8161  2.1543
 7432SOL     OW33928   4.305   4.245  13.416  0.0096 -0.1195 -0.2747
 7432SOL    HW133929   4.341   4.156  13.415 -2.1531 -0.9753 -0.6479
 7432SOL    HW233930   4.350   4.277  13.495  0.2177 -0.4470 -0.2623
 7433SOL     OW33931   1.960   2.009   8.260 -0.2590 -0.0626 -0.2171
 7433SOL    HW133932   2.023   2.081   8.262 -0.1814 -0.1592  0.9522
 7433SOL    HW233933   1.961   2.002   8.355 -1.0068  1.9747 -0.0733
 7434SOL     OW33934   1.239   0.648   7.711 -0.0890 -0.2863  0.4763
 7434SOL    HW133935   1.314   0.643   7.653 -0.3754 -0.5263  0.1265
 7434SOL    HW233936   1.225   0.554   7.726  3.5424 -0.6726  1.4358
 7435SOL     OW33937   0.048   2.325   8.424 -0.5754 -0.2478 -0.3476
 7435SOL    HW133938   0.088   2.397   8.474  0.2772 -0.2979 -0.9701
 7435SOL    HW233939   0.130   2.277   8.414  1.2680  2.7013  0.4669
 7436SOL     OW33940   1.147   2.735   0.885  0.3970 -0.0657 -0.1975
 7436SOL    HW133941   1.068   2.683   0.896  0.1339  0.8691  2.2091
 7436SOL    HW233942   1.110   2.798   0.823  2.1862 -0.0844 -1.2823
 7437SOL     OW33943   2.705   1.938   8.209  0.3087 -0.2022  0.9986
 7437SOL    HW133944   2.770   2.008   8.218  1.7682 -1.4126 -0.0186
 7437SOL    HW233945   2.650   1.973   8.140  0.6326 -1.7727 -0.0699
 7438SOL     OW33946   2.842   0.287   4.025  0.3606  0.0080 -0.3176
 7438SOL    HW133947   2.898   0.291   4.103  2.5854  1.3359 -1.9631
 7438SOL    HW233948   2.756   0.276   4.064  0.9275 -0.8622  0.6940
 7439SOL     OW33949   4.334   2.056   6.090 -0.0738 -0.4961  0.1682
 7439SOL    HW133950   4.324   2.004   6.170  0.9337  1.6540  1.6894
 7439SOL    HW233951   4.410   2.108   6.112  0.1090 -1.7380  2.5316
 7440SOL     OW33952   2.591   0.363   4.155 -0.0393  0.2937 -0.0539
 7440SOL    HW133953   2.516   0.306   4.174  0.5910 -0.1065  1.1862
 7440SOL    HW233954   2.583   0.376   4.060 -0.6031  0.7458  0.0540
 7441SOL     OW33955   0.720   4.183   9.821 -0.5401  0.0212 -0.2163
 7441SOL    HW133956   0.673   4.190   9.738  0.2481 -2.5133 -0.8519
 7441SOL    HW233957   0.693   4.265   9.863  0.4555  0.7372 -0.9913
 7442SOL     OW33958   3.113   4.094  15.200 -0.4446  0.0688 -0.5008
 7442SOL    HW133959   3.052   4.039  15.249  0.4053 -1.0042 -0.6594
 7442SOL    HW233960   3.201   4.075  15.233  0.4038  1.0298 -2.2177
 7443SOL     OW33961   1.225   0.517   7.370  0.0045  0.0435  0.2983
 7443SOL    HW133962   1.130   0.528   7.367  0.4371  3.3662 -0.8097
 7443SOL    HW233963   1.229   0.432   7.415 -3.7269 -1.4654 -2.1777
 7444SOL     OW33964   3.191   0.678   8.242 -0.1409 -0.3773  0.1610
 7444SOL    HW133965   3.123   0.715   8.186  0.5050 -1.3794 -1.2863
 7444SOL    HW233966   3.274   0.690   8.196 -0.3769  0.5126 -0.0263
 7445SOL     OW33967   3.125   1.784   1.768 -0.2786  0.0165 -0.5334
 7445SOL    HW133968   3.167   1.815   1.688  1.1130  1.3532  0.7250
 7445SOL    HW233969   3.074   1.862   1.790 -0.2820  0.0828 -0.7688
 7446SOL     OW33970   2.326   4.047   3.824 -0.0288 -0.1215 -0.2036
 7446SOL    HW133971   2.353   4.139   3.822 -0.5515  0.0286 -0.2214
 7446SOL    HW233972   2.327   4.018   3.733  0.6801 -2.7995  0.6629
 7447SOL     OW33973   4.701   1.052  10.323 -0.1696 -0.0083  0.6216
 7447SOL    HW133974   4.706   1.141  10.288  2.3018 -0.1578  0.5941
 7447SOL    HW233975   0.039   1.050  10.377 -1.0281  0.0895  1.8771
 7448SOL     OW33976   2.254   2.313   4.592  0.6565  0.4768 -0.4661
 7448SOL    HW133977   2.246   2.406   4.569  0.9467  0.1177 -1.9742
 7448SOL    HW233978   2.177   2.279   4.545  0.1766 -1.5653  1.7944
 7449SOL     OW33979   4.168   4.588   6.798 -0.2640 -0.0542 -0.3861
 7449SOL    HW133980   4.216   4.506   6.810 -1.2035 -0.3253  1.6447
 7449SOL    HW233981   4.176   4.612   6.891 -3.4890  0.1107 -0.1419
 7450SOL     OW33982   4.294   3.699   2.277  0.2021  0.4953  0.3068
 7450SOL    HW133983   4.285   3.611   2.241  0.2920  0.7722 -0.3999
 7450SOL    HW233984   4.389   3.707   2.267  0.1219  1.7023  0.4316
 7451SOL     OW33985   2.075   1.517   4.100 -0.3786  0.3378 -0.6621
 7451SOL    HW133986   2.033   1.460   4.036  0.8904 -1.0943 -0.2211
 7451SOL    HW233987   2.070   1.600   4.052  1.2442  1.3930  0.9973
 7452SOL     OW33988   0.581   3.108   5.798  0.2847  0.4910 -0.1427
 7452SOL    HW133989   0.627   3.061   5.867  1.8840 -0.1804 -1.6595
 7452SOL    HW233990   0.574   3.194   5.839 -0.1255  0.6578 -0.5645
 7453SOL     OW33991   2.068   0.661   9.427 -0.4486 -0.1743 -0.8314
 7453SOL    HW133992   2.084   0.734   9.366  2.8898  1.4714  1.9894
 7453SOL    HW233993   1.974   0.654   9.412 -0.7677  0.5586  0.8699
 7454SOL     OW33994   3.322   0.460   3.037  0.8114  0.0573  0.5999
 7454SOL    HW133995   3.349   0.528   3.100  0.0261  1.2413 -0.3273
 7454SOL    HW233996   3.258   0.411   3.088  0.0574 -1.3174 -1.6564
 7455SOL     OW33997   4.021   3.521  17.747  0.4735 -0.1333  0.0834
 7455SOL    HW133998   3.966   3.479   0.050  2.1211 -0.8286  1.0181
 7455SOL    HW233999   4.094   3.461  17.737 -0.6109 -1.2000 -1.4041
 7456SOL     OW34000   4.300   2.195   5.655  0.9784  0.5047 -0.5488
 7456SOL    HW134001   4.393   2.212   5.643  1.5285 -1.2204  1.2021
 7456SOL    HW234002   4.297   2.102   5.630 -0.3748  0.7554 -1.3043
 7457SOL     OW34003   3.903   2.791   6.351  0.6544 -0.2377 -0.2815
 7457SOL    HW134004   3.901   2.887   6.346  1.3782 -0.2860 -1.5394
 7457SOL    HW234005   3.889   2.775   6.444 -1.6548 -0.2623 -0.6326
 7458SOL     OW34006   0.215   1.477   2.344 -0.8952  0.3991 -0.2904
 7458SOL    HW134007   0.249   1.397   2.303 -0.5459  1.2458 -1.6449
 7458SOL    HW234008   0.133   1.496   2.298 -1.0799 -2.1768 -1.0438
 7459SOL     OW34009   4.722   4.705   4.972  0.4287 -0.2143 -0.2625
 7459SOL    HW134010   4.656   0.031   4.957  1.1618  0.6419  0.3373
 7459SOL    HW234011   4.697   4.673   5.059 -0.9790 -1.8846 -1.2911
 7460SOL     OW34012   2.958   4.250   4.792  0.6606  0.1255  0.0651
 7460SOL    HW134013   2.981   4.331   4.748 -0.4507  0.7949  0.7238
 7460SOL    HW234014   2.993   4.188   4.727 -2.0040 -1.6842  0.3382
 7461SOL     OW34015   4.000   1.462   4.823 -0.0990 -0.6748  0.2261
 7461SOL    HW134016   4.093   1.468   4.805  0.0352  0.7174  1.3555
 7461SOL    HW234017   3.996   1.372   4.856  0.7128 -0.5040  0.7756
 7462SOL     OW34018   0.488   3.889   8.580 -0.2162  0.3803 -0.0243
 7462SOL    HW134019   0.507   3.829   8.653  0.8682  0.7503 -0.0042
 7462SOL    HW234020   0.484   3.825   8.510 -2.0738  0.5527 -0.0743
 7463SOL     OW34021   1.891   2.696   8.508  0.5127  0.1114 -0.1647
 7463SOL    HW134022   1.945   2.739   8.575 -0.4039 -0.8509  1.1902
 7463SOL    HW234023   1.802   2.722   8.533  1.6464  1.9022  2.0166
 7464SOL     OW34024   4.300   4.404   5.879 -0.4183  0.1648 -0.0298
 7464SOL    HW134025   4.351   4.324   5.876 -0.3018  0.2806 -1.2104
 7464SOL    HW234026   4.290   4.437   5.790  0.3092 -1.1387 -0.5761
 7465SOL     OW34027   4.561   2.669  12.023  0.5191  0.3471 -0.1378
 7465SOL    HW134028   4.599   2.730  12.086 -3.1929 -1.1388  3.5305
 7465SOL    HW234029   4.527   2.606  12.087 -0.3583 -2.4702 -3.4100
 7466SOL     OW34030   1.072   2.189   5.495  0.3078  0.0473 -0.3958
 7466SOL    HW134031   1.013   2.200   5.420 -0.7926  0.9019  0.5751
 7466SOL    HW234032   1.144   2.250   5.481 -1.1262  1.3376 -2.1000
 7467SOL     OW34033   2.622   4.738   4.046  0.6607  0.3036 -0.3514
 7467SOL    HW134034   2.671   4.718   4.126 -0.6335 -0.2736  0.2955
 7467SOL    HW234035   2.681   4.709   3.976 -0.5092 -1.1271 -0.7535
 7468SOL     OW34036   4.468   4.023   1.255 -0.1282  0.1524 -0.4066
 7468SOL    HW134037   4.373   4.024   1.267  0.1164  1.9144  1.3110
 7468SOL    HW234038   4.459   4.008   1.161  1.9349  0.6054 -0.6782
 7469SOL     OW34039   1.636   2.353   9.028 -0.0228 -0.3367  0.2659
 7469SOL    HW134040   1.657   2.396   9.111 -0.1786  0.4092 -0.0815
 7469SOL    HW234041   1.542   2.367   9.018 -0.4378 -2.8108  0.6904
 7470SOL     OW34042   3.581   4.715   8.509  0.6142  0.1322 -0.2257
 7470SOL    HW134043   3.502   4.674   8.545 -0.2685  3.0377  1.1279
 7470SOL    HW234044   3.560   0.066   8.519 -0.6425 -0.0210 -1.5065
 7471SOL     OW34045   1.082   0.467  15.939 -0.1879  1.1031  0.0609
 7471SOL    HW134046   1.054   0.440  15.852 -0.0322 -0.1153  0.3952
 7471SOL    HW234047   1.148   0.536  15.925 -0.8331  1.1979 -2.5190
 7472SOL     OW34048   1.506   1.303  17.321  0.5493  0.3484 -0.6078
 7472SOL    HW134049   1.553   1.383  17.347 -1.6005  1.1794  0.7442
 7472SOL    HW234050   1.556   1.285  17.241 -1.0465 -0.7309 -1.3510
 7473SOL     OW34051   2.186   1.776   6.443 -0.3860 -0.3264 -0.1577
 7473SOL    HW134052   2.226   1.747   6.361 -1.3054 -0.5795 -0.5179
 7473SOL    HW234053   2.262   1.814   6.488 -0.4529  1.2241 -1.3390
 7474SOL     OW34054   1.791   1.545  16.077 -0.3894 -1.2367 -0.0364
 7474SOL    HW134055   1.839   1.481  16.024 -2.2872 -2.2345 -0.5596
 7474SOL    HW234056   1.698   1.529  16.060 -0.5984 -0.7820  0.7092
 7475SOL     OW34057   1.611   4.334  16.204  0.0617  0.3077  0.0257
 7475SOL    HW134058   1.646   4.416  16.239 -1.0625  1.0060 -0.4703
 7475SOL    HW234059   1.524   4.366  16.179  0.1620  1.4222  1.0933
 7476SOL     OW34060   3.343   2.218   2.787 -0.0002 -0.4092  0.2131
 7476SOL    HW134061   3.272   2.250   2.732  0.7553 -2.2634 -1.8378
 7476SOL    HW234062   3.376   2.305   2.809  2.0432 -0.6485 -1.8669
 7477SOL     OW34063   1.102   3.556  16.567  0.1029  0.0094  0.3818
 7477SOL    HW134064   1.177   3.497  16.575 -0.7160 -1.3530 -2.0073
 7477SOL    HW234065   1.138   3.631  16.615  0.1791  0.1622  0.0851
 7478SOL     OW34066   0.228   2.898   6.587 -0.3255  0.1278 -0.5447
 7478SOL    HW134067   0.285   2.924   6.659 -0.8161  1.8299 -0.7878
 7478SOL    HW234068   0.143   2.934   6.611 -1.1869 -1.8879 -0.5367
 7479SOL     OW34069   4.306   2.970   2.957  0.5020  0.1840  0.2113
 7479SOL    HW134070   4.266   2.897   3.003  3.6597 -1.7700 -0.1708
 7479SOL    HW234071   4.383   2.925   2.923 -0.2404 -0.1502 -1.0331
 7480SOL     OW34072   4.149   1.338   8.027  0.6817 -0.4900  0.2181
 7480SOL    HW134073   4.141   1.302   7.939 -3.3111  0.4567  0.1998
 7480SOL    HW234074   4.240   1.316   8.050  0.8222 -0.3360 -0.1998
 7481SOL     OW34075   2.786   0.456   0.429  0.0800  0.3326 -0.6673
 7481SOL    HW134076   2.807   0.383   0.488  1.4890  0.8934 -0.4583
 7481SOL    HW234077   2.763   0.515   0.501  1.7114 -0.7055  0.7008
 7482SOL     OW34078   0.636   2.946  16.863  0.5675 -0.5206  0.3621
 7482SOL    HW134079   0.623   3.014  16.797  1.1999 -1.2103 -0.4633
 7482SOL    HW234080   0.556   2.895  16.847  0.1559 -0.1044  1.1038
 7483SOL     OW34081   3.222   2.364  15.957  0.8345 -0.0812  0.0651
 7483SOL    HW134082   3.164   2.354  16.033 -1.5327 -3.7481 -2.1732
 7483SOL    HW234083   3.304   2.371  16.005  1.1285 -1.3090 -0.2597
 7484SOL     OW34084   1.036   0.971  13.527 -0.3317 -0.5631 -0.1235
 7484SOL    HW134085   1.058   0.881  13.551  2.4330  0.0254 -0.4468
 7484SOL    HW234086   1.024   0.961  13.432 -0.4674  1.8374 -0.3603
 7485SOL     OW34087   3.247   2.689   9.079 -0.2515 -0.1667 -0.1260
 7485SOL    HW134088   3.174   2.739   9.045  1.6371  1.6253 -1.5346
 7485SOL    HW234089   3.270   2.621   9.016  3.8799  0.3203  0.8255
 7486SOL     OW34090   2.883   0.969   1.741 -0.2361  0.5701  0.5302
 7486SOL    HW134091   2.814   0.926   1.791  1.7739 -1.3779  1.6075
 7486SOL    HW234092   2.837   1.022   1.676 -0.0378 -0.0621 -0.1389
 7487SOL     OW34093   4.242   4.142   5.583  0.2209 -0.0187 -0.4914
 7487SOL    HW134094   4.156   4.184   5.590  1.1674  1.7273  0.7427
 7487SOL    HW234095   4.274   4.183   5.503  1.4925 -2.0797 -1.0198
 7488SOL     OW34096   0.894   2.004   2.055  0.0709 -0.0764  0.1177
 7488SOL    HW134097   0.900   1.909   2.056 -1.1291 -0.1752 -1.4550
 7488SOL    HW234098   0.863   2.014   1.965  2.7834  1.2651 -0.6765
 7489SOL     OW34099   1.439   0.674   8.009  0.5922  0.1823  0.1487
 7489SOL    HW134100   1.357   0.654   8.054 -0.1104  0.4882 -0.9943
 7489SOL    HW234101   1.434   0.768   7.992  1.4815  0.1645 -0.1905
 7490SOL     OW34102   3.459   3.534   8.347  0.0555 -0.1346 -0.2689
 7490SOL    HW134103   3.528   3.477   8.382 -0.3569  1.7445  3.5974
 7490SOL    HW234104   3.511   3.567   8.274  1.1750  0.3130  0.7263
 7491SOL     OW34105   1.883   2.568   5.392 -0.0663  0.1049  0.0743
 7491SOL    HW134106   1.812   2.619   5.430  0.5791  0.6751  0.4953
 7491SOL    HW234107   1.834   2.504   5.340  0.0180 -0.0836  0.2264
 7492SOL     OW34108   0.808   2.544   9.577 -0.0126 -0.5647  0.2695
 7492SOL    HW134109   0.741   2.476   9.590 -1.2699  0.6143  0.0351
 7492SOL    HW234110   0.763   2.615   9.624 -1.1236 -3.7093  3.9441
 7493SOL     OW34111   1.111   2.166   3.369 -0.2347  0.2347  0.2384
 7493SOL    HW134112   1.024   2.134   3.344  0.1538  0.1120 -0.9089
 7493SOL    HW234113   1.088   2.210   3.451 -0.1574  0.5026  0.1180
 7494SOL     OW34114   2.311   2.391   1.701 -0.1348  0.0580  0.3353
 7494SOL    HW134115   2.285   2.372   1.611  2.7784  1.9186 -0.8869
 7494SOL    HW234116   2.233   2.388   1.757  0.6088  2.3428  1.4728
 7495SOL     OW34117   2.549   1.737   8.285  0.4300 -0.7994  0.1024
 7495SOL    HW134118   2.603   1.807   8.249  1.3935 -1.5417  0.1232
 7495SOL    HW234119   2.538   1.682   8.207  1.8431 -0.7441 -0.1321
 7496SOL     OW34120   0.136   2.600   6.812  0.0883 -0.0334  0.5372
 7496SOL    HW134121   0.179   2.664   6.869  1.1700 -0.6083  0.3848
 7496SOL    HW234122   0.183   2.527   6.852 -0.7061 -1.6226 -1.4115
 7497SOL     OW34123   4.288   2.828  13.466  0.6241 -0.1979  0.3251
 7497SOL    HW134124   4.269   2.742  13.504  1.6778  0.2244  1.8088
 7497SOL    HW234125   4.196   2.854  13.474  0.8728  1.0859 -1.0240
 7498SOL     OW34126   2.419   0.307   0.434  0.6828  0.7292  0.4708
 7498SOL    HW134127   2.344   0.261   0.395  1.0950  0.4748 -0.0310
 7498SOL    HW234128   2.451   0.330   0.347  0.1908 -1.2737 -0.2391
 7499SOL     OW34129   3.985   1.686   5.457 -0.2343 -0.0773  0.2989
 7499SOL    HW134130   4.031   1.766   5.430  0.1007 -0.6352 -0.7764
 7499SOL    HW234131   3.894   1.706   5.435 -0.2724  2.0891  2.4535
 7500SOL     OW34132   2.841   3.445   6.903  0.5179  0.8645  0.4799
 7500SOL    HW134133   2.787   3.428   6.980  0.1315  4.0286  0.8894
 7500SOL    HW234134   2.880   3.360   6.881  1.2002  1.1533  0.5892
 7501SOL     OW34135   1.919   3.697   4.038  0.1585 -0.4320 -0.1345
 7501SOL    HW134136   1.844   3.732   3.990  0.0189 -1.3707 -0.5924
 7501SOL    HW234137   1.928   3.616   3.988 -0.2926 -1.6199  1.7185
 7502SOL     OW34138   3.280   2.452   7.451 -0.3334 -0.0063 -0.1981
 7502SOL    HW134139   3.231   2.383   7.496  0.9901  1.3064  3.2746
 7502SOL    HW234140   3.338   2.472   7.524  0.4787  0.1480 -0.8942
 7503SOL     OW34141   2.736   2.445   5.079  0.1007  0.5535 -0.7808
 7503SOL    HW134142   2.768   2.511   5.140 -1.7378  1.6603 -1.0146
 7503SOL    HW234143   2.808   2.459   5.018 -1.0908 -0.1133 -2.3616
 7504SOL     OW34144   0.277   1.705   5.752  0.2656  0.4182  0.0966
 7504SOL    HW134145   0.253   1.638   5.816 -1.6015  2.5061  1.5772
 7504SOL    HW234146   0.195   1.742   5.719 -0.3859 -1.0975  0.0042
 7505SOL     OW34147   2.792   1.366  12.602  0.2679  0.0505 -0.2440
 7505SOL    HW134148   2.775   1.318  12.683  0.1579 -0.8737 -0.8084
 7505SOL    HW234149   2.823   1.294  12.548  1.1351 -0.7901  1.3906
 7506SOL     OW34150   1.833   3.125  10.061 -0.2939 -0.5043  0.8266
 7506SOL    HW134151   1.747   3.164  10.079  0.7160  0.3604  3.9912
 7506SOL    HW234152   1.823   3.084   9.976  0.2060  1.4692 -0.1816
 7507SOL     OW34153   3.971   3.206   1.196 -0.5983  0.4719 -0.7449
 7507SOL    HW134154   3.946   3.298   1.205  2.1822  1.0181  1.3261
 7507SOL    HW234155   4.038   3.195   1.129 -0.8065  0.1943 -0.9068
 7508SOL     OW34156   0.995   0.830  12.186  0.0417  0.2298 -0.0159
 7508SOL    HW134157   0.919   0.859  12.135  0.2401  0.7071 -0.0409
 7508SOL    HW234158   1.012   0.739  12.161  1.2117  0.4390  0.0513
 7509SOL     OW34159   2.455   1.745   3.253  0.6550 -0.0302 -0.3302
 7509SOL    HW134160   2.470   1.764   3.160 -0.8088 -1.9729 -0.9762
 7509SOL    HW234161   2.518   1.674   3.265  0.0735 -0.3923  0.5871
 7510SOL     OW34162   2.392   4.225   4.768 -0.4823  0.6403  0.2728
 7510SOL    HW134163   2.486   4.220   4.749 -0.4611  0.3034  0.4624
 7510SOL    HW234164   2.374   4.132   4.775 -0.6569  0.7666  1.5233
 7511SOL     OW34165   3.085   4.367  16.533  0.1847  0.2026  0.3834
 7511SOL    HW134166   2.997   4.405  16.531  1.0253  2.1831  0.3712
 7511SOL    HW234167   3.138   4.421  16.473 -0.0796 -0.4403 -0.4250
 7512SOL     OW34168   0.771   3.599   1.913 -0.4272 -0.3362 -0.2583
 7512SOL    HW134169   0.793   3.506   1.918  1.2674  0.2609  3.4020
 7512SOL    HW234170   0.702   3.581   1.850  1.3538 -1.5031 -1.8617
 7513SOL     OW34171   4.679   0.457   6.648  0.0989  0.5008 -0.1987
 7513SOL    HW134172   4.604   0.457   6.587 -1.6620  0.1358  1.9734
 7513SOL    HW234173   4.624   0.447   6.726  2.2703  0.6357  1.3311
 7514SOL     OW34174   0.322   0.840   3.224 -0.0331 -0.4311  0.4227
 7514SOL    HW134175   0.410   0.814   3.251 -0.0762 -0.4198  0.5756
 7514SOL    HW234176   0.306   0.922   3.270 -1.4352 -0.5327  0.0951
 7515SOL     OW34177   3.007   4.216   4.269 -0.0136  0.3538  0.1857
 7515SOL    HW134178   2.964   4.134   4.247  2.1534 -0.0085 -2.8175
 7515SOL    HW234179   2.939   4.278   4.243 -0.1766  0.8127  1.7447
 7516SOL     OW34180   4.488   1.544   5.828 -0.0510 -0.0948  0.1147
 7516SOL    HW134181   4.502   1.456   5.793 -1.5753  0.0756 -0.9394
 7516SOL    HW234182   4.565   1.562   5.882 -1.0050  0.0034  1.4529
 7517SOL     OW34183   2.195   1.340   1.314  0.1852 -0.2122  0.3664
 7517SOL    HW134184   2.134   1.300   1.251  0.0472  1.4002 -0.5473
 7517SOL    HW234185   2.172   1.283   1.387 -0.4656  0.9992  1.1213
 7518SOL     OW34186   0.129   3.963  16.278  0.3096 -0.0725 -0.0050
 7518SOL    HW134187   0.043   3.966  16.236  0.0129  1.4707  0.6863
 7518SOL    HW234188   0.116   4.027  16.349  0.1890  0.5094 -0.5533
 7519SOL     OW34189   3.583   2.374   3.827 -0.2169  0.7184 -0.1699
 7519SOL    HW134190   3.557   2.352   3.917 -1.3075 -1.9946 -1.1403
 7519SOL    HW234191   3.597   2.469   3.823 -3.0533  1.1642  0.6357
 7520SOL     OW34192   2.774   4.682   4.270  0.2907  0.0997 -0.1153
 7520SOL    HW134193   2.868   4.696   4.267  0.6127 -1.8984  0.3791
 7520SOL    HW234194   2.746   0.006   4.333 -0.0851  0.8536 -1.0715
 7521SOL     OW34195   4.645   0.170   2.397  0.0064 -0.2296  0.1155
 7521SOL    HW134196   4.570   0.118   2.426 -1.9239  0.3455 -3.7857
 7521SOL    HW234197   4.690   0.179   2.480  0.5128 -0.3528 -0.1458
 7522SOL     OW34198   0.460   4.263   0.886  0.1502  0.1760 -0.1154
 7522SOL    HW134199   0.539   4.307   0.916  0.7865 -2.3091  1.8272
 7522SOL    HW234200   0.474   4.250   0.792 -1.4338  0.5917 -0.4092
 7523SOL     OW34201   2.783   3.797  16.875 -0.2727 -0.0067 -0.4562
 7523SOL    HW134202   2.700   3.835  16.902  0.0637 -0.3026  1.0095
 7523SOL    HW234203   2.837   3.872  16.848  1.5531 -0.6999  1.2537
 7524SOL     OW34204   2.454   1.231  11.401  0.1830 -0.5032 -1.0166
 7524SOL    HW134205   2.463   1.258  11.310  1.4954  1.1475 -0.3984
 7524SOL    HW234206   2.526   1.286  11.433  0.4359 -0.6915 -1.2676
 7525SOL     OW34207   3.028   4.706   9.838  0.7500  0.1378 -0.5238
 7525SOL    HW134208   2.944   4.703   9.793  1.1444 -1.3381 -1.1815
 7525SOL    HW234209   3.089   0.006   9.777  0.5458  1.1094 -0.0645
 7526SOL     OW34210   1.306   0.026   3.647  0.4034 -0.0820 -0.1014
 7526SOL    HW134211   1.352   4.687   3.622 -1.6646 -0.5260 -2.4212
 7526SOL    HW234212   1.216   4.739   3.660  1.1789 -2.8518 -0.7982
 7527SOL     OW34213   1.631   0.411   2.457 -0.2203  0.2102 -0.1298
 7527SOL    HW134214   1.656   0.464   2.533  0.2950  0.0194 -0.1677
 7527SOL    HW234215   1.587   0.337   2.498  2.3991 -0.3941  1.5904
 7528SOL     OW34216   2.818   0.194  16.848  0.3647  0.7424  0.1061
 7528SOL    HW134217   2.823   0.119  16.790 -1.6898 -0.0383  0.9191
 7528SOL    HW234218   2.883   0.248  16.804  1.0219 -0.2907 -0.1589
 7529SOL     OW34219   0.948   1.999   0.628 -0.6568 -0.2279 -0.7298
 7529SOL    HW134220   0.963   2.033   0.540  0.0221  0.4048 -0.3807
 7529SOL    HW234221   0.877   2.060   0.649  0.3806  1.5694 -2.4481
 7530SOL     OW34222   3.701   3.927  13.204 -0.5902  0.3167  0.3479
 7530SOL    HW134223   3.787   3.962  13.180 -0.0288 -1.5547 -0.3328
 7530SOL    HW234224   3.660   4.004  13.244  1.7239  2.0376 -0.6100
 7531SOL     OW34225   4.257   3.872   0.796  0.0865 -0.5797 -0.2431
 7531SOL    HW134226   4.309   3.919   0.730 -0.4703  0.2029 -0.1131
 7531SOL    HW234227   4.301   3.896   0.877 -1.7635  0.4934  0.4391
 7532SOL     OW34228   3.717   3.023   2.380 -0.6801 -0.0684 -0.0872
 7532SOL    HW134229   3.769   3.103   2.369  0.4107 -0.6983  0.4865
 7532SOL    HW234230   3.713   3.008   2.475  0.9066  0.8256  0.1276
 7533SOL     OW34231   4.508   2.739   6.167  0.0161 -0.1254  0.2890
 7533SOL    HW134232   4.570   2.813   6.167  0.7529 -0.7399 -0.0239
 7533SOL    HW234233   4.568   2.671   6.197 -2.6515 -3.0356 -0.9577
 7534SOL     OW34234   3.499   4.139   6.938  0.3911 -0.5025 -0.1319
 7534SOL    HW134235   3.525   4.229   6.955 -0.0561 -0.2634 -0.7133
 7534SOL    HW234236   3.584   4.097   6.923  1.4481  1.2243  1.0735
 7535SOL     OW34237   0.170   2.280   9.268 -0.2003 -0.3733  0.2077
 7535SOL    HW134238   0.111   2.346   9.305  1.6542  1.2527  0.2315
 7535SOL    HW234239   0.160   2.307   9.177 -0.1104  2.9733  1.2039
 7536SOL     OW34240   0.312   0.226  12.677  0.1579 -0.4412  0.6531
 7536SOL    HW134241   0.363   0.154  12.715 -0.2842 -0.0888  1.9169
 7536SOL    HW234242   0.332   0.211  12.584 -0.8776  1.7115  0.0928
 7537SOL     OW34243   1.972   3.663   8.315 -0.1330 -0.1666  0.4318
 7537SOL    HW134244   1.916   3.682   8.239  0.4999 -1.1838 -0.2806
 7537SOL    HW234245   1.993   3.571   8.301 -0.0160 -0.2310  1.0280
 7538SOL     OW34246   3.806   3.001   0.452  0.1667 -0.0957  0.0570
 7538SOL    HW134247   3.833   3.044   0.371 -0.0808  0.5285  0.3101
 7538SOL    HW234248   3.843   2.913   0.441 -1.1689 -0.7404  0.6900
 7539SOL     OW34249   3.293   3.549   6.802  0.7108 -0.2244  0.1017
 7539SOL    HW134250   3.267   3.494   6.728 -2.8007  1.6176 -0.0048
 7539SOL    HW234251   3.208   3.583   6.827 -0.0782 -1.1724 -1.2764
 7540SOL     OW34252   1.064   0.026  14.346  0.6436 -0.4910 -0.7702
 7540SOL    HW134253   1.023   0.112  14.354  0.2259 -0.9581  2.0525
 7540SOL    HW234254   0.987   4.712  14.348  0.7507 -0.6628 -1.4155
 7541SOL     OW34255   1.790   3.927   3.873  0.0569 -0.4504 -0.7233
 7541SOL    HW134256   1.752   3.989   3.811 -0.8754  0.3491  0.6383
 7541SOL    HW234257   1.731   3.929   3.948  0.7859  0.1043 -0.1643
 7542SOL     OW34258   1.298   4.168   7.868 -0.0416 -0.7982 -0.0078
 7542SOL    HW134259   1.382   4.208   7.892 -0.0519 -0.5239 -0.4312
 7542SOL    HW234260   1.269   4.229   7.800  0.0405  2.6189  2.9754
 7543SOL     OW34261   2.463   2.455   7.898 -0.2037  0.1449  0.1985
 7543SOL    HW134262   2.535   2.392   7.900 -1.3853 -1.1127  2.7818
 7543SOL    HW234263   2.495   2.515   7.966 -1.5872  2.0798 -0.8583
 7544SOL     OW34264   1.905   1.820   5.278  0.3125 -0.4938  0.0782
 7544SOL    HW134265   1.873   1.737   5.242 -0.9428  0.3166 -0.6987
 7544SOL    HW234266   1.870   1.882   5.214 -1.0836 -1.2640  0.1099
 7545SOL     OW34267   4.154   3.197   3.690  0.5933  0.4896 -0.1526
 7545SOL    HW134268   4.082   3.237   3.641  0.9160  1.4071  0.1075
 7545SOL    HW234269   4.123   3.107   3.697 -0.4108  0.7264 -1.4692
 7546SOL     OW34270   2.380   4.350   5.215 -0.0547  0.5312  0.0096
 7546SOL    HW134271   2.434   4.282   5.255 -0.3217  0.7573  0.7536
 7546SOL    HW234272   2.299   4.304   5.239  0.7956 -0.2666  1.3800
 7547SOL     OW34273   0.995   0.693   8.344 -0.8063  0.2521 -0.2580
 7547SOL    HW134274   1.018   0.786   8.353 -0.0534  0.1112 -0.7577
 7547SOL    HW234275   1.039   0.659   8.422  2.3490 -0.1854 -2.2232
 7548SOL     OW34276   1.126   2.613   2.244 -0.4361  0.0568  0.0396
 7548SOL    HW134277   1.179   2.650   2.173  2.7091 -1.3120  1.6844
 7548SOL    HW234278   1.148   2.670   2.318  0.7910  0.7773 -0.8839
 7549SOL     OW34279   1.479   0.241   7.231 -0.7288 -0.5774 -0.0870
 7549SOL    HW134280   1.541   0.296   7.279 -2.7635 -0.1666  2.0630
 7549SOL    HW234281   1.542   0.192   7.178 -1.0262 -0.6911 -0.3362
 7550SOL     OW34282   1.729   0.309   2.120 -0.0902 -0.3187 -0.0140
 7550SOL    HW134283   1.812   0.267   2.100 -0.8856 -1.7254 -0.3508
 7550SOL    HW234284   1.667   0.275   2.056 -1.3243  2.7478 -0.4187
 7551SOL     OW34285   2.916   0.416  10.004  0.1009 -0.2506  0.6826
 7551SOL    HW134286   2.883   0.336   9.964  1.2366 -0.4917  0.2506
 7551SOL    HW234287   3.006   0.388  10.021  0.8326  2.2660  0.9635
 7552SOL     OW34288   4.511   1.117   3.765 -0.1001 -0.1094  0.4754
 7552SOL    HW134289   4.478   1.028   3.755  1.9924 -0.7283 -0.9710
 7552SOL    HW234290   4.435   1.172   3.782  1.6470  2.9149 -1.5014
 7553SOL     OW34291   0.030   1.085   7.521 -0.1201 -0.1924 -0.0836
 7553SOL    HW134292   0.119   1.057   7.542 -0.8492 -0.8840  2.0376
 7553SOL    HW234293   4.726   1.043   7.594 -2.0176  0.2188 -1.0304
 7554SOL     OW34294   3.595   0.941   7.580  0.1644  0.1951 -0.2722
 7554SOL    HW134295   3.540   1.017   7.597 -0.4193 -0.2144 -0.3135
 7554SOL    HW234296   3.647   0.936   7.660 -0.9542  1.1774  0.5122
 7555SOL     OW34297   1.122   4.009   4.188  0.5883 -0.7170 -0.2230
 7555SOL    HW134298   1.199   3.964   4.155  2.1345  0.5819  1.5991
 7555SOL    HW234299   1.090   4.058   4.112 -0.7662  0.7203  1.2487
 7556SOL     OW34300   2.419   1.093   2.173 -0.1494 -0.1009  0.5190
 7556SOL    HW134301   2.486   1.156   2.148  2.1987 -2.7842  0.0796
 7556SOL    HW234302   2.350   1.154   2.200 -0.4469 -0.9479  1.6827
 7557SOL     OW34303   3.865   0.671  11.939  0.0717  0.0829  0.1037
 7557SOL    HW134304   3.952   0.638  11.958  1.0136  2.5056 -0.0402
 7557SOL    HW234305   3.880   0.763  11.916  0.3277  0.0980  0.3292
 7558SOL     OW34306   4.732   1.071   3.477  0.4498 -0.3319  0.0610
 7558SOL    HW134307   4.663   1.072   3.411 -0.5666 -0.9547  1.1116
 7558SOL    HW234308   4.718   0.991   3.526 -1.7094  0.2364  0.3558
 7559SOL     OW34309   1.145   4.603   5.997 -0.5868 -0.2544 -0.2393
 7559SOL    HW134310   1.106   4.676   5.950  0.7331  1.2693  1.0532
 7559SOL    HW234311   1.215   4.646   6.046  1.3906 -0.5224 -2.7904
 7560SOL     OW34312   3.248   3.350  11.324  0.0448  0.5343  0.0090
 7560SOL    HW134313   3.317   3.370  11.388  0.6970  0.8181 -0.7726
 7560SOL    HW234314   3.206   3.436  11.319 -1.2866 -0.1484 -0.4692
 7561SOL     OW34315   3.733   2.684   2.245 -0.5308 -0.0351 -0.2901
 7561SOL    HW134316   3.771   2.602   2.277 -0.3385  0.6092  1.1243
 7561SOL    HW234317   3.670   2.707   2.314  0.6534 -1.7604  1.3585
 7562SOL     OW34318   0.019   4.246   8.970 -0.3234  0.1370 -0.1854
 7562SOL    HW134319   0.052   4.321   8.921  0.2699 -1.9283 -2.9940
 7562SOL    HW234320   0.089   4.235   9.034 -0.3172 -0.0104 -0.2173
 7563SOL     OW34321   2.444   0.038   9.066 -0.7100 -0.6470 -0.1196
 7563SOL    HW134322   2.532   0.057   9.033 -1.2650  2.1965  0.0548
 7563SOL    HW234323   2.439   4.684   9.057 -0.6928 -0.6886  0.3365
 7564SOL     OW34324   4.249   3.043   9.463  0.2261  0.2984 -0.6864
 7564SOL    HW134325   4.326   3.097   9.479 -0.6334  0.9146  1.4431
 7564SOL    HW234326   4.200   3.108   9.412 -0.8339  0.0656  0.0338
 7565SOL     OW34327   0.038   3.939   4.720  0.5341  0.4030  0.2479
 7565SOL    HW134328   0.019   3.849   4.743  3.9022 -0.0461  1.2642
 7565SOL    HW234329   0.047   3.932   4.625  1.0160 -1.3642  0.4318
 7566SOL     OW34330   2.205   2.480   6.661 -0.2080  0.0931  0.1011
 7566SOL    HW134331   2.283   2.480   6.605 -0.1866  2.4976  0.1061
 7566SOL    HW234332   2.133   2.508   6.605 -0.8159 -3.0575 -0.6819
 7567SOL     OW34333   2.367   0.948  12.578  0.6734 -0.0943  0.2794
 7567SOL    HW134334   2.448   0.941  12.528  0.6087  1.2560 -0.0117
 7567SOL    HW234335   2.308   0.999  12.524  2.5588  1.5017 -0.2555
 7568SOL     OW34336   3.691   1.244  11.773 -0.2373  0.1822  0.2819
 7568SOL    HW134337   3.768   1.290  11.804  1.4941 -1.6714 -1.2695
 7568SOL    HW234338   3.686   1.172  11.836  0.4139 -0.9246 -0.9110
 7569SOL     OW34339   0.766   1.029   1.990  0.4366 -0.1706  0.0848
 7569SOL    HW134340   0.795   0.938   1.999  0.3824 -0.3574 -1.7148
 7569SOL    HW234341   0.671   1.028   1.977  0.5150 -3.5414 -0.2993
 7570SOL     OW34342   1.053   2.746   4.028 -0.0986 -0.3148 -0.1270
 7570SOL    HW134343   1.074   2.762   3.936 -0.0376  0.0642 -0.0477
 7570SOL    HW234344   1.064   2.651   4.028  1.6627 -0.1154 -1.0498
 7571SOL     OW34345   2.158   3.997   9.625 -0.3000  0.6640  0.4637
 7571SOL    HW134346   2.165   4.002   9.530 -1.0949  0.4583  0.3899
 7571SOL    HW234347   2.147   3.902   9.635 -1.4393  0.8664  1.1796
 7572SOL     OW34348   3.925   0.562   1.680  0.5306  0.0788 -0.5777
 7572SOL    HW134349   3.933   0.637   1.739 -0.9505 -2.0928  2.3949
 7572SOL    HW234350   3.942   0.488   1.739  0.9838  0.3262 -0.3928
 7573SOL     OW34351   1.544   0.729   2.450  0.3096 -0.0467 -0.0827
 7573SOL    HW134352   1.602   0.716   2.375  0.3989 -0.5476  0.0715
 7573SOL    HW234353   1.608   0.710   2.519  1.3629  2.3440 -0.3811
 7574SOL     OW34354   1.519   1.345   0.200  0.4760  0.2939  0.0143
 7574SOL    HW134355   1.537   1.293   0.278 -0.9266 -1.6679 -0.9908
 7574SOL    HW234356   1.505   1.430   0.241  0.0016 -0.2333  0.9379
 7575SOL     OW34357   0.398   3.099   4.217  0.1251 -0.8511 -0.3441
 7575SOL    HW134358   0.481   3.126   4.179 -0.7310  1.8285 -0.2823
 7575SOL    HW234359   0.417   3.006   4.229  1.9788 -0.6862 -2.0941
 7576SOL     OW34360   3.993   3.329  15.583 -0.0732 -0.3627  0.6105
 7576SOL    HW134361   4.066   3.367  15.631 -0.6515  0.7676  0.6038
 7576SOL    HW234362   3.953   3.407  15.544  1.7616 -0.3921 -1.3061
 7577SOL     OW34363   1.379   3.891   4.672 -0.0632 -0.3834  0.5585
 7577SOL    HW134364   1.337   3.913   4.755  3.5925 -1.9057  2.8331
 7577SOL    HW234365   1.315   3.909   4.604  1.5579 -0.0720 -0.8784
 7578SOL     OW34366   1.462   1.943   8.590 -0.1621  0.5252 -0.5975
 7578SOL    HW134367   1.555   1.949   8.568 -0.4513  2.0918 -1.4034
 7578SOL    HW234368   1.451   2.020   8.646 -0.3026  1.2235 -1.5817
 7579SOL     OW34369   3.413   1.910  15.722 -0.6715  0.3229  0.0149
 7579SOL    HW134370   3.383   1.956  15.801 -1.9265 -1.3223  0.4834
 7579SOL    HW234371   3.407   1.991  15.671 -0.3566  1.4508  1.7343
 7580SOL     OW34372   4.562   3.283   1.973  0.9976 -0.4173  0.0312
 7580SOL    HW134373   4.555   3.379   1.979  1.7173 -0.4489  1.4452
 7580SOL    HW234374   4.485   3.254   2.022  1.8412  0.4751  1.9054
 7581SOL     OW34375   2.511   2.792  12.083  0.4170 -0.2029 -0.1064
 7581SOL    HW134376   2.464   2.832  12.009 -1.9472  2.3939  2.7601
 7581SOL    HW234377   2.484   2.852  12.153 -0.4972  0.7046 -1.2281
 7582SOL     OW34378   1.845   3.830   1.849 -0.2669  0.1123 -0.6778
 7582SOL    HW134379   1.818   3.740   1.867  2.7061 -0.4409  1.0058
 7582SOL    HW234380   1.938   3.816   1.830  0.0472  1.1154  0.1653
 7583SOL     OW34381   1.979   0.439  11.430 -0.2919 -0.0380  0.6928
 7583SOL    HW134382   2.010   0.353  11.403  0.2317  0.2017  0.5168
 7583SOL    HW234383   1.967   0.419  11.522 -0.7182 -1.8423  0.2325
 7584SOL     OW34384   0.792   0.158   4.183  0.1894 -0.4592  0.2609
 7584SOL    HW134385   0.868   0.165   4.241  0.0015 -2.9413  0.7960
 7584SOL    HW234386   0.783   0.063   4.190 -1.6201 -0.2298  1.0086
 7585SOL     OW34387   3.752   0.336   4.023 -0.0443 -0.6618  0.5776
 7585SOL    HW134388   3.828   0.374   4.068  0.7259 -1.6619  0.1094
 7585SOL    HW234389   3.709   0.416   3.991  0.5034 -0.2125  0.9481
 7586SOL     OW34390   1.749   3.575   0.876  0.2298 -0.1389 -0.1451
 7586SOL    HW134391   1.692   3.648   0.855 -0.0363 -0.5014 -0.6623
 7586SOL    HW234392   1.724   3.509   0.812 -1.0530  1.6110 -1.4344
 7587SOL     OW34393   1.419   1.975   6.113 -0.3360  0.0341  0.2048
 7587SOL    HW134394   1.360   1.901   6.094  1.3254 -1.5806  1.3239
 7587SOL    HW234395   1.407   1.976   6.208  4.0502 -0.2305  0.7758
 7588SOL     OW34396   1.344   0.101   8.750 -0.1798 -0.6310 -0.2711
 7588SOL    HW134397   1.293   0.159   8.807 -1.0028 -0.3757 -1.2760
 7588SOL    HW234398   1.309   0.117   8.663 -0.3662 -3.7973 -0.7859
 7589SOL     OW34399   2.244   2.324   9.175 -0.6001 -0.3578  0.4936
 7589SOL    HW134400   2.303   2.400   9.175 -0.4281 -0.4943 -1.5484
 7589SOL    HW234401   2.165   2.350   9.223 -0.0649  3.2331 -0.5125
 7590SOL     OW34402   3.457   1.451   4.080 -0.3637  0.3918 -0.3735
 7590SOL    HW134403   3.542   1.492   4.095  0.2815 -0.3906 -1.8249
 7590SOL    HW234404   3.397   1.525   4.094 -0.6726 -0.7313  3.9692
 7591SOL     OW34405   2.211   1.996  11.609  0.1681  0.0523  0.4176
 7591SOL    HW134406   2.196   1.905  11.636  0.0071  0.4650  1.7194
 7591SOL    HW234407   2.299   2.015  11.640  0.8659 -1.8858 -0.3943
 7592SOL     OW34408   4.480   3.070   3.417  0.2402 -0.2974 -0.1944
 7592SOL    HW134409   4.504   3.133   3.349 -0.2241 -0.1644 -0.2360
 7592SOL    HW234410   4.546   3.001   3.416  1.1861  0.5877  0.5222
 7593SOL     OW34411   2.624   0.145  14.613 -0.8502  0.0679  0.2116
 7593SOL    HW134412   2.575   0.065  14.596 -0.9545  0.1222  0.2572
 7593SOL    HW234413   2.707   0.133  14.568 -0.9937 -0.2052  0.0204
 7594SOL     OW34414   3.446   4.078  10.017  0.4201  0.0822 -0.1554
 7594SOL    HW134415   3.430   4.036   9.933 -0.2084  1.0022 -0.4979
 7594SOL    HW234416   3.529   4.123  10.002  0.2661  1.2619  2.4402
 7595SOL     OW34417   0.674   2.092   9.372  0.4474  0.5132 -0.5016
 7595SOL    HW134418   0.646   2.005   9.402  0.4042  0.4249 -0.7971
 7595SOL    HW234419   0.603   2.144   9.411  0.0065  0.7152 -1.5702
 7596SOL     OW34420   0.843   1.178  14.978  0.8379  0.0072 -0.1279
 7596SOL    HW134421   0.863   1.196  15.070  1.2519  2.0580 -0.6390
 7596SOL    HW234422   0.773   1.241  14.967  1.4661  0.5933 -0.7640
 7597SOL     OW34423   3.768   2.119   2.201 -0.4469  0.0946  0.7479
 7597SOL    HW134424   3.834   2.144   2.266  0.1711  1.4114 -0.3849
 7597SOL    HW234425   3.817   2.048   2.158 -1.9417 -1.9103  2.3469
 7598SOL     OW34426   1.492   3.863  16.885  0.2530  0.0916  0.6822
 7598SOL    HW134427   1.447   3.796  16.937 -2.4715  1.9371  0.7274
 7598SOL    HW234428   1.572   3.884  16.934 -0.0520  1.1189  0.7451
 7599SOL     OW34429   2.404   0.619  17.671  0.4350  0.3134  0.3576
 7599SOL    HW134430   2.411   0.551  17.605  0.2833 -1.5498  2.2570
 7599SOL    HW234431   2.483   0.668  17.647 -0.1316  1.6880  1.2494
 7600SOL     OW34432   0.615   1.539   3.200  0.3968 -0.1139  0.1026
 7600SOL    HW134433   0.698   1.516   3.242 -1.0941  0.4900  3.4024
 7600SOL    HW234434   0.622   1.505   3.111  0.0854 -1.2367  0.5070
 7601SOL     OW34435   2.834   0.427   9.464 -0.7613  0.2554 -0.2156
 7601SOL    HW134436   2.822   0.484   9.541 -0.7940  0.6828 -0.5375
 7601SOL    HW234437   2.811   0.485   9.392 -1.1834 -1.4785 -1.4672
 7602SOL     OW34438   4.377   1.958  16.586 -0.4957 -0.6581  0.5067
 7602SOL    HW134439   4.444   1.919  16.531 -1.2343 -2.3333  0.8004
 7602SOL    HW234440   4.429   1.978  16.663 -0.1164  0.7838 -0.1246
 7603SOL     OW34441   3.762   2.139   5.103  0.1672 -0.2068  0.2125
 7603SOL    HW134442   3.803   2.178   5.180 -2.4797 -0.2008  1.6286
 7603SOL    HW234443   3.820   2.172   5.035  0.7633 -0.4575  0.6078
 7604SOL     OW34444   1.026   2.657   9.445 -0.6834 -0.9229  0.0049
 7604SOL    HW134445   0.950   2.608   9.477 -2.1795  0.7862 -0.9460
 7604SOL    HW234446   0.993   2.746   9.457  2.4203  0.2830 -0.3549
 7605SOL     OW34447   3.848   2.734   6.959 -0.2402 -0.2565  0.2297
 7605SOL    HW134448   3.884   2.822   6.967  0.3544 -0.3961 -0.8763
 7605SOL    HW234449   3.765   2.751   6.915  0.4968 -0.1832 -1.1227
 7606SOL     OW34450   0.460   1.307   4.113  0.1672  0.2089 -0.0915
 7606SOL    HW134451   0.445   1.299   4.207  0.8607 -1.6187 -0.1383
 7606SOL    HW234452   0.451   1.402   4.114 -0.9391  0.0636  2.1107
 7607SOL     OW34453   0.284   1.815  15.471  0.0775  0.0872 -0.2472
 7607SOL    HW134454   0.288   1.805  15.376 -0.4601  2.3388 -0.5042
 7607SOL    HW234455   0.257   1.907  15.475 -2.4832 -0.6630  0.0432
 7608SOL     OW34456   3.018   2.972   5.915 -0.0429  0.0629 -0.2719
 7608SOL    HW134457   2.987   2.883   5.930 -0.4239 -0.0045 -1.4587
 7608SOL    HW234458   3.034   2.990   6.008 -0.8758  0.9162 -0.2899
 7609SOL     OW34459   3.520   3.408   3.633  0.0207 -0.8015 -0.3846
 7609SOL    HW134460   3.524   3.423   3.727  0.1792 -0.8944 -0.3749
 7609SOL    HW234461   3.583   3.339   3.610 -0.4706 -2.1875  2.4891
 7610SOL     OW34462   2.255   3.835  12.438 -0.0365  0.2852  0.0709
 7610SOL    HW134463   2.201   3.769  12.394 -1.5738  1.6066 -0.0441
 7610SOL    HW234464   2.234   3.833  12.531 -1.6941 -0.5576 -0.3185
 7611SOL     OW34465   2.350   2.879   4.526 -0.0307  0.0107  0.0640
 7611SOL    HW134466   2.430   2.857   4.574  0.3384  0.2839 -0.4256
 7611SOL    HW234467   2.387   2.907   4.443  0.8254 -1.2274  0.0316
 7612SOL     OW34468   1.196   0.424   4.023  0.0170  0.1110  0.3706
 7612SOL    HW134469   1.202   0.426   3.927 -1.4069  2.4667  0.3434
 7612SOL    HW234470   1.274   0.468   4.055  0.5436 -0.2126 -0.4549
 7613SOL     OW34471   1.506   3.612  13.055  0.0940  0.0361  0.1651
 7613SOL    HW134472   1.540   3.692  13.017  1.9944 -0.8411  0.0251
 7613SOL    HW234473   1.433   3.646  13.107  0.1495  0.8542 -0.2945
 7614SOL     OW34474   4.354   2.066  17.249  0.0056  0.1130  0.4095
 7614SOL    HW134475   4.418   2.128  17.214  0.6561  0.4638  2.2554
 7614SOL    HW234476   4.301   2.058  17.169 -0.0156  0.4349  0.3880
 7615SOL     OW34477   3.822   3.861   9.407  0.6090 -0.2892 -0.2589
 7615SOL    HW134478   3.882   3.842   9.335  0.6971  0.8039 -0.4678
 7615SOL    HW234479   3.737   3.834   9.371 -2.5193  4.5012  3.5045
 7616SOL     OW34480   3.160   2.193  12.274 -0.1188  0.7679  0.2120
 7616SOL    HW134481   3.236   2.135  12.283 -0.2023  0.4286 -1.2037
 7616SOL    HW234482   3.093   2.125  12.264 -0.6327  1.1497  1.0948
 7617SOL     OW34483   1.992   1.360   3.295 -0.1398  0.3765  0.8345
 7617SOL    HW134484   1.991   1.451   3.264 -0.8487  0.0103 -0.1973
 7617SOL    HW234485   2.083   1.335   3.279 -0.3535  0.2901 -0.1932
 7618SOL     OW34486   1.473   4.358   9.235  0.4281 -0.3922  0.5008
 7618SOL    HW134487   1.550   4.385   9.285  1.1032  1.7154 -1.6916
 7618SOL    HW234488   1.414   4.312   9.294 -0.2488  1.0469  0.9386
 7619SOL     OW34489   1.843   2.425   6.177  0.0813 -0.2612 -0.4316
 7619SOL    HW134490   1.906   2.373   6.126  0.1142 -0.3380 -0.3130
 7619SOL    HW234491   1.805   2.479   6.108 -1.8733 -1.0671  0.0249
 7620SOL     OW34492   4.528   4.558   0.839  0.0045  0.1520 -0.8154
 7620SOL    HW134493   4.463   4.488   0.831  1.3877 -1.2930  0.6425
 7620SOL    HW234494   4.516   4.587   0.929 -1.4311 -1.4034 -0.5018
 7621SOL     OW34495   4.411   1.981   4.270  0.7041  0.0525  0.1273
 7621SOL    HW134496   4.383   1.939   4.189  2.9692 -4.0315  1.4419
 7621SOL    HW234497   4.506   1.975   4.277  0.8923 -0.0579 -2.2899
 7622SOL     OW34498   2.001   4.010  12.632 -0.3023  0.4662 -0.4950
 7622SOL    HW134499   1.918   3.962  12.630  0.1620 -0.3092 -0.8841
 7622SOL    HW234500   1.999   4.040  12.541  1.6532  0.9123 -0.3955
 7623SOL     OW34501   3.251   1.499  15.480  0.1022  0.5045 -0.1893
 7623SOL    HW134502   3.293   1.586  15.479  0.9364  0.1012 -1.5072
 7623SOL    HW234503   3.159   1.524  15.469  0.0169 -0.6929 -2.2120
 7624SOL     OW34504   2.996   4.069  17.273  0.1920  0.1617  0.0059
 7624SOL    HW134505   2.940   3.993  17.261  0.9139 -0.0853 -1.7449
 7624SOL    HW234506   2.958   4.128  17.208 -0.5399 -1.6370 -1.1877
 7625SOL     OW34507   2.888   2.138   8.254  0.0443  0.4296 -0.2353
 7625SOL    HW134508   2.975   2.143   8.294 -0.6361 -1.5779  1.4939
 7625SOL    HW234509   2.847   2.216   8.291 -2.9478 -1.0230 -0.5771
 7626SOL     OW34510   3.989   0.506   3.852 -0.5130 -0.5747  0.0342
 7626SOL    HW134511   3.973   0.569   3.922  1.2117 -1.8143  1.5747
 7626SOL    HW234512   4.070   0.473   3.893 -1.2230 -2.4078 -0.0623
 7627SOL     OW34513   0.478   3.104   9.143  0.5381 -0.3986 -0.2233
 7627SOL    HW134514   0.446   3.037   9.081  0.4643 -0.5644 -0.0075
 7627SOL    HW234515   0.408   3.169   9.146  1.6763  0.7830  0.7209
 7628SOL     OW34516   0.979   1.944   5.574  0.2919  0.1300 -0.7051
 7628SOL    HW134517   1.017   2.016   5.525  0.4371  0.4656 -0.1067
 7628SOL    HW234518   1.049   1.930   5.638 -1.3462 -0.2442  1.0346
 7629SOL     OW34519   0.881   4.254   7.294 -0.0570 -0.1385  0.0977
 7629SOL    HW134520   0.896   4.254   7.388  0.4832 -0.7085  0.0163
 7629SOL    HW234521   0.871   4.348   7.286 -3.8191 -0.6960 -2.0039
 7630SOL     OW34522   1.356   0.214   2.687  0.2448  0.1928 -0.2238
 7630SOL    HW134523   1.436   0.160   2.689 -0.2457 -0.4992  0.8266
 7630SOL    HW234524   1.386   0.305   2.692 -0.0928  0.4255 -2.1960
 7631SOL     OW34525   4.653   3.500   6.741  0.3919 -0.3702 -0.6148
 7631SOL    HW134526   4.594   3.504   6.816 -1.0652 -0.2672 -1.7679
 7631SOL    HW234527   4.657   3.594   6.722 -1.8364 -0.3424 -0.9184
 7632SOL     OW34528   1.976   2.536  10.152 -0.1918 -0.3754 -0.1304
 7632SOL    HW134529   2.056   2.569  10.194  1.1665 -1.2770 -2.0019
 7632SOL    HW234530   1.993   2.543  10.058  1.4220  1.3328  0.2834
 7633SOL     OW34531   4.220   4.468   0.767 -0.1115  0.2079 -0.0270
 7633SOL    HW134532   4.201   4.480   0.860 -0.1379  1.6180 -0.2168
 7633SOL    HW234533   4.175   4.547   0.737  0.9033  0.3863 -1.1084
 7634SOL     OW34534   0.546   0.963   6.879 -0.2252  0.6551 -0.2273
 7634SOL    HW134535   0.501   0.890   6.922  0.2761  1.5680  1.8223
 7634SOL    HW234536   0.635   0.927   6.876 -0.6631 -0.4887  0.7479
 7635SOL     OW34537   2.902   0.558  11.930 -0.6754  1.0312  0.1823
 7635SOL    HW134538   2.979   0.564  11.874  0.2528  1.4558  1.4940
 7635SOL    HW234539   2.925   0.475  11.972 -1.2717  1.8346  2.1016
 7636SOL     OW34540   2.696   3.518   6.635  0.3396  0.4812 -0.0970
 7636SOL    HW134541   2.703   3.493   6.727  0.1180  1.8077  0.2760
 7636SOL    HW234542   2.784   3.530   6.599  0.0790 -1.0243 -1.2191
 7637SOL     OW34543   2.232   3.531   4.623 -0.4052 -0.2598  0.5828
 7637SOL    HW134544   2.176   3.471   4.575  1.0103  0.2087 -1.6760
 7637SOL    HW234545   2.174   3.572   4.687  2.0474  1.0146  2.0164
 7638SOL     OW34546   2.724   0.976   8.518 -0.1404  0.0420 -0.5404
 7638SOL    HW134547   2.766   1.061   8.523 -0.0486 -0.0955  0.9811
 7638SOL    HW234548   2.634   1.001   8.541 -0.3368 -1.9077  0.8187
 7639SOL     OW34549   4.634   3.828   2.661 -0.6392  0.0306 -0.1392
 7639SOL    HW134550   4.589   3.860   2.739  0.8479  1.6917  0.0332
 7639SOL    HW234551   4.643   3.734   2.673  0.2059  0.2020  0.5703
 7640SOL     OW34552   3.349   1.830  10.497 -0.0433 -0.7308  0.0723
 7640SOL    HW134553   3.281   1.783  10.448 -0.2871 -0.0051 -0.2918
 7640SOL    HW234554   3.291   1.874  10.559 -0.1004 -4.1886  2.4567
 7641SOL     OW34555   3.082   0.507   3.919 -0.0763  0.3858  0.2762
 7641SOL    HW134556   3.018   0.485   3.851 -0.2977  0.4896  0.4531
 7641SOL    HW234557   3.092   0.423   3.964  0.5561  0.0338 -0.5115
 7642SOL     OW34558   2.267   1.736  17.318  0.2962  0.2744  0.2165
 7642SOL    HW134559   2.305   1.719  17.405 -0.8776  1.7491  1.0046
 7642SOL    HW234560   2.225   1.822  17.323 -0.0058  0.1193  0.3602
 7643SOL     OW34561   1.019   0.245   8.791 -0.8103 -0.2870  0.2057
 7643SOL    HW134562   0.968   0.314   8.749  1.8825  0.7272 -1.4434
 7643SOL    HW234563   1.080   0.290   8.849  0.6457 -1.8341 -0.1174
 7644SOL     OW34564   0.729   4.605   3.564 -0.2930  0.2103 -0.7816
 7644SOL    HW134565   0.736   4.691   3.522 -3.0557 -0.5177 -2.7089
 7644SOL    HW234566   0.643   4.606   3.606  0.3247 -2.4821  0.5684
 7645SOL     OW34567   0.881   1.478   8.278  0.0147  0.1962 -0.3932
 7645SOL    HW134568   0.826   1.542   8.233 -0.7264 -0.4897 -0.4778
 7645SOL    HW234569   0.852   1.484   8.369  0.1887 -0.3798 -0.2996
 7646SOL     OW34570   2.309   1.941   8.827 -0.7578  0.0975  0.0850
 7646SOL    HW134571   2.281   1.902   8.910 -1.1892  1.2516  0.4859
 7646SOL    HW234572   2.399   1.910   8.821 -0.6183  0.6192 -0.4881
 7647SOL     OW34573   2.780   0.596  11.003  0.3366 -0.2991 -0.3194
 7647SOL    HW134574   2.746   0.507  10.999  1.3139 -0.6493 -1.1230
 7647SOL    HW234575   2.822   0.599  10.916  1.1545 -0.2637  0.0745
 7648SOL     OW34576   2.142   2.255   7.087  0.1903  0.1712 -0.6958
 7648SOL    HW134577   2.114   2.292   7.171  1.1671 -1.0096  0.1485
 7648SOL    HW234578   2.183   2.331   7.046  0.5265 -0.2487 -1.1327
 7649SOL     OW34579   0.493   0.379   6.249  0.2967  0.3097 -0.2791
 7649SOL    HW134580   0.504   0.285   6.231 -0.7463  0.3587 -1.1794
 7649SOL    HW234581   0.472   0.416   6.163  0.1336 -0.8091 -0.7296
 7650SOL     OW34582   2.248   0.985   3.720 -0.0834  0.5509 -0.9439
 7650SOL    HW134583   2.340   0.999   3.743 -0.4708 -0.2685  1.1241
 7650SOL    HW234584   2.210   0.956   3.803  0.0985  2.5636 -0.1643
 7651SOL     OW34585   1.189   3.101  11.803  0.1452 -0.3657 -0.1653
 7651SOL    HW134586   1.132   3.088  11.727 -0.4317  3.0124 -0.3165
 7651SOL    HW234587   1.221   3.015  11.832  2.8437  0.4519 -0.7264
 7652SOL     OW34588   2.208   1.040   5.282  0.0027  0.1120  0.3580
 7652SOL    HW134589   2.248   1.125   5.302  1.2138 -0.4720  0.4644
 7652SOL    HW234590   2.149   1.017   5.353 -0.0097  0.2176  0.3818
 7653SOL     OW34591   1.055   3.092   4.971 -0.1496  0.2111  0.2433
 7653SOL    HW134592   0.978   3.075   4.917 -0.2157  1.1957  0.0173
 7653SOL    HW234593   1.026   3.108   5.062  1.0970  2.7324  0.1952
 7654SOL     OW34594   1.560   3.936   9.973  0.2914 -0.0106 -0.3915
 7654SOL    HW134595   1.571   3.954   9.880  1.3727  1.7790  0.0617
 7654SOL    HW234596   1.465   3.931   9.980  0.1008  5.1162  1.0738
 7655SOL     OW34597   1.084   2.365   2.163  0.2594 -0.1896  0.0128
 7655SOL    HW134598   1.064   2.399   2.075 -0.0135  2.0783  0.9508
 7655SOL    HW234599   1.122   2.446   2.196  0.0524 -0.3702  0.6809
 7656SOL     OW34600   1.586   0.097   7.886  0.4140  0.2892 -0.4248
 7656SOL    HW134601   1.529   0.091   7.809  1.1879  2.6591 -1.1914
 7656SOL    HW234602   1.575   0.186   7.918  0.2460  1.2760 -3.2547
 7657SOL     OW34603   2.057   2.607  16.473 -0.0732 -0.0223 -0.3355
 7657SOL    HW134604   2.009   2.663  16.534 -0.6068  2.1419 -2.7392
 7657SOL    HW234605   1.985   2.574  16.419 -0.6822  0.3529  0.2428
 7658SOL     OW34606   3.331   0.470   4.827 -0.3200 -0.4026  0.1075
 7658SOL    HW134607   3.334   0.384   4.784 -1.0034 -0.0594 -0.6296
 7658SOL    HW234608   3.238   0.493   4.827  0.3464  2.2254 -0.2485
 7659SOL     OW34609   1.639   4.332   3.058 -0.4258  0.2957 -0.7343
 7659SOL    HW134610   1.625   4.381   2.977  0.7941  0.7929 -0.6394
 7659SOL    HW234611   1.575   4.261   3.050 -1.3023  1.0692 -0.5117
 7660SOL     OW34612   2.385   0.374   2.747  0.0344 -0.0229 -0.3416
 7660SOL    HW134613   2.296   0.339   2.747  1.3707 -3.4925 -2.0475
 7660SOL    HW234614   2.439   0.305   2.787  1.1137  0.0621 -1.6629
 7661SOL     OW34615   3.867   3.804  10.764  0.1941 -0.0424  0.2594
 7661SOL    HW134616   3.872   3.713  10.735  0.7537 -0.2479  0.9977
 7661SOL    HW234617   3.876   3.779  10.856  0.4640 -1.3981 -0.1225
 7662SOL     OW34618   1.003   2.659   7.068  0.2708  0.3759  0.0745
 7662SOL    HW134619   1.084   2.709   7.084 -0.5333  1.8575 -0.4260
 7662SOL    HW234620   0.947   2.726   7.028  0.4878  0.0352 -0.7923
 7663SOL     OW34621   4.492   1.260  15.005 -0.1406  0.0616 -0.1373
 7663SOL    HW134622   4.526   1.285  14.919  1.1323 -0.7581  0.1245
 7663SOL    HW234623   4.422   1.198  14.989 -1.9205  1.7072  1.3135
 7664SOL     OW34624   2.240   0.268   6.263 -0.2179  0.4666  0.1058
 7664SOL    HW134625   2.195   0.351   6.246 -0.0273  0.5579  0.0420
 7664SOL    HW234626   2.178   0.213   6.216 -0.1170  0.3232  0.1417
 7665SOL     OW34627   4.512   4.193  14.531 -0.3193 -0.3442 -0.3454
 7665SOL    HW134628   4.439   4.195  14.469  0.2382 -0.1095 -0.9837
 7665SOL    HW234629   4.547   4.279  14.508  0.1554 -0.6716 -0.8451
 7666SOL     OW34630   4.341   1.934   6.333 -0.6319 -0.2145 -0.3093
 7666SOL    HW134631   4.419   1.968   6.377 -1.3754 -1.1110  1.6786
 7666SOL    HW234632   4.377   1.856   6.289  0.6456  0.3539 -0.2854
 7667SOL     OW34633   0.782   3.033   6.001  0.3633 -0.1127 -0.6137
 7667SOL    HW134634   0.829   3.072   6.075  1.9925 -0.3953 -1.5071
 7667SOL    HW234635   0.845   3.039   5.929  2.4054 -1.6963  1.0260
 7668SOL     OW34636   0.827   2.397   0.745  0.0338 -0.2250 -0.0663
 7668SOL    HW134637   0.898   2.367   0.688 -0.7226  0.1570 -1.2215
 7668SOL    HW234638   0.853   2.485   0.773  1.8612  0.0007 -2.5046
 7669SOL     OW34639   3.477   2.090   7.782 -0.1376  0.1762 -0.3081
 7669SOL    HW134640   3.540   2.120   7.717 -1.1710  1.7829 -0.5602
 7669SOL    HW234641   3.508   2.001   7.801 -0.3281  0.2261  0.2448
 7670SOL     OW34642   3.075   0.905   3.483 -0.3096 -0.2426  0.3066
 7670SOL    HW134643   2.983   0.917   3.459 -0.6755 -1.5941  1.0265
 7670SOL    HW234644   3.116   0.884   3.399  1.1981  1.0420  0.7169
 7671SOL     OW34645   0.509   0.939   5.467  0.0003  0.4314 -0.0907
 7671SOL    HW134646   0.539   0.906   5.382  0.9848  0.3242  0.3046
 7671SOL    HW234647   0.486   0.856   5.508  1.1407  0.0250 -0.2714
 7672SOL     OW34648   1.824   3.134   2.495  0.7660 -0.3862 -0.4831
 7672SOL    HW134649   1.891   3.076   2.458 -0.1917 -1.8146  0.0253
 7672SOL    HW234650   1.874   3.209   2.464  0.7736 -0.0821  0.2737
 7673SOL     OW34651   3.201   4.053   3.383 -0.4253  0.0628  0.1813
 7673SOL    HW134652   3.148   3.976   3.365 -1.8423  0.9115  0.6473
 7673SOL    HW234653   3.138   4.099   3.440  1.6246  1.0445  1.6632
 7674SOL     OW34654   0.211   4.343   0.923  0.3198 -0.4067 -0.6606
 7674SOL    HW134655   0.298   4.311   0.902  0.9306 -0.8576  2.5636
 7674SOL    HW234656   0.228   4.436   0.939  1.2953 -0.8746  0.9870
 7675SOL     OW34657   0.485   1.901   7.536 -0.4187  0.0346  0.1989
 7675SOL    HW134658   0.473   1.900   7.631 -2.4816  0.3797 -0.0464
 7675SOL    HW234659   0.578   1.886   7.524 -0.7822 -0.9549 -1.4572
 7676SOL     OW34660   3.648   0.772  13.304  0.0461  0.1176 -0.2722
 7676SOL    HW134661   3.564   0.810  13.330  0.7235  0.2632  1.6962
 7676SOL    HW234662   3.622   0.693  13.258  0.8916 -0.1448 -0.2964
 7677SOL     OW34663   4.009   3.095   5.780 -0.4292 -0.4982  0.1859
 7677SOL    HW134664   4.036   3.003   5.781 -0.0988 -0.4229 -1.0259
 7677SOL    HW234665   3.945   3.086   5.851 -2.0884 -1.4369 -1.4311
 7678SOL     OW34666   4.641   0.777   7.172  0.0127  0.3132  0.5872
 7678SOL    HW134667   4.655   0.716   7.100  0.8576  0.6810  0.4347
 7678SOL    HW234668   4.717   0.835   7.176 -0.4068  0.9576 -0.7629
 7679SOL     OW34669   4.482   2.891  13.745  0.2012 -0.0738 -0.0389
 7679SOL    HW134670   4.410   2.875  13.805  1.3649 -1.1920  1.0680
 7679SOL    HW234671   4.472   2.984  13.724 -1.4333 -0.3626 -0.5114
 7680SOL     OW34672   3.059   3.834   3.003 -0.3400  0.5626  0.0536
 7680SOL    HW134673   2.974   3.798   3.028 -0.0536 -0.4793 -0.4886
 7680SOL    HW234674   3.098   3.845   3.090  0.1162 -1.9604  0.1651
 7681SOL     OW34675   4.383   4.192   4.380  0.6612  0.2500  1.0112
 7681SOL    HW134676   4.399   4.101   4.406 -0.2832 -0.1419  0.2308
 7681SOL    HW234677   4.346   4.174   4.294  2.2566 -1.5390  0.7174
 7682SOL     OW34678   2.846   1.240  16.052  0.5049  0.1192 -0.0838
 7682SOL    HW134679   2.905   1.184  16.003 -1.0364 -1.2047 -0.4287
 7682SOL    HW234680   2.767   1.255  15.999 -0.5571  1.1160  1.7960
 7683SOL     OW34681   2.862   2.533   7.234 -0.4660  0.9554 -0.5456
 7683SOL    HW134682   2.924   2.582   7.289  0.1063  1.8601 -2.0012
 7683SOL    HW234683   2.927   2.487   7.181 -1.3402  0.4748 -1.1942
 7684SOL     OW34684   2.245   2.478   6.941 -0.2978 -0.1307 -0.3007
 7684SOL    HW134685   2.331   2.519   6.953 -0.1483 -0.7038  0.5799
 7684SOL    HW234686   2.247   2.474   6.845 -2.3596  1.1447 -0.4119
 7685SOL     OW34687   0.528   3.805  11.645  0.0497  0.6532 -0.1700
 7685SOL    HW134688   0.543   3.711  11.655 -3.7866  0.2756  2.0330
 7685SOL    HW234689   0.474   3.808  11.567  2.3691 -0.1737 -1.8270
 7686SOL     OW34690   3.461   0.143  10.852 -0.3328  0.6109  0.2595
 7686SOL    HW134691   3.434   0.052  10.857  1.9099  0.0618  2.0193
 7686SOL    HW234692   3.384   0.175  10.899  0.2261 -1.1153  2.3043
 7687SOL     OW34693   3.398   3.879   3.777 -0.1839 -0.6019  0.0289
 7687SOL    HW134694   3.320   3.850   3.823  0.9859  0.3843  2.6503
 7687SOL    HW234695   3.356   3.950   3.729  0.5096 -2.0480 -2.7219
 7688SOL     OW34696   2.262   2.568   3.056  0.4699  0.2797 -0.0193
 7688SOL    HW134697   2.194   2.512   3.019  0.6563 -0.0608  0.1594
 7688SOL    HW234698   2.337   2.532   3.008  1.4777  1.0456  1.0036
 7689SOL     OW34699   2.526   4.694   8.780 -0.3398  0.2928  0.7186
 7689SOL    HW134700   2.603   4.693   8.723 -1.4393 -3.1372 -0.6887
 7689SOL    HW234701   2.556   4.637   8.850  2.0365 -1.5611 -1.8035
 7690SOL     OW34702   4.131   0.646  11.091 -0.4152  0.0999 -0.4033
 7690SOL    HW134703   4.222   0.675  11.091 -0.3769 -0.0082 -1.8315
 7690SOL    HW234704   4.134   0.563  11.043  0.5584 -0.1339  0.0514
 7691SOL     OW34705   0.758   2.724  14.199 -0.4142 -0.0073 -0.0166
 7691SOL    HW134706   0.831   2.695  14.144 -0.9820 -0.4127 -0.5601
 7691SOL    HW234707   0.778   2.817  14.204 -1.0332  0.3052 -3.7201
 7692SOL     OW34708   1.968   2.569  11.485  0.5910  0.2428  0.2860
 7692SOL    HW134709   2.036   2.587  11.550 -0.8220 -0.2459  1.9203
 7692SOL    HW234710   1.978   2.650  11.436 -0.5253  0.3975  0.3033
 7693SOL     OW34711   3.213   1.346  11.104 -0.2605 -0.2044  0.0321
 7693SOL    HW134712   3.261   1.281  11.155 -0.1247 -0.4660 -0.4277
 7693SOL    HW234713   3.272   1.420  11.116  2.2103 -2.3484  1.1337
 7694SOL     OW34714   3.679   1.223   2.964  0.1888 -0.2050  0.2313
 7694SOL    HW134715   3.694   1.130   2.980 -1.4224 -0.2398  1.5831
 7694SOL    HW234716   3.692   1.223   2.870  0.4879  2.3141  0.2568
 7695SOL     OW34717   3.995   0.141  17.393 -0.1378 -0.6481  0.6280
 7695SOL    HW134718   3.927   0.132  17.460  0.4408 -1.5643  1.0971
 7695SOL    HW234719   4.058   0.202  17.431  0.9666 -1.5017  0.1713
 7696SOL     OW34720   4.035   1.496  14.625 -0.4293 -0.1671 -0.0366
 7696SOL    HW134721   4.052   1.575  14.677 -0.5278 -0.1427 -0.0417
 7696SOL    HW234722   3.955   1.509  14.575 -0.3411 -0.1178 -0.1672
 7697SOL     OW34723   2.953   1.188   5.344  0.2528  0.3132 -0.5278
 7697SOL    HW134724   2.961   1.152   5.255  1.3563  0.4301 -0.4773
 7697SOL    HW234725   2.872   1.234   5.321  0.1944  0.3601 -0.2184
 7698SOL     OW34726   2.838   3.160   4.154  0.3684  0.0803  0.0916
 7698SOL    HW134727   2.920   3.146   4.201  0.1375  1.2570  0.8422
 7698SOL    HW234728   2.779   3.191   4.222 -1.2397  1.1199 -1.7993
 7699SOL     OW34729   1.622   0.969   6.699 -0.2082 -0.9470  0.0142
 7699SOL    HW134730   1.670   1.050   6.680 -1.3970 -0.2813 -0.1322
 7699SOL    HW234731   1.685   0.930   6.759 -0.3905  0.3294  1.0433
 7700SOL     OW34732   0.569   0.714   6.128 -0.2078 -0.5762  1.0332
 7700SOL    HW134733   0.501   0.647   6.129 -0.6554 -0.1719 -3.4888
 7700SOL    HW234734   0.623   0.675   6.196 -1.5237 -0.0213  2.4004
 7701SOL     OW34735   0.745   2.256  14.503 -0.1831  0.4427 -0.3028
 7701SOL    HW134736   0.798   2.185  14.467  1.2662  1.9864 -1.2382
 7701SOL    HW234737   0.746   2.230  14.595  0.5265 -0.5672 -0.6001
 7702SOL     OW34738   1.909   1.897   9.446 -0.2918  0.0957 -0.3292
 7702SOL    HW134739   1.988   1.872   9.494  1.1584  1.2379 -2.1325
 7702SOL    HW234740   1.844   1.910   9.515 -0.3220  0.9611 -0.5244
 7703SOL     OW34741   3.901   2.470   2.334  0.1529  0.6269  0.0572
 7703SOL    HW134742   3.921   2.488   2.241  0.7454  0.8699  0.2260
 7703SOL    HW234743   3.831   2.407   2.320 -0.7046  1.9536 -1.7324
 7704SOL     OW34744   2.418   3.187   7.729 -0.4771 -0.0886 -0.1915
 7704SOL    HW134745   2.335   3.143   7.750 -0.5232  0.9346  1.7409
 7704SOL    HW234746   2.468   3.106   7.727  0.9305  0.7640  1.0570
 7705SOL     OW34747   3.340   2.657   7.980  0.2766 -0.2350 -0.0962
 7705SOL    HW134748   3.405   2.652   7.910  0.2577 -0.2504 -0.1127
 7705SOL    HW234749   3.264   2.637   7.925  1.7621 -0.0669 -2.1919
 7706SOL     OW34750   4.712   1.314   3.777 -0.4811 -0.2620 -0.8483
 7706SOL    HW134751   0.032   1.269   3.835 -0.2568 -0.8894 -1.5672
 7706SOL    HW234752   4.642   1.254   3.754 -3.3948  2.1614  1.8275
 7707SOL     OW34753   1.520   0.028   8.999 -0.1838  0.0263  0.2581
 7707SOL    HW134754   1.575   4.741   8.927 -1.6038 -1.1314 -0.3753
 7707SOL    HW234755   1.569   0.002   9.077  1.9000 -0.6413 -1.2630
 7708SOL     OW34756   1.534   2.440  17.532 -0.4420 -0.4942  0.0449
 7708SOL    HW134757   1.503   2.426  17.621  1.2416 -0.4090  0.6526
 7708SOL    HW234758   1.572   2.527  17.549  0.0971 -1.2700  2.7819
 7709SOL     OW34759   2.256   2.365   3.237  0.1826 -0.5556  0.7703
 7709SOL    HW134760   2.340   2.348   3.279  0.7421 -0.3655 -0.2803
 7709SOL    HW234761   2.283   2.437   3.181 -0.0740 -0.1156  1.2052
 7710SOL     OW34762   1.055   2.043   8.987  0.4035  0.0263  0.0360
 7710SOL    HW134763   1.011   2.052   9.072  1.0885 -0.4345  0.4435
 7710SOL    HW234764   1.078   2.135   8.973 -1.8384  0.9429  2.3369
 7711SOL     OW34765   4.728   3.848   6.960 -0.1112  0.9955  0.1682
 7711SOL    HW134766   4.685   3.933   6.967  0.6008  1.6191 -3.1389
 7711SOL    HW234767   4.667   3.784   6.924  1.1246  0.4139 -0.8638
 7712SOL     OW34768   1.012   1.103  13.136  0.3493 -0.0708  0.1879
 7712SOL    HW134769   1.095   1.066  13.106  0.5398 -0.7091  1.4771
 7712SOL    HW234770   0.974   1.026  13.179  2.1827 -1.1995 -0.2076
 7713SOL     OW34771   3.222   3.481  13.092 -0.4011  0.4806  0.5448
 7713SOL    HW134772   3.282   3.408  13.108  2.5526  2.5578 -1.0229
 7713SOL    HW234773   3.271   3.542  13.037  0.7526  0.7557  1.8849
 7714SOL     OW34774   1.325   3.804  16.674 -0.3484  0.0029 -0.5444
 7714SOL    HW134775   1.259   3.766  16.732  0.2608  1.9606  1.4220
 7714SOL    HW234776   1.400   3.824  16.729 -1.8573 -1.4507  2.0225
 7715SOL     OW34777   3.088   3.195   4.418 -0.7274 -0.1340  0.4934
 7715SOL    HW134778   3.053   3.257   4.482  0.4842  1.6614 -0.5738
 7715SOL    HW234779   3.081   3.259   4.347 -0.9299 -0.3209  0.3470
 7716SOL     OW34780   0.072   0.145   8.902 -0.1047 -0.2547  0.1116
 7716SOL    HW134781   0.061   0.064   8.952  1.2878  0.6402  1.8918
 7716SOL    HW234782   0.157   0.165   8.941 -0.4279 -1.5853  1.4955
 7717SOL     OW34783   1.403   3.413   0.627 -0.0823  0.0094 -0.7928
 7717SOL    HW134784   1.378   3.501   0.599  1.0571  1.1096  1.6021
 7717SOL    HW234785   1.385   3.422   0.721 -1.3837  0.7097 -1.1196
 7718SOL     OW34786   0.598   0.191   1.824 -0.1658  0.0497 -0.2802
 7718SOL    HW134787   0.527   0.228   1.876  0.6987 -0.6319  1.3841
 7718SOL    HW234788   0.671   0.192   1.886 -1.8433  0.4602  1.6527
 7719SOL     OW34789   1.141   3.204  17.115 -0.7909  0.2069 -0.6925
 7719SOL    HW134790   1.052   3.171  17.124 -0.1905 -1.4901 -0.8637
 7719SOL    HW234791   1.155   3.243  17.202 -1.8494 -0.5605 -0.1810
 7720SOL     OW34792   2.720   3.768   5.333 -0.6571 -0.0454 -0.1425
 7720SOL    HW134793   2.762   3.847   5.368 -1.7873  0.0198  1.0339
 7720SOL    HW234794   2.782   3.697   5.348 -1.0581 -0.1795  0.8967
 7721SOL     OW34795   1.458   3.325   5.827  0.1992  0.5670 -0.3277
 7721SOL    HW134796   1.544   3.295   5.857  0.5962  1.4527 -0.5764
 7721SOL    HW234797   1.457   3.266   5.752 -0.1289  0.2673 -0.0843
 7722SOL     OW34798   3.965   1.769   8.385  0.2925 -0.8108 -0.6488
 7722SOL    HW134799   3.967   1.723   8.301 -4.1110  2.4146 -2.5084
 7722SOL    HW234800   3.870   1.767   8.398  0.3366  0.3604 -0.2068
 7723SOL     OW34801   4.038   3.617   9.045 -0.2983  0.1143  0.4243
 7723SOL    HW134802   3.947   3.588   9.042 -0.6561  1.0551  2.2256
 7723SOL    HW234803   4.092   3.539   9.053  0.4316  0.7179  1.3145
 7724SOL     OW34804   1.295   2.071   3.666  0.0261  0.4871  0.4004
 7724SOL    HW134805   1.295   2.087   3.571 -3.5978  1.3140  0.5325
 7724SOL    HW234806   1.381   2.030   3.670 -0.7253 -1.1142  0.0681
 7725SOL     OW34807   2.137   0.717   7.783 -0.3098  0.5539  0.1803
 7725SOL    HW134808   2.191   0.715   7.862 -0.8554 -0.6311  0.5244
 7725SOL    HW234809   2.128   0.623   7.769 -0.3008  0.5468  0.2240
 7726SOL     OW34810   0.852   0.665   5.326 -0.2293 -0.2242 -0.4473
 7726SOL    HW134811   0.771   0.716   5.332 -0.2797 -0.2303 -1.1061
 7726SOL    HW234812   0.818   0.578   5.307  0.6088 -0.4069 -1.1055
 7727SOL     OW34813   4.081   3.757   6.523  0.4418 -0.6330 -0.0440
 7727SOL    HW134814   4.134   3.748   6.444  2.5524 -0.4244  1.3666
 7727SOL    HW234815   4.002   3.784   6.475  0.6120  0.1189  0.1014
 7728SOL     OW34816   1.704   0.734  12.002  0.1159  0.0357  0.0740
 7728SOL    HW134817   1.617   0.694  12.013 -0.4431  0.8442 -1.4056
 7728SOL    HW234818   1.692   0.782  11.920  1.9691  1.1077  0.4374
 7729SOL     OW34819   4.338   3.433   9.088 -0.6613  0.4898  0.3811
 7729SOL    HW134820   4.341   3.339   9.072 -0.1386  0.6457 -0.4250
 7729SOL    HW234821   4.364   3.468   9.002  0.2117  0.5792  0.6856
 7730SOL     OW34822   4.716   3.776  10.179  0.1865  0.1436  0.3036
 7730SOL    HW134823   4.639   3.776  10.122  0.2377  0.5680  0.2333
 7730SOL    HW234824   4.702   3.859  10.226  2.2006 -0.1203  1.3775
 7731SOL     OW34825   2.999   2.484   3.798 -0.0870  0.5143 -0.2063
 7731SOL    HW134826   3.083   2.529   3.806 -0.0862  0.1074  2.0668
 7731SOL    HW234827   3.015   2.432   3.719 -2.4288 -2.4269  1.2417
 7732SOL     OW34828   1.426   2.230   7.868 -0.0670 -0.5075 -0.4608
 7732SOL    HW134829   1.437   2.238   7.773 -2.2278 -0.1743 -0.6922
 7732SOL    HW234830   1.514   2.257   7.897 -1.1650  0.1049  2.3098
 7733SOL     OW34831   4.689   2.093   2.137  0.1962  0.1304 -0.5599
 7733SOL    HW134832   4.711   2.027   2.071  1.4106 -0.1742  0.1319
 7733SOL    HW234833   4.602   2.123   2.111  0.0008  0.9989  1.1090
 7734SOL     OW34834   1.511   0.401  14.366 -0.6118  0.3865 -0.1461
 7734SOL    HW134835   1.604   0.421  14.351 -0.7215  1.5695  0.7530
 7734SOL    HW234836   1.491   0.473  14.425  1.2623  0.8265 -0.0285
 7735SOL     OW34837   1.241   2.396   8.235  0.5150  0.5855  0.2731
 7735SOL    HW134838   1.315   2.349   8.273  1.0776  3.0553  2.1793
 7735SOL    HW234839   1.202   2.320   8.191 -0.4433  0.2287  1.7741
 7736SOL     OW34840   3.985   3.363   2.050  0.4173  0.4630 -0.3148
 7736SOL    HW134841   3.980   3.268   2.063  3.1936  0.2796 -0.4999
 7736SOL    HW234842   3.916   3.387   1.988  0.7518  1.0849 -0.4373
 7737SOL     OW34843   0.523   1.270   7.607  0.2581  0.0775  0.2838
 7737SOL    HW134844   0.489   1.225   7.530  0.4316  0.5005 -0.0387
 7737SOL    HW234845   0.572   1.335   7.556 -0.1798  1.3775  1.5239
 7738SOL     OW34846   1.973   2.586   2.074 -0.1881 -0.1690 -0.8707
 7738SOL    HW134847   1.899   2.641   2.047  0.1234  0.9667  0.5811
 7738SOL    HW234848   1.994   2.635   2.153  0.8730 -0.0299 -1.2368
 7739SOL     OW34849   0.289   2.509   7.652 -0.0614  0.1201  0.4907
 7739SOL    HW134850   0.353   2.562   7.604  1.8169  0.4651  3.4239
 7739SOL    HW234851   0.325   2.497   7.739 -0.7103 -2.5776  0.3942
 7740SOL     OW34852   2.365   2.122   8.603 -0.8576  0.1307 -0.5033
 7740SOL    HW134853   2.448   2.087   8.571 -0.6742  0.3779 -0.3006
 7740SOL    HW234854   2.359   2.082   8.690  0.2438 -1.9948 -1.4281
 7741SOL     OW34855   1.962   0.588   9.131 -0.0037  0.1552 -0.3750
 7741SOL    HW134856   1.926   0.609   9.218  0.0478 -0.0795 -0.2985
 7741SOL    HW234857   1.933   0.498   9.123  3.6561 -0.7318 -3.4693
 7742SOL     OW34858   1.059   3.515   8.249  0.5062 -0.3012 -0.9735
 7742SOL    HW134859   0.982   3.469   8.218 -0.4213  1.3172 -1.0613
 7742SOL    HW234860   1.014   3.600   8.254 -1.8127 -1.4593 -2.3846
 7743SOL     OW34861   0.875   2.669   9.047 -0.2460  0.3660 -0.1174
 7743SOL    HW134862   0.810   2.713   9.102 -1.5008 -2.2275  0.5054
 7743SOL    HW234863   0.813   2.612   9.001  0.4408 -2.2117  2.1722
 7744SOL     OW34864   4.303   3.834   6.668 -0.5194  0.1909  0.2884
 7744SOL    HW134865   4.230   3.811   6.611  0.8858  0.8928 -1.7704
 7744SOL    HW234866   4.260   3.881   6.740 -2.7955 -1.4871  0.0260
 7745SOL     OW34867   0.980   1.162   4.032 -0.3623 -0.0510 -0.2757
 7745SOL    HW134868   1.055   1.117   3.993  0.5281 -0.8352  2.3526
 7745SOL    HW234869   0.913   1.100   4.003  0.0622 -1.5186  1.8912
 7746SOL     OW34870   1.400   1.279   4.592 -0.2877 -0.7918  0.2569
 7746SOL    HW134871   1.349   1.209   4.631 -0.9410  0.3357  1.4351
 7746SOL    HW234872   1.330   1.339   4.566  2.4247  1.5162 -1.8316
 7747SOL     OW34873   2.384   4.269   7.775 -0.0094 -0.1170 -0.1207
 7747SOL    HW134874   2.446   4.201   7.749 -0.6353 -0.0492 -1.7788
 7747SOL    HW234875   2.446   4.325   7.822 -0.0738  0.0676 -0.2541
 7748SOL     OW34876   1.671   0.533   6.385 -0.3906  0.6374 -0.1963
 7748SOL    HW134877   1.743   0.490   6.429 -0.5903  2.0906  1.5353
 7748SOL    HW234878   1.679   0.500   6.295 -1.7320 -0.7620  0.2031
 7749SOL     OW34879   3.004   4.298   2.817  0.3919 -0.4616 -0.2727
 7749SOL    HW134880   2.915   4.267   2.796  0.5198 -0.9834 -0.0443
 7749SOL    HW234881   3.029   4.347   2.739  2.3046  0.7738  1.1295
 7750SOL     OW34882   3.430   0.716   7.511 -0.1943 -0.8594  0.0901
 7750SOL    HW134883   3.499   0.653   7.489  0.0255 -1.1744  1.6933
 7750SOL    HW234884   3.476   0.798   7.529 -1.5284  0.1303 -0.9983
 7751SOL     OW34885   1.496   0.562   7.508  0.4122 -0.2067  0.2656
 7751SOL    HW134886   1.495   0.556   7.604 -0.4065  2.3120  0.4047
 7751SOL    HW234887   1.427   0.505   7.474  1.4831 -0.3875 -1.6047
 7752SOL     OW34888   4.212   1.837   8.157 -0.2586  0.2044  0.1160
 7752SOL    HW134889   4.250   1.813   8.241 -0.8514 -1.7288 -0.1862
 7752SOL    HW234890   4.248   1.780   8.089 -0.6561  0.5777 -0.4030
 7753SOL     OW34891   1.491   4.722   2.860  0.1292 -0.2579  0.2603
 7753SOL    HW134892   1.577   4.728   2.903 -0.1771 -0.2881  0.8741
 7753SOL    HW234893   1.450   0.051   2.909 -1.3016 -0.7639 -0.2066
 7754SOL     OW34894   0.579   4.317   4.780  0.2367 -0.1820  0.1707
 7754SOL    HW134895   0.647   4.383   4.793 -0.1910  0.1259  0.8847
 7754SOL    HW234896   0.635   4.240   4.780  0.9340  0.3144 -1.6018
 7755SOL     OW34897   3.568   2.035   1.174 -0.5040  0.1600 -0.0327
 7755SOL    HW134898   3.556   2.003   1.084 -0.4682 -0.0304  0.0309
 7755SOL    HW234899   3.571   1.950   1.218  0.6367  0.8894  1.2876
 7756SOL     OW34900   3.064   4.222   9.798 -0.3610  0.1110  0.3086
 7756SOL    HW134901   3.007   4.240   9.723 -0.6691  0.0147  0.5209
 7756SOL    HW234902   3.125   4.154   9.767  0.3321  0.1197  1.6796
 7757SOL     OW34903   4.224   4.186   7.497 -1.0604 -0.4928  0.4587
 7757SOL    HW134904   4.133   4.211   7.481 -0.5021  2.5871  2.1026
 7757SOL    HW234905   4.242   4.248   7.568 -3.3673  1.1522 -0.4012
 7758SOL     OW34906   0.566   1.503   1.822 -0.2512  0.6653 -0.5191
 7758SOL    HW134907   0.523   1.504   1.736  0.0731 -1.5493 -0.7043
 7758SOL    HW234908   0.497   1.478   1.883  2.6057  0.9886  2.8656
 7759SOL     OW34909   2.486   1.343   2.604 -0.1030 -0.8078 -0.3514
 7759SOL    HW134910   2.395   1.357   2.579 -0.1491 -0.8518 -0.2066
 7759SOL    HW234911   2.470   1.356   2.697 -0.8351 -2.9640 -0.1817
 7760SOL     OW34912   4.579   2.008   3.057  0.2582 -0.2632 -0.5342
 7760SOL    HW134913   4.533   1.962   3.128 -1.1865  0.1700 -1.1859
 7760SOL    HW234914   4.612   2.086   3.102  1.9998 -0.7217 -1.0127
 7761SOL     OW34915   0.316   2.486  11.416 -0.0861  0.2669 -0.4642
 7761SOL    HW134916   0.400   2.531  11.427 -0.2584  0.4940 -0.0519
 7761SOL    HW234917   0.320   2.441  11.500 -0.0326  2.4939  0.7297
 7762SOL     OW34918   2.455   3.866   3.096  0.5580 -0.3895 -0.0037
 7762SOL    HW134919   2.414   3.929   3.037 -1.5517 -1.8409 -0.0894
 7762SOL    HW234920   2.479   3.796   3.035 -1.0126  1.0426 -2.2659
 7763SOL     OW34921   1.502   2.640   7.024  0.1010  0.2146  0.3127
 7763SOL    HW134922   1.533   2.728   7.000 -0.7921  0.8089  1.3851
 7763SOL    HW234923   1.518   2.598   6.939 -1.1005  0.1345  0.1288
 7764SOL     OW34924   1.495   3.781   8.208 -0.0701 -0.1922 -0.3487
 7764SOL    HW134925   1.421   3.749   8.156 -0.2613  2.6694 -1.8602
 7764SOL    HW234926   1.468   3.869   8.234 -1.1536 -0.9354  1.0352
 7765SOL     OW34927   0.393   1.269  15.345 -0.5167  0.3669  0.2103
 7765SOL    HW134928   0.431   1.324  15.414 -0.5248  2.1832 -1.2677
 7765SOL    HW234929   0.370   1.347  15.295 -1.4791 -1.7791 -2.6748
 7766SOL     OW34930   0.781   0.284   7.329 -0.5475 -0.1885  0.2628
 7766SOL    HW134931   0.857   0.258   7.382 -0.1784 -1.2944 -0.8183
 7766SOL    HW234932   0.814   0.243   7.248 -2.6337 -4.0349  1.3570
 7767SOL     OW34933   3.889   0.923   5.307 -0.8468  0.9872 -0.1549
 7767SOL    HW134934   3.867   0.849   5.363 -0.1328  0.3816 -0.6662
 7767SOL    HW234935   3.824   0.980   5.347 -1.0821  3.3505 -3.9001
 7768SOL     OW34936   3.674   4.370   8.548  0.1824 -0.0393  0.0952
 7768SOL    HW134937   3.606   4.404   8.606  1.1000  1.7299  0.1506
 7768SOL    HW234938   3.665   4.275   8.549 -0.5902  0.0241 -0.8033
 7769SOL     OW34939   0.670   2.411   1.249  0.0254  0.2899  0.3422
 7769SOL    HW134940   0.722   2.333   1.268  0.9670  0.2704 -2.2723
 7769SOL    HW234941   0.640   2.396   1.160  2.0862 -1.1095 -0.1253
 7770SOL     OW34942   4.485   2.580  15.202  0.1162  0.3210 -0.5244
 7770SOL    HW134943   4.553   2.630  15.247 -0.4126  0.6650 -0.1089
 7770SOL    HW234944   4.402   2.627  15.213 -0.6187 -0.3020 -3.3398
 7771SOL     OW34945   1.127   0.938   4.239 -0.5249  0.2571 -0.7216
 7771SOL    HW134946   1.193   0.874   4.212 -0.6879 -0.7662  1.2779
 7771SOL    HW234947   1.170   0.967   4.320  1.3751  1.1335 -2.0352
 7772SOL     OW34948   3.931   2.877   3.393 -0.1346 -0.0335 -0.0580
 7772SOL    HW134949   4.020   2.913   3.390 -0.4100  0.6888  0.5457
 7772SOL    HW234950   3.883   2.919   3.322  0.7159  0.4364 -0.3556
 7773SOL     OW34951   3.979   1.037   1.395  0.1823  0.7795  0.1348
 7773SOL    HW134952   3.895   1.000   1.423  0.1404  1.1227  0.4663
 7773SOL    HW234953   3.957   1.130   1.388 -0.7433  0.5727  0.2190
 7774SOL     OW34954   4.696   0.002   7.936  0.5323  0.3897  0.0611
 7774SOL    HW134955   0.039   4.700   7.945 -0.1423 -0.3276  3.0773
 7774SOL    HW234956   4.713   0.069   8.002  0.2691 -0.5501  1.0833
 7775SOL     OW34957   1.214   0.617   5.899  0.5262  0.2906 -0.0334
 7775SOL    HW134958   1.145   0.674   5.865 -0.2943  0.2549  1.6098
 7775SOL    HW234959   1.160   0.574   5.965  2.3242 -0.0104  1.2566
 7776SOL     OW34960   1.943   2.667   1.601 -0.0156  0.2477 -0.2425
 7776SOL    HW134961   1.867   2.614   1.580  1.0018 -1.0020 -0.7875
 7776SOL    HW234962   1.899   2.747   1.628  1.4734  1.1893 -0.5943
 7777SOL     OW34963   2.345   3.308   3.949  0.1599 -0.0137 -0.1292
 7777SOL    HW134964   2.383   3.318   3.861  3.4470 -2.8130  0.9235
 7777SOL    HW234965   2.324   3.400   3.965 -2.0216 -0.8249  1.5872
 7778SOL     OW34966   1.880   2.246   8.587 -0.0171 -0.0332 -0.4322
 7778SOL    HW134967   1.952   2.185   8.601  1.4899  1.9760  0.5434
 7778SOL    HW234968   1.873   2.297   8.668  0.1137  0.1369 -0.5308
 7779SOL     OW34969   3.192   2.870   7.405 -0.2304  0.7917  0.6773
 7779SOL    HW134970   3.282   2.894   7.427 -0.3814  1.0533  1.0065
 7779SOL    HW234971   3.180   2.933   7.333 -0.0196  0.3435  0.2462
 7780SOL     OW34972   2.227   2.893   7.710 -0.4162  0.0334 -0.3187
 7780SOL    HW134973   2.144   2.940   7.715 -1.0610 -0.9837 -1.7617
 7780SOL    HW234974   2.199   2.807   7.742 -1.4681  1.1131  1.6855
 7781SOL     OW34975   0.390   2.398   7.887  0.1167  0.2627  0.2584
 7781SOL    HW134976   0.326   2.327   7.885  2.4785 -1.9160  1.2439
 7781SOL    HW234977   0.477   2.362   7.904 -0.4630 -0.9713  0.6483
 7782SOL     OW34978   2.725   2.746   6.087 -0.3518  0.0619 -0.3590
 7782SOL    HW134979   2.777   2.823   6.064  0.9674 -1.1291 -1.3627
 7782SOL    HW234980   2.675   2.720   6.009 -0.4001 -1.2796  0.1071
 7783SOL     OW34981   2.098   3.902   4.760  0.1146  0.3464 -0.5193
 7783SOL    HW134982   2.082   3.902   4.854  0.8810 -1.0426 -0.3979
 7783SOL    HW234983   2.030   3.846   4.723 -1.1425  2.2472 -1.1161
 7784SOL     OW34984   1.211   2.593   6.894  0.0115 -0.4666 -0.1413
 7784SOL    HW134985   1.294   2.593   6.941  0.3599  0.3112 -0.7467
 7784SOL    HW234986   1.153   2.610   6.967 -2.5032  0.6811 -2.4130
 7785SOL     OW34987   4.216   2.985   5.523  0.4762 -0.1200  0.2651
 7785SOL    HW134988   4.183   2.965   5.610 -0.6109  0.0303 -0.1149
 7785SOL    HW234989   4.159   2.934   5.465  1.6374  0.3426 -1.2900
 7786SOL     OW34990   0.615   0.479   9.361 -0.0230 -0.3117 -0.7370
 7786SOL    HW134991   0.596   0.549   9.423 -2.4307 -0.3956 -1.3886
 7786SOL    HW234992   0.579   0.401   9.402  0.6698 -0.2437  0.0062
 7787SOL     OW34993   0.335   2.203  15.595  0.1872  0.2953 -0.0604
 7787SOL    HW134994   0.381   2.179  15.514  2.1025  2.7834  0.2975
 7787SOL    HW234995   0.266   2.266  15.574  0.1509 -0.3394 -1.9315
 7788SOL     OW34996   3.642   4.617  15.621 -0.0273 -0.0889 -0.4432
 7788SOL    HW134997   3.716   4.663  15.581 -0.1299  0.5910  0.1378
 7788SOL    HW234998   3.583   4.618  15.545 -0.5746 -4.7200 -0.0509
 7789SOL     OW34999   2.810   3.794  15.959  0.0378  0.5559  0.1781
 7789SOL    HW135000   2.882   3.858  15.960 -0.7858  1.4909 -1.0801
 7789SOL    HW235001   2.735   3.851  15.974 -1.0779 -0.8735 -0.0541
 7790SOL     OW35002   1.153   2.538  11.230  0.4924  0.1330 -0.0136
 7790SOL    HW135003   1.247   2.543  11.246  0.5368  2.2396 -1.0066
 7790SOL    HW235004   1.131   2.627  11.255 -0.4881 -0.7573  2.2257
 7791SOL     OW35005   2.096   4.229  13.500  0.4973 -0.6561 -0.0065
 7791SOL    HW135006   2.179   4.215  13.454 -0.6753 -0.2860 -2.1967
 7791SOL    HW235007   2.066   4.139  13.514  1.7128 -1.0709 -0.0345
 7792SOL     OW35008   2.135   3.472   5.035 -0.0501  0.1175  0.3116
 7792SOL    HW135009   2.057   3.527   5.029  0.6970  1.3094  1.4570
 7792SOL    HW235010   2.101   3.393   5.076  1.3433 -0.5147  0.2670
 7793SOL     OW35011   0.737   2.445  10.090  0.1381 -0.1433  0.0721
 7793SOL    HW135012   0.653   2.487  10.105  0.2555 -0.8928  2.8973
 7793SOL    HW235013   0.774   2.449  10.178  0.9949  0.9104 -0.3330
 7794SOL     OW35014   2.207   3.901   9.919  0.0781 -0.2535  0.0275
 7794SOL    HW135015   2.143   3.937   9.857  1.8489  1.2067 -0.9282
 7794SOL    HW235016   2.189   3.808   9.914  0.6774 -0.2787 -1.6283
 7795SOL     OW35017   0.370   2.626   9.865 -0.3923  0.3849  0.1821
 7795SOL    HW135018   0.334   2.714   9.873  1.2998  1.0137  0.7399
 7795SOL    HW235019   0.339   2.580   9.944 -0.0664  0.6513  0.4617
 7796SOL     OW35020   2.531   0.753  15.003 -0.0571 -0.0563 -0.2220
 7796SOL    HW135021   2.567   0.778  14.918  1.0227 -0.0431  0.2394
 7796SOL    HW235022   2.486   0.832  15.032 -0.8604 -0.6592  0.2042
 7797SOL     OW35023   2.210   1.754  15.729  0.2368  0.5420  0.1751
 7797SOL    HW135024   2.138   1.796  15.776  2.1968  3.4538  0.5584
 7797SOL    HW235025   2.276   1.823  15.725  1.6125 -0.7788  0.3154
 7798SOL     OW35026   2.266   1.422   3.194 -0.7583 -0.1477 -0.6246
 7798SOL    HW135027   2.257   1.329   3.174  1.6105 -0.3604 -0.7667
 7798SOL    HW235028   2.229   1.466   3.118 -1.2623  0.4962 -0.0120
 7799SOL     OW35029   3.579   0.163   4.360  0.2717 -0.4305 -0.1041
 7799SOL    HW135030   3.647   0.114   4.314 -0.7074 -0.5620 -1.4278
 7799SOL    HW235031   3.625   0.236   4.400  0.7256 -0.6438 -0.2388
 7800SOL     OW35032   1.320   0.971  11.710  0.7024  0.1707 -0.3730
 7800SOL    HW135033   1.247   0.937  11.658  1.2929 -3.2793  0.9904
 7800SOL    HW235034   1.276   0.981  11.794 -1.1968 -1.4613 -1.1415
 7801SOL     OW35035   1.493   4.646  17.124  0.0259 -0.0784 -0.0072
 7801SOL    HW135036   1.471   4.730  17.165 -1.7490 -1.3801  1.7344
 7801SOL    HW235037   1.559   4.665  17.058  0.2618 -2.4380 -0.4209
 7802SOL     OW35038   2.247   0.946   2.718  0.1368  0.1149 -0.1854
 7802SOL    HW135039   2.242   1.014   2.785  0.4886 -0.0818  0.0380
 7802SOL    HW235040   2.249   1.008   2.644 -0.5528  0.3270 -0.0275
 7803SOL     OW35041   2.037   2.564  15.701 -0.0024  0.7093 -0.2443
 7803SOL    HW135042   2.119   2.568  15.750  0.7583  2.6540 -1.6658
 7803SOL    HW235043   1.988   2.618  15.763  0.5756  1.5131 -0.4831
 7804SOL     OW35044   0.177   1.806   7.584 -0.3065 -0.4423 -0.3142
 7804SOL    HW135045   0.178   1.902   7.587 -0.5782 -0.3365 -3.5912
 7804SOL    HW235046   0.170   1.785   7.677  1.0889 -0.4576 -0.2118
 7805SOL     OW35047   4.468   1.278   3.346 -1.1140 -0.4744 -0.1452
 7805SOL    HW135048   4.489   1.185   3.359  1.7415  0.1787 -0.1302
 7805SOL    HW235049   4.529   1.321   3.406  0.7389 -1.4720 -1.3306
 7806SOL     OW35050   3.596   0.268   1.472  0.2004 -0.0853 -0.0947
 7806SOL    HW135051   3.601   0.190   1.527 -3.1485  0.3133  0.7724
 7806SOL    HW235052   3.578   0.327   1.546  1.6030  3.0968 -2.3089
 7807SOL     OW35053   1.740   2.072   3.749  0.2381 -0.2471 -0.0388
 7807SOL    HW135054   1.772   2.049   3.662  1.9603 -0.6861  0.7163
 7807SOL    HW235055   1.669   2.009   3.757  0.4118 -0.3988  0.3552
 7808SOL     OW35056   2.673   3.935  12.013 -0.0834  0.3311  0.4569
 7808SOL    HW135057   2.652   3.860  11.958 -1.5696  0.9528  0.1517
 7808SOL    HW235058   2.747   3.899  12.061  0.1491 -1.2238 -1.0873
 7809SOL     OW35059   3.815   0.246  15.293 -0.5088  0.2147 -0.9743
 7809SOL    HW135060   3.796   0.340  15.293 -1.2907  0.0560  0.2375
 7809SOL    HW235061   3.896   0.232  15.244  0.2547 -1.5480  0.7624
 7810SOL     OW35062   2.985   1.020   3.073 -0.8456 -0.3462  0.1368
 7810SOL    HW135063   2.908   1.029   3.129 -1.3035 -1.5931 -0.2835
 7810SOL    HW235064   2.953   1.047   2.987 -2.5050  2.3864  1.6009
 7811SOL     OW35065   0.980   0.494   6.747  0.0380 -0.5898 -0.2695
 7811SOL    HW135066   1.016   0.422   6.696  1.5312 -0.0121 -0.0272
 7811SOL    HW235067   1.051   0.555   6.726 -0.0660  0.4083  2.1896
 7812SOL     OW35068   4.053   2.887   7.531  0.8577 -0.7828 -0.3800
 7812SOL    HW135069   4.104   2.836   7.594 -0.7924 -2.5014 -0.4343
 7812SOL    HW235070   3.981   2.911   7.590  3.8483  0.7932  2.5864
 7813SOL     OW35071   3.743   1.101   0.621 -0.3831 -0.4066 -0.2921
 7813SOL    HW135072   3.802   1.132   0.689 -1.0049  1.0936 -0.4408
 7813SOL    HW235073   3.736   1.012   0.655 -0.1892 -1.4154 -2.8855
 7814SOL     OW35074   3.525   2.383   6.739  0.6045 -0.2533  0.0197
 7814SOL    HW135075   3.517   2.304   6.686 -3.7812 -0.4590  0.9767
 7814SOL    HW235076   3.568   2.433   6.670 -1.7097  0.1101 -1.1885
 7815SOL     OW35077   0.751   1.639  11.539  0.1487  0.2454  0.2502
 7815SOL    HW135078   0.833   1.597  11.512  0.1698  0.1812  0.4151
 7815SOL    HW235079   0.721   1.584  11.612  0.8206  0.8426  0.9833
 7816SOL     OW35080   3.639   4.149  13.332 -0.8612 -0.1010 -0.6386
 7816SOL    HW135081   3.568   4.192  13.380  0.4047  0.9799  0.2611
 7816SOL    HW235082   3.712   4.149  13.393 -0.7899  1.1696 -0.7138
 7817SOL     OW35083   4.535   0.714   3.515  0.0412 -0.1333 -0.0515
 7817SOL    HW135084   4.603   0.653   3.544 -0.1695 -0.5214 -0.3738
 7817SOL    HW235085   4.487   0.660   3.452  0.3987  0.5942 -0.9458
 7818SOL     OW35086   3.001   1.550  15.402  0.3913 -0.2256  0.1034
 7818SOL    HW135087   2.994   1.612  15.474  0.2544  1.0790 -1.0211
 7818SOL    HW235088   2.966   1.603  15.330  0.2979 -0.1093  0.2367
 7819SOL     OW35089   2.172   4.124   5.568  0.4642 -0.3422 -0.5249
 7819SOL    HW135090   2.146   4.198   5.623 -0.7864  1.3987 -3.3960
 7819SOL    HW235091   2.237   4.080   5.623 -0.1150 -3.2471 -2.2021
 7820SOL     OW35092   3.654   2.409   2.230  0.2537  0.1701 -0.0749
 7820SOL    HW135093   3.599   2.437   2.157  1.5460  0.7797 -0.8163
 7820SOL    HW235094   3.705   2.342   2.185  0.5183  2.0592 -2.5802
 7821SOL     OW35095   2.478   4.176  10.881 -0.0945  0.6276  0.1208
 7821SOL    HW135096   2.569   4.195  10.859 -0.8314  2.3094 -1.4883
 7821SOL    HW235097   2.430   4.251  10.848 -2.0135  0.5502  2.7076
 7822SOL     OW35098   0.187   1.711  10.110 -0.1548  0.3660  0.3986
 7822SOL    HW135099   0.128   1.784  10.087 -1.2734 -0.3270  1.0510
 7822SOL    HW235100   0.121   1.654  10.150 -0.7501  1.2505  0.6772
 7823SOL     OW35101   1.735   3.705   2.672  0.7682  0.1413 -0.0959
 7823SOL    HW135102   1.654   3.698   2.621  0.7979  0.2031 -0.1516
 7823SOL    HW235103   1.769   3.788   2.638 -3.6788  1.1689 -2.0524
 7824SOL     OW35104   0.060   3.168   8.723  0.1171 -0.1951  0.4037
 7824SOL    HW135105   0.028   3.117   8.649 -2.1047  1.4939  0.1922
 7824SOL    HW235106   0.115   3.097   8.757  1.3713  1.7914  2.5337
 7825SOL     OW35107   1.250   3.682  14.720  0.1695 -0.0564 -0.3056
 7825SOL    HW135108   1.250   3.712  14.811 -1.5832 -2.7511  0.5654
 7825SOL    HW235109   1.159   3.691  14.690  0.1187  2.6179  0.6581
 7826SOL     OW35110   3.198   1.417   8.146 -0.7358  0.0714  0.2078
 7826SOL    HW135111   3.185   1.371   8.063 -0.3904  0.1709  0.0973
 7826SOL    HW235112   3.179   1.356   8.217  1.6650 -1.6665 -0.6362
 7827SOL     OW35113   2.432   1.003   8.365  0.1694 -0.2171 -0.1305
 7827SOL    HW135114   2.416   0.926   8.420  0.2724  0.0783  0.3151
 7827SOL    HW235115   2.449   0.979   8.274  1.6282  1.8259 -0.4016
 7828SOL     OW35116   2.697   3.666   1.579 -0.3144  0.0003  0.4014
 7828SOL    HW135117   2.680   3.747   1.626 -0.5894 -0.9272  1.9081
 7828SOL    HW235118   2.792   3.667   1.575 -0.3032 -0.3686  0.5570
 7829SOL     OW35119   0.960   1.952   1.092 -0.1022 -0.1642 -0.1834
 7829SOL    HW135120   0.935   1.893   1.021 -3.2276  1.6759 -0.5904
 7829SOL    HW235121   0.972   2.036   1.047  1.4986 -0.0407  0.4685
 7830SOL     OW35122   3.405   2.356  13.256  0.1396 -0.2654 -0.4202
 7830SOL    HW135123   3.483   2.371  13.310 -0.5024 -0.7249  0.6482
 7830SOL    HW235124   3.442   2.295  13.192  1.5163 -1.1077  1.1852
 7831SOL     OW35125   2.130   4.117  11.792 -0.2395 -0.2945 -0.1481
 7831SOL    HW135126   2.203   4.171  11.823 -1.0587 -0.1287  1.4757
 7831SOL    HW235127   2.157   4.111  11.701 -0.8688 -0.7566 -0.3077
 7832SOL     OW35128   0.895   0.957   5.523 -0.2705 -0.0466 -0.1739
 7832SOL    HW135129   0.826   1.014   5.487 -0.8883  0.3141  1.5680
 7832SOL    HW235130   0.945   0.931   5.446  1.7919 -0.2982  1.2677
 7833SOL     OW35131   0.447   2.143  15.320 -0.3524  0.4608 -0.0995
 7833SOL    HW135132   0.536   2.114  15.299  0.1584  1.1007  1.1591
 7833SOL    HW235133   0.384   2.122  15.252 -1.1432  0.7536  0.5473
 7834SOL     OW35134   1.239   3.586   7.192  0.4400  0.2492 -0.0260
 7834SOL    HW135135   1.324   3.555   7.161  0.6143  1.4556 -0.7826
 7834SOL    HW235136   1.192   3.503   7.204  0.4018  0.2855  0.0742
 7835SOL     OW35137   4.550   1.310   5.660  0.0589 -0.9212  0.0804
 7835SOL    HW135138   4.634   1.308   5.705  0.6084  1.9869 -0.8348
 7835SOL    HW235139   4.541   1.215   5.663 -0.3225 -0.8091  2.3711
 7836SOL     OW35140   1.913   4.513  10.147  0.5833  0.2978 -0.2323
 7836SOL    HW135141   2.004   4.500  10.173  1.3366 -1.2893 -3.6646
 7836SOL    HW235142   1.889   4.439  10.090  0.0003  0.0926  0.2755
 7837SOL     OW35143   1.876   3.431   9.957  0.4631 -0.3929 -0.0189
 7837SOL    HW135144   1.939   3.436  10.028  2.1758 -1.7547 -1.4426
 7837SOL    HW235145   1.909   3.360   9.901 -0.0148 -0.8190  0.2355
 7838SOL     OW35146   4.295   2.526   5.286  1.1692 -0.0304 -0.3391
 7838SOL    HW135147   4.346   2.453   5.321 -1.7465 -1.5592  0.7576
 7838SOL    HW235148   4.210   2.486   5.307 -0.6315  3.3799 -1.1340
 7839SOL     OW35149   2.486   1.354   3.365  0.6347 -0.0660 -0.4214
 7839SOL    HW135150   2.406   1.357   3.313  0.0477 -1.5107  0.4048
 7839SOL    HW235151   2.545   1.283   3.338  1.9822  0.4294  1.2105
 7840SOL     OW35152   4.134   1.051   3.265  0.1691 -0.2529 -0.5555
 7840SOL    HW135153   4.147   0.994   3.189  0.5155  1.0531 -1.4786
 7840SOL    HW235154   4.157   0.989   3.334 -1.4702 -0.9854 -0.6618
 7841SOL     OW35155   2.576   3.583   4.922  0.0913  0.1708  0.3353
 7841SOL    HW135156   2.565   3.590   5.016 -2.0579  0.0130  0.1038
 7841SOL    HW235157   2.508   3.519   4.899  1.0655 -0.0906 -1.8368
 7842SOL     OW35158   2.124   2.941   4.759 -0.3808 -0.3001  0.5962
 7842SOL    HW135159   2.191   2.983   4.706 -0.4428 -1.6085 -0.5324
 7842SOL    HW235160   2.170   2.901   4.832 -0.3968  0.1987  0.8780
 7843SOL     OW35161   3.357   0.558   2.689  0.6616 -0.1626 -0.3686
 7843SOL    HW135162   3.451   0.560   2.671  1.0137  0.8120  1.5323
 7843SOL    HW235163   3.362   0.529   2.780 -0.6921  1.3628  0.1989
 7844SOL     OW35164   0.571   1.350   7.855 -0.5269 -0.0454  0.6183
 7844SOL    HW135165   0.533   1.437   7.848 -0.2903  0.0606  0.6622
 7844SOL    HW235166   0.563   1.322   7.763  0.5159  1.2994  0.1162
 7845SOL     OW35167   1.208   2.851  11.892 -0.0156  0.1479  0.1650
 7845SOL    HW135168   1.285   2.799  11.916  0.1274  0.7333  0.9298
 7845SOL    HW235169   1.148   2.779  11.873 -1.9462  1.9343 -0.4390
 7846SOL     OW35170   3.271   3.031   0.971  0.2071  0.0481  0.3436
 7846SOL    HW135171   3.211   3.027   1.045  1.4761  0.0928  1.3609
 7846SOL    HW235172   3.263   3.115   0.925 -3.4548 -2.0036 -2.8234
 7847SOL     OW35173   3.107   0.647  14.724 -1.0194  0.1609  0.0467
 7847SOL    HW135174   3.027   0.656  14.776 -0.7134  0.2272  0.5109
 7847SOL    HW235175   3.125   0.556  14.744 -0.2084  0.5169  0.9458
 7848SOL     OW35176   4.378   4.011   2.274  0.3173  0.0693 -0.2872
 7848SOL    HW135177   4.459   4.011   2.325  0.7661  0.3269 -0.9998
 7848SOL    HW235178   4.409   3.988   2.186  1.7720  0.9135  0.0019
 7849SOL     OW35179   2.680   3.486  12.521 -0.0315  0.1144  0.1254
 7849SOL    HW135180   2.609   3.422  12.517  1.3972 -1.3402 -2.2869
 7849SOL    HW235181   2.671   3.514  12.612 -0.6723  0.1367  0.0513
 7850SOL     OW35182   1.669   4.144   2.513  0.1755  0.2953  0.3075
 7850SOL    HW135183   1.583   4.160   2.474 -0.7105  0.6756  2.4287
 7850SOL    HW235184   1.648   4.164   2.604  1.3128  0.5455  0.5206
 7851SOL     OW35185   0.984   2.993   3.086 -0.0336  0.5379 -0.0759
 7851SOL    HW135186   0.940   3.011   3.169 -1.2224 -2.6204 -0.0379
 7851SOL    HW235187   1.064   2.957   3.124  0.0392  0.7377 -0.0365
 7852SOL     OW35188   2.365   4.721   2.181 -0.3644  0.1273  0.3083
 7852SOL    HW135189   2.292   0.036   2.206  1.1544  2.0512  0.4089
 7852SOL    HW235190   2.353   4.724   2.086  0.1985 -1.9183  0.1782
 7853SOL     OW35191   2.159   4.528   5.308 -0.2666 -0.5744  0.0920
 7853SOL    HW135192   2.147   4.534   5.402  0.1761  1.4347  0.0160
 7853SOL    HW235193   2.243   4.483   5.307  1.8470  3.3884  0.7050
 7854SOL     OW35194   3.997   2.592   1.805  0.0507 -0.2708  0.7630
 7854SOL    HW135195   4.063   2.549   1.751  0.5110  1.6924 -0.2399
 7854SOL    HW235196   3.935   2.614   1.736  0.3397  2.2926  1.3156
 7855SOL     OW35197   0.777   1.980   9.914  0.0781 -0.5349  0.0339
 7855SOL    HW135198   0.841   2.019   9.854  1.5821 -3.2113 -0.0636
 7855SOL    HW235199   0.720   1.950   9.842 -1.6411  1.5677  0.5105
 7856SOL     OW35200   3.978   1.272  10.666  0.4591 -0.1329  0.2900
 7856SOL    HW135201   4.006   1.217  10.739  3.6672 -0.4103 -1.1612
 7856SOL    HW235202   3.914   1.322  10.717  0.3452 -0.0034  0.0248
 7857SOL     OW35203   0.501   3.730  16.674 -0.2683 -0.4057 -0.5394
 7857SOL    HW135204   0.470   3.720  16.764  2.2590  2.3041  0.6366
 7857SOL    HW235205   0.448   3.661  16.633 -0.3094 -0.0294 -1.1194
 7858SOL     OW35206   2.096   0.341   8.655 -0.1913 -0.0359  0.4801
 7858SOL    HW135207   2.106   0.423   8.702  0.1108 -0.8053  1.7455
 7858SOL    HW235208   2.166   0.291   8.695 -0.2810  0.2836  1.0269
 7859SOL     OW35209   1.806   2.340   4.490  0.4444  0.3776 -0.4872
 7859SOL    HW135210   1.884   2.389   4.466  1.0629 -0.4629 -0.1708
 7859SOL    HW235211   1.837   2.250   4.493 -2.8884 -0.7503  0.4575
 7860SOL     OW35212   1.656   2.250   6.312 -0.1257  0.4389  0.1902
 7860SOL    HW135213   1.569   2.262   6.272 -0.3705 -0.5838  0.4079
 7860SOL    HW235214   1.682   2.342   6.322  0.4043  0.5730 -2.3721
 7861SOL     OW35215   1.036   4.090   6.203  0.7069  0.3573 -0.0400
 7861SOL    HW135216   1.034   4.180   6.169  1.4247 -0.3570 -1.9557
 7861SOL    HW235217   0.958   4.093   6.259  0.8711 -0.9785  0.2436
 7862SOL     OW35218   3.215   0.246   1.575  0.0596 -0.2742 -0.5322
 7862SOL    HW135219   3.143   0.183   1.571  1.4268 -1.9890  1.8437
 7862SOL    HW235220   3.192   0.280   1.662  1.4608  0.5637 -0.5004
 7863SOL     OW35221   1.291   3.836   4.053  0.1487  0.1046  0.0392
 7863SOL    HW135222   1.250   3.758   4.016  2.3520 -0.7380 -0.5754
 7863SOL    HW235223   1.311   3.889   3.975  1.0028 -1.1440 -0.5865
 7864SOL     OW35224   3.196   4.045  14.376  0.7332 -0.2217  0.4016
 7864SOL    HW135225   3.149   4.089  14.446 -0.3692 -0.8428  0.0567
 7864SOL    HW235226   3.120   4.012  14.328  0.7694  0.1902  0.0579
 7865SOL     OW35227   0.484   0.128  12.033  0.6073 -0.3399 -0.0723
 7865SOL    HW135228   0.533   0.095  11.958  0.4603  1.3819 -0.9368
 7865SOL    HW235229   0.476   0.056  12.095 -0.8086  0.2196  0.4150
 7866SOL     OW35230   1.044   2.177   7.188  0.2625 -0.2153 -0.5082
 7866SOL    HW135231   1.062   2.140   7.102  2.5839 -1.1437  0.3660
 7866SOL    HW235232   1.063   2.100   7.241  2.2386  1.3751  1.1334
 7867SOL     OW35233   3.998   2.556  10.899 -0.5281 -0.6146 -0.3074
 7867SOL    HW135234   4.087   2.560  10.864 -0.2909  0.9000  0.4790
 7867SOL    HW235235   3.963   2.469  10.879 -1.5869 -0.1910 -0.3102
 7868SOL     OW35236   0.226   3.851   5.486  1.0624  0.5149 -0.3197
 7868SOL    HW135237   0.304   3.796   5.497  1.3997  1.6772  3.0186
 7868SOL    HW235238   0.257   3.934   5.521  1.3294 -0.0708  0.8526
 7869SOL     OW35239   3.263   3.000   4.500 -0.1431 -0.5131 -0.2384
 7869SOL    HW135240   3.232   3.086   4.473  1.0920  0.0425  0.0997
 7869SOL    HW235241   3.201   2.933   4.471 -1.9310  1.0731 -0.0965
 7870SOL     OW35242   1.913   0.257   7.420  0.1201  0.0622 -0.1599
 7870SOL    HW135243   1.987   0.212   7.463 -0.0937 -1.0259 -0.9342
 7870SOL    HW235244   1.959   0.330   7.379 -0.5870  1.6055  1.8013
 7871SOL     OW35245   1.253   3.581   8.463  0.1183 -0.6226  0.3374
 7871SOL    HW135246   1.346   3.557   8.462  0.5877  1.0996  1.1881
 7871SOL    HW235247   1.219   3.542   8.383  2.0777 -0.4246 -0.5995
 7872SOL     OW35248   2.954   3.099   8.824  0.1100  0.1225 -0.3213
 7872SOL    HW135249   2.994   3.140   8.746 -0.1726  0.6509 -0.1834
 7872SOL    HW235250   2.863   3.098   8.796 -0.1886 -1.6891  0.7442
 7873SOL     OW35251   2.257   1.164   3.519  0.5164  0.2216  0.0274
 7873SOL    HW135252   2.311   1.128   3.448  2.6377 -0.2531  1.8919
 7873SOL    HW235253   2.260   1.093   3.584 -0.6335  0.0322 -0.1257
 7874SOL     OW35254   3.057   4.653  17.123 -0.4079 -0.0854 -0.1771
 7874SOL    HW135255   3.110   4.608  17.189  0.9297  0.7617 -0.6934
 7874SOL    HW235256   2.991   4.586  17.102 -0.2882 -0.4734  0.6759
 7875SOL     OW35257   3.937   2.151   2.396  0.2943  0.0226 -0.5745
 7875SOL    HW135258   4.029   2.175   2.385  1.0030 -1.0374  3.0012
 7875SOL    HW235259   3.921   2.168   2.489  3.5397 -0.7565  0.1341
 7876SOL     OW35260   1.852   4.226   4.626 -0.1502 -0.5629 -0.2345
 7876SOL    HW135261   1.829   4.233   4.719  2.4834 -1.0705  0.4483
 7876SOL    HW235262   1.945   4.209   4.642  0.1894  2.8426  1.6203
 7877SOL     OW35263   2.762   3.635   8.665  0.3734 -0.1237  0.6097
 7877SOL    HW135264   2.836   3.636   8.726  1.6067 -3.3748 -0.8320
 7877SOL    HW235265   2.775   3.722   8.626  0.7106  0.6219  2.3968
 7878SOL     OW35266   4.656   2.840  15.904 -0.5678  0.1062 -0.1171
 7878SOL    HW135267   4.721   2.841  15.974  0.8082  1.7818 -1.4104
 7878SOL    HW235268   4.622   2.750  15.914  1.9088 -0.4976  2.7819
 7879SOL     OW35269   2.383   2.747   6.656  0.5225  0.0223 -0.1759
 7879SOL    HW135270   2.420   2.674   6.606  0.6906 -0.2644  0.3664
 7879SOL    HW235271   2.288   2.740   6.647  0.2343  1.1746  1.9421
 7880SOL     OW35272   3.620   3.911   3.404  0.1076  0.4529  0.3906
 7880SOL    HW135273   3.562   3.838   3.380  0.8432 -0.1870  0.5302
 7880SOL    HW235274   3.665   3.864   3.474  1.4557  3.2548  1.3894
 7881SOL     OW35275   3.570   2.622   7.859  0.4243  0.0449 -0.2030
 7881SOL    HW135276   3.610   2.697   7.902 -3.5604  1.4352  1.0795
 7881SOL    HW235277   3.599   2.558   7.924  0.8652  0.3290 -0.1267
 7882SOL     OW35278   2.048   2.380   8.884  0.4927 -0.1273 -0.0358
 7882SOL    HW135279   2.000   2.297   8.894  0.2556 -0.0463 -0.4842
 7882SOL    HW235280   1.990   2.441   8.930  0.1674 -0.4522 -0.0158
 7883SOL     OW35281   3.227   2.762   2.733 -0.2898 -0.0727  0.3349
 7883SOL    HW135282   3.140   2.765   2.693 -0.8333 -2.2200  1.3642
 7883SOL    HW235283   3.250   2.671   2.713 -0.5657 -0.2880  0.9975
 7884SOL     OW35284   0.493   3.492   4.617 -0.1820  0.6062  0.1158
 7884SOL    HW135285   0.427   3.463   4.680  0.8037 -0.8483  0.4905
 7884SOL    HW235286   0.562   3.448   4.668 -1.0141 -1.1953 -0.3160
 7885SOL     OW35287   1.652   4.400   3.706 -0.0525  0.7755 -0.0728
 7885SOL    HW135288   1.680   4.391   3.797 -2.0170  0.3877  0.4910
 7885SOL    HW235289   1.680   4.311   3.683  1.8749  1.7308 -1.4448
 7886SOL     OW35290   2.714   0.382   7.503  0.4943  0.0274  0.2792
 7886SOL    HW135291   2.738   0.471   7.527 -0.4527  0.1599  0.7082
 7886SOL    HW235292   2.620   0.392   7.516  0.7224  1.0893  1.1259
 7887SOL     OW35293   0.289   0.620  11.575 -0.1389 -0.1639 -0.0625
 7887SOL    HW135294   0.320   0.553  11.636 -0.9517 -1.2172 -0.7872
 7887SOL    HW235295   0.194   0.623  11.584 -0.2164  0.5782 -1.1252
 7888SOL     OW35296   1.730   1.329   5.829 -0.5913 -0.0060 -0.1111
 7888SOL    HW135297   1.764   1.419   5.826 -0.5017  0.0439  3.0406
 7888SOL    HW235298   1.644   1.348   5.868  0.4730  0.4751  1.9856
 7889SOL     OW35299   2.555   2.645   8.081 -0.0036 -0.0429 -0.1517
 7889SOL    HW135300   2.608   2.696   8.142  2.4163 -0.5461 -1.8766
 7889SOL    HW235301   2.475   2.692   8.106 -1.5486 -4.0242  2.3935
 7890SOL     OW35302   2.768   3.060   7.440  0.1743  0.5055  0.2854
 7890SOL    HW135303   2.775   2.973   7.400  0.3545 -0.0276  1.4755
 7890SOL    HW235304   2.843   3.052   7.499  1.3260 -2.2622 -1.5562
 7891SOL     OW35305   3.206   1.389   5.196 -0.1182 -0.7218 -0.2873
 7891SOL    HW135306   3.141   1.407   5.264 -0.6793 -1.0537 -0.7351
 7891SOL    HW235307   3.238   1.300   5.205  0.1204 -0.3127  3.2576
 7892SOL     OW35308   2.052   4.371  10.756 -0.1179  0.5048  0.6178
 7892SOL    HW135309   2.024   4.401  10.670  0.1748  0.0920  0.3825
 7892SOL    HW235310   2.015   4.284  10.746  3.2486 -0.9816  0.9565
 7893SOL     OW35311   2.984   0.887   3.867 -0.2109 -0.1235  0.5940
 7893SOL    HW135312   3.043   0.954   3.832 -0.1972 -0.1994  0.4705
 7893SOL    HW235313   3.002   0.815   3.806 -0.8441 -0.0657  0.3373
 7894SOL     OW35314   4.341   1.523   8.237  0.2447  0.0990  0.0001
 7894SOL    HW135315   4.305   1.567   8.160 -1.2619  1.0707  1.2718
 7894SOL    HW235316   4.436   1.532   8.223  0.0538  0.4344 -1.1515
 7895SOL     OW35317   1.927   1.063   4.667  0.2536 -0.1036  0.5707
 7895SOL    HW135318   1.838   1.092   4.686  0.6725  0.7657  1.1863
 7895SOL    HW235319   1.959   1.126   4.603 -1.6457 -0.1457 -0.4209
 7896SOL     OW35320   0.155   0.324   6.654  0.1124  0.0254  0.1069
 7896SOL    HW135321   0.145   0.270   6.576 -0.1839 -0.5447  0.5393
 7896SOL    HW235322   0.081   0.384   6.645  0.6899  1.2551  3.5913
 7897SOL     OW35323   2.625   2.869   8.876 -0.0844  0.3295  0.3484
 7897SOL    HW135324   2.619   2.808   8.802  0.2475  0.1416  0.4767
 7897SOL    HW235325   2.652   2.946   8.826 -0.7114  0.1969 -0.1942
 7898SOL     OW35326   2.880   2.651   5.244  0.7009  0.5653 -0.4770
 7898SOL    HW135327   2.923   2.588   5.303 -0.7477  0.5378  0.5804
 7898SOL    HW235328   2.955   2.678   5.191 -0.0827  1.7319 -0.9946
 7899SOL     OW35329   2.230   2.358   8.029  0.3115  0.0287  0.0836
 7899SOL    HW135330   2.315   2.370   7.987  0.9031  3.2366  2.2113
 7899SOL    HW235331   2.232   2.438   8.082 -0.9493 -0.4947  0.9265
 7900SOL     OW35332   2.933   2.595   8.393  0.2685 -0.2878 -0.3027
 7900SOL    HW135333   3.024   2.586   8.422  0.5366  0.6260 -0.8669
 7900SOL    HW235334   2.928   2.603   8.297 -1.0766  3.2439  0.0586
 7901SOL     OW35335   2.847   2.030   7.236 -0.4929  0.0909  0.3387
 7901SOL    HW135336   2.917   2.090   7.263  0.3590 -0.9344  0.3952
 7901SOL    HW235337   2.812   2.016   7.324 -1.9281  3.2047  0.2903
 7902SOL     OW35338   0.740   1.118   7.829  0.2752 -0.2467  0.4089
 7902SOL    HW135339   0.678   1.180   7.866 -1.1696 -2.2975  1.4554
 7902SOL    HW235340   0.684   1.065   7.773 -0.7381 -0.6126  1.7622
 7903SOL     OW35341   0.299   0.415   2.775  0.1071 -0.4703 -0.5389
 7903SOL    HW135342   0.227   0.425   2.838  0.8294 -0.8744  0.3624
 7903SOL    HW235343   0.344   0.338   2.811 -1.0515 -1.0910 -0.4065
 7904SOL     OW35344   3.544   1.119   6.117  0.2406 -0.2678  0.3296
 7904SOL    HW135345   3.497   1.154   6.192 -0.5362 -1.2375  0.3038
 7904SOL    HW235346   3.521   1.026   6.116  1.9117 -0.6816  0.8660
 7905SOL     OW35347   2.364   1.884  13.898  0.6528 -0.2946 -0.2195
 7905SOL    HW135348   2.456   1.895  13.876  1.0685 -1.8138  0.8206
 7905SOL    HW235349   2.328   1.874  13.810 -0.3448  0.2329  0.1200
 7906SOL     OW35350   3.623   3.028   5.079 -0.2162  0.1001 -0.5198
 7906SOL    HW135351   3.577   3.048   5.160  2.0886 -0.4165  0.9149
 7906SOL    HW235352   3.613   3.116   5.043  1.5986  1.2404  1.7764
 7907SOL     OW35353   1.087   0.843   5.759  0.3436 -0.0539 -0.1705
 7907SOL    HW135354   1.136   0.871   5.681 -2.4200  2.3289 -1.0770
 7907SOL    HW235355   0.997   0.853   5.727  0.1089 -0.0556  0.4893
 7908SOL     OW35356   4.072   3.806   3.139 -0.6892 -0.1844  0.1524
 7908SOL    HW135357   3.997   3.815   3.199 -2.8338 -0.4770 -2.4661
 7908SOL    HW235358   4.062   3.893   3.099 -1.1857 -0.6165 -0.6750
 7909SOL     OW35359   2.487   4.141  11.731 -0.4854 -0.7139  0.4464
 7909SOL    HW135360   2.448   4.055  11.717  0.2798 -1.0426  0.3435
 7909SOL    HW235361   2.424   4.195  11.779 -0.7917 -1.9913  1.4887
 7910SOL     OW35362   0.245   3.666  10.983  0.3892  0.1638 -0.3250
 7910SOL    HW135363   0.228   3.572  10.995  1.3305  0.3163  2.2214
 7910SOL    HW235364   0.294   3.693  11.061 -0.5580  0.1087  0.3035
 7911SOL     OW35365   4.633   1.783   9.107 -1.0534 -0.2635  0.3287
 7911SOL    HW135366   4.584   1.782   9.024  2.8182 -1.6739 -1.9759
 7911SOL    HW235367   4.680   1.700   9.100  0.1619  0.3794  0.8497
 7912SOL     OW35368   4.667   0.044  14.871 -0.0312 -0.6542  0.6578
 7912SOL    HW135369   4.734   0.059  14.804  2.4225  0.9879  3.4663
 7912SOL    HW235370   4.729   0.036  14.943  0.4182 -2.4974  0.0610
 7913SOL     OW35371   4.581   2.764  16.267 -0.2392  0.6802 -0.2085
 7913SOL    HW135372   4.506   2.808  16.227 -0.8234  2.7368  3.1998
 7913SOL    HW235373   4.652   2.785  16.206 -2.0208  2.7550 -1.5585
 7914SOL     OW35374   0.969   1.647   0.938  0.1938 -0.2479  0.1363
 7914SOL    HW135375   1.025   1.679   0.867 -1.1844  0.5073 -0.6073
 7914SOL    HW235376   0.899   1.597   0.896  0.2195 -0.6945  0.6299
 7915SOL     OW35377   2.629   0.407   0.220  0.2056 -0.1716  0.3459
 7915SOL    HW135378   2.689   0.395   0.146  1.4579 -0.2516  1.3718
 7915SOL    HW235379   2.696   0.413   0.288  0.2062 -0.8757  0.4087
 7916SOL     OW35380   4.315   3.867   3.289 -0.9413  0.2138  0.0578
 7916SOL    HW135381   4.237   3.838   3.242 -0.4292  1.1225 -1.3509
 7916SOL    HW235382   4.380   3.810   3.248 -0.8432  0.2515  0.1588
 7917SOL     OW35383   4.559   0.771  16.683 -0.7829 -0.1991  0.0917
 7917SOL    HW135384   4.619   0.696  16.682  1.0129  1.2461  0.4836
 7917SOL    HW235385   4.580   0.817  16.601  0.6518  1.4357  1.3911
 7918SOL     OW35386   0.562   4.108   6.662 -0.4359 -0.7283 -0.6541
 7918SOL    HW135387   0.627   4.085   6.729 -0.6224  2.0706  0.4767
 7918SOL    HW235388   0.568   4.041   6.594  3.0453 -1.1341  0.0417
 7919SOL     OW35389   3.177   2.676   0.588 -0.1533  0.1710 -0.2041
 7919SOL    HW135390   3.191   2.770   0.589 -1.7407  0.4016  1.3749
 7919SOL    HW235391   3.089   2.674   0.626  0.2377 -2.0751  0.5957
 7920SOL     OW35392   2.939   0.926   7.441 -0.6786  0.4073 -0.0032
 7920SOL    HW135393   2.996   0.849   7.431  2.0764  2.7588 -2.4736
 7920SOL    HW235394   2.864   0.885   7.398 -0.0366 -1.8984  1.0576
 7921SOL     OW35395   3.561   4.511   2.097  0.6055  0.5276  0.4463
 7921SOL    HW135396   3.617   4.440   2.127 -0.0916  0.4288  1.5136
 7921SOL    HW235397   3.474   4.485   2.128  0.9109 -0.5440  0.4070
 7922SOL     OW35398   1.997   0.573   8.842 -0.0033 -0.1286 -0.3916
 7922SOL    HW135399   2.023   0.600   8.930  0.3350 -1.5158 -0.0678
 7922SOL    HW235400   1.982   0.654   8.794  2.9254  1.2318  1.0253
 7923SOL     OW35401   2.135   4.312   5.768 -0.1133  0.2609  0.2845
 7923SOL    HW135402   2.041   4.321   5.786 -0.0748 -0.5835  0.8673
 7923SOL    HW235403   2.165   4.279   5.852 -2.4568 -2.4820  0.0434
 7924SOL     OW35404   3.865   3.496  10.046  0.0781  0.0094 -0.1731
 7924SOL    HW135405   3.807   3.566  10.018 -1.0812 -0.9210 -0.1328
 7924SOL    HW235406   3.811   3.454  10.113 -0.4957  2.7154  1.0325
 7925SOL     OW35407   0.909   4.667   7.943 -0.1249  0.2687 -0.2507
 7925SOL    HW135408   0.919   4.620   8.026  0.9861  1.7287  0.4394
 7925SOL    HW235409   0.930   0.013   7.975 -0.4111  0.1954  0.1532
 7926SOL     OW35410   4.346   4.059   0.972 -0.3425 -0.5130 -0.0970
 7926SOL    HW135411   4.314   4.128   1.030 -1.1600 -0.8236 -0.1629
 7926SOL    HW235412   4.316   4.093   0.888  2.2259  1.9992  0.0118
 7927SOL     OW35413   0.809   2.404   8.822 -0.2446 -0.0491 -0.0214
 7927SOL    HW135414   0.845   2.378   8.907 -0.9209  0.7094  0.4937
 7927SOL    HW235415   0.740   2.341   8.802 -1.9941  1.4900  1.1912
 7928SOL     OW35416   3.558   3.981   3.031 -0.8413  0.0500  1.0742
 7928SOL    HW135417   3.495   4.014   3.095  1.3822  1.9605  2.2432
 7928SOL    HW235418   3.643   4.020   3.049 -0.3016  0.8380 -3.1673
 7929SOL     OW35419   3.104   1.156   5.555 -0.1438 -0.0769 -0.5737
 7929SOL    HW135420   3.050   1.137   5.478  0.1768 -1.7001 -0.4030
 7929SOL    HW235421   3.148   1.238   5.533  0.3154  0.5841  2.8091
 7930SOL     OW35422   1.604   2.677  15.038  0.0730  0.8168 -0.1505
 7930SOL    HW135423   1.664   2.605  15.018  0.2787  0.8286  0.4169
 7930SOL    HW235424   1.648   2.755  15.003  0.9249  1.0660  1.4770
 7931SOL     OW35425   2.003   4.602   5.097  0.3750  0.6471  0.1289
 7931SOL    HW135426   2.066   4.671   5.075  0.9754  0.2314  0.5178
 7931SOL    HW235427   2.038   4.556   5.173 -1.5411  1.0790  1.2582
 7932SOL     OW35428   3.732   0.064   6.434  0.3624  0.0593 -0.3136
 7932SOL    HW135429   3.772   0.002   6.496 -0.1479  0.5541  0.5152
 7932SOL    HW235430   3.684   0.008   6.373  0.2993  0.8601 -0.9981
 7933SOL     OW35431   2.271   2.340   2.452 -0.0855 -0.0698 -0.1361
 7933SOL    HW135432   2.223   2.373   2.375 -0.0211 -0.1560 -0.2137
 7933SOL    HW235433   2.218   2.364   2.527 -0.4885  0.2715 -0.5293
 7934SOL     OW35434   2.351   0.630   1.863  0.4874 -0.2218  0.1748
 7934SOL    HW135435   2.260   0.660   1.866 -0.1382 -1.8662 -2.3197
 7934SOL    HW235436   2.387   0.698   1.919  0.8500  0.1455 -0.5078
 7935SOL     OW35437   0.153   0.956   5.616  0.1434  0.0437  0.0993
 7935SOL    HW135438   0.150   0.861   5.603  1.2672  0.2568 -1.8045
 7935SOL    HW235439   0.126   0.954   5.707  0.5737  0.6055  0.2395
 7936SOL     OW35440   0.493   3.532  11.703  0.2389  0.0649  0.2204
 7936SOL    HW135441   0.503   3.481  11.784 -0.3109 -2.5896 -1.3705
 7936SOL    HW235442   0.504   3.466  11.635 -0.6173  1.0456 -0.8529
 7937SOL     OW35443   4.055   0.978   7.242 -0.1776 -0.0473  0.1977
 7937SOL    HW135444   4.115   0.914   7.281  0.4084  0.3425 -0.0549
 7937SOL    HW235445   3.976   0.965   7.293  0.3705 -0.6526  0.8926
 7938SOL     OW35446   0.848   0.650   4.147 -0.1163  0.5589  0.5244
 7938SOL    HW135447   0.834   0.594   4.071 -4.9264  1.8608  0.4429
 7938SOL    HW235448   0.930   0.687   4.116 -0.3113  0.6703  0.1411
 7939SOL     OW35449   1.328   2.372   5.751 -0.3543 -0.2415 -0.1353
 7939SOL    HW135450   1.386   2.339   5.820 -0.7029  0.1840  0.3617
 7939SOL    HW235451   1.364   2.329   5.674 -0.5274 -1.5269  0.5077
 7940SOL     OW35452   0.542   1.553   7.316  0.1622  0.2784  0.0098
 7940SOL    HW135453   0.619   1.537   7.372  0.1682  0.8039  0.1475
 7940SOL    HW235454   0.571   1.623   7.258  0.5187  1.0321  1.0950
 7941SOL     OW35455   2.205   0.835  15.303  0.4485 -0.0256  0.7340
 7941SOL    HW135456   2.255   0.804  15.228 -0.2524 -0.0667  0.2907
 7941SOL    HW235457   2.249   0.907  15.349 -0.8566  1.3917 -0.2787
 7942SOL     OW35458   1.113   4.521   9.185  0.4794 -0.5915 -0.4782
 7942SOL    HW135459   1.078   4.497   9.099 -2.7316 -1.7298  1.1174
 7942SOL    HW235460   1.172   4.591   9.157 -0.6100  0.2079 -0.7972
 7943SOL     OW35461   0.666   1.504   5.119  0.8517  0.1746  0.5751
 7943SOL    HW135462   0.712   1.446   5.060  1.5485 -0.0228  1.3094
 7943SOL    HW235463   0.576   1.480   5.096  0.1475  1.0355  2.3988
 7944SOL     OW35464   1.211   0.987   7.014  0.0678 -0.1230  0.0860
 7944SOL    HW135465   1.135   1.003   6.958 -0.5798 -2.3183  0.3640
 7944SOL    HW235466   1.265   0.923   6.969 -1.4337 -0.6670 -0.9272
 7945SOL     OW35467   4.147   3.892   0.167  0.5433 -0.7030 -0.3608
 7945SOL    HW135468   4.170   3.979   0.134 -0.0213 -0.4654 -0.1404
 7945SOL    HW235469   4.200   3.836   0.111  1.0687 -0.1980 -0.3668
 7946SOL     OW35470   4.173   4.456   6.177  0.7306  0.2614 -0.6820
 7946SOL    HW135471   4.236   4.417   6.238 -1.4960 -1.6610  0.4209
 7946SOL    HW235472   4.149   4.370   6.141 -0.2434  0.3559 -0.2517
 7947SOL     OW35473   1.370   1.606   8.367  0.1847 -0.3544  0.5911
 7947SOL    HW135474   1.444   1.617   8.307  0.5977 -0.5959  1.0581
 7947SOL    HW235475   1.291   1.581   8.319 -0.3927  0.5056  1.0962
 7948SOL     OW35476   2.722   4.677   0.652  0.4240 -0.3409 -0.5527
 7948SOL    HW135477   2.709   4.735   0.578 -0.5386  0.1209 -0.0220
 7948SOL    HW235478   2.804   4.637   0.621  0.9244  1.5084 -1.5972
 7949SOL     OW35479   4.661   0.956   3.942  0.4743 -0.0695 -0.7145
 7949SOL    HW135480   4.612   1.015   3.885  0.3473  2.0029  1.5676
 7949SOL    HW235481   4.594   0.896   3.976 -0.0841  1.0448  0.1333
 7950SOL     OW35482   4.177   3.527  16.883  0.1146 -0.9658  0.2157
 7950SOL    HW135483   4.192   3.572  16.966  0.8199  0.0554 -0.4682
 7950SOL    HW235484   4.081   3.531  16.879  0.0186 -2.8492  0.5037
 7951SOL     OW35485   0.893   1.072   7.039  0.0557  0.5013  0.2953
 7951SOL    HW135486   0.965   1.126   7.073  0.7588  1.1933 -2.2804
 7951SOL    HW235487   0.930   1.053   6.952  0.0393  4.1076 -0.5232
 7952SOL     OW35488   3.496   2.215   2.367  0.5878 -0.6527 -0.0042
 7952SOL    HW135489   3.545   2.197   2.447  0.0129 -1.4972  0.1578
 7952SOL    HW235490   3.530   2.302   2.348  2.3711 -1.5285 -0.7872
 7953SOL     OW35491   2.475   1.105   3.807 -0.2070 -0.3836  0.2669
 7953SOL    HW135492   2.399   1.161   3.824 -0.0728 -0.1226  0.0111
 7953SOL    HW235493   2.536   1.129   3.877  0.3733 -2.4239  0.4575
 7954SOL     OW35494   4.251   3.683   8.176  0.0631  0.2840 -0.0065
 7954SOL    HW135495   4.161   3.712   8.159  0.1733 -0.1856 -1.4146
 7954SOL    HW235496   4.289   3.708   8.093  3.0896  1.1759  1.6663
 7955SOL     OW35497   4.441   1.447  14.198  0.2329 -0.3271 -0.3205
 7955SOL    HW135498   4.449   1.406  14.112 -2.4744 -1.5311 -0.0009
 7955SOL    HW235499   4.528   1.484  14.208  0.3067  0.0591 -2.3674
 7956SOL     OW35500   2.642   0.847   0.200 -0.4135  0.1753 -0.0284
 7956SOL    HW135501   2.573   0.813   0.257 -0.8226  0.4778 -0.3333
 7956SOL    HW235502   2.657   0.776   0.138 -1.0874  1.6539 -1.9015
 7957SOL     OW35503   2.121   2.633   5.496 -0.1293  0.3136  0.4193
 7957SOL    HW135504   2.048   2.579   5.466  0.0628  0.7101 -0.7614
 7957SOL    HW235505   2.118   2.641   5.592  0.0837 -0.4197  0.4821
 7958SOL     OW35506   1.137   2.400   3.883  0.5431 -0.1774  0.0593
 7958SOL    HW135507   1.204   2.342   3.920  1.3421  0.6585 -0.0973
 7958SOL    HW235508   1.187   2.472   3.846  3.5140  0.0256  4.4356
 7959SOL     OW35509   3.063   1.353   6.621 -0.1218 -0.2614 -0.2465
 7959SOL    HW135510   3.052   1.288   6.552  3.1865 -0.4627 -0.5690
 7959SOL    HW235511   3.005   1.426   6.597 -0.2015  0.4234  1.9618
 7960SOL     OW35512   3.066   0.630   7.673  0.3710 -0.1760 -0.6039
 7960SOL    HW135513   3.091   0.543   7.705  2.4056  0.4542 -0.5379
 7960SOL    HW235514   3.050   0.611   7.580  3.5558 -0.8562 -0.9906
 7961SOL     OW35515   3.565   2.296   8.634  0.9091  0.1399  0.0995
 7961SOL    HW135516   3.652   2.304   8.596  0.1281  2.9637 -1.0986
 7961SOL    HW235517   3.553   2.384   8.671  2.3368  0.5169 -0.3608
 7962SOL     OW35518   3.456   4.160  17.533 -0.6796  0.1446 -0.0582
 7962SOL    HW135519   3.489   4.179  17.445  2.5487 -0.6590  0.9788
 7962SOL    HW235520   3.386   4.225  17.532  0.4065  1.3026 -1.3401
 7963SOL     OW35521   1.826   4.272   0.468  0.5531  0.1605  0.3267
 7963SOL    HW135522   1.829   4.242   0.559  0.7960  0.1949  0.3304
 7963SOL    HW235523   1.732   4.290   0.467  0.2741 -1.3233  0.1620
 7964SOL     OW35524   0.118   2.768   3.805  0.6001 -0.7491  0.2575
 7964SOL    HW135525   0.205   2.766   3.844 -0.6368  0.5728  3.0854
 7964SOL    HW235526   0.070   2.731   3.878  0.7429  0.6516  1.0585
 7965SOL     OW35527   1.131   2.120   9.516 -0.0824 -0.0047  0.0813
 7965SOL    HW135528   1.153   2.061   9.444  1.1323 -0.8953  1.1962
 7965SOL    HW235529   1.182   2.195   9.486  0.2634 -1.2023 -2.3051
 7966SOL     OW35530   3.664   4.590   6.816 -0.1569  0.0683 -0.2857
 7966SOL    HW135531   3.645   4.530   6.744  2.1343 -1.4690  0.4067
 7966SOL    HW235532   3.759   4.595   6.821 -0.0056 -0.5433 -2.6852
 7967SOL     OW35533   3.381   0.369   9.510 -0.0221  0.0853 -0.1440
 7967SOL    HW135534   3.415   0.318   9.436  0.8406  1.5671 -0.7675
 7967SOL    HW235535   3.451   0.362   9.574 -0.3665  0.2680  0.2488
 7968SOL     OW35536   0.028   2.499   6.090  0.7124 -0.4203 -0.6993
 7968SOL    HW135537   0.123   2.499   6.077  0.8648 -1.0591  0.4432
 7968SOL    HW235538   0.014   2.551   6.169  0.5841  0.2135 -1.1397
 7969SOL     OW35539   4.375   0.929  11.230  0.1196 -0.3430 -0.0888
 7969SOL    HW135540   4.326   0.959  11.306  3.0275  0.3669  1.4969
 7969SOL    HW235541   4.339   0.992  11.168 -0.3869  0.2509  0.8187
 7970SOL     OW35542   3.996   0.562  12.734  0.2826 -0.1888  0.1469
 7970SOL    HW135543   3.960   0.483  12.693  1.1618 -0.6112  0.1798
 7970SOL    HW235544   4.086   0.568  12.702  0.0272 -3.6232 -1.2258
 7971SOL     OW35545   1.477   3.774   3.758  0.1588  0.1866 -0.2098
 7971SOL    HW135546   1.532   3.814   3.825 -0.1056 -0.0280  0.1352
 7971SOL    HW235547   1.407   3.839   3.755 -0.3945 -0.4537 -1.3671
 7972SOL     OW35548   3.904   2.478   6.927 -0.5739  0.1069 -0.3757
 7972SOL    HW135549   3.885   2.467   6.834 -1.2971  0.5264 -0.2790
 7972SOL    HW235550   3.896   2.572   6.943  2.6996  0.4984 -0.9872
 7973SOL     OW35551   1.417   4.557   5.033  0.1156 -0.0680  0.2055
 7973SOL    HW135552   1.487   4.617   5.007 -0.9371  0.6594 -0.9339
 7973SOL    HW235553   1.380   4.607   5.106  1.0417 -0.1210  0.7066
 7974SOL     OW35554   1.159   0.920   9.888  0.4502  0.2256 -0.0676
 7974SOL    HW135555   1.196   0.999   9.850  1.1163  0.5065  1.1618
 7974SOL    HW235556   1.201   0.856   9.831 -2.1259 -0.7174 -0.9134
 7975SOL     OW35557   4.433   1.994   4.749 -0.4689 -0.3690 -0.7355
 7975SOL    HW135558   4.482   2.073   4.773  0.8001 -1.5584  0.5966
 7975SOL    HW235559   4.460   1.926   4.810  1.2057 -0.6524 -1.8086
 7976SOL     OW35560   0.879   1.350   8.953 -0.0212  0.4537 -0.5596
 7976SOL    HW135561   0.922   1.305   8.880 -3.6624 -0.3114 -2.2441
 7976SOL    HW235562   0.835   1.274   8.991 -1.4779  1.8048  0.4584
 7977SOL     OW35563   2.302   0.263   8.349  0.0315  0.2053  0.0555
 7977SOL    HW135564   2.344   0.179   8.329 -0.3591 -0.4659  1.9819
 7977SOL    HW235565   2.210   0.245   8.370  1.4332 -4.9273  1.9631
 7978SOL     OW35566   0.943   4.696  10.636  0.1754  0.5257  0.6264
 7978SOL    HW135567   0.900   4.671  10.555  1.9814 -3.4371  0.9273
 7978SOL    HW235568   0.869   4.665  10.689 -0.3694 -2.0412 -1.6933
 7979SOL     OW35569   0.780   2.488  12.651 -0.0809  0.2040  0.6371
 7979SOL    HW135570   0.867   2.458  12.626 -1.3721 -2.6991 -0.3385
 7979SOL    HW235571   0.817   2.561  12.701  0.6833 -0.0270  0.4204
 7980SOL     OW35572   2.178   0.148   3.651 -0.6550 -0.5909  0.5943
 7980SOL    HW135573   2.222   0.192   3.723 -0.9653 -1.4631  1.3140
 7980SOL    HW235574   2.174   0.060   3.688 -2.3777 -1.0294 -0.6676
 7981SOL     OW35575   1.457   0.871   2.826 -0.0505 -0.4896 -0.1423
 7981SOL    HW135576   1.478   0.880   2.919 -0.2121 -0.5821 -0.0967
 7981SOL    HW235577   1.519   0.936   2.792  1.1284 -0.7805  1.4854
 7982SOL     OW35578   1.093   2.314   2.913 -0.4474 -0.6581  0.9426
 7982SOL    HW135579   1.153   2.375   2.870  0.5459 -0.8359  2.0546
 7982SOL    HW235580   1.114   2.336   3.004  3.0879 -0.8792  0.2054
 7983SOL     OW35581   2.660   3.845   9.120 -0.3267 -0.0842  0.3860
 7983SOL    HW135582   2.631   3.767   9.168 -2.9514  1.3327  1.1083
 7983SOL    HW235583   2.577   3.869   9.079 -0.1787  2.2371  1.4451
 7984SOL     OW35584   1.015   2.756  10.134 -0.3449  0.2572 -0.7102
 7984SOL    HW135585   0.931   2.779  10.093 -0.5671 -1.5547 -1.2520
 7984SOL    HW235586   1.037   2.684  10.076  3.2864  0.2803  0.6514
 7985SOL     OW35587   3.483   2.070  10.434  0.1064 -0.6590 -0.3017
 7985SOL    HW135588   3.442   1.986  10.451  0.3884 -0.8848 -0.7383
 7985SOL    HW235589   3.510   2.111  10.516 -0.7371  1.2009 -0.9607
 7986SOL     OW35590   2.889   4.159  17.036 -0.3411  0.7728  0.1088
 7986SOL    HW135591   2.819   4.094  17.046 -0.4380  0.9390  0.5121
 7986SOL    HW235592   2.949   4.116  16.975  0.2733  0.5388  0.8693
 7987SOL     OW35593   3.523   4.132   8.804 -0.2542  0.1908 -0.5072
 7987SOL    HW135594   3.526   4.222   8.771  0.1927 -0.2048 -1.5449
 7987SOL    HW235595   3.505   4.148   8.897 -0.8768  0.1460 -0.6202
 7988SOL     OW35596   0.103   2.811   9.630  0.0747 -0.4914 -0.2613
 7988SOL    HW135597   0.127   2.718   9.637  0.9894 -0.2759 -0.5614
 7988SOL    HW235598   0.039   2.808   9.701 -0.0045 -0.0013 -0.3113
 7989SOL     OW35599   2.904   2.815  17.639 -0.5782  0.1796 -0.0702
 7989SOL    HW135600   2.978   2.862  17.679  1.6922 -2.3815 -1.2400
 7989SOL    HW235601   2.828   2.850  17.685  1.9263  3.3531  1.6926
 7990SOL     OW35602   3.265   4.012   7.010  0.3319 -0.5181  0.0629
 7990SOL    HW135603   3.346   4.063   7.007  0.9327 -1.6558 -3.0911
 7990SOL    HW235604   3.304   3.930   7.040  0.1424  0.4954  3.1132
 7991SOL     OW35605   4.604   2.548  10.418  0.0292  0.5668 -0.0518
 7991SOL    HW135606   4.581   2.615  10.354 -1.9451 -1.2479 -1.2488
 7991SOL    HW235607   4.532   2.565  10.478  0.6569 -2.4279  1.5917
 7992SOL     OW35608   0.072   2.164   9.840 -0.3055  0.1588 -0.5342
 7992SOL    HW135609   0.023   2.236   9.799 -0.1712  0.5269 -0.0464
 7992SOL    HW235610   0.149   2.214   9.867  0.5549 -0.8330 -1.1741
 7993SOL     OW35611   1.449   3.722  17.639 -0.6496  0.4085 -0.9320
 7993SOL    HW135612   1.438   3.800  17.693 -2.0077  0.4916 -1.3240
 7993SOL    HW235613   1.422   3.652  17.698 -1.9988  2.1204  0.5051
 7994SOL     OW35614   4.717   2.091   4.271 -0.0984 -0.7953 -0.3975
 7994SOL    HW135615   4.698   2.011   4.319 -1.2952  0.3448  1.0357
 7994SOL    HW235616   0.071   2.084   4.279 -0.2729 -2.3599  0.2191
 7995SOL     OW35617   3.194   3.698  15.502  0.7363 -0.1469  0.0649
 7995SOL    HW135618   3.174   3.735  15.588  0.9293  0.1207 -0.0076
 7995SOL    HW235619   3.110   3.726  15.465  0.8197  0.2710  0.1927
 7996SOL     OW35620   4.566   0.055  10.301  0.1280 -0.1004  0.1908
 7996SOL    HW135621   4.645   0.012  10.269 -0.5939 -0.5980 -0.9366
 7996SOL    HW235622   4.600   0.137  10.336 -0.5460 -0.2207  1.1204
 7997SOL     OW35623   3.958   3.092   8.738 -0.1044  0.3169 -0.3691
 7997SOL    HW135624   4.000   3.023   8.789 -2.5083 -1.3404 -0.6193
 7997SOL    HW235625   3.880   3.053   8.699 -0.1488  0.1480 -0.1125
 7998SOL     OW35626   4.740   3.077   9.708 -1.0908  0.5903 -0.0513
 7998SOL    HW135627   0.056   3.010   9.671 -0.8899  0.2355  0.8977
 7998SOL    HW235628   0.036   3.156   9.669 -0.7492 -0.6343 -2.2323
 7999SOL     OW35629   1.476   3.290   6.645 -0.4021 -0.5375  0.6001
 7999SOL    HW135630   1.515   3.203   6.643  1.5042  0.3299 -1.3126
 7999SOL    HW235631   1.460   3.299   6.739  0.3479 -1.0405  0.7762
 8000SOL     OW35632   0.922   3.648   7.516  0.1213  0.1007  0.0742
 8000SOL    HW135633   0.893   3.739   7.506 -2.5640 -0.5249  2.0793
 8000SOL    HW235634   1.014   3.654   7.490  0.4593 -2.2591  0.7291
 8001SOL     OW35635   0.192   3.949   8.419  0.2658 -0.0157 -0.5883
 8001SOL    HW135636   0.236   3.884   8.364 -0.2651 -1.9230  1.2731
 8001SOL    HW235637   0.116   3.981   8.370  0.3062 -0.6379 -1.0432
 8002SOL     OW35638   3.473   2.595  17.196  0.4580 -0.1735 -0.1232
 8002SOL    HW135639   3.492   2.581  17.103  1.5662 -1.4482  0.2834
 8002SOL    HW235640   3.401   2.658  17.191 -0.2182 -0.8111  1.6962
 8003SOL     OW35641   3.643   1.994   3.041  0.0616  0.0986 -0.3330
 8003SOL    HW135642   3.558   1.990   2.997  1.2503  3.8563 -2.9505
 8003SOL    HW235643   3.690   1.918   3.006 -0.1302  0.7894 -2.0830
 8004SOL     OW35644   0.906   1.099   0.476  0.0895 -0.0312  0.2154
 8004SOL    HW135645   0.970   1.045   0.430  2.4629  1.6613  1.5121
 8004SOL    HW235646   0.885   1.054   0.557  1.7643  0.9610  1.2160
 8005SOL     OW35647   2.648   1.102  12.738 -0.1933 -0.4885  0.3083
 8005SOL    HW135648   2.736   1.081  12.707  0.1505 -1.2167  1.8068
 8005SOL    HW235649   2.608   1.016  12.724 -2.3941  0.6719 -0.5442
 8006SOL     OW35650   4.093   0.223  17.149  0.6059 -0.0080  0.0292
 8006SOL    HW135651   4.167   0.163  17.158  2.3400  2.3875  2.0533
 8006SOL    HW235652   4.045   0.204  17.230 -1.5609 -0.8443 -1.4651
 8007SOL     OW35653   2.783   3.424   3.659 -0.6098 -0.2984  0.1709
 8007SOL    HW135654   2.874   3.403   3.678  0.0247  0.0585 -2.3981
 8007SOL    HW235655   2.745   3.407   3.745 -0.4579 -0.9425  0.1140
 8008SOL     OW35656   1.098   3.713   9.547  0.5075  0.4237 -0.5592
 8008SOL    HW135657   1.162   3.726   9.617 -0.7405 -1.5163  0.9450
 8008SOL    HW235658   1.019   3.756   9.580 -0.1386 -0.0908 -1.4136
 8009SOL     OW35659   3.182   3.447   7.863  0.5175  0.3615 -0.1275
 8009SOL    HW135660   3.088   3.438   7.850  0.6124  0.4222 -0.8511
 8009SOL    HW235661   3.199   3.537   7.838 -1.0274  0.8481  0.5512
 8010SOL     OW35662   0.281   3.706   3.322 -0.1113 -0.3831  0.0618
 8010SOL    HW135663   0.368   3.733   3.292 -0.5705  2.1747  1.0249
 8010SOL    HW235664   0.253   3.795   3.345  4.9325  0.9993  0.8352
 8011SOL     OW35665   1.449   0.931   9.755 -0.1660 -0.2139 -0.4092
 8011SOL    HW135666   1.521   0.988   9.782 -1.9722  1.4002  0.9621
 8011SOL    HW235667   1.486   0.842   9.754  1.3666  0.4077  1.3388
 8012SOL     OW35668   4.613   2.353  15.206 -0.0128  0.0224 -0.0170
 8012SOL    HW135669   4.665   2.402  15.142 -0.8163 -1.2135 -1.6025
 8012SOL    HW235670   4.546   2.419  15.220  1.7066  1.6727  0.3440
 8013SOL     OW35671   1.787   0.619   1.925 -0.4688 -0.2264  0.4777
 8013SOL    HW135672   1.702   0.649   1.894  1.8172  1.2882 -4.2200
 8013SOL    HW235673   1.774   0.527   1.902  2.4672 -0.8313  1.1705
 8014SOL     OW35674   1.841   0.765   4.337 -0.3264 -0.2667 -0.2500
 8014SOL    HW135675   1.885   0.768   4.422  1.9424  0.3414 -1.4405
 8014SOL    HW235676   1.918   0.760   4.281 -2.6136  0.0498 -3.4279
 8015SOL     OW35677   0.378   2.673  14.941  0.1347 -0.2658  0.1202
 8015SOL    HW135678   0.330   2.755  14.923 -1.6380 -0.8663  2.1597
 8015SOL    HW235679   0.302   2.622  14.970 -0.6774  1.1323  0.4708
 8016SOL     OW35680   3.570   4.433   4.954  0.2347  0.2039  0.0201
 8016SOL    HW135681   3.605   4.347   4.929 -2.2729 -0.2479 -1.9796
 8016SOL    HW235682   3.644   4.491   4.938 -0.6258  1.1824 -0.4185
 8017SOL     OW35683   0.525   0.282   9.539  0.1256 -0.2853 -0.1275
 8017SOL    HW135684   0.582   0.206   9.533  0.4184  0.1636 -2.9423
 8017SOL    HW235685   0.441   0.240   9.520  1.3221 -1.9976 -1.6040
 8018SOL     OW35686   3.549   1.377  12.227  0.2342 -0.4342  0.6161
 8018SOL    HW135687   3.600   1.423  12.162  0.4339 -2.0170 -0.3426
 8018SOL    HW235688   3.625   1.337  12.269  0.1800  2.3820  3.3543
 8019SOL     OW35689   1.855   3.596  16.077  0.1316 -0.0527  0.1435
 8019SOL    HW135690   1.919   3.607  16.007  0.6764 -1.7166  0.3892
 8019SOL    HW235691   1.775   3.575  16.029 -0.3249  0.9207  0.4856
 8020SOL     OW35692   4.428   0.437   1.996  0.1026  0.2190  0.0302
 8020SOL    HW135693   4.366   0.427   1.924  2.0634  0.4381 -1.7091
 8020SOL    HW235694   4.397   0.369   2.055  1.8229  1.7509  2.7095
 8021SOL     OW35695   1.524   1.211   7.910  0.7085 -0.0705  0.3492
 8021SOL    HW135696   1.456   1.214   7.842 -0.0579  1.1567  1.1620
 8021SOL    HW235697   1.521   1.298   7.949 -0.3390 -0.4645  1.1331
 8022SOL     OW35698   0.301   3.226   2.539  0.0201  0.5242 -0.7154
 8022SOL    HW135699   0.369   3.242   2.604 -2.0895  0.3842  1.4760
 8022SOL    HW235700   0.360   3.197   2.469 -0.0561  0.6040 -0.8122
 8023SOL     OW35701   3.085   0.105   9.600 -0.0269  0.1002  0.0307
 8023SOL    HW135702   3.139   0.032   9.569  0.3724  0.6925 -0.6842
 8023SOL    HW235703   3.018   0.109   9.532 -0.1243  0.5215  0.1535
 8024SOL     OW35704   3.526   0.298   2.782 -0.2459  0.0759  0.2863
 8024SOL    HW135705   3.498   0.248   2.705 -0.0185 -1.2334  1.0539
 8024SOL    HW235706   3.548   0.381   2.741  0.8123 -2.0066 -3.4242
 8025SOL     OW35707   0.697   3.282   9.312 -0.0304  0.6861  0.2839
 8025SOL    HW135708   0.681   3.226   9.236  1.7945 -0.0022  0.3940
 8025SOL    HW235709   0.743   3.223   9.373 -1.3671 -0.2232  0.3990
 8026SOL     OW35710   4.326   4.344   9.389 -0.1854 -0.2291  0.4712
 8026SOL    HW135711   4.383   4.343   9.467  1.6534 -0.8711 -0.8729
 8026SOL    HW235712   4.239   4.360   9.424 -0.2877 -0.7993  0.4702
 8027SOL     OW35713   1.987   0.361   8.108  0.3621  0.0272  0.0916
 8027SOL    HW135714   2.080   0.363   8.084  0.6313  1.2611  1.2023
 8027SOL    HW235715   1.985   0.449   8.144  0.0681  1.0057 -2.3411
 8028SOL     OW35716   3.247   4.140   3.740 -0.1610  0.3609 -0.1281
 8028SOL    HW135717   3.236   4.184   3.824 -1.7998  0.4548 -0.3901
 8028SOL    HW235718   3.157   4.138   3.706 -0.6121 -1.0067  1.1407
 8029SOL     OW35719   2.520   4.684  13.981 -0.1817 -0.0409  0.1378
 8029SOL    HW135720   2.607   4.669  13.942  1.0355 -0.5450  3.0781
 8029SOL    HW235721   2.498   4.595  14.009  0.6876 -0.3046  0.0075
 8030SOL     OW35722   0.360   0.913   5.106  0.0736  0.3473 -0.2477
 8030SOL    HW135723   0.418   0.951   5.171  1.1045  0.7586 -1.4067
 8030SOL    HW235724   0.281   0.903   5.159 -0.2058  0.2063 -0.6866
 8031SOL     OW35725   4.103   3.749   4.903  0.3231  0.7588  0.4972
 8031SOL    HW135726   4.011   3.749   4.926 -0.6495  1.0671 -3.2713
 8031SOL    HW235727   4.146   3.777   4.984 -1.1549 -1.1877  1.9247
 8032SOL     OW35728   4.421   3.604   3.891  0.1631  1.0743 -0.4669
 8032SOL    HW135729   4.383   3.518   3.873  0.8541  0.7842 -0.5138
 8032SOL    HW235730   4.491   3.591   3.827  2.7594  0.3775  2.5283
 8033SOL     OW35731   0.077   0.402   1.412  0.1597  0.2603 -0.0392
 8033SOL    HW135732   0.125   0.420   1.492  2.0514 -0.0344 -1.0951
 8033SOL    HW235733   0.103   0.314   1.386 -0.7858 -0.4185  1.3607
 8034SOL     OW35734   1.952   4.057   1.197 -0.2769 -0.3148 -0.1051
 8034SOL    HW135735   1.887   4.033   1.263 -0.8220 -1.1825 -0.9432
 8034SOL    HW235736   1.979   4.143   1.228 -4.0496 -0.0484  2.4218
 8035SOL     OW35737   1.789   4.269   2.296 -0.4085 -0.9174  0.0935
 8035SOL    HW135738   1.743   4.226   2.224  0.8913 -1.0257 -0.6690
 8035SOL    HW235739   1.781   4.206   2.368  2.6707 -1.3547  0.0427
 8036SOL     OW35740   1.628   2.493   9.904  0.2547 -0.2708 -0.1012
 8036SOL    HW135741   1.598   2.530   9.821  0.6216  0.3958  0.0697
 8036SOL    HW235742   1.583   2.546   9.970 -2.4724 -1.9275 -0.6393
 8037SOL     OW35743   2.725   3.724   3.622 -0.0095 -0.1274  0.2585
 8037SOL    HW135744   2.784   3.649   3.618 -0.0560 -0.0638 -1.5603
 8037SOL    HW235745   2.677   3.705   3.703  1.5158  0.1680  1.2441
 8038SOL     OW35746   3.562   3.501  11.941  0.3144 -0.4047  0.3285
 8038SOL    HW135747   3.646   3.460  11.962  0.6328  0.5359  0.8934
 8038SOL    HW235748   3.515   3.421  11.916 -0.0268 -0.2515  0.4684
 8039SOL     OW35749   2.543   0.718  15.924 -0.2905  0.2401 -0.1494
 8039SOL    HW135750   2.534   0.638  15.872 -1.1916 -0.2315  0.7135
 8039SOL    HW235751   2.466   0.770  15.902 -1.6938 -2.1253 -0.9124
 8040SOL     OW35752   2.800   4.679   9.153 -0.5169  0.0951 -0.3181
 8040SOL    HW135753   2.764   4.683   9.242 -1.2681 -2.2541 -0.5092
 8040SOL    HW235754   2.892   4.705   9.163  0.2020 -2.2839 -0.7059
 8041SOL     OW35755   1.370   3.246  12.022 -0.4809  0.0496  0.4454
 8041SOL    HW135756   1.408   3.197  11.950  3.6529  0.1552  2.5793
 8041SOL    HW235757   1.415   3.330  12.026 -0.4804  0.0633  0.1378
 8042SOL     OW35758   0.017   3.755   9.580 -0.5128  0.0288  0.3522
 8042SOL    HW135759   4.735   3.818   9.648 -1.2462  1.0324 -0.8368
 8042SOL    HW235760   0.108   3.737   9.603 -1.2076 -0.0397  3.0110
 8043SOL     OW35761   2.942   3.060   5.652 -0.0692 -0.2166  0.4515
 8043SOL    HW135762   2.948   3.019   5.738  1.0147 -0.8061  0.1033
 8043SOL    HW235763   3.031   3.040   5.622 -0.0985  0.5156 -0.1245
 8044SOL     OW35764   0.103   1.147   6.500 -0.0179 -0.3852 -0.5636
 8044SOL    HW135765   0.191   1.156   6.536 -0.5975  2.1402  0.2185
 8044SOL    HW235766   0.071   1.232   6.469  0.8917 -0.1482 -0.8511
 8045SOL     OW35767   3.949   0.532  13.003 -0.6570 -0.0348 -0.3140
 8045SOL    HW135768   3.984   0.616  13.033 -0.8738  0.6974 -2.1073
 8045SOL    HW235769   3.953   0.546  12.909  0.4217 -0.6860 -0.3666
 8046SOL     OW35770   1.101   0.153  16.127 -0.0725  0.0656 -0.5571
 8046SOL    HW135771   1.137   0.141  16.215 -0.4513 -2.0693 -0.6927
 8046SOL    HW235772   1.016   0.194  16.145 -1.5410 -2.6045 -1.3536
 8047SOL     OW35773   2.189   0.022   9.968 -0.1964 -0.4493 -1.2522
 8047SOL    HW135774   2.270   0.071   9.953  0.1493 -0.2526  1.1444
 8047SOL    HW235775   2.117   0.085   9.969  1.3972  1.3232  0.7237
 8048SOL     OW35776   2.278   4.438   6.120  0.1773 -0.1746 -0.8473
 8048SOL    HW135777   2.280   4.526   6.083  1.5946 -1.0073 -2.7514
 8048SOL    HW235778   2.272   4.458   6.214  0.6784  2.3648 -1.3782
 8049SOL     OW35779   2.841   0.976   9.037 -0.0352 -0.6571 -0.2745
 8049SOL    HW135780   2.885   0.916   9.097 -1.4363 -1.5390 -0.1195
 8049SOL    HW235781   2.835   1.045   9.103  0.1370  0.3585 -1.3295
 8050SOL     OW35782   3.581   0.595   0.219 -0.0753  0.2364 -0.2889
 8050SOL    HW135783   3.667   0.569   0.253  0.6220  0.5594 -1.7797
 8050SOL    HW235784   3.603   0.602   0.126 -0.3556  1.1635 -0.2756
 8051SOL     OW35785   3.461   4.217  11.583  0.4936  0.6022  0.0490
 8051SOL    HW135786   3.435   4.257  11.665  0.5249 -0.4013  0.5488
 8051SOL    HW235787   3.386   4.233  11.527 -0.3776 -1.9536  0.4733
 8052SOL     OW35788   3.378   1.094   2.976  0.5707 -0.1095 -0.0328
 8052SOL    HW135789   3.350   1.067   3.064 -0.6396  1.6415  0.1274
 8052SOL    HW235790   3.459   1.044   2.972  0.6087 -0.0535  0.0393
 8053SOL     OW35791   1.550   2.344   3.051 -0.3456 -0.2672  0.4405
 8053SOL    HW135792   1.470   2.307   3.088 -0.9356  2.4169  1.8441
 8053SOL    HW235793   1.597   2.345   3.134 -0.1670  1.4207  0.3243
 8054SOL     OW35794   1.343   2.219  17.215  0.0103  0.3502 -0.4865
 8054SOL    HW135795   1.286   2.230  17.291  0.3714  2.5496 -0.5189
 8054SOL    HW235796   1.308   2.285  17.154  0.6726 -0.0562 -1.3048
 8055SOL     OW35797   4.521   3.834  10.008  0.1577 -0.5021 -0.5811
 8055SOL    HW135798   4.461   3.908  10.023 -0.6069 -1.1707 -0.3400
 8055SOL    HW235799   4.461   3.760  10.010 -0.8054  0.2739 -0.5870
 8056SOL     OW35800   3.226   3.810   8.117  0.3482  0.1988 -0.1833
 8056SOL    HW135801   3.218   3.905   8.119  0.0288  0.1670  0.0721
 8056SOL    HW235802   3.149   3.792   8.064  0.0231  1.3399 -0.0853
 8057SOL     OW35803   0.704   1.592   9.433 -0.2790 -0.1079  0.6113
 8057SOL    HW135804   0.710   1.499   9.409  1.3017 -0.2310  1.5115
 8057SOL    HW235805   0.716   1.586   9.528 -1.2525 -1.7549  0.6311
 8058SOL     OW35806   0.082   0.250  10.367 -0.2105 -0.0251 -0.0677
 8058SOL    HW135807   0.108   0.164  10.335  1.6000  0.2312  0.7419
 8058SOL    HW235808   0.129   0.298  10.298  0.1207 -0.5907 -0.2282
 8059SOL     OW35809   2.588   0.834   1.931  0.0116  0.1193  0.2245
 8059SOL    HW135810   2.596   0.923   1.896  0.5370 -0.3654 -0.9085
 8059SOL    HW235811   2.519   0.856   1.993  1.7704 -3.6335  3.4903
 8060SOL     OW35812   1.724   0.321   7.640 -0.0249  0.1783 -0.0066
 8060SOL    HW135813   1.770   0.356   7.564 -0.5175 -1.1159 -0.8959
 8060SOL    HW235814   1.781   0.348   7.712 -1.1105 -2.5737  1.8781
 8061SOL     OW35815   2.049   4.324  14.786  0.1574 -0.0641 -0.0950
 8061SOL    HW135816   2.060   4.419  14.792 -0.1065 -0.1560  1.6027
 8061SOL    HW235817   2.141   4.300  14.779  0.5474  1.1043  1.0704
 8062SOL     OW35818   3.327   1.045   7.440 -0.3336  0.6273 -0.0282
 8062SOL    HW135819   3.246   0.998   7.417 -0.1099 -1.2494  3.0313
 8062SOL    HW235820   3.380   1.023   7.364 -0.6501 -0.6694  0.1242
 8063SOL     OW35821   4.218   0.485   4.063  0.5742 -0.1161 -0.3744
 8063SOL    HW135822   4.237   0.518   4.150 -2.3527  0.7952 -0.0687
 8063SOL    HW235823   4.248   0.394   4.065  0.0335 -0.2379  1.7213
 8064SOL     OW35824   0.263   0.773   4.019 -0.0570 -0.2038  0.1642
 8064SOL    HW135825   0.206   0.775   4.096 -1.5854  0.9733 -0.9881
 8064SOL    HW235826   0.339   0.734   4.063  0.0775 -0.6920 -0.4988
 8065SOL     OW35827   1.793   3.332   5.248  0.2125  0.0576 -0.2501
 8065SOL    HW135828   1.803   3.293   5.161 -1.5878 -0.0891 -0.3995
 8065SOL    HW235829   1.813   3.424   5.229  1.0205 -0.0352  0.1226
 8066SOL     OW35830   2.212   2.596   4.537  0.6306  0.3837  0.2500
 8066SOL    HW135831   2.261   2.616   4.457 -1.9345  0.6334 -1.2984
 8066SOL    HW235832   2.240   2.662   4.600 -1.7499 -1.7107  3.5385
 8067SOL     OW35833   3.588   0.253   8.580 -0.0273  0.1888  0.2440
 8067SOL    HW135834   3.567   0.336   8.539  0.9755  0.8548  1.0826
 8067SOL    HW235835   3.603   0.256   8.675 -3.8907  1.4421  0.8161
 8068SOL     OW35836   2.127   4.604   7.374 -0.3827  0.1129  0.1453
 8068SOL    HW135837   2.190   4.627   7.443  1.2659 -1.2985 -0.9010
 8068SOL    HW235838   2.074   4.553   7.435  0.1015 -1.4405 -0.7174
 8069SOL     OW35839   1.217   4.047   4.431  0.1784  0.4158 -0.0374
 8069SOL    HW135840   1.301   4.060   4.387 -0.6058 -0.6240 -1.8305
 8069SOL    HW235841   1.165   4.021   4.354  0.1339 -0.6835  0.3623
 8070SOL     OW35842   2.889   4.570  13.244 -0.0617  0.5630  0.4065
 8070SOL    HW135843   2.983   4.558  13.232 -0.1562  1.2898 -0.9569
 8070SOL    HW235844   2.866   4.478  13.233  0.8705  0.3899 -0.0791
 8071SOL     OW35845   4.101   0.830  12.750  0.1496 -0.3043 -0.1471
 8071SOL    HW135846   4.044   0.767  12.707  0.8728 -0.3278 -1.0685
 8071SOL    HW235847   4.053   0.823  12.833  2.8501 -0.9223  1.3609
 8072SOL     OW35848   3.653   1.488   2.441  0.2468 -0.1221 -0.1131
 8072SOL    HW135849   3.659   1.393   2.436 -1.5186 -0.0801 -2.6723
 8072SOL    HW235850   3.619   1.506   2.354  1.3243 -1.1046 -0.7404
 8073SOL     OW35851   0.741   0.985   3.326  1.0128  0.2215  0.1218
 8073SOL    HW135852   0.805   1.055   3.313  0.6352  0.7885  1.3007
 8073SOL    HW235853   0.689   1.017   3.399 -0.0870 -0.7447 -0.2491
 8074SOL     OW35854   3.281   2.496   9.522  0.2898  0.0639  0.1107
 8074SOL    HW135855   3.211   2.475   9.584  0.4680 -0.9551 -0.0371
 8074SOL    HW235856   3.328   2.414   9.512 -0.3627 -0.1893 -0.8555
 8075SOL     OW35857   0.724   2.769   9.360 -0.4176 -0.5367 -0.2490
 8075SOL    HW135858   0.686   2.745   9.276  2.2881 -2.5332 -0.8848
 8075SOL    HW235859   0.640   2.780   9.404  0.8339  0.1685  1.9517
 8076SOL     OW35860   1.375   0.855   6.840 -0.1690 -0.2403 -0.3521
 8076SOL    HW135861   1.439   0.796   6.882 -0.1044  0.1676  0.1216
 8076SOL    HW235862   1.436   0.921   6.808  1.5280 -2.5134 -1.8519
 8077SOL     OW35863   3.550   4.045   5.427  0.1933  0.1591 -0.3361
 8077SOL    HW135864   3.563   4.074   5.336  0.8005  2.6021  0.5314
 8077SOL    HW235865   3.611   4.109   5.464  3.2070 -1.1985 -2.9604
 8078SOL     OW35866   2.713   3.457  16.117  0.7084  0.0723  0.4233
 8078SOL    HW135867   2.653   3.398  16.071 -1.0048  0.5449  2.0476
 8078SOL    HW235868   2.785   3.396  16.134  1.2319  0.4921 -0.2995
 8079SOL     OW35869   1.220   4.513   2.943 -0.4352 -0.0277  0.4686
 8079SOL    HW135870   1.279   4.557   2.882 -0.4975  2.3409  2.0767
 8079SOL    HW235871   1.196   4.440   2.886 -2.6299  1.3487 -0.3971
 8080SOL     OW35872   2.554   0.660   1.232 -0.0911 -0.0431  0.7219
 8080SOL    HW135873   2.485   0.706   1.185 -0.1394  1.4565  2.2739
 8080SOL    HW235874   2.630   0.718   1.228  0.0785 -0.2054  1.5133
 8081SOL     OW35875   3.999   2.801   2.254  0.0767  0.2773 -0.1911
 8081SOL    HW135876   4.058   2.731   2.226 -1.2121 -0.5296 -0.9146
 8081SOL    HW235877   3.913   2.761   2.241  0.2323 -0.3644  0.7520
 8082SOL     OW35878   2.982   4.106  16.525  0.4188  0.1118 -0.3266
 8082SOL    HW135879   3.018   4.189  16.494 -1.8162  0.4697 -1.9723
 8082SOL    HW235880   2.939   4.070  16.448  0.9523  1.0655 -1.0766
 8083SOL     OW35881   1.190   3.299   5.598 -0.2469 -0.4027  0.3958
 8083SOL    HW135882   1.116   3.312   5.657 -0.0545  0.8016  0.3669
 8083SOL    HW235883   1.171   3.358   5.525  1.6863 -0.4695 -0.1632
 8084SOL     OW35884   2.897   1.675   7.409  0.0646  0.5360 -0.2360
 8084SOL    HW135885   2.853   1.717   7.483  1.9480  2.9540 -0.5314
 8084SOL    HW235886   2.841   1.599   7.393  0.3631  0.2578  0.0439
 8085SOL     OW35887   2.486   4.443   3.337  0.7669  0.3545 -0.4618
 8085SOL    HW135888   2.581   4.457   3.342  0.9758 -1.0712 -0.6747
 8085SOL    HW235889   2.464   4.419   3.427  2.0991 -0.8855 -0.4573
 8086SOL     OW35890   2.197   1.150   3.176 -0.3055  0.0644  0.3735
 8086SOL    HW135891   2.246   1.116   3.251  1.0391  0.6976 -0.2233
 8086SOL    HW235892   2.142   1.072   3.166 -0.7454  0.1695  2.0192
 8087SOL     OW35893   4.056   3.803  12.530  0.0267  0.3689 -0.0426
 8087SOL    HW135894   3.988   3.744  12.560  1.9118 -0.7146  2.0926
 8087SOL    HW235895   4.100   3.821  12.614  0.0735  0.9541 -0.1891
 8088SOL     OW35896   0.779   3.179  16.999 -1.0010 -0.2202 -0.5335
 8088SOL    HW135897   0.728   3.158  16.921  0.8778 -1.6310 -1.3829
 8088SOL    HW235898   0.765   3.274  17.007  0.3979 -0.0335 -0.3503
 8089SOL     OW35899   2.559   1.114   7.979 -0.7870 -0.3279 -0.2809
 8089SOL    HW135900   2.527   1.204   7.971  1.8163  0.4487 -1.9830
 8089SOL    HW235901   2.512   1.071   7.908  0.8401  1.4393 -2.4549
 8090SOL     OW35902   0.397   2.144  16.859  0.1369  0.1366  0.0392
 8090SOL    HW135903   0.428   2.085  16.791 -0.6782 -0.1192 -0.1155
 8090SOL    HW235904   0.302   2.139  16.842  0.5109 -1.5189 -1.5807
 8091SOL     OW35905   2.136   0.651  10.642 -0.6092 -0.2484 -0.5252
 8091SOL    HW135906   2.193   0.636  10.717 -2.6687  1.5754  1.4119
 8091SOL    HW235907   2.164   0.579  10.586  1.0927 -0.8958  1.1735
 8092SOL     OW35908   3.207   2.103   9.152  0.1964 -0.5472 -0.3664
 8092SOL    HW135909   3.179   2.179   9.101 -0.9371 -2.0342 -1.9684
 8092SOL    HW235910   3.271   2.142   9.211 -0.9090 -1.5705  1.4928
 8093SOL     OW35911   2.353   0.573   6.086  0.6026 -0.2713 -0.2034
 8093SOL    HW135912   2.344   0.544   5.995 -1.3407  0.2974 -0.2018
 8093SOL    HW235913   2.262   0.569   6.117  0.6844 -1.6763 -0.1342
 8094SOL     OW35914   1.082   0.575   8.584  0.2120 -0.4569  0.3642
 8094SOL    HW135915   1.112   0.557   8.674  0.6228 -0.0389  0.3097
 8094SOL    HW235916   1.016   0.507   8.573 -0.2961 -0.3039  2.5191
 8095SOL     OW35917   3.765   0.486  13.221 -0.5225  0.4980  0.0661
 8095SOL    HW135918   3.836   0.504  13.159 -1.4667  2.3409 -0.4677
 8095SOL    HW235919   3.693   0.483  13.159  1.0243 -2.0031 -1.5944
 8096SOL     OW35920   0.932   3.697   6.056 -0.0117 -0.6389  0.3194
 8096SOL    HW135921   0.903   3.787   6.041 -0.1438 -0.6558  0.4684
 8096SOL    HW235922   1.007   3.724   6.110 -0.7596 -0.6723  1.3743
 8097SOL     OW35923   2.107   0.321   5.106 -0.5356  0.4015 -0.5206
 8097SOL    HW135924   2.020   0.342   5.072 -1.0648 -0.1087  0.5173
 8097SOL    HW235925   2.165   0.350   5.035  0.5570  1.3884  0.7669
 8098SOL     OW35926   2.877   2.675   8.746  0.1991  0.2463  0.0082
 8098SOL    HW135927   2.925   2.678   8.663 -1.5630  2.6320 -0.9040
 8098SOL    HW235928   2.835   2.760   8.738 -1.4724 -0.6748 -1.1319
 8099SOL     OW35929   1.962   3.729   4.585 -0.2630 -0.5266  0.3344
 8099SOL    HW135930   1.931   3.662   4.646 -2.0888 -0.2718 -0.3053
 8099SOL    HW235931   2.007   3.680   4.517 -1.3957  1.9018 -2.1672
 8100SOL     OW35932   2.300   2.017   7.116  0.0419  0.6022 -0.3944
 8100SOL    HW135933   2.391   2.044   7.104  0.7526 -1.4407  0.3781
 8100SOL    HW235934   2.258   2.102   7.104 -1.5536 -0.1872 -0.3591
 8101SOL     OW35935   2.101   3.273   1.080  0.1230  0.6662  0.0708
 8101SOL    HW135936   2.069   3.201   1.025  0.4934  0.8091 -0.3318
 8101SOL    HW235937   2.050   3.350   1.055 -0.1175  0.1865 -0.9140
 8102SOL     OW35938   1.538   2.159  10.298  0.0607  0.8575 -0.1057
 8102SOL    HW135939   1.466   2.104  10.329 -0.5602  3.0255  2.3376
 8102SOL    HW235940   1.488   2.235  10.268  0.7682  1.6190  0.6205
 8103SOL     OW35941   2.929   4.603   8.313 -0.0405  0.5417 -0.4557
 8103SOL    HW135942   3.013   4.649   8.302  0.7083 -1.0802 -1.5372
 8103SOL    HW235943   2.883   4.673   8.360 -1.2768 -1.6371  1.6031
 8104SOL     OW35944   2.520   3.088   7.198  0.1990  0.0030  0.7935
 8104SOL    HW135945   2.492   3.103   7.289 -2.1139  0.1949  0.0432
 8104SOL    HW235946   2.457   3.138   7.148 -0.5614 -0.1768  1.5731
 8105SOL     OW35947   1.792   0.857   3.701  0.4995  0.5339  0.2457
 8105SOL    HW135948   1.875   0.808   3.703  0.4681  0.4525 -0.7861
 8105SOL    HW235949   1.722   0.793   3.717  0.0616  1.4923  2.1812
 8106SOL     OW35950   0.613   1.885   9.726 -0.3307  0.5254  0.2721
 8106SOL    HW135951   0.525   1.878   9.762 -1.2168  1.1244 -1.7843
 8106SOL    HW235952   0.599   1.883   9.631 -0.6658  1.3637  0.2990
 8107SOL     OW35953   3.234   0.751   8.511  0.2624  0.4320  0.3387
 8107SOL    HW135954   3.161   0.697   8.542 -2.1572  1.9618 -2.6588
 8107SOL    HW235955   3.251   0.707   8.428 -2.0827 -0.1457  0.1496
 8108SOL     OW35956   4.570   1.875  16.784  0.5521 -0.3776  0.2031
 8108SOL    HW135957   4.617   1.903  16.862  0.8559  0.2363 -0.1975
 8108SOL    HW235958   4.643   1.848  16.729  0.6467  2.2411 -0.9966
 8109SOL     OW35959   4.336   2.583   4.398  0.1721 -0.0378 -0.0815
 8109SOL    HW135960   4.248   2.553   4.375  0.8917 -3.6932  1.8297
 8109SOL    HW235961   4.390   2.541   4.331 -0.2634  0.6126 -0.8357
 8110SOL     OW35962   3.466   3.382   7.836 -0.1509 -0.4253  0.5099
 8110SOL    HW135963   3.446   3.289   7.844 -0.3639 -0.4204  0.0454
 8110SOL    HW235964   3.380   3.422   7.842 -0.5443 -1.3393  0.8728
 8111SOL     OW35965   0.146   2.048   7.678 -0.4236  0.4008  0.3456
 8111SOL    HW135966   0.111   2.137   7.676  1.1031  0.9968  0.5287
 8111SOL    HW235967   0.197   2.045   7.758 -0.6677 -2.1574  0.4352
 8112SOL     OW35968   4.352   0.754  11.024  0.0249  0.0710  0.1937
 8112SOL    HW135969   4.376   0.811  10.951  2.8727  1.8784  2.5426
 8112SOL    HW235970   4.358   0.819  11.094  1.1521 -0.5744  0.6910
 8113SOL     OW35971   0.936   3.228   2.656 -0.5115  0.1002 -0.0237
 8113SOL    HW135972   0.904   3.190   2.574  0.7690 -0.1044 -0.4285
 8113SOL    HW235973   0.962   3.154   2.712  1.6494  0.9710  0.1145
 8114SOL     OW35974   3.824   1.251   1.070  0.6199 -0.9572  0.7249
 8114SOL    HW135975   3.816   1.307   1.148  2.0973  1.1867 -0.6432
 8114SOL    HW235976   3.734   1.230   1.044  1.2207 -1.6820 -0.7748
 8115SOL     OW35977   0.310   1.582   6.008  0.5015  0.1798  0.0090
 8115SOL    HW135978   0.337   1.546   6.092 -0.7971  1.8467  1.1242
 8115SOL    HW235979   0.389   1.578   5.954 -0.5863 -1.6871 -1.4656
 8116SOL     OW35980   1.453   3.115   3.182  0.6795  0.2764  0.6339
 8116SOL    HW135981   1.401   3.195   3.185  1.4785  0.8255  0.0689
 8116SOL    HW235982   1.399   3.061   3.125  0.7699  0.3790  0.4481
 8117SOL     OW35983   3.766   3.101  14.135  0.2894 -0.3538 -0.5469
 8117SOL    HW135984   3.707   3.176  14.143  0.0963 -0.5919  0.2865
 8117SOL    HW235985   3.805   3.104  14.222  0.4190  0.8545 -0.6529
 8118SOL     OW35986   1.558   1.150  14.604 -0.3978 -0.0801 -0.2439
 8118SOL    HW135987   1.512   1.228  14.573 -1.8317 -0.6793  0.4133
 8118SOL    HW235988   1.629   1.154  14.540  1.1244  0.1257  1.4589
 8119SOL     OW35989   2.805   3.816   5.895  0.1168 -0.2096  0.2691
 8119SOL    HW135990   2.822   3.821   5.800  1.6340  1.7800  0.6517
 8119SOL    HW235991   2.763   3.900   5.913  1.6459  0.3597  1.1429
 8120SOL     OW35992   2.899   4.094   2.164 -0.4969  0.0182 -0.3371
 8120SOL    HW135993   2.930   4.119   2.077 -0.8546  2.8480  0.3378
 8120SOL    HW235994   2.957   4.029   2.204 -0.7137 -1.0082 -1.7210
 8121SOL     OW35995   0.702   3.413   2.711 -0.3481 -0.0644  0.3645
 8121SOL    HW135996   0.771   3.349   2.693 -1.5710 -0.9400 -1.2148
 8121SOL    HW235997   0.758   3.470   2.763 -2.4354  0.2702  2.2596
 8122SOL     OW35998   2.473   0.601  13.367 -0.2456 -0.2644  0.2836
 8122SOL    HW135999   2.500   0.520  13.323 -0.0068  0.9928 -1.8849
 8122SOL    HW236000   2.491   0.669  13.302  2.9820 -1.1936  0.1655
 8123SOL     OW36001   4.319   0.430   2.886 -0.2750  0.2376 -0.1802
 8123SOL    HW136002   4.301   0.496   2.819 -0.2356  0.5797  0.1494
 8123SOL    HW236003   4.339   0.345   2.845 -0.8837  0.7143 -1.4692
 8124SOL     OW36004   1.654   3.992   4.705  0.0064  0.2257  0.6186
 8124SOL    HW136005   1.650   4.045   4.785 -0.2552 -1.6287  1.8379
 8124SOL    HW236006   1.564   3.960   4.698  0.1396  0.3494 -1.6671
 8125SOL     OW36007   3.609   2.053  17.189 -0.1377  0.2215  0.2567
 8125SOL    HW136008   3.558   1.975  17.213  0.8646  0.3574  2.8542
 8125SOL    HW236009   3.658   2.004  17.124 -0.1155  0.1984  0.2907
 8126SOL     OW36010   4.533   3.426   8.657 -0.3154  0.1690 -0.0136
 8126SOL    HW136011   4.601   3.432   8.724  1.2341  3.1101 -1.8336
 8126SOL    HW236012   4.488   3.346   8.683  0.3328  0.3910  1.7927
 8127SOL     OW36013   0.240   3.885   8.768  0.1074 -0.4115  0.1741
 8127SOL    HW136014   0.207   3.795   8.775 -1.1378 -0.1506 -2.2679
 8127SOL    HW236015   0.185   3.929   8.832  0.6615  1.8082 -0.8916
 8128SOL     OW36016   2.048   0.694   1.910 -0.3334  0.5227 -0.5064
 8128SOL    HW136017   2.078   0.664   1.996 -3.3788  2.0600  1.0804
 8128SOL    HW236018   1.959   0.657   1.909  0.6396 -1.8550 -2.7286
 8129SOL     OW36019   4.483   0.090   6.099 -0.9908 -0.2687  0.8799
 8129SOL    HW136020   4.419   0.156   6.124 -1.2923 -0.7582  1.3964
 8129SOL    HW236021   4.425   0.014   6.103 -1.7167  0.1884 -0.9567
 8130SOL     OW36022   0.787   3.451  10.028  0.0359 -0.3879 -0.2469
 8130SOL    HW136023   0.834   3.431  10.109 -0.5194  1.7467  0.6066
 8130SOL    HW236024   0.756   3.362  10.015 -0.5819 -0.1601 -0.3396
 8131SOL     OW36025   3.081   0.511   2.857  0.1116  0.0084  0.6879
 8131SOL    HW136026   3.088   0.606   2.870  4.1680 -0.1207 -0.6100
 8131SOL    HW236027   3.163   0.485   2.900  1.0084  0.1478 -0.9518
 8132SOL     OW36028   4.588   2.071  15.480 -0.1479 -0.2275 -0.2759
 8132SOL    HW136029   4.531   2.022  15.420 -1.1597  1.9305 -1.0769
 8132SOL    HW236030   4.535   2.057  15.558  0.6007 -0.5949  0.1633
 8133SOL     OW36031   0.630   2.369   3.361 -0.4160 -0.2620 -0.3473
 8133SOL    HW136032   0.548   2.419   3.357  0.8131  1.7806  0.8395
 8133SOL    HW236033   0.663   2.401   3.444 -1.0610  0.1942 -0.2653
 8134SOL     OW36034   3.093   0.432  17.720 -0.1288 -0.1548 -0.1191
 8134SOL    HW136035   3.049   0.456  17.639  0.2237  0.4874 -0.1208
 8134SOL    HW236036   3.158   0.367  17.696 -0.0677 -1.3577  3.2182
 8135SOL     OW36037   0.537   2.179   7.569 -0.2649  0.1023 -0.2287
 8135SOL    HW136038   0.449   2.203   7.541 -0.7171  1.1865  2.1122
 8135SOL    HW236039   0.535   2.084   7.560 -0.0340 -0.1977  3.0130
 8136SOL     OW36040   1.674   3.909   9.323  0.6056  0.7780  0.1670
 8136SOL    HW136041   1.733   3.857   9.377  0.6289 -0.3553 -0.9438
 8136SOL    HW236042   1.725   3.989   9.308  0.1660  1.0360  0.0503
 8137SOL     OW36043   1.286   0.588   8.828  0.5033  0.3730 -0.3732
 8137SOL    HW136044   1.377   0.558   8.826  0.4734  0.3126 -0.8806
 8137SOL    HW236045   1.272   0.621   8.917 -2.1787  0.7030 -0.9175
 8138SOL     OW36046   0.696   2.213   4.674  0.3954 -0.3334  0.2976
 8138SOL    HW136047   0.765   2.152   4.698 -0.9846 -3.1593 -2.9764
 8138SOL    HW236048   0.620   2.154   4.679 -1.2804  1.6922 -1.0856
 8139SOL     OW36049   2.384   1.385   9.141  0.3787  0.3142  0.0079
 8139SOL    HW136050   2.395   1.363   9.048 -1.7278 -0.6380 -0.0094
 8139SOL    HW236051   2.475   1.390   9.169  0.0045  3.7831  0.5254
 8140SOL     OW36052   0.218   0.490   1.634  0.3934  0.1206  0.2076
 8140SOL    HW136053   0.236   0.454   1.721 -2.6586  1.3481  1.3380
 8140SOL    HW236054   0.205   0.584   1.651 -0.5680  0.2238 -1.1476
 8141SOL     OW36055   0.616   0.332   5.808  0.3286 -0.0645 -0.1921
 8141SOL    HW136056   0.648   0.278   5.736  1.2609  0.2956 -0.0457
 8141SOL    HW236057   0.697   0.379   5.829 -0.2183  0.8258 -0.0757
 8142SOL     OW36058   0.402   1.988   6.810 -0.2450  0.5251  0.8293
 8142SOL    HW136059   0.396   2.012   6.902  0.2637 -1.7792  1.4815
 8142SOL    HW236060   0.317   1.948   6.792 -1.2544  3.3093 -0.6183
 8143SOL     OW36061   1.590   2.567   4.835 -0.2675 -0.2188 -0.0456
 8143SOL    HW136062   1.618   2.477   4.820  0.5017 -0.2466  1.6370
 8143SOL    HW236063   1.547   2.585   4.751  1.2201 -0.8730 -0.9299
 8144SOL     OW36064   3.313   1.956   7.366  0.3794  0.4562  0.3758
 8144SOL    HW136065   3.392   1.917   7.404 -0.4227 -2.8292 -1.3116
 8144SOL    HW236066   3.263   1.878   7.344 -1.1905  2.0530 -1.7431
 8145SOL     OW36067   0.843   2.432  17.019  0.3447 -0.8320  0.3658
 8145SOL    HW136068   0.804   2.461  17.102 -0.7792 -0.2615 -0.3613
 8145SOL    HW236069   0.775   2.387  16.969 -1.6540  1.9291  0.6144
 8146SOL     OW36070   3.058   1.747  17.046 -0.4462 -0.2088  0.2437
 8146SOL    HW136071   2.993   1.753  16.977 -1.9222 -0.5752  1.6020
 8146SOL    HW236072   3.108   1.828  17.039 -0.3434 -0.2768  0.1914
 8147SOL     OW36073   0.607   2.204   4.339  0.6051  0.5852 -0.0775
 8147SOL    HW136074   0.550   2.170   4.409 -0.0046  0.8723 -0.4318
 8147SOL    HW236075   0.692   2.161   4.347  0.1532  0.2893  3.0127
 8148SOL     OW36076   3.181   0.624   0.516  0.4927 -0.4247  0.2113
 8148SOL    HW136077   3.233   0.592   0.442  4.0975  0.8591  2.2377
 8148SOL    HW236078   3.236   0.611   0.593 -2.0509 -1.7614  1.7998
 8149SOL     OW36079   2.965   4.158   2.483 -0.6124 -0.1643 -0.5305
 8149SOL    HW136080   2.880   4.190   2.515  0.4983  0.7504  1.4419
 8149SOL    HW236081   2.930   4.079   2.442 -0.5706 -0.7939  0.6554
 8150SOL     OW36082   3.960   0.800   9.110 -0.6664 -0.4168  0.4071
 8150SOL    HW136083   4.006   0.827   9.189 -0.1035  0.2283 -0.1475
 8150SOL    HW236084   3.942   0.884   9.068 -1.9222 -0.1434  1.5114
 8151SOL     OW36085   0.863   3.847   7.280  0.3028  0.0640  0.0578
 8151SOL    HW136086   0.882   3.925   7.333  0.1421  0.4331 -0.4260
 8151SOL    HW236087   0.946   3.803   7.300  1.0682  0.0831 -3.0607
 8152SOL     OW36088   3.717   0.707  12.638  0.2428  0.0728 -0.0644
 8152SOL    HW136089   3.736   0.687  12.729 -2.3983  0.2143  0.5227
 8152SOL    HW236090   3.688   0.624  12.600 -0.1581  1.5107 -2.9579
 8153SOL     OW36091   4.412   2.708   8.519 -0.0529  0.0018 -0.1467
 8153SOL    HW136092   4.453   2.638   8.571  0.5620  0.4748  0.0163
 8153SOL    HW236093   4.327   2.667   8.506  1.1507 -2.8350  0.8742
 8154SOL     OW36094   1.628   2.688   8.002  0.4419 -0.2323 -0.2469
 8154SOL    HW136095   1.565   2.759   8.018 -0.8776 -0.5020 -4.1552
 8154SOL    HW236096   1.607   2.616   8.060 -0.4638  0.2631  0.0479
 8155SOL     OW36097   0.639   2.527   2.844  0.7284  0.4094 -0.1850
 8155SOL    HW136098   0.575   2.484   2.900  0.5033 -0.0801 -0.8131
 8155SOL    HW236099   0.633   2.466   2.770  1.0292  0.4610 -0.2555
 8156SOL     OW36100   4.058   1.808   8.651 -0.2919 -0.0852 -0.2787
 8156SOL    HW136101   4.022   1.775   8.569 -1.2530 -1.3660  0.6842
 8156SOL    HW236102   4.068   1.731   8.707  0.2358  0.0509 -0.1838
 8157SOL     OW36103   2.244   0.039   9.227 -0.3613 -0.1356  0.0242
 8157SOL    HW136104   2.317   0.065   9.171 -0.8173  2.2542  0.5821
 8157SOL    HW236105   2.218   4.709   9.169  0.1215 -2.1842  2.3314
 8158SOL     OW36106   0.507   0.233   1.569  0.5344 -0.1768  1.1389
 8158SOL    HW136107   0.566   0.230   1.645  1.8621 -0.6503  0.0879
 8158SOL    HW236108   0.535   0.156   1.520 -0.1383  2.3415 -3.1668
 8159SOL     OW36109   2.726   4.184  11.840  0.0041  0.2138 -0.4256
 8159SOL    HW136110   2.719   4.098  11.883  0.9075  0.3524  0.0004
 8159SOL    HW236111   2.650   4.172  11.782  0.8510 -2.2186 -1.0569
 8160SOL     OW36112   4.361   0.994   7.587  0.0543 -0.0352  0.1039
 8160SOL    HW136113   4.411   0.994   7.506  0.9916  0.1754  0.6885
 8160SOL    HW236114   4.281   1.034   7.554 -0.6682 -1.3052  0.2980
 8161SOL     OW36115   4.018   3.712   4.596  0.6337 -0.6481  0.1953
 8161SOL    HW136116   4.063   3.644   4.646  1.2924 -0.9301 -0.7757
 8161SOL    HW236117   4.045   3.691   4.506  1.3476 -0.8476  0.4563
 8162SOL     OW36118   1.206   3.491   5.087 -0.0749 -0.6200 -0.4177
 8162SOL    HW136119   1.174   3.512   4.998 -0.6724  1.3089  0.2420
 8162SOL    HW236120   1.220   3.398   5.071 -0.6407 -0.3130 -2.8287
 8163SOL     OW36121   3.643   1.299  16.471  0.0152 -0.3891  0.1682
 8163SOL    HW136122   3.609   1.211  16.487 -0.6392 -0.4660 -1.7208
 8163SOL    HW236123   3.654   1.338  16.558  0.2222 -1.1351  0.4759
 8164SOL     OW36124   0.070   2.294   7.637  0.0201 -0.6416 -0.6150
 8164SOL    HW136125   0.011   2.356   7.679 -0.6911 -1.1694 -0.8460
 8164SOL    HW236126   0.150   2.346   7.632 -1.8192  2.2817  0.5648
 8165SOL     OW36127   1.954   3.695   1.612 -0.1505 -0.1392 -0.4438
 8165SOL    HW136128   2.013   3.668   1.682  0.0569  2.3519  0.3470
 8165SOL    HW236129   1.963   3.789   1.622  0.3240 -0.4558  2.1141
 8166SOL     OW36130   3.620   2.485  13.427 -0.1783 -0.5338 -0.1987
 8166SOL    HW136131   3.638   2.490  13.521 -1.5176 -0.8266  0.0719
 8166SOL    HW236132   3.624   2.578  13.409 -0.8968 -0.1256  1.7485
 8167SOL     OW36133   2.808   4.218   6.508 -0.1741 -0.0674 -0.0220
 8167SOL    HW136134   2.752   4.278   6.557 -0.7279  0.8037 -1.7310
 8167SOL    HW236135   2.876   4.282   6.486 -1.3186 -0.0702 -3.5723
 8168SOL     OW36136   2.493   2.489   4.752 -0.3298 -0.4384  0.7499
 8168SOL    HW136137   2.472   2.477   4.845 -0.6316 -0.8375  0.6303
 8168SOL    HW236138   2.427   2.426   4.721 -2.5003  3.0616 -1.6957
 8169SOL     OW36139   2.290   1.479   6.300 -0.3524  0.0714  0.3202
 8169SOL    HW136140   2.204   1.451   6.332 -0.0388 -0.1007  1.0032
 8169SOL    HW236141   2.351   1.437   6.361 -3.0463 -1.0162  2.2585
 8170SOL     OW36142   3.806   4.067  15.520  0.0431 -0.4517  0.0489
 8170SOL    HW136143   3.861   4.074  15.442  0.1545  2.4650  0.3934
 8170SOL    HW236144   3.862   4.023  15.584 -0.1196 -1.1030 -0.2535
 8171SOL     OW36145   0.374   2.403  15.039  0.7637 -0.8608  0.1696
 8171SOL    HW136146   0.448   2.368  15.088  0.0574 -1.4997  0.7731
 8171SOL    HW236147   0.413   2.414  14.952 -1.9049 -0.5154 -0.9677
 8172SOL     OW36148   0.339   4.452   6.190 -0.0511 -0.1161 -0.1905
 8172SOL    HW136149   0.286   4.383   6.150  1.4475  0.2176 -2.7221
 8172SOL    HW236150   0.276   4.524   6.198 -0.2394 -0.0190 -2.5671
 8173SOL     OW36151   3.823   0.027   1.664  0.0597 -0.5900 -0.0344
 8173SOL    HW136152   3.748   0.010   1.608 -0.6890 -3.2855  1.7853
 8173SOL    HW236153   3.802   4.696   1.723 -0.7646 -0.9905 -0.8298
 8174SOL     OW36154   2.346   4.422  14.452  0.4454 -0.4755  0.2475
 8174SOL    HW136155   2.261   4.453  14.422  0.6441  1.0728  1.3071
 8174SOL    HW236156   2.409   4.478  14.407  0.9254 -1.8827 -0.8574
 8175SOL     OW36157   0.240   2.954   7.223  0.0484 -1.1761  0.9329
 8175SOL    HW136158   0.327   2.916   7.236  0.3991 -0.6819  0.0736
 8175SOL    HW236159   0.237   3.010   7.301 -0.0675 -1.4980  1.1584
 8176SOL     OW36160   0.276   4.139   0.318  0.9957 -0.5992  0.0509
 8176SOL    HW136161   0.336   4.155   0.391  0.1624  1.1176  0.3615
 8176SOL    HW236162   0.299   4.206   0.254  2.2366 -2.6255 -1.6384
 8177SOL     OW36163   3.527   3.980   4.053  0.2373 -0.6615 -0.5356
 8177SOL    HW136164   3.532   3.993   3.958 -1.3102  1.2440 -0.3460
 8177SOL    HW236165   3.515   3.885   4.056  1.1565 -0.7343  0.7888
 8178SOL     OW36166   2.628   4.206   3.575 -0.3821  0.5072  0.1534
 8178SOL    HW136167   2.688   4.154   3.629 -0.4136  0.6494  0.3261
 8178SOL    HW236168   2.678   4.196   3.494 -2.9498 -4.2821 -0.8470
 8179SOL     OW36169   4.134   0.221   8.981  0.1862 -0.3069 -0.8676
 8179SOL    HW136170   4.062   0.183   8.930 -0.1512 -0.7926 -0.0337
 8179SOL    HW236171   4.172   0.138   9.010  1.3172  0.0805 -1.2785
 8180SOL     OW36172   0.433   4.603   5.961 -0.5245  0.4102 -0.0837
 8180SOL    HW136173   0.354   4.639   5.922 -2.0309 -2.2981  0.4304
 8180SOL    HW236174   0.392   4.521   5.990  1.8453 -0.1526  1.7358
 8181SOL     OW36175   0.655   2.053   3.537 -0.5583 -0.2127  0.1145
 8181SOL    HW136176   0.618   2.135   3.505 -0.6315 -0.1991  0.2342
 8181SOL    HW236177   0.584   1.991   3.522  0.4313 -0.3338 -4.2068
 8182SOL     OW36178   3.787   0.085   2.994  0.3666  0.4089  0.5085
 8182SOL    HW136179   3.834   0.012   3.035  0.9388 -0.1856 -1.1876
 8182SOL    HW236180   3.710   0.101   3.048  1.3897  0.6641  1.8885
 8183SOL     OW36181   3.674   0.010  14.812  0.4452 -0.4298  0.5941
 8183SOL    HW136182   3.672   4.716  14.901  0.2576 -0.4261  0.5900
 8183SOL    HW236183   3.589   0.053  14.808  0.5871 -0.3098 -1.1368
 8184SOL     OW36184   1.969   3.882   5.978  0.3088 -0.0858  0.1655
 8184SOL    HW136185   2.026   3.812   5.948  1.5077  1.0955 -0.3405
 8184SOL    HW236186   1.955   3.931   5.896  1.5286 -0.6537 -0.3778
 8185SOL     OW36187   3.598   4.251   0.279 -0.2788  0.2635  0.3793
 8185SOL    HW136188   3.557   4.274   0.195  1.8121  0.3217 -0.6354
 8185SOL    HW236189   3.653   4.178   0.252 -0.1195 -0.2728  2.1952
 8186SOL     OW36190   2.173   0.868   9.195  0.0265 -0.0579 -0.1962
 8186SOL    HW136191   2.118   0.938   9.231 -1.8377 -1.3841 -0.5012
 8186SOL    HW236192   2.198   0.912   9.114  1.2273  0.4794  0.4496
 8187SOL     OW36193   2.691   3.076   8.688 -0.3121  0.0699  0.5470
 8187SOL    HW136194   2.749   3.088   8.613 -0.8339  3.3075  0.6976
 8187SOL    HW236195   2.603   3.060   8.653 -0.0232 -0.3059 -0.0029
 8188SOL     OW36196   3.394   1.149   3.550  0.0226  0.1188  0.4230
 8188SOL    HW136197   3.387   1.245   3.551 -3.7269 -0.1727  2.5402
 8188SOL    HW236198   3.323   1.130   3.612  1.7248 -0.6701  2.1207
 8189SOL     OW36199   0.565   0.015  11.292 -0.2067  0.3143 -0.0105
 8189SOL    HW136200   0.597   4.737  11.204  0.6715  0.4094  0.2832
 8189SOL    HW236201   0.543   0.107  11.279 -0.1255  0.6586  2.2926
 8190SOL     OW36202   1.792   0.041   0.996 -0.2609 -0.2212 -0.5223
 8190SOL    HW136203   1.826   0.080   0.916  2.3288 -1.6812 -0.1340
 8190SOL    HW236204   1.715   0.097   1.006 -0.1032  0.1847 -1.5281
 8191SOL     OW36205   2.632   3.585  17.055 -0.3776 -0.3193 -0.3470
 8191SOL    HW136206   2.695   3.615  16.990 -0.3556  1.0635  0.3163
 8191SOL    HW236207   2.595   3.506  17.014  2.4298 -1.6241 -0.3456
 8192SOL     OW36208   0.604   0.410  17.195 -0.6218  0.3558  1.0444
 8192SOL    HW136209   0.597   0.486  17.253  1.4390  0.7230  0.7921
 8192SOL    HW236210   0.583   0.337  17.253  0.6903 -0.1593  0.8625
 8193SOL     OW36211   0.279   1.502  15.279 -0.6247  0.0766 -0.3605
 8193SOL    HW136212   0.314   1.574  15.226  2.0497  1.1364  2.8133
 8193SOL    HW236213   0.208   1.552  15.321  0.3796  0.3114  1.0529
 8194SOL     OW36214   0.246   1.393  16.701  0.1104  0.2283  0.4332
 8194SOL    HW136215   0.326   1.343  16.716  1.4883  1.6780 -2.0362
 8194SOL    HW236216   0.289   1.476  16.678  2.6767 -0.2927  3.3583
 8195SOL     OW36217   3.370   3.939   1.551 -0.2653  0.1620 -0.4105
 8195SOL    HW136218   3.397   4.031   1.544  1.5358 -0.3453 -0.1622
 8195SOL    HW236219   3.404   3.917   1.464  0.2364  0.0837 -0.1932
 8196SOL     OW36220   3.275   1.546   4.836 -0.3100  0.6000  0.2925
 8196SOL    HW136221   3.250   1.604   4.764 -0.7193  2.8798  2.2796
 8196SOL    HW236222   3.263   1.610   4.906  2.4594 -1.8043  2.9094
 8197SOL     OW36223   0.155   2.920   2.675 -0.8055  0.3449  0.0395
 8197SOL    HW136224   0.203   2.932   2.757  1.3146  0.5070 -1.2350
 8197SOL    HW236225   0.146   3.014   2.658 -0.3067  0.5351  0.8521
 8198SOL     OW36226   0.484   0.641   4.595  0.7757  0.2373  0.5591
 8198SOL    HW136227   0.463   0.734   4.603 -1.2931 -0.1665  0.0700
 8198SOL    HW236228   0.438   0.624   4.512 -1.8552 -0.6867  2.1855
 8199SOL     OW36229   3.200   1.825  15.267  0.3019  0.4650 -0.0685
 8199SOL    HW136230   3.164   1.904  15.308 -1.9767 -0.2782 -0.6424
 8199SOL    HW236231   3.252   1.796  15.342  1.9968 -1.7001 -2.1049
 8200SOL     OW36232   2.016   0.185   3.379  0.1361 -0.9955 -0.1609
 8200SOL    HW136233   1.998   0.205   3.471  0.7291 -2.6184  0.3137
 8200SOL    HW236234   2.077   0.257   3.367 -0.8210 -0.0338  0.7678
 8201SOL     OW36235   2.770   4.711  17.542  0.1742  0.4864  0.7479
 8201SOL    HW136236   2.776   0.046  17.485  0.4565 -0.7584 -0.8734
 8201SOL    HW236237   2.676   4.695  17.546  0.3388 -0.5906  0.2134
 8202SOL     OW36238   2.312   3.233   4.331  0.2883  0.0163 -0.2877
 8202SOL    HW136239   2.381   3.171   4.350 -0.7126 -1.1249 -0.3779
 8202SOL    HW236240   2.348   3.296   4.269  0.5819  1.1346  1.0240
 8203SOL     OW36241   1.616   1.274   9.055 -0.4086 -0.3936  0.4727
 8203SOL    HW136242   1.645   1.292   8.966  2.2942 -1.3870  1.1478
 8203SOL    HW236243   1.522   1.290   9.053 -0.5881 -1.7192 -1.9175
 8204SOL     OW36244   3.709   0.465  14.607 -0.7443  0.2340 -0.6110
 8204SOL    HW136245   3.689   0.555  14.632 -0.9094  0.5583 -1.9338
 8204SOL    HW236246   3.644   0.415  14.658  1.9793 -3.2658 -0.5987
 8205SOL     OW36247   4.330   0.710   7.964 -0.4883  0.4658 -0.7682
 8205SOL    HW136248   4.375   0.683   8.043 -0.8102 -0.0600 -0.7565
 8205SOL    HW236249   4.387   0.657   7.908  0.7545 -0.4225  1.3696
 8206SOL     OW36250   3.114   0.217   2.809  0.1844  0.2263  0.1580
 8206SOL    HW136251   3.121   0.310   2.830 -0.2552  0.0945  0.8716
 8206SOL    HW236252   3.146   0.183   2.892  0.2989  2.5340  1.0796
 8207SOL     OW36253   0.941   1.733   2.072  0.4244  0.1437  0.5264
 8207SOL    HW136254   0.852   1.703   2.089 -0.5647  2.9725  0.3209
 8207SOL    HW236255   0.995   1.671   2.122 -2.3461 -1.2398  1.8523
 8208SOL     OW36256   1.858   2.647  13.766  0.2386  0.2323 -0.0063
 8208SOL    HW136257   1.853   2.733  13.726 -1.3148 -0.0941 -0.4861
 8208SOL    HW236258   1.923   2.650  13.837  1.5369  2.4708 -1.3031
 8209SOL     OW36259   3.249   4.085  17.197  0.2889 -0.6153  0.3871
 8209SOL    HW136260   3.314   4.022  17.228  0.9701 -0.4359 -0.7010
 8209SOL    HW236261   3.174   4.068  17.254  0.2394 -1.0563  0.1885
 8210SOL     OW36262   2.154   3.729   9.521  0.0381 -0.4372  0.2763
 8210SOL    HW136263   2.172   3.711   9.429 -1.3099 -1.0569  0.1358
 8210SOL    HW236264   2.072   3.683   9.538 -0.3434  0.6662  1.4769
 8211SOL     OW36265   2.022   1.408   7.000  0.1868  0.4030 -0.3101
 8211SOL    HW136266   1.979   1.445   7.077  0.1623 -0.4873  0.0993
 8211SOL    HW236267   2.063   1.479   6.951  1.4696  1.3080  2.1171
 8212SOL     OW36268   3.859   1.048  14.115 -1.0032 -0.2940 -0.2558
 8212SOL    HW136269   3.893   0.984  14.178 -2.1818 -1.0345 -0.3645
 8212SOL    HW236270   3.847   1.126  14.168 -0.3298  0.2202 -0.8482
 8213SOL     OW36271   2.912   2.663   3.343  0.4107 -0.4765 -0.4061
 8213SOL    HW136272   2.867   2.692   3.423 -1.6329 -1.2587 -1.2650
 8213SOL    HW236273   2.842   2.650   3.279  0.6304 -1.4982 -0.4444
 8214SOL     OW36274   0.706   3.550  15.643  0.0567 -0.0137 -0.1738
 8214SOL    HW136275   0.640   3.619  15.634  1.1349  1.0903  0.3442
 8214SOL    HW236276   0.707   3.510  15.556 -2.7033 -0.1371 -0.1454
 8215SOL     OW36277   3.212   0.080   3.015 -0.7207 -0.1425  0.3345
 8215SOL    HW136278   3.199   4.734   2.980  0.3008 -1.1530  2.5000
 8215SOL    HW236279   3.298   0.061   3.053  0.0693  0.7395 -0.9637
 8216SOL     OW36280   2.686   0.119   6.201 -0.3298 -0.6917  0.1656
 8216SOL    HW136281   2.618   0.187   6.196  1.1930  0.8333  0.1285
 8216SOL    HW236282   2.744   0.136   6.127 -0.4909 -1.3080 -0.1052
 8217SOL     OW36283   2.931   3.428   8.570  0.2065  0.1903 -0.1130
 8217SOL    HW136284   2.910   3.495   8.636 -0.6604  1.6970 -1.9079
 8217SOL    HW236285   2.973   3.478   8.500 -0.8088  0.6402 -0.4148
 8218SOL     OW36286   3.253   0.519   9.803 -0.0652  0.4671  1.0523
 8218SOL    HW136287   3.252   0.433   9.760 -1.7067  0.7728  0.4847
 8218SOL    HW236288   3.305   0.584   9.755  1.0275 -0.7327  0.5860
 8219SOL     OW36289   0.030   3.069   3.560 -0.0750  0.0320  0.5190
 8219SOL    HW136290   4.722   2.988   3.571  0.1449  0.2807  3.1583
 8219SOL    HW236291   0.041   3.096   3.651  0.4401  0.3228  0.3689
 8220SOL     OW36292   4.686   1.805   8.169 -0.1253  0.4596  0.2101
 8220SOL    HW136293   0.035   1.823   8.143  0.0864  1.1346  1.3806
 8220SOL    HW236294   4.687   1.874   8.236 -0.5405  0.1650  0.5133
 8221SOL     OW36295   4.262   2.481  12.992  0.5893  0.3641 -0.1212
 8221SOL    HW136296   4.282   2.574  12.986  0.0794  0.6182  1.8314
 8221SOL    HW236297   4.271   2.477  13.088 -1.5876 -0.1238  0.0554
 8222SOL     OW36298   1.072   3.946  16.305  0.5610  0.0145 -0.2494
 8222SOL    HW136299   0.990   3.958  16.258  0.7105  0.6210 -0.3652
 8222SOL    HW236300   1.079   3.851  16.301  4.2062  0.2659 -0.4248
 8223SOL     OW36301   3.720   3.068   6.903 -0.6755  0.3712  0.2180
 8223SOL    HW136302   3.656   3.027   6.960  1.4506 -4.3896 -0.8413
 8223SOL    HW236303   3.798   3.040   6.952 -0.4217 -1.2213 -1.0932
 8224SOL     OW36304   1.893   3.275  10.667  0.1315  0.2975  0.1540
 8224SOL    HW136305   1.963   3.252  10.606  0.1051  0.7440 -0.0426
 8224SOL    HW236306   1.812   3.253  10.621  0.3775 -2.3853  0.9993
 8225SOL     OW36307   2.584   2.775  13.727  0.2475 -0.6839  0.0745
 8225SOL    HW136308   2.514   2.736  13.780  0.0564 -1.2432 -0.5827
 8225SOL    HW236309   2.565   2.716  13.653 -2.5125 -0.7078  0.7939
 8226SOL     OW36310   0.548   2.279   8.840  0.5768  0.3599  0.2563
 8226SOL    HW136311   0.460   2.270   8.805  1.2580 -0.5453 -1.2565
 8226SOL    HW236312   0.533   2.344   8.908 -1.3416  0.9714 -0.7500
 8227SOL     OW36313   2.839   4.570   5.246  0.4471  0.3500 -0.3193
 8227SOL    HW136314   2.806   4.495   5.294 -2.5876  1.4731 -0.6328
 8227SOL    HW236315   2.799   4.572   5.159  1.2427  2.0876 -0.6434
 8228SOL     OW36316   0.516   1.855   4.218 -0.2935  0.5929  0.2046
 8228SOL    HW136317   0.505   1.886   4.308  2.0544  0.5039  0.5324
 8228SOL    HW236318   0.515   1.939   4.172  2.7135 -0.0847 -1.1140
 8229SOL     OW36319   3.955   1.667   0.673 -0.6294  0.3646  0.4263
 8229SOL    HW136320   4.033   1.636   0.720  0.1231  1.0387 -0.3816
 8229SOL    HW236321   3.897   1.686   0.746 -0.0934 -0.1939  1.0093
 8230SOL     OW36322   0.551   4.163   7.373  0.1294 -0.0381  0.1273
 8230SOL    HW136323   0.646   4.175   7.376  0.2804 -1.2728  0.2372
 8230SOL    HW236324   0.529   4.213   7.451 -0.0895  2.9375 -1.8768
 8231SOL     OW36325   0.760   4.408  13.328  0.4522  0.0948 -0.2428
 8231SOL    HW136326   0.751   4.492  13.284 -0.1496  2.0191  3.6414
 8231SOL    HW236327   0.697   4.411  13.400  1.5673 -1.7465  0.8174
 8232SOL     OW36328   0.865   2.153   2.992 -0.6900 -0.7615  0.4975
 8232SOL    HW136329   0.838   2.178   3.081 -0.9497  0.4551  0.0868
 8232SOL    HW236330   0.945   2.204   2.977 -1.3098 -0.5791 -2.2243
 8233SOL     OW36331   4.134   0.717  17.735 -0.3002 -0.0843  0.3817
 8233SOL    HW136332   4.218   0.748   0.002 -0.4520 -0.9879  1.7190
 8233SOL    HW236333   4.121   0.756  17.649  0.6599  0.1960  0.3728
 8234SOL     OW36334   0.639   4.116   5.404 -0.0477  0.5646 -0.2015
 8234SOL    HW136335   0.711   4.158   5.356  3.6086 -2.7076  2.4006
 8234SOL    HW236336   0.620   4.182   5.471  0.4426  0.2834  0.2128
 8235SOL     OW36337   2.862   0.345   8.466 -0.2714  0.3580  0.0303
 8235SOL    HW136338   2.881   0.384   8.551 -0.7860 -1.5670  1.0368
 8235SOL    HW236339   2.920   0.397   8.410 -0.1366 -0.9599 -1.0722
 8236SOL     OW36340   1.076   1.963   6.341  0.1312 -0.4295  0.4822
 8236SOL    HW136341   1.071   1.873   6.374  1.2468  0.0455  1.9560
 8236SOL    HW236342   1.165   1.975   6.375  0.5406 -0.5793 -0.5389
 8237SOL     OW36343   1.547   2.685   3.162 -0.7571  0.3789  0.2704
 8237SOL    HW136344   1.579   2.775   3.165  1.3835 -0.2923 -2.5954
 8237SOL    HW236345   1.578   2.647   3.244  2.6031 -0.8929 -1.6089
 8238SOL     OW36346   4.118   0.817  17.478 -0.0861 -0.0807 -0.7642
 8238SOL    HW136347   4.057   0.780  17.415 -0.8304 -3.5534  1.9720
 8238SOL    HW236348   4.190   0.845  17.421  2.6753  0.5072  2.9842
 8239SOL     OW36349   1.322   0.421   4.342  0.2336  0.3251 -0.1383
 8239SOL    HW136350   1.312   0.330   4.314  0.0799  0.1337  0.5382
 8239SOL    HW236351   1.385   0.455   4.279  1.4507  1.2069  1.5461
 8240SOL     OW36352   0.355   0.426   4.794  0.6003 -0.3866 -0.1410
 8240SOL    HW136353   0.374   0.494   4.729  0.5625 -2.3541 -2.2136
 8240SOL    HW236354   0.375   0.347   4.744  0.8641  1.1210 -2.4000
 8241SOL     OW36355   1.812   1.274   6.913 -0.1432 -0.0359  0.5950
 8241SOL    HW136356   1.890   1.329   6.924 -1.8663  2.3480  0.6816
 8241SOL    HW236357   1.826   1.197   6.968  1.4194  1.3081  2.0962
 8242SOL     OW36358   4.725   2.638   6.594 -0.2045 -0.0476  0.4076
 8242SOL    HW136359   4.720   2.732   6.607 -2.8870  0.0041 -0.9565
 8242SOL    HW236360   0.010   2.612   6.682 -2.1538 -1.5533  0.5686
 8243SOL     OW36361   1.780   1.309  15.396  0.1007 -0.2626 -0.7828
 8243SOL    HW136362   1.752   1.266  15.316 -0.2964 -2.1213  0.3544
 8243SOL    HW236363   1.855   1.255  15.420  0.9661  1.2748  0.0051
 8244SOL     OW36364   3.490   4.422   7.974  0.5187 -0.0080 -0.3790
 8244SOL    HW136365   3.508   4.365   8.048 -0.5416 -0.2413 -0.3095
 8244SOL    HW236366   3.398   4.441   7.994  0.5371 -1.2861  0.8703
 8245SOL     OW36367   3.548   3.709   4.290 -0.2710  0.3271  0.6836
 8245SOL    HW136368   3.631   3.685   4.249  0.0800  0.2860  1.4156
 8245SOL    HW236369   3.497   3.729   4.212 -1.0075  0.1757  1.1349
 8246SOL     OW36370   3.744   1.501   6.317  0.4855  0.3073 -0.0378
 8246SOL    HW136371   3.771   1.589   6.343 -3.2119  1.2664  0.5918
 8246SOL    HW236372   3.795   1.436   6.365  0.1080 -0.5904 -0.8594
 8247SOL     OW36373   1.039   3.119   6.873 -0.6226 -0.6119  0.1643
 8247SOL    HW136374   1.004   3.201   6.909  1.7014  1.2708 -1.8016
 8247SOL    HW236375   1.112   3.111   6.935  0.8367  0.7614 -1.3660
 8248SOL     OW36376   0.681   3.391   4.213  0.5868 -0.7127 -0.7316
 8248SOL    HW136377   0.597   3.435   4.229  0.6784 -0.0775 -2.0120
 8248SOL    HW236378   0.658   3.326   4.147 -1.7328 -0.3043 -0.3307
 8249SOL     OW36379   3.500   0.543  13.090  0.0033 -0.0194 -0.1561
 8249SOL    HW136380   3.426   0.574  13.037 -0.8507  0.2663  1.1997
 8249SOL    HW236381   3.450   0.527  13.170  1.4014  2.7040  1.2504
 8250SOL     OW36382   4.063   1.669   6.450  0.2367  0.1823  0.1593
 8250SOL    HW136383   4.081   1.678   6.544  2.1214  1.8810 -0.3669
 8250SOL    HW236384   4.127   1.736   6.424  0.9342 -0.8490 -0.7586
 8251SOL     OW36385   2.412   4.629   7.494 -0.4326 -0.1513  0.4135
 8251SOL    HW136386   2.396   4.545   7.451 -1.1377 -1.0817  2.5303
 8251SOL    HW236387   2.507   4.627   7.504 -0.4232 -0.3476  0.2782
 8252SOL     OW36388   0.000   0.704  11.538  0.2881 -0.6233 -0.0764
 8252SOL    HW136389   4.728   0.685  11.445  1.9794 -0.6998 -0.3185
 8252SOL    HW236390   4.697   0.788  11.545  1.0417 -0.1620 -0.8019
 8253SOL     OW36391   1.345   0.786  10.054  0.4217  0.5371 -0.0614
 8253SOL    HW136392   1.299   0.855  10.007 -0.5574  0.8699  1.3869
 8253SOL    HW236393   1.375   0.832  10.132 -0.7496 -0.7695  1.1627
 8254SOL     OW36394   0.475   1.783   3.134  0.0115  1.0496 -0.2118
 8254SOL    HW136395   0.483   1.833   3.053  1.5151  0.3463 -0.5018
 8254SOL    HW236396   0.521   1.703   3.111  0.2380  1.2420 -0.4193
 8255SOL     OW36397   2.778   1.003   4.488  0.0252  1.2007  0.3625
 8255SOL    HW136398   2.853   1.062   4.490  0.5857  0.5634 -2.2607
 8255SOL    HW236399   2.787   0.939   4.559 -0.3076 -0.5950 -1.2373
 8256SOL     OW36400   2.891   3.801  12.128 -0.1800  0.0279 -0.4914
 8256SOL    HW136401   2.896   3.705  12.126 -1.6929 -0.0481 -1.3611
 8256SOL    HW236402   2.908   3.819  12.220 -0.8491 -0.7421 -0.2121
 8257SOL     OW36403   1.789   3.723   3.484 -0.4636 -0.7595  0.4194
 8257SOL    HW136404   1.781   3.809   3.525 -1.9983 -0.7809  0.1581
 8257SOL    HW236405   1.701   3.718   3.448  0.2535  1.2535 -1.6146
 8258SOL     OW36406   1.349   0.207  14.277 -0.3213 -0.2110 -0.1528
 8258SOL    HW136407   1.292   0.247  14.212  1.9164  1.1484 -1.2814
 8258SOL    HW236408   1.398   0.284  14.307 -0.8368  0.3648 -0.7858
 8259SOL     OW36409   3.361   3.142  12.754  0.2189  0.0364  0.1003
 8259SOL    HW136410   3.442   3.134  12.804  1.1222  4.3739 -0.6450
 8259SOL    HW236411   3.366   3.052  12.722 -0.8106 -0.5906  1.6611
 8260SOL     OW36412   0.759   4.541  10.744 -0.1468  0.3234 -0.1457
 8260SOL    HW136413   0.696   4.480  10.704  0.0025 -0.7212  1.1896
 8260SOL    HW236414   0.732   4.534  10.835  1.2057  0.7824  0.2855
 8261SOL     OW36415   3.696   4.336  15.622  0.2322 -0.4819 -0.3850
 8261SOL    HW136416   3.607   4.305  15.605  0.5653  0.7102 -4.1780
 8261SOL    HW236417   3.675   4.429  15.616  1.4365 -0.3362 -2.1275
 8262SOL     OW36418   2.221   3.440   9.750 -0.2146 -0.0174  0.1787
 8262SOL    HW136419   2.280   3.426   9.675 -0.5083 -2.9970  0.4907
 8262SOL    HW236420   2.213   3.355   9.794  0.2713 -0.3038 -0.2874
 8263SOL     OW36421   1.957   2.230   1.293 -0.1747  0.2211  0.9825
 8263SOL    HW136422   1.995   2.316   1.311 -0.5715  1.2480 -3.2441
 8263SOL    HW236423   1.996   2.214   1.207 -0.8034 -2.7441  1.2360
 8264SOL     OW36424   2.998   0.112  14.662  0.7006 -0.4093 -0.1407
 8264SOL    HW136425   2.914   0.079  14.694  0.3618  1.0719  0.5402
 8264SOL    HW236426   3.055   0.042  14.693 -0.2342 -0.0602  2.3943
 8265SOL     OW36427   0.064   1.763   8.811  0.3379 -0.3974 -0.7168
 8265SOL    HW136428   0.074   1.669   8.799 -0.5093 -0.9157  2.6740
 8265SOL    HW236429   0.059   1.773   8.906 -0.0818  1.3386 -0.9132
 8266SOL     OW36430   0.040   3.770  17.158 -0.2314 -0.6251  0.1809
 8266SOL    HW136431   0.036   3.714  17.236  1.7601  1.1450  1.5627
 8266SOL    HW236432   4.691   3.792  17.139  0.1154 -0.7167 -1.5240
 8267SOL     OW36433   3.209   3.006   5.299 -0.1588  0.1502 -0.2430
 8267SOL    HW136434   3.188   3.030   5.389 -1.2262 -1.5904 -0.0335
 8267SOL    HW236435   3.303   3.021   5.301 -0.4328  1.8028  0.3457
 8268SOL     OW36436   2.028   3.102  11.097 -0.2243 -0.6297  0.0534
 8268SOL    HW136437   2.070   3.182  11.130 -1.3525 -0.9229  2.1171
 8268SOL    HW236438   2.106   3.056  11.064  1.1948  1.4787  0.4042
 8269SOL     OW36439   1.161   1.070   7.928 -0.4311  0.6055  0.0655
 8269SOL    HW136440   1.076   1.027   7.938 -0.4262  0.1941 -1.7105
 8269SOL    HW236441   1.159   1.100   7.837 -2.3599 -0.8270 -0.3694
 8270SOL     OW36442   1.180   3.178   8.847 -0.2218  0.2196 -0.2972
 8270SOL    HW136443   1.222   3.196   8.763  2.2621 -0.9821  0.6853
 8270SOL    HW236444   1.207   3.087   8.849 -1.7110 -0.2021  0.8023
 8271SOL     OW36445   0.438   2.095   9.157  0.1426 -0.3839 -0.0856
 8271SOL    HW136446   0.423   2.005   9.183 -1.8777 -0.2388 -0.8121
 8271SOL    HW236447   0.528   2.094   9.123 -0.8066  1.6390 -2.6481
 8272SOL     OW36448   2.459   2.797  14.963  0.1116  0.5481 -0.3532
 8272SOL    HW136449   2.463   2.701  14.969 -0.1813  0.6516  1.3326
 8272SOL    HW236450   2.482   2.807  14.870 -0.6320 -0.1385 -0.6138
 8273SOL     OW36451   4.698   1.842  12.731 -0.6252 -0.0472 -0.1990
 8273SOL    HW136452   4.700   1.747  12.723  1.5952 -0.1929  2.1236
 8273SOL    HW236453   4.657   1.861  12.816  1.3542 -0.3177  0.8293
 8274SOL     OW36454   0.411   0.140   3.134 -0.1085 -0.4028  0.3351
 8274SOL    HW136455   0.361   0.211   3.176 -0.0318 -0.0428 -0.1831
 8274SOL    HW236456   0.477   0.123   3.202  0.7870  0.5310 -0.2883
 8275SOL     OW36457   0.765   2.618   4.950 -0.2318  0.1869  0.1501
 8275SOL    HW136458   0.856   2.588   4.948  0.2539  1.7313 -0.6947
 8275SOL    HW236459   0.726   2.572   4.875 -0.5340 -0.4199  0.6809
 8276SOL     OW36460   2.941   1.315   3.605  1.1947  0.6807  0.4181
 8276SOL    HW136461   2.851   1.282   3.596  1.5558 -0.5163  1.1887
 8276SOL    HW236462   2.971   1.312   3.514  0.0714  2.9331 -0.0111
 8277SOL     OW36463   1.267   4.192   9.866  0.2960 -0.2552 -0.0621
 8277SOL    HW136464   1.253   4.154   9.779 -1.4351  2.4301 -0.9601
 8277SOL    HW236465   1.240   4.282   9.847 -0.5852 -0.6252 -0.6004
 8278SOL     OW36466   0.909   1.551   4.391 -0.6312 -0.1088 -0.2528
 8278SOL    HW136467   0.909   1.646   4.377  1.8810  0.0373  0.7961
 8278SOL    HW236468   0.915   1.520   4.301 -0.5879 -0.9308  0.0377
 8279SOL     OW36469   0.627   2.752   9.109  0.2061 -0.0328 -0.1014
 8279SOL    HW136470   0.605   2.816   9.041  1.7011  1.0389  0.4396
 8279SOL    HW236471   0.588   2.683   9.056  0.7096 -0.4585  0.0857
 8280SOL     OW36472   4.083   3.570   3.674  0.2369 -0.1986 -0.4402
 8280SOL    HW136473   4.076   3.555   3.579 -1.2432 -1.3882 -0.1388
 8280SOL    HW236474   4.146   3.642   3.670  0.7968 -0.5463  2.0262
 8281SOL     OW36475   2.842   0.686  10.032 -0.1301 -0.4377 -0.1098
 8281SOL    HW136476   2.867   0.731   9.951 -2.0319  0.0158 -0.4461
 8281SOL    HW236477   2.891   0.604  10.029  0.6509  0.0485 -0.7784
 8282SOL     OW36478   0.012   2.515   3.508  0.0844  0.5431  0.0825
 8282SOL    HW136479   0.087   2.572   3.492  1.0120 -1.2339 -1.9437
 8282SOL    HW236480   0.043   2.468   3.585  0.8821 -0.6653 -0.9855
 8283SOL     OW36481   0.740   4.261  16.680 -0.4505 -0.1729  0.3852
 8283SOL    HW136482   0.651   4.258  16.645 -0.1580  0.0481 -0.3786
 8283SOL    HW236483   0.754   4.172  16.713  0.3637 -0.6317 -1.2019
 8284SOL     OW36484   4.335   1.993   7.463  0.0123  0.0210  0.2826
 8284SOL    HW136485   4.422   1.958   7.482  0.1943  1.0105  1.2383
 8284SOL    HW236486   4.287   1.972   7.542  2.9427  0.8816  2.3045
 8285SOL     OW36487   4.481   3.783   1.920  0.1405 -0.3756 -0.2785
 8285SOL    HW136488   4.457   3.690   1.912  0.1355 -0.3424 -0.6708
 8285SOL    HW236489   4.550   3.781   1.986 -2.1073  0.0126  2.0670
 8286SOL     OW36490   3.313   2.820  13.973  0.9355  0.4061  0.1821
 8286SOL    HW136491   3.220   2.813  13.951  0.6249  0.3045  1.5536
 8286SOL    HW236492   3.328   2.736  14.016  0.4023 -0.1146 -0.6583
 8287SOL     OW36493   4.151   1.245   8.757 -0.8692 -0.6444 -0.1746
 8287SOL    HW136494   4.104   1.239   8.674 -0.5866  0.7760 -0.4235
 8287SOL    HW236495   4.190   1.332   8.756 -1.4746 -0.4171 -2.9920
 8288SOL     OW36496   2.581   3.024   6.475 -0.1645 -0.6347 -0.1151
 8288SOL    HW136497   2.565   2.935   6.446  0.6751 -0.9868  0.4879
 8288SOL    HW236498   2.595   3.074   6.395 -0.7477 -0.0930  0.1203
 8289SOL     OW36499   0.545   0.763   1.608  0.4206 -0.4721  0.2396
 8289SOL    HW136500   0.559   0.751   1.514 -0.9531 -1.4392  0.1619
 8289SOL    HW236501   0.555   0.673   1.638 -0.4741 -0.5647  0.2606
 8290SOL     OW36502   2.209   1.861   3.589  0.2387  0.4475 -1.0208
 8290SOL    HW136503   2.159   1.806   3.528 -0.7591  1.0639 -0.7651
 8290SOL    HW236504   2.292   1.814   3.590 -0.7980 -1.4081 -0.8186
 8291SOL     OW36505   1.625   0.340   9.018 -0.1465 -0.0134 -0.3293
 8291SOL    HW136506   1.579   0.257   9.000  0.3875 -0.2524 -0.5720
 8291SOL    HW236507   1.696   0.320   9.079 -1.1793 -1.8746  0.2715
 8292SOL     OW36508   0.120   0.860   3.781 -0.2466 -0.0550 -0.4003
 8292SOL    HW136509   0.036   0.895   3.810 -0.4163 -0.7078 -0.0999
 8292SOL    HW236510   0.150   0.827   3.866  0.2142 -1.2633 -1.0284
 8293SOL     OW36511   0.494   0.588   0.621  0.2662  0.1700  0.1015
 8293SOL    HW136512   0.404   0.557   0.607  1.2159 -2.4300 -0.1550
 8293SOL    HW236513   0.471   0.679   0.641 -0.0691  0.0531  0.2562
 8294SOL     OW36514   1.649   1.884   2.524 -0.2492 -0.8053 -0.5484
 8294SOL    HW136515   1.647   1.880   2.620  0.1299 -0.5400 -0.5288
 8294SOL    HW236516   1.593   1.959   2.504 -1.1837 -1.4749 -0.4292
 8295SOL     OW36517   4.511   3.711   9.557 -0.2131  0.0740 -0.5053
 8295SOL    HW136518   4.606   3.717   9.560 -0.3355  2.2673 -0.7552
 8295SOL    HW236519   4.485   3.802   9.542 -0.2947 -0.0819 -1.2998
 8296SOL     OW36520   4.365   1.123   2.553  0.1888 -0.4176  0.3619
 8296SOL    HW136521   4.298   1.067   2.514 -0.5655 -0.0389  1.1124
 8296SOL    HW236522   4.345   1.132   2.646 -0.9201  0.6971  0.0257
 8297SOL     OW36523   1.675   0.415   3.274 -0.5019  0.5693 -0.1348
 8297SOL    HW136524   1.621   0.394   3.198 -0.8209 -0.5853  0.4096
 8297SOL    HW236525   1.715   0.328   3.272  0.1652  0.9087 -1.5320
 8298SOL     OW36526   2.107   0.099  10.478  0.0276  0.8164  0.4339
 8298SOL    HW136527   2.169   0.123  10.410  0.6887  1.9433  1.4401
 8298SOL    HW236528   2.147   0.034  10.536 -1.0051  0.1346  0.3805
 8299SOL     OW36529   3.678   1.091   4.470 -0.4054  0.5488  0.6101
 8299SOL    HW136530   3.691   1.001   4.501  0.7003  1.3048  2.3033
 8299SOL    HW236531   3.585   1.098   4.488 -1.2145  0.3452 -3.3351
 8300SOL     OW36532   1.557   1.251   6.197  0.0357  0.0048  0.1890
 8300SOL    HW136533   1.606   1.236   6.278  0.7994  2.2346  0.1410
 8300SOL    HW236534   1.498   1.175   6.194  0.0900 -0.0286 -0.0642
 8301SOL     OW36535   0.975   2.646  11.678  0.0732  0.1222  0.4219
 8301SOL    HW136536   0.930   2.567  11.650 -0.0915 -0.1629  1.4799
 8301SOL    HW236537   0.977   2.623  11.771 -0.4351 -2.5437 -0.2159
 8302SOL     OW36538   3.124   3.346  12.494  0.0734 -0.1648 -0.3912
 8302SOL    HW136539   3.182   3.363  12.568 -0.4554  1.3881 -0.3349
 8302SOL    HW236540   3.064   3.420  12.503 -0.2262 -0.1126 -2.7919
 8303SOL     OW36541   2.896   2.810  14.794 -0.3629  0.3187 -0.6395
 8303SOL    HW136542   2.857   2.820  14.707 -0.1195 -3.6929 -1.2294
 8303SOL    HW236543   2.850   2.731  14.824  0.3049  0.2266  0.1224
 8304SOL     OW36544   3.777   3.570   4.591  0.3114  0.7006 -0.2522
 8304SOL    HW136545   3.842   3.624   4.637  3.1273 -1.1241 -2.1171
 8304SOL    HW236546   3.791   3.485   4.633  0.4180 -0.3196 -2.3858
 8305SOL     OW36547   0.886   1.438   5.934 -0.5755 -0.2634 -0.2203
 8305SOL    HW136548   0.899   1.416   5.842  3.1872 -1.4000  0.5720
 8305SOL    HW236549   0.862   1.531   5.940 -0.1001 -0.0523 -1.5904
 8306SOL     OW36550   0.898   1.778   4.656  0.7878  0.2460 -0.0168
 8306SOL    HW136551   0.948   1.699   4.675  0.4601  0.0809  0.1606
 8306SOL    HW236552   0.821   1.764   4.711  2.3602  0.5642  2.2842
 8307SOL     OW36553   1.779   1.444  15.104  0.8121 -0.2939  0.3127
 8307SOL    HW136554   1.872   1.425  15.117  0.7304 -1.1600 -0.3870
 8307SOL    HW236555   1.747   1.423  15.191 -0.8386  1.5774  0.1383
 8308SOL     OW36556   2.604   0.038   5.258 -0.9335  0.4821  0.4538
 8308SOL    HW136557   2.616   0.005   5.348 -1.6173  2.2243  1.1726
 8308SOL    HW236558   2.515   0.011   5.235 -0.3182 -1.6053  0.4639
 8309SOL     OW36559   0.512   1.322   8.129  0.0075  0.1229 -0.2767
 8309SOL    HW136560   0.526   1.338   8.036 -3.8807  1.6743 -0.6125
 8309SOL    HW236561   0.600   1.294   8.151 -0.6513 -0.0423  2.1850
 8310SOL     OW36562   2.364   2.338  13.421  0.4952 -0.0639 -0.2249
 8310SOL    HW136563   2.454   2.342  13.453  0.7646 -0.7198 -0.9087
 8310SOL    HW236564   2.356   2.401  13.351 -1.1007  0.7788  0.7123
 8311SOL     OW36565   2.027   4.341   0.746 -0.1394 -0.4804  0.1676
 8311SOL    HW136566   2.084   4.263   0.744  1.4151  0.7291 -2.0040
 8311SOL    HW236567   2.053   4.380   0.829  0.9181  0.5817 -0.6667
 8312SOL     OW36568   3.362   4.692   5.862  0.4931  0.8691 -0.2190
 8312SOL    HW136569   3.349   0.041   5.833  0.7901  1.1658  0.5958
 8312SOL    HW236570   3.375   4.715   5.954  1.1314  2.4980 -0.7049
 8313SOL     OW36571   3.765   1.985  12.302 -0.8475  0.0775 -0.3790
 8313SOL    HW136572   3.755   1.953  12.212 -0.0946  1.5470 -0.9815
 8313SOL    HW236573   3.740   1.908  12.352  0.7391 -0.5027 -0.4629
 8314SOL     OW36574   2.574   2.811   8.320  0.2311  0.0176  0.3014
 8314SOL    HW136575   2.619   2.896   8.321 -0.5899  0.4399  1.9296
 8314SOL    HW236576   2.487   2.836   8.351  0.4640 -0.7600  1.5819
 8315SOL     OW36577   2.319   4.732   8.175  0.6711  0.0014  0.1080
 8315SOL    HW136578   2.332   4.700   8.086  0.9471 -0.1831  0.2153
 8315SOL    HW236579   2.342   4.656   8.228  1.0504  0.4139  0.5333
 8316SOL     OW36580   0.250   4.740   5.086  0.0069 -0.3988  0.6234
 8316SOL    HW136581   0.164   4.720   5.049 -0.2597  0.4820  0.7708
 8316SOL    HW236582   0.248   4.670   5.151  1.8646  0.3654  1.5114
 8317SOL     OW36583   1.541   3.325   9.213  0.5003 -0.5797 -0.3488
 8317SOL    HW136584   1.623   3.324   9.162  1.0213 -1.2016  0.5021
 8317SOL    HW236585   1.500   3.246   9.180  0.7761 -0.6859 -0.4344
 8318SOL     OW36586   3.458   3.238  11.970 -0.7364 -0.3128 -0.3493
 8318SOL    HW136587   3.481   3.146  11.984 -1.4595 -0.4422 -0.0538
 8318SOL    HW236588   3.433   3.269  12.057 -0.0554  0.4439 -0.4253
 8319SOL     OW36589   3.989   4.343   6.503  0.8281  0.0026  0.6948
 8319SOL    HW136590   3.937   4.293   6.566 -0.4236  0.2912 -0.0850
 8319SOL    HW236591   4.078   4.312   6.517  1.7862  2.2642 -0.3620
 8320SOL     OW36592   4.629   4.184   0.259  0.0625  0.1831  0.7107
 8320SOL    HW136593   4.692   4.255   0.268 -0.6099  0.6598  1.6199
 8320SOL    HW236594   4.598   4.196   0.349  0.4604 -1.0666  1.0270
 8321SOL     OW36595   2.205   4.455   9.389  0.6242  0.1726  0.0584
 8321SOL    HW136596   2.271   4.424   9.451  0.7713  0.5097  0.0727
 8321SOL    HW236597   2.204   4.550   9.399 -0.1465  0.4855 -3.0893
 8322SOL     OW36598   3.806   0.029   4.686 -0.2957 -0.2300  0.1386
 8322SOL    HW136599   3.768   4.738   4.768 -1.3455 -1.9630 -1.0288
 8322SOL    HW236600   3.884   0.066   4.727  0.5200  1.7057 -3.1768
 8323SOL     OW36601   4.644   4.046  14.262 -0.4441  0.2418 -0.2534
 8323SOL    HW136602   4.557   4.030  14.298 -1.7410  2.8490 -2.2466
 8323SOL    HW236603   4.614   4.081  14.178 -1.8526  1.8018  0.9039
 8324SOL     OW36604   3.037   2.631   6.648 -0.0692 -0.1987  0.3196
 8324SOL    HW136605   3.003   2.671   6.568 -0.2153  1.2929  1.1163
 8324SOL    HW236606   3.119   2.678   6.668  0.1515 -0.0473 -0.9392
 8325SOL     OW36607   1.558   4.270   7.909 -0.3161 -0.1056 -0.2031
 8325SOL    HW136608   1.592   4.246   7.995 -0.3960 -1.5160 -0.5591
 8325SOL    HW236609   1.639   4.249   7.861  1.2983  2.3114  1.4812
 8326SOL     OW36610   1.057   4.580   8.836 -0.0457 -0.4777  0.1411
 8326SOL    HW136611   1.149   4.566   8.860  0.3095  1.6302 -0.0199
 8326SOL    HW236612   1.019   4.506   8.883 -0.0370 -0.4133  0.2502
 8327SOL     OW36613   2.095   0.445   7.342  0.1771 -0.1144  0.1544
 8327SOL    HW136614   2.155   0.377   7.310 -1.1868 -0.3411 -1.9539
 8327SOL    HW236615   2.167   0.505   7.361 -1.1450  1.7727 -0.7454
 8328SOL     OW36616   4.329   3.618   6.104  0.4874 -0.3743 -0.0220
 8328SOL    HW136617   4.373   3.685   6.051  0.3233 -0.3371 -0.1119
 8328SOL    HW236618   4.394   3.548   6.115  2.2932  1.1773 -0.7178
 8329SOL     OW36619   2.565   1.719   1.824  0.3983  0.3708  0.3434
 8329SOL    HW136620   2.600   1.665   1.753 -0.2002 -0.9658  1.0613
 8329SOL    HW236621   2.628   1.790   1.834  2.1955 -0.9820 -1.6108
 8330SOL     OW36622   1.346   4.542   7.975 -0.2996 -0.2692 -0.0287
 8330SOL    HW136623   1.379   4.452   7.981  0.0852 -0.0982  0.4850
 8330SOL    HW236624   1.347   4.556   7.881 -2.4628 -0.3179 -0.0658
 8331SOL     OW36625   4.462   4.374   1.973 -0.3775 -0.6150 -0.2065
 8331SOL    HW136626   4.511   4.292   1.984 -1.6381 -1.7290 -3.0276
 8331SOL    HW236627   4.518   4.441   2.011  0.1771 -1.9307  1.3280
 8332SOL     OW36628   0.287   1.077   8.490 -0.3627  0.1475 -0.6289
 8332SOL    HW136629   0.222   1.068   8.420  0.9024  0.0053 -1.7943
 8332SOL    HW236630   0.225   1.096   8.560 -1.0168 -3.9513 -0.0819
 8333SOL     OW36631   2.676   2.214   4.516  0.1604  0.0574  0.2809
 8333SOL    HW136632   2.600   2.159   4.534  1.6536 -0.9899  3.3112
 8333SOL    HW236633   2.737   2.149   4.552  0.5724  0.1542 -0.2362
 8334SOL     OW36634   1.000   2.493   7.947  0.1898  0.3989 -0.0385
 8334SOL    HW136635   0.909   2.463   7.936 -0.1231  0.0050  3.6739
 8334SOL    HW236636   1.039   2.406   7.950 -1.2251 -0.1931  0.9417
 8335SOL     OW36637   2.987   4.554   7.457  0.5486  0.4422  0.1595
 8335SOL    HW136638   3.003   4.473   7.408 -1.7983  0.2544 -0.2907
 8335SOL    HW236639   3.065   4.600   7.425 -1.4052  1.5539 -2.9768
 8336SOL     OW36640   3.390   3.243   8.772 -1.1710  0.2137 -0.3162
 8336SOL    HW136641   3.420   3.171   8.828 -0.9071  1.3879  1.0749
 8336SOL    HW236642   3.305   3.214   8.739  0.1239  0.5988 -3.9852
 8337SOL     OW36643   1.660   3.553   9.760 -0.0014  0.4998 -0.6872
 8337SOL    HW136644   1.702   3.513   9.684 -0.5233 -2.9532  0.8271
 8337SOL    HW236645   1.732   3.562   9.823 -1.0284  1.2447  0.3749
 8338SOL     OW36646   1.031   1.865   9.681  0.0112 -0.4116  0.5557
 8338SOL    HW136647   1.112   1.902   9.647  0.5444  0.6013  2.9387
 8338SOL    HW236648   0.987   1.950   9.680  2.0634  0.6390  2.0815
 8339SOL     OW36649   2.984   3.784  16.434 -0.1130  0.5132 -0.3332
 8339SOL    HW136650   3.073   3.803  16.402 -0.5401  1.8735 -0.7265
 8339SOL    HW236651   2.978   3.855  16.498 -1.3132  0.2231 -0.1362
 8340SOL     OW36652   4.083   4.204  14.048 -0.4421  0.4988  0.1846
 8340SOL    HW136653   4.055   4.123  14.092  4.3283 -0.2968  1.7652
 8340SOL    HW236654   4.136   4.170  13.976 -0.2924  0.7229  0.1902
 8341SOL     OW36655   0.263   2.040  15.118  0.1336 -0.1210 -0.3453
 8341SOL    HW136656   0.275   2.101  15.046 -2.0016 -0.5474 -1.0495
 8341SOL    HW236657   0.169   2.043  15.133  0.1288 -1.4781 -0.0810
 8342SOL     OW36658   2.880   1.381   5.624 -0.9934 -0.3386  0.0734
 8342SOL    HW136659   2.929   1.382   5.542 -0.9298  0.4403  0.1226
 8342SOL    HW236660   2.950   1.380   5.689  1.7557  0.5419 -2.8594
 8343SOL     OW36661   4.691   3.619   7.258  0.4727  0.4877  0.2770
 8343SOL    HW136662   4.698   3.614   7.354  2.4725 -1.7057  0.0163
 8343SOL    HW236663   0.032   3.573   7.242  1.0750  1.2426  1.1802
 8344SOL     OW36664   4.000   2.705   4.016  0.0891 -0.6682 -0.3248
 8344SOL    HW136665   3.998   2.620   4.060  1.8140 -0.8821 -0.6502
 8344SOL    HW236666   4.059   2.753   4.074  0.2569  1.0610 -1.9279
 8345SOL     OW36667   3.682   4.449   7.634  0.4847 -0.1090 -0.1521
 8345SOL    HW136668   3.761   4.401   7.658  2.3134  2.9654 -0.0936
 8345SOL    HW236669   3.616   4.384   7.659  0.2551 -0.2248 -1.0443
 8346SOL     OW36670   2.315   2.737   8.569  0.2142 -0.1502 -0.1447
 8346SOL    HW136671   2.380   2.717   8.635 -0.2066  3.0940  1.2525
 8346SOL    HW236672   2.331   2.831   8.564 -0.6513  0.0752  1.3956
 8347SOL     OW36673   0.189   2.882   5.539  0.8851 -0.3834  0.5699
 8347SOL    HW136674   0.279   2.912   5.525  1.3956 -2.8013 -1.4977
 8347SOL    HW236675   0.148   2.933   5.469  1.7875  1.5108  1.4333
 8348SOL     OW36676   3.363   3.908   9.225  0.2342  0.4626 -1.1105
 8348SOL    HW136677   3.405   3.885   9.142 -1.2409  0.9373 -1.9829
 8348SOL    HW236678   3.336   4.000   9.215  0.2607  0.7485  1.3481
 8349SOL     OW36679   2.563   0.234   8.548 -0.7096 -0.2669 -0.1965
 8349SOL    HW136680   2.563   0.324   8.516  2.3335 -0.8391 -1.7889
 8349SOL    HW236681   2.633   0.242   8.612  0.8566  2.4352 -2.2519
 8350SOL     OW36682   3.081   4.059   7.204  0.9057 -0.2310  0.2265
 8350SOL    HW136683   3.057   3.967   7.192 -0.1148  0.1748 -0.7521
 8350SOL    HW236684   3.115   4.071   7.116 -0.4650 -0.6989 -0.3625
 8351SOL     OW36685   1.481   1.323   2.795  0.6102  0.1143  0.4716
 8351SOL    HW136686   1.431   1.389   2.748  1.1002 -1.3015 -2.0477
 8351SOL    HW236687   1.532   1.380   2.852  1.2188 -0.1108  0.1510
 8352SOL     OW36688   1.484   1.784   9.766 -0.3244  0.2921 -0.5660
 8352SOL    HW136689   1.482   1.868   9.812  1.9883 -0.0395  0.1424
 8352SOL    HW236690   1.501   1.810   9.676  1.9261  0.0693 -0.2212
 8353SOL     OW36691   2.236   4.699   1.917  0.2011 -0.0378  0.0825
 8353SOL    HW136692   2.319   4.674   1.876 -0.6003 -1.5432 -0.6185
 8353SOL    HW236693   2.190   4.615   1.914  0.0874  0.0027  0.7444
 8354SOL     OW36694   1.210   4.142   2.245  0.2809  0.4193 -0.1032
 8354SOL    HW136695   1.139   4.087   2.279  0.0997  0.4528 -0.4180
 8354SOL    HW236696   1.173   4.221   2.284  0.0826  0.5520 -0.5509
 8355SOL     OW36697   3.497   3.236  15.875  0.4944 -0.3542  0.4429
 8355SOL    HW136698   3.472   3.300  15.942  0.8688  0.6294 -0.3517
 8355SOL    HW236699   3.568   3.282  15.830 -0.7199  2.8245  1.7599
 8356SOL     OW36700   0.528   1.719   8.285 -0.1455 -0.3541 -0.1714
 8356SOL    HW136701   0.456   1.657   8.275 -2.3574  1.9853  1.2264
 8356SOL    HW236702   0.543   1.726   8.379 -0.0054 -0.4866 -0.1848
 8357SOL     OW36703   4.242   1.379  13.539 -0.0898  0.6155  0.0347
 8357SOL    HW136704   4.245   1.284  13.548  0.9918  0.7198  0.7156
 8357SOL    HW236705   4.247   1.384  13.444  0.1353 -2.0890 -0.0817
 8358SOL     OW36706   3.592   0.293   6.477  0.4695 -0.1651 -0.4768
 8358SOL    HW136707   3.634   0.210   6.455  2.4706  0.1519  2.0815
 8358SOL    HW236708   3.600   0.299   6.572 -0.9926  1.6686 -0.4766
 8359SOL     OW36709   0.054   0.263   1.799  0.6660 -1.1273  0.2752
 8359SOL    HW136710   4.735   0.298   1.733  1.3431  1.4409  0.9792
 8359SOL    HW236711   0.005   0.292   1.876 -0.9312  0.9520 -1.5175
 8360SOL     OW36712   0.774   0.921   6.330  0.0045 -0.5448 -1.0729
 8360SOL    HW136713   0.720   0.919   6.409  0.8166  0.6577 -0.4987
 8360SOL    HW236714   0.801   0.831   6.311 -1.0609 -1.3266  1.0585
 8361SOL     OW36715   0.956   4.429   4.552 -0.6382  0.1234  0.1311
 8361SOL    HW136716   0.875   4.395   4.515 -1.9965  0.6308  2.6704
 8361SOL    HW236717   1.018   4.363   4.522 -1.6537 -0.4125 -0.8055
 8362SOL     OW36718   0.856   4.320   6.353  0.3414  0.1899 -0.0314
 8362SOL    HW136719   0.794   4.392   6.358 -1.9452 -1.9572  2.3806
 8362SOL    HW236720   0.909   4.336   6.275  1.3730 -0.3852  0.5416
 8363SOL     OW36721   3.775   1.285   3.309 -0.0825  0.2962  0.0443
 8363SOL    HW136722   3.858   1.281   3.262  0.4254 -1.0328  1.0688
 8363SOL    HW236723   3.808   1.322   3.391 -0.4604 -0.9514  0.7602
 8364SOL     OW36724   4.699   1.249  15.655 -0.7070  0.0070 -0.5228
 8364SOL    HW136725   0.028   1.264  15.592  0.1179 -0.2248  0.3413
 8364SOL    HW236726   4.625   1.296  15.617 -1.3633  0.0237  0.7594
 8365SOL     OW36727   0.172   4.364   5.786 -0.0428  0.0156 -0.2339
 8365SOL    HW136728   0.211   4.360   5.698  3.0827  2.7420  1.0203
 8365SOL    HW236729   0.159   4.457   5.798  0.3807  0.1836 -1.0496
 8366SOL     OW36730   3.310   2.615  14.351 -0.0091  0.1774  0.3387
 8366SOL    HW136731   3.321   2.702  14.389  0.2252 -0.0866  0.8778
 8366SOL    HW236732   3.239   2.624  14.287 -0.0936 -0.0431  0.4019
 8367SOL     OW36733   1.383   0.188   3.033 -0.0011  0.4585  0.8004
 8367SOL    HW136734   1.411   0.158   3.119 -0.8720 -1.3254  0.4626
 8367SOL    HW236735   1.432   0.268   3.015 -0.5737  0.6782  0.2144
 8368SOL     OW36736   4.575   1.299   5.281 -0.0734 -0.4440 -0.1546
 8368SOL    HW136737   4.615   1.234   5.339  0.3929 -0.0142  0.0041
 8368SOL    HW236738   4.644   1.365   5.288  0.9106 -1.3964 -0.9135
 8369SOL     OW36739   0.197   3.599   6.318  0.0701  0.8472  0.4754
 8369SOL    HW136740   0.250   3.671   6.284 -0.4843  0.4579 -1.1656
 8369SOL    HW236741   0.231   3.525   6.270  0.4242  1.5612 -0.3655
 8370SOL     OW36742   3.971   0.587   6.119 -0.1460 -0.3389 -0.0721
 8370SOL    HW136743   3.995   0.679   6.107 -0.9641 -0.2973 -1.3292
 8370SOL    HW236744   3.883   0.581   6.080  0.6663 -0.0890 -1.9136
 8371SOL     OW36745   1.961   0.669   3.347 -0.1761  0.5663  0.4408
 8371SOL    HW136746   1.992   0.760   3.352 -0.4351  0.6036  1.4522
 8371SOL    HW236747   1.961   0.651   3.441 -0.1246  0.1247  0.3561
 8372SOL     OW36748   2.030   0.427   3.070 -0.2577 -0.1380 -0.1313
 8372SOL    HW136749   2.044   0.337   3.039 -0.4568 -0.2873  0.2064
 8372SOL    HW236750   2.111   0.462   3.033  0.6351 -1.9704  0.0746
 8373SOL     OW36751   0.509   2.616  11.653 -0.4267  0.0625  0.2685
 8373SOL    HW136752   0.554   2.533  11.635 -1.6109  0.1867 -3.2823
 8373SOL    HW236753   0.480   2.608  11.744 -1.6638  0.5078 -0.0894
 8374SOL     OW36754   0.006   2.280   5.916 -0.6193  0.4935 -0.3487
 8374SOL    HW136755   0.091   2.305   5.880 -0.8157  0.0152 -1.1537
 8374SOL    HW236756   4.741   2.360   5.968  0.5855  1.0506 -1.0604
 8375SOL     OW36757   2.097   0.459  15.318  0.7549 -0.0114  0.4388
 8375SOL    HW136758   2.097   0.529  15.253 -0.5294 -1.2979 -0.9342
 8375SOL    HW236759   2.185   0.463  15.355  0.9873  0.0983 -0.1371
 8376SOL     OW36760   0.371   4.012   0.890  0.3129  0.5883  0.4685
 8376SOL    HW136761   0.293   4.010   0.946 -1.0500  3.1186 -1.3862
 8376SOL    HW236762   0.399   4.099   0.918  0.3216  0.0828  2.0799
 8377SOL     OW36763   1.849   0.930   6.324 -0.1731 -0.4267  0.0441
 8377SOL    HW136764   1.894   1.010   6.295  1.1710 -0.8140  1.0304
 8377SOL    HW236765   1.912   0.903   6.391  2.9647  2.8581 -1.6114
 8378SOL     OW36766   1.012   3.884   3.310 -0.3722  0.2964  0.4840
 8378SOL    HW136767   0.965   3.857   3.390 -2.9540  0.2925 -1.0327
 8378SOL    HW236768   0.948   3.856   3.244  1.1225  0.6851 -1.1024
 8379SOL     OW36769   0.701   3.054   5.142  0.2087 -0.0896 -0.3279
 8379SOL    HW136770   0.751   2.992   5.089 -0.5897 -0.3154 -0.8372
 8379SOL    HW236771   0.632   3.090   5.085  0.4725  1.7567  0.5279
 8380SOL     OW36772   3.694   4.180  14.021 -0.1464  0.4032  0.2591
 8380SOL    HW136773   3.608   4.215  14.044 -0.8785 -1.3108  0.1648
 8380SOL    HW236774   3.715   4.147  14.108  1.5950  1.8855  0.3860
 8381SOL     OW36775   1.562   1.326   1.839  0.0964 -0.0505 -0.1967
 8381SOL    HW136776   1.478   1.357   1.805  1.2683  1.1303 -2.0311
 8381SOL    HW236777   1.536   1.309   1.930  2.0244  0.4140  0.4329
 8382SOL     OW36778   1.795   3.623  16.336 -0.3977 -0.1033  0.3221
 8382SOL    HW136779   1.814   3.606  16.244 -0.0758  0.0617  0.3584
 8382SOL    HW236780   1.707   3.662  16.330 -0.3061 -0.0293 -0.4818
 8383SOL     OW36781   1.639   3.833   6.615  0.0730 -0.1610 -0.1465
 8383SOL    HW136782   1.610   3.909   6.564 -2.3941  0.3266  1.9539
 8383SOL    HW236783   1.693   3.877   6.681  0.1676  2.5452 -2.0466
 8384SOL     OW36784   3.868   0.325  17.035  0.5511  0.4343 -0.4280
 8384SOL    HW136785   3.896   0.398  17.090  1.2255  0.4762 -0.8266
 8384SOL    HW236786   3.943   0.273  17.063 -0.4956  0.1349  1.8466
 8385SOL     OW36787   3.325   4.612   8.629  0.3333  0.3112 -0.8085
 8385SOL    HW136788   3.286   4.698   8.646 -0.0960  0.3936 -2.1313
 8385SOL    HW236789   3.251   4.568   8.586 -1.4022  1.5572  0.9239
 8386SOL     OW36790   3.648   0.385   0.539  0.0056  0.0698 -0.1254
 8386SOL    HW136791   3.648   0.296   0.504 -1.5446  0.1323 -0.2864
 8386SOL    HW236792   3.733   0.414   0.506 -1.2623  2.4948 -1.2709
 8387SOL     OW36793   0.333   1.667  16.590  0.7410  0.0363 -0.4796
 8387SOL    HW136794   0.284   1.661  16.508  0.1873  0.1471 -0.1601
 8387SOL    HW236795   0.418   1.641  16.555  1.4804  0.5256  0.9517
 8388SOL     OW36796   1.782   3.444   5.525  0.2182  0.2393 -0.4414
 8388SOL    HW136797   1.717   3.399   5.471 -1.1877  0.0385  1.4067
 8388SOL    HW236798   1.835   3.372   5.559 -1.6454 -1.8441 -1.8745
 8389SOL     OW36799   0.396   2.490   4.105 -0.6133  0.6548  0.1997
 8389SOL    HW136800   0.465   2.509   4.168 -0.3885  0.5171 -0.0028
 8389SOL    HW236801   0.430   2.528   4.024  0.3838 -1.5984 -0.4388
 8390SOL     OW36802   2.186   2.935  10.536 -0.1411  0.4080 -0.7389
 8390SOL    HW136803   2.129   2.963  10.607 -1.6004 -1.5966 -1.1223
 8390SOL    HW236804   2.119   2.908  10.473 -0.6009 -2.5354  1.0377
 8391SOL     OW36805   3.679   0.191   1.205 -0.3681 -0.1532  0.1602
 8391SOL    HW136806   3.771   0.217   1.202 -0.5569  0.4132 -0.5578
 8391SOL    HW236807   3.669   0.177   1.299 -0.4491  2.3246  0.5253
 8392SOL     OW36808   4.636   0.120  16.642 -0.5843  0.2799 -0.0862
 8392SOL    HW136809   4.662   0.139  16.551 -0.1922 -2.4995 -0.5720
 8392SOL    HW236810   4.572   0.189  16.656 -0.9915 -0.0673 -0.2301
 8393SOL     OW36811   0.953   0.289   4.004 -0.0679  0.3194  0.1661
 8393SOL    HW136812   1.017   0.357   4.026 -0.4808  0.1866  1.7569
 8393SOL    HW236813   0.892   0.294   4.077 -1.4553  0.6935 -1.0090
 8394SOL     OW36814   4.575   0.976   4.867 -0.5768 -0.1044 -0.6629
 8394SOL    HW136815   4.533   1.039   4.926 -0.6859  0.5468 -1.4440
 8394SOL    HW236816   4.506   0.912   4.851  0.1855 -0.6868 -1.6215
 8395SOL     OW36817   1.580   2.973   2.809 -0.2591 -0.2067  0.2620
 8395SOL    HW136818   1.574   2.936   2.897  0.6964  0.1354  0.4797
 8395SOL    HW236819   1.633   2.905   2.768 -0.0879 -0.5181  1.0106
 8396SOL     OW36820   4.498   3.790   9.047  0.0634  0.3527  0.1552
 8396SOL    HW136821   4.553   3.740   9.108 -0.8804  0.5213  1.1491
 8396SOL    HW236822   4.456   3.856   9.102  0.1284  1.5514 -1.2652
 8397SOL     OW36823   3.416   3.700   8.580 -0.2263 -0.2454 -0.2741
 8397SOL    HW136824   3.417   3.661   8.667  0.6030  2.1747  0.7989
 8397SOL    HW236825   3.399   3.623   8.526 -0.0088 -0.3470 -0.1973
 8398SOL     OW36826   3.233   1.033   6.645  0.1445 -0.6626 -0.0865
 8398SOL    HW136827   3.229   0.993   6.558  1.1080  0.3087 -0.5794
 8398SOL    HW236828   3.147   1.014   6.682 -1.5665  2.9214 -2.1444
 8399SOL     OW36829   3.663   3.418   3.267 -0.5998  0.4552 -0.2687
 8399SOL    HW136830   3.605   3.382   3.200 -1.2449  0.8780  0.0597
 8399SOL    HW236831   3.672   3.346   3.330 -1.6435  1.8039  1.4396
 8400SOL     OW36832   0.734   3.316   1.964 -0.5811  0.9253  0.0655
 8400SOL    HW136833   0.762   3.370   2.038  1.8377 -0.9932  0.5734
 8400SOL    HW236834   0.655   3.280   2.004 -0.5228 -0.5058 -1.0921
 8401SOL     OW36835   0.854   0.927   0.741 -0.6982 -0.1816 -0.0708
 8401SOL    HW136836   0.830   0.874   0.817 -1.2361 -0.6560 -0.5770
 8401SOL    HW236837   0.840   1.012   0.782  0.8665  0.5637 -1.1101
 8402SOL     OW36838   2.645   0.011   2.715  0.0743  0.3531  0.2739
 8402SOL    HW136839   2.737   0.011   2.739 -0.0906  1.9656  0.9110
 8402SOL    HW236840   2.608   0.087   2.761 -2.0981 -0.9215  0.6112
 8403SOL     OW36841   3.229   3.723   9.337  0.2981 -0.0809  0.0336
 8403SOL    HW136842   3.168   3.788   9.371 -2.3757 -2.0106 -1.0280
 8403SOL    HW236843   3.296   3.786   9.310  0.1806 -0.2830 -0.7452
 8404SOL     OW36844   4.041   4.608   8.770 -0.4724  0.0077  0.1401
 8404SOL    HW136845   4.097   4.603   8.693 -0.8428 -1.5986 -0.0212
 8404SOL    HW236846   3.957   4.584   8.730 -0.4068 -0.4238  0.2592
 8405SOL     OW36847   0.113   3.371   3.933 -0.1696  0.9222 -0.3663
 8405SOL    HW136848   0.030   3.333   3.902  0.3495 -0.1592 -0.4214
 8405SOL    HW236849   0.112   3.348   4.026 -1.2732  1.6051 -0.2076
 8406SOL     OW36850   2.385   2.688   6.041  0.3395  0.3347 -0.8102
 8406SOL    HW136851   2.338   2.608   6.019 -1.5341  0.6212  2.2013
 8406SOL    HW236852   2.440   2.708   5.965  1.9340 -1.8874 -0.2155
 8407SOL     OW36853   3.284   1.098  11.218  0.1502 -0.1833  0.0885
 8407SOL    HW136854   3.304   1.083  11.126  0.3675  0.5660  0.0164
 8407SOL    HW236855   3.367   1.118  11.261 -0.8577 -1.9725  2.8883
 8408SOL     OW36856   1.610   2.240   8.545  0.4412  0.6047 -0.6061
 8408SOL    HW136857   1.549   2.237   8.618 -0.2325 -0.0506 -1.2015
 8408SOL    HW236858   1.688   2.268   8.593  0.4922 -0.5863  0.0209
 8409SOL     OW36859   3.148   0.920   1.709  0.2931  0.6695  0.2664
 8409SOL    HW136860   3.158   0.953   1.799  0.8148  0.6633  0.2079
 8409SOL    HW236861   3.052   0.919   1.708  0.3729 -2.8888 -1.8746
 8410SOL     OW36862   3.853   3.923   5.937 -0.4051  0.4516 -0.3170
 8410SOL    HW136863   3.833   3.829   5.937 -1.1780  0.6222  0.6031
 8410SOL    HW236864   3.938   3.941   5.979 -1.3630 -0.6241  2.0765
 8411SOL     OW36865   1.829   1.741   1.553  0.0912  0.5213 -0.1140
 8411SOL    HW136866   1.776   1.819   1.573  0.3460 -0.1562  3.1711
 8411SOL    HW236867   1.768   1.672   1.581  0.5741  0.6017  1.1204
 8412SOL     OW36868   2.317   1.978   7.830  0.7265  0.0161  0.3461
 8412SOL    HW136869   2.292   1.888   7.851  1.9079 -0.1363  1.1391
 8412SOL    HW236870   2.375   1.976   7.753 -0.1785  1.0859 -0.3538
 8413SOL     OW36871   0.571   2.483  17.508 -0.2856  0.1355 -0.5178
 8413SOL    HW136872   0.499   2.493  17.570  0.0363  2.4201 -0.5163
 8413SOL    HW236873   0.602   2.395  17.527  2.4369  1.0671 -0.6722
 8414SOL     OW36874   3.051   3.957  16.070  0.1990  0.1031 -0.1906
 8414SOL    HW136875   3.135   3.954  16.024  2.4645  0.3213  3.8635
 8414SOL    HW236876   3.030   4.051  16.070 -1.6376 -0.3005  0.3857
 8415SOL     OW36877   1.918   1.101  13.403  0.5010 -0.3836 -0.6322
 8415SOL    HW136878   1.841   1.100  13.460  0.5175  0.5098 -0.6049
 8415SOL    HW236879   1.901   1.014  13.366 -4.0116 -0.7799  2.3399
 8416SOL     OW36880   1.174   0.970  11.952  0.7737  0.0014 -0.3848
 8416SOL    HW136881   1.192   0.906  12.021 -0.0638  0.7150  0.4942
 8416SOL    HW236882   1.163   1.052  11.999  0.0446  0.1505 -0.8036
 8417SOL     OW36883   1.940   2.773   4.624  0.2910 -0.0679 -0.0633
 8417SOL    HW136884   1.940   2.703   4.690  2.3185  0.4695  0.4885
 8417SOL    HW236885   2.010   2.828   4.659  0.5635  0.1032 -0.8902
 8418SOL     OW36886   4.115   3.423   9.292 -0.5084  0.5984  0.7288
 8418SOL    HW136887   4.169   3.457   9.363 -0.0336  0.1717  0.5683
 8418SOL    HW236888   4.148   3.476   9.220  1.5121 -0.0258  1.2115
 8419SOL     OW36889   1.008   0.494   7.893  0.2452  0.1373 -0.0417
 8419SOL    HW136890   0.960   0.523   7.971 -0.2326  0.7733 -0.5680
 8419SOL    HW236891   1.054   0.576   7.874  1.4469 -0.3331  0.8627
 8420SOL     OW36892   4.595   0.400   4.861  0.3868 -0.4888  0.4095
 8420SOL    HW136893   4.570   0.308   4.853  0.8510 -0.3843 -2.4620
 8420SOL    HW236894   4.690   0.392   4.858  0.4669  0.6915 -0.0830
 8421SOL     OW36895   1.267   4.000  13.552 -0.5170 -0.3571  0.3403
 8421SOL    HW136896   1.310   4.044  13.625  3.2380 -0.0846 -2.0709
 8421SOL    HW236897   1.213   4.070  13.516 -2.1831 -0.7747  1.9995
 8422SOL     OW36898   1.952   3.807   9.772  0.1743 -0.4502  0.1244
 8422SOL    HW136899   1.918   3.776   9.855  1.0089 -2.4205 -0.2680
 8422SOL    HW236900   2.026   3.745   9.763  0.8022  0.4894 -1.3045
 8423SOL     OW36901   2.176   1.493   7.819  0.0175  0.4529 -0.1764
 8423SOL    HW136902   2.124   1.426   7.864  2.5086 -2.2107 -1.2489
 8423SOL    HW236903   2.179   1.449   7.735 -0.7633 -1.6699  0.9052
 8424SOL     OW36904   3.803   1.437   5.803 -0.2622  0.5297 -0.0618
 8424SOL    HW136905   3.770   1.492   5.874  0.2517 -0.8883  1.2767
 8424SOL    HW236906   3.719   1.407   5.767  0.4109  0.4448 -1.5557
 8425SOL     OW36907   3.974   3.284   6.420  0.5393  0.4990  0.0277
 8425SOL    HW136908   3.963   3.257   6.511 -0.5436 -1.9866 -0.8449
 8425SOL    HW236909   4.056   3.334   6.427  0.6077  0.3561  0.2386
 8426SOL     OW36910   4.233   0.686   3.857 -0.0406 -0.7726 -0.1778
 8426SOL    HW136911   4.194   0.760   3.904  2.3389 -0.5275  1.4098
 8426SOL    HW236912   4.226   0.621   3.926 -1.9432 -0.4488 -0.0703
 8427SOL     OW36913   2.061   4.606   6.619 -0.1668 -0.3707  0.3699
 8427SOL    HW136914   2.025   4.660   6.690  0.6911  1.0103 -0.2338
 8427SOL    HW236915   2.155   4.620   6.632 -0.0284 -0.4896 -0.5271
 8428SOL     OW36916   4.186   0.003  12.632 -0.3761  0.0612 -0.1101
 8428SOL    HW136917   4.148   4.671  12.680  0.7077 -2.0240 -2.4319
 8428SOL    HW236918   4.144   0.005  12.546 -0.0765 -2.7971 -0.3234
 8429SOL     OW36919   4.581   2.436   8.678 -0.1692 -0.3257  0.1376
 8429SOL    HW136920   4.667   2.457   8.642  0.8848  0.0899  2.8719
 8429SOL    HW236921   4.554   2.354   8.639  0.6656  0.2473 -1.6423
 8430SOL     OW36922   1.794   1.332   8.817 -0.5858  0.4366  0.5583
 8430SOL    HW136923   1.738   1.409   8.808 -0.2568  0.8276  1.8040
 8430SOL    HW236924   1.876   1.379   8.828  0.5600 -1.9041  2.0544
 8431SOL     OW36925   4.329   3.909  16.245 -0.0939  0.3117 -0.6622
 8431SOL    HW136926   4.392   3.837  16.250 -0.7948 -0.1977  1.0055
 8431SOL    HW236927   4.250   3.860  16.269 -0.6096  0.9375 -1.0824
 8432SOL     OW36928   0.728   3.527   5.480 -0.0042 -1.2254  0.2704
 8432SOL    HW136929   0.758   3.471   5.409  0.0792 -1.1631  0.2566
 8432SOL    HW236930   0.762   3.617   5.474  0.7934 -1.4806  0.9701
 8433SOL     OW36931   1.815   0.377  15.365  0.2532  0.3376  0.2478
 8433SOL    HW136932   1.779   0.447  15.311  2.4643  1.4684  0.2508
 8433SOL    HW236933   1.907   0.403  15.367  0.3511  0.0230 -0.1790
 8434SOL     OW36934   3.713   0.850   8.815 -0.5111 -0.0651  0.1779
 8434SOL    HW136935   3.708   0.941   8.843 -3.0519 -0.4137  0.8819
 8434SOL    HW236936   3.650   0.827   8.884 -1.4289 -0.4140 -0.7664
 8435SOL     OW36937   3.930   4.345   0.882 -0.4796 -0.2497 -0.0197
 8435SOL    HW136938   3.931   4.253   0.908 -2.5805 -1.1420 -3.1982
 8435SOL    HW236939   3.924   4.338   0.787 -0.6391 -1.4997  0.0826
 8436SOL     OW36940   1.939   3.383   7.050 -0.1044  0.1584 -0.2008
 8436SOL    HW136941   2.009   3.388   6.985  0.2667  0.4915  0.2177
 8436SOL    HW236942   1.965   3.308   7.104  3.8672  0.7121 -1.3103
 8437SOL     OW36943   4.003   0.864   6.179 -0.1927  0.8359  0.1337
 8437SOL    HW136944   3.925   0.819   6.212  0.1556  0.7822  0.8855
 8437SOL    HW236945   3.995   0.955   6.207  0.0518  0.2546  2.1257
 8438SOL     OW36946   4.114   2.314   6.261 -0.3680  0.5700 -0.0826
 8438SOL    HW136947   4.037   2.257   6.268  2.0272 -2.6507 -0.1168
 8438SOL    HW236948   4.112   2.333   6.167 -0.0218 -0.1240 -0.2295
 8439SOL     OW36949   3.956   4.098   9.565  0.2449 -0.2431 -0.2701
 8439SOL    HW136950   3.898   4.026   9.541  1.2578 -0.5180 -1.9325
 8439SOL    HW236951   4.005   4.108   9.483 -0.0629  0.6855 -0.3432
 8440SOL     OW36952   1.501   2.382  12.532 -0.4354  0.1639  0.1340
 8440SOL    HW136953   1.583   2.397  12.579 -0.6055 -0.0492  0.4966
 8440SOL    HW236954   1.524   2.403  12.441  1.5479  3.1973  1.3324
 8441SOL     OW36955   0.585   3.092   8.269 -0.2884  0.4746 -0.1174
 8441SOL    HW136956   0.517   3.117   8.332 -1.0247  0.3136 -0.8517
 8441SOL    HW236957   0.536   3.101   8.188 -0.6027 -2.5595 -0.2862
 8442SOL     OW36958   4.287   4.265   8.220  0.0164  0.8202 -0.4865
 8442SOL    HW136959   4.208   4.315   8.239  1.1597  1.4468  2.7582
 8442SOL    HW236960   4.252   4.179   8.195 -0.5996  0.8314  0.3307
 8443SOL     OW36961   3.710   2.169   6.913  0.3090 -0.3651  0.0231
 8443SOL    HW136962   3.646   2.108   6.948 -0.6620  1.3751  1.2997
 8443SOL    HW236963   3.661   2.199   6.837  1.5499  0.7558 -0.3364
 8444SOL     OW36964   3.179   4.021  16.927  0.3652 -0.6613 -0.1258
 8444SOL    HW136965   3.243   3.950  16.919  0.8660 -0.1734 -0.4125
 8444SOL    HW236966   3.182   4.036  17.022  0.7931  1.1687 -0.4308
 8445SOL     OW36967   0.918   0.556   7.314  0.6731  0.2231  0.2357
 8445SOL    HW136968   0.867   0.474   7.313  2.7592 -1.1104  1.6331
 8445SOL    HW236969   0.908   0.584   7.223 -0.2046  1.8408  0.8303
 8446SOL     OW36970   3.053   1.416   5.869 -0.2957 -0.2539 -0.0061
 8446SOL    HW136971   3.130   1.454   5.827  0.0692  0.6149  1.4622
 8446SOL    HW236972   3.095   1.332   5.887 -0.9464 -0.0686  2.4122
 8447SOL     OW36973   2.572   3.671   8.247  0.5180 -0.4808  0.4993
 8447SOL    HW136974   2.609   3.611   8.311 -2.2996 -0.5479  2.0901
 8447SOL    HW236975   2.506   3.707   8.307  0.9618  0.9681  0.1233
 8448SOL     OW36976   3.135   0.567  12.147  0.1592  0.2915  0.1974
 8448SOL    HW136977   3.095   0.486  12.115 -2.5898  2.1739 -1.1449
 8448SOL    HW236978   3.191   0.590  12.073  0.4359 -0.8967  0.0388
 8449SOL     OW36979   1.287   2.893   6.860 -0.5918 -0.0103 -0.3088
 8449SOL    HW136980   1.255   2.832   6.927  0.7004 -2.0824 -1.5638
 8449SOL    HW236981   1.382   2.899   6.856 -0.5249 -0.5946  0.4085
 8450SOL     OW36982   1.935   3.295   9.482  0.5567 -0.0571  0.8504
 8450SOL    HW136983   1.912   3.259   9.397  0.1003  1.3518  0.3751
 8450SOL    HW236984   1.972   3.220   9.529  3.2860 -0.8108 -2.4590
 8451SOL     OW36985   1.721   3.126  16.673  0.0025 -0.4726 -0.5760
 8451SOL    HW136986   1.754   3.210  16.640  0.0132  0.3567  1.5676
 8451SOL    HW236987   1.770   3.128  16.755  2.0271 -0.7905 -1.7615
 8452SOL     OW36988   0.916   3.928  10.143 -0.2977  0.0551  0.2402
 8452SOL    HW136989   0.923   4.021  10.125 -2.1384  0.1784  0.1153
 8452SOL    HW236990   0.884   3.898  10.058  0.8573 -1.6431  0.3929
 8453SOL     OW36991   2.448   3.966   1.873  0.0707  0.1705  0.2995
 8453SOL    HW136992   2.524   3.931   1.824 -0.6148 -2.6054  1.2021
 8453SOL    HW236993   2.423   3.889   1.924  0.7605 -0.0527  0.3123
 8454SOL     OW36994   4.556   0.359   6.393  0.3984  0.0118 -0.4114
 8454SOL    HW136995   4.474   0.376   6.347  0.1354  1.5810  0.6179
 8454SOL    HW236996   4.622   0.363   6.324 -0.0178 -2.9801 -0.9704
 8455SOL     OW36997   2.651   2.246   7.990 -1.0576 -0.2902  0.3110
 8455SOL    HW136998   2.727   2.197   7.958 -0.7275 -0.6335  1.5899
 8455SOL    HW236999   2.599   2.171   8.019  1.4191 -1.7466  1.0905
 8456SOL     OW37000   1.080   3.182  12.456  0.6883  0.0662 -0.4197
 8456SOL    HW137001   1.136   3.249  12.496  0.0398  0.6793 -0.5458
 8456SOL    HW237002   1.085   3.202  12.363  2.7757 -1.5055 -0.6468
 8457SOL     OW37003   3.452   3.534  17.386 -0.1694  0.4245 -0.4595
 8457SOL    HW137004   3.396   3.578  17.323  0.9986  1.4809 -0.7529
 8457SOL    HW237005   3.527   3.593  17.397 -1.4273  1.3843  2.9220
 8458SOL     OW37006   3.476   4.303   4.025  0.3660  0.4123 -0.0720
 8458SOL    HW137007   3.402   4.246   4.046 -0.1641  1.5764  1.2673
 8458SOL    HW237008   3.434   4.385   4.054 -1.7956 -0.4975 -0.6686
 8459SOL     OW37009   0.127   4.080   1.674  0.0040  0.5605  0.3732
 8459SOL    HW137010   0.088   3.995   1.697  0.1876  0.0379 -1.2082
 8459SOL    HW237011   0.048   4.127   1.647 -0.8826 -0.6182  0.8812
 8460SOL     OW37012   4.734   1.748   4.163 -0.1513  0.0074 -0.1248
 8460SOL    HW137013   4.693   1.684   4.106  0.5629  0.9454 -1.7079
 8460SOL    HW237014   4.668   1.817   4.172 -0.1426  0.4317 -3.0196
 8461SOL     OW37015   0.098   0.674   4.738 -0.4333  0.0967  0.9707
 8461SOL    HW137016   0.084   0.746   4.676 -1.0001  0.4528  1.5049
 8461SOL    HW237017   0.087   0.602   4.676 -2.7148 -0.0618  1.5769
 8462SOL     OW37018   1.455   0.261   7.611  0.4212 -0.3387 -0.2525
 8462SOL    HW137019   1.542   0.295   7.631  0.7644 -1.1178 -0.4085
 8462SOL    HW237020   1.471   0.193   7.545  0.2180 -1.2167  0.5982
 8463SOL     OW37021   4.280   3.274   7.906  0.1386  0.2436  0.0812
 8463SOL    HW137022   4.221   3.200   7.890  1.7584 -0.8509 -0.8489
 8463SOL    HW237023   4.230   3.339   7.857  2.0417  0.6771 -1.2823
 8464SOL     OW37024   0.220   1.839   4.550 -0.1037  0.0962 -0.4678
 8464SOL    HW137025   0.251   1.753   4.523  0.6116  0.0986  0.3335
 8464SOL    HW237026   0.248   1.896   4.478  0.0582  0.1878 -0.3344
 8465SOL     OW37027   0.172   3.638   7.650 -0.3181 -0.1852 -0.2377
 8465SOL    HW137028   0.201   3.660   7.739  0.4966 -0.3692 -0.4564
 8465SOL    HW237029   0.180   3.724   7.608  1.3616 -0.1898  0.0850
 8466SOL     OW37030   0.668   0.048   9.561  0.5384  0.1960 -0.2467
 8466SOL    HW137031   0.762   0.059   9.553  0.4699  0.4422 -0.7220
 8466SOL    HW237032   0.658   0.012   9.473  0.1428 -0.0884 -0.0915
 8467SOL     OW37033   2.443   1.301  13.347  0.1974  0.2589 -0.5127
 8467SOL    HW137034   2.417   1.314  13.256  2.1133 -0.3310 -1.1443
 8467SOL    HW237035   2.365   1.261  13.387 -1.3055  2.5849 -1.0841
 8468SOL     OW37036   4.038   1.556   8.192 -0.4014  0.1846 -0.8619
 8468SOL    HW137037   4.049   1.475   8.141  1.0908  0.1843 -0.5480
 8468SOL    HW237038   4.110   1.546   8.254 -0.2283  1.1443 -0.9139
 8469SOL     OW37039   0.688   3.266   5.343  0.2975 -0.0817  0.5111
 8469SOL    HW137040   0.753   3.217   5.393  1.1838  0.9809  0.4213
 8469SOL    HW237041   0.704   3.233   5.254 -1.3442 -1.2581  0.6641
 8470SOL     OW37042   4.442   0.572   3.281 -0.2431  0.0657  0.8045
 8470SOL    HW137043   4.387   0.525   3.218 -3.2348  2.6987  1.4766
 8470SOL    HW237044   4.486   0.634   3.223  1.6117 -1.0469  1.0198
 8471SOL     OW37045   2.871   2.368   1.989 -0.0698 -0.1245  0.0650
 8471SOL    HW137046   2.955   2.351   1.945 -0.5866  0.0189 -0.9896
 8471SOL    HW237047   2.822   2.427   1.931  2.0452  2.7270  1.1831
 8472SOL     OW37048   1.945   0.143   9.997 -0.1148 -0.2435  0.3301
 8472SOL    HW137049   1.868   0.118   9.946 -0.3839 -0.6386  0.9375
 8472SOL    HW237050   1.917   0.232  10.020 -1.6444 -0.5773 -0.2165
 8473SOL     OW37051   2.940   2.215   7.913  0.1753 -0.2219  0.5611
 8473SOL    HW137052   3.030   2.185   7.929  0.0304 -1.1849 -0.3808
 8473SOL    HW237053   2.895   2.131   7.904 -1.4999  0.9645 -2.2264
 8474SOL     OW37054   1.141   2.262  17.387  0.2341 -0.3454  0.8888
 8474SOL    HW137055   1.083   2.318  17.335  1.2477 -0.4176 -0.3235
 8474SOL    HW237056   1.148   2.319  17.463 -0.7664  0.1580  0.6044
 8475SOL     OW37057   2.162   1.401  10.785  0.1374  0.4709  0.0937
 8475SOL    HW137058   2.151   1.487  10.827 -1.9170  0.0646  0.3826
 8475SOL    HW237059   2.164   1.341  10.860  0.7048 -1.1006 -1.1955
 8476SOL     OW37060   1.063   1.984  10.455  0.3734  0.0413  0.0631
 8476SOL    HW137061   1.059   1.908  10.512  1.6594 -1.8233 -2.3630
 8476SOL    HW237062   1.000   2.037  10.504 -1.1061 -2.7141  1.1478
 8477SOL     OW37063   2.136   1.541   4.902  0.0870 -0.3752  0.2190
 8477SOL    HW137064   2.069   1.553   4.835  1.7293  1.2151 -1.1381
 8477SOL    HW237065   2.117   1.452   4.933  2.1237 -0.7030  0.5369
 8478SOL     OW37066   0.689   1.984   2.503  0.4547 -0.3711  0.2312
 8478SOL    HW137067   0.695   1.968   2.597 -1.8294 -1.1061  0.2621
 8478SOL    HW237068   0.638   1.905   2.485 -2.6670  1.9396 -1.1521
 8479SOL     OW37069   4.618   4.672  13.353 -0.1310 -0.1936 -0.5312
 8479SOL    HW137070   4.680   4.603  13.327  0.7387  0.7194 -0.8782
 8479SOL    HW237071   4.602   4.706  13.265 -1.7248 -0.1843 -0.2322
 8480SOL     OW37072   2.994   2.859   4.729  0.6441  0.2194 -0.4720
 8480SOL    HW137073   2.980   2.787   4.790  0.0055  0.2085 -0.6360
 8480SOL    HW237074   3.079   2.888   4.762  0.1964  0.0700  0.8164
 8481SOL     OW37075   3.367   1.305   7.450 -1.0179 -0.2303  0.0910
 8481SOL    HW137076   3.274   1.295   7.433 -1.4683  2.0664  1.2073
 8481SOL    HW237077   3.408   1.220   7.433  1.3759  0.7234  1.0353
 8482SOL     OW37078   1.387   4.106   3.343 -0.6246 -0.0761 -0.0556
 8482SOL    HW137079   1.292   4.102   3.354 -0.8824  0.6724 -1.9057
 8482SOL    HW237080   1.423   4.136   3.426 -2.3070 -0.5210  0.8407
 8483SOL     OW37081   0.409   3.338   3.885 -0.1028 -0.2798 -0.4402
 8483SOL    HW137082   0.319   3.350   3.913  0.4383  5.0342 -0.9356
 8483SOL    HW237083   0.428   3.426   3.851  1.8491  0.3649  2.2938
 8484SOL     OW37084   1.436   0.151   3.912 -0.0562  0.4296 -0.0292
 8484SOL    HW137085   1.423   0.067   3.955  1.7905 -0.5555 -1.4080
 8484SOL    HW237086   1.525   0.173   3.940 -1.1841  1.0654  3.1107
 8485SOL     OW37087   1.440   2.773  15.972 -0.2644 -0.1756 -0.0958
 8485SOL    HW137088   1.387   2.713  15.920 -1.1935  2.3552 -2.0438
 8485SOL    HW237089   1.389   2.766  16.052 -0.6683  0.0032 -0.3406
 8486SOL     OW37090   3.401   0.776   4.517  0.0636  0.0843  0.4234
 8486SOL    HW137091   3.389   0.794   4.424  1.1028  3.6509  1.0031
 8486SOL    HW237092   3.407   0.680   4.518 -1.1992 -0.0103 -0.4361
 8487SOL     OW37093   0.636   1.456   8.459  0.2038  0.5656  0.2938
 8487SOL    HW137094   0.557   1.404   8.442  0.8733 -0.2538 -0.2853
 8487SOL    HW237095   0.599   1.533   8.503  0.7550  0.4048  1.0417
 8488SOL     OW37096   2.709   1.193   3.691  0.3297  0.1130 -0.3335
 8488SOL    HW137097   2.652   1.132   3.739  0.6522 -0.8132 -1.1262
 8488SOL    HW237098   2.641   1.259   3.674  1.9228  1.5150 -1.1739
 8489SOL     OW37099   2.260   4.475   6.421 -0.3439  0.4743 -0.6388
 8489SOL    HW137100   2.229   4.551   6.469 -0.2817  0.2372 -0.2167
 8489SOL    HW237101   2.192   4.409   6.435 -1.5371  1.5753 -1.2796
 8490SOL     OW37102   0.534   4.581  17.720  0.0689  0.1161  0.2435
 8490SOL    HW137103   0.581   4.663  17.708 -1.2432  0.8175 -0.0862
 8490SOL    HW237104   0.543   4.568   0.051  2.2029  0.6658  0.1105
 8491SOL     OW37105   4.042   3.154  10.833 -0.7691 -0.2242  0.2923
 8491SOL    HW137106   4.003   3.098  10.900  3.7053 -1.7403  1.5807
 8491SOL    HW237107   3.964   3.195  10.796 -0.5013 -0.7706 -0.8475
 8492SOL     OW37108   0.686   2.971   2.761  0.1705  0.3313 -0.6849
 8492SOL    HW137109   0.634   2.898   2.729  0.5156  0.0062 -0.5042
 8492SOL    HW237110   0.751   2.983   2.692 -0.2648 -0.2326 -1.1891
 8493SOL     OW37111   3.711   4.543   9.425 -0.4290 -0.1306  0.3295
 8493SOL    HW137112   3.745   4.454   9.435  2.7538  1.0812  0.3337
 8493SOL    HW237113   3.726   4.550   9.331  1.9188  0.7978  0.7679
 8494SOL     OW37114   1.531   3.073   9.473 -0.1228  0.0974 -0.0855
 8494SOL    HW137115   1.472   3.062   9.398  0.0914 -4.6010  0.4700
 8494SOL    HW237116   1.606   3.019   9.448 -0.3588 -0.1799 -0.1922
 8495SOL     OW37117   4.683   4.284   4.670 -0.4706  0.9817  0.3869
 8495SOL    HW137118   4.713   4.207   4.717  2.1913  0.7232 -1.7282
 8495SOL    HW237119   4.639   4.323   4.745  0.4895  2.2678  0.2747
 8496SOL     OW37120   4.133   0.098   4.357 -0.3010 -0.8194  0.3219
 8496SOL    HW137121   4.117   0.139   4.273 -0.3302  0.9007  1.1681
 8496SOL    HW237122   4.212   0.048   4.337 -0.8315 -1.3845 -0.3449
 8497SOL     OW37123   1.008   3.571   3.547 -0.3540  0.2725 -0.4287
 8497SOL    HW137124   0.980   3.662   3.543  0.6486  0.5333 -1.4942
 8497SOL    HW237125   0.932   3.535   3.593  0.9866  0.3728  1.8287
 8498SOL     OW37126   0.057   1.573   5.079  0.2776 -0.3883  0.3072
 8498SOL    HW137127   0.036   1.564   5.172 -2.6846 -0.2648 -0.3704
 8498SOL    HW237128   0.131   1.632   5.091  0.1638 -0.5462  1.7772
 8499SOL     OW37129   0.445   3.313   2.779 -0.3130  0.6140 -0.1568
 8499SOL    HW137130   0.526   3.356   2.751  0.0050 -0.9363 -1.6538
 8499SOL    HW237131   0.401   3.396   2.799 -0.2750  0.6115 -0.0628
 8500SOL     OW37132   0.290   3.207   1.150  0.5608 -0.0933  0.4163
 8500SOL    HW137133   0.279   3.281   1.090 -1.2840  0.0630  0.9278
 8500SOL    HW237134   0.229   3.234   1.219 -0.7507 -1.9130 -0.0314
 8501SOL     OW37135   4.372   2.418   1.271  0.5163 -0.1715 -0.4412
 8501SOL    HW137136   4.414   2.499   1.301  2.2196 -0.7704 -1.2760
 8501SOL    HW237137   4.281   2.447   1.283  1.5240  1.9530  2.1696
 8502SOL     OW37138   4.575   0.458   5.924  0.3778  0.2686  0.3952
 8502SOL    HW137139   4.602   0.521   5.857  3.3962 -0.1998  1.1578
 8502SOL    HW237140   4.528   0.392   5.874  0.2093  0.4222  0.3511
 8503SOL     OW37141   1.558   1.292   4.376  0.0608 -0.2757  0.6071
 8503SOL    HW137142   1.520   1.250   4.298 -0.9582 -0.5412  1.2443
 8503SOL    HW237143   1.489   1.290   4.442 -0.1327  0.9948  0.4366
 8504SOL     OW37144   2.628   4.683   4.720 -0.0380 -0.8446 -0.1172
 8504SOL    HW137145   2.665   4.707   4.635 -0.2929  0.4226  0.1206
 8504SOL    HW237146   2.567   4.610   4.708  0.4263 -1.2357 -0.0545
 8505SOL     OW37147   2.640   2.126   8.820  0.2822  0.2784 -0.2812
 8505SOL    HW137148   2.642   2.129   8.724 -0.5889 -1.3083 -0.3480
 8505SOL    HW237149   2.606   2.037   8.831  2.0595 -0.2560  0.7788
 8506SOL     OW37150   3.888   4.601  17.697 -0.2496 -0.1699  0.2120
 8506SOL    HW137151   3.809   4.583  17.646 -1.1669  0.6326  1.3567
 8506SOL    HW237152   3.914   4.518  17.737 -0.8315 -0.3240  0.2731
 8507SOL     OW37153   1.410   1.367  15.339 -0.1499 -0.8541  0.7404
 8507SOL    HW137154   1.432   1.331  15.253  1.5846  1.8558  0.0240
 8507SOL    HW237155   1.418   1.462  15.325  2.6561 -1.3235 -0.8219
 8508SOL     OW37156   2.341   4.649   5.801 -0.4814  0.9779 -0.0951
 8508SOL    HW137157   2.269   4.688   5.750  0.8272  1.0310 -1.9054
 8508SOL    HW237158   2.313   4.690   5.883  2.5473  1.2167  0.8323
 8509SOL     OW37159   2.751   1.126   1.543 -0.4498 -0.7444  1.1360
 8509SOL    HW137160   2.828   1.182   1.543  1.0328 -2.7800  1.0450
 8509SOL    HW237161   2.703   1.157   1.467  1.2399  2.1725  1.2798
 8510SOL     OW37162   1.313   1.268   3.096  0.1153  0.0705 -0.8648
 8510SOL    HW137163   1.361   1.202   3.146  1.2246 -0.2909 -2.4170
 8510SOL    HW237164   1.272   1.305   3.174 -2.2727 -1.5945 -1.3382
 8511SOL     OW37165   0.295   4.127   7.278 -0.6572  0.7588  0.1099
 8511SOL    HW137166   0.388   4.121   7.299 -1.1524 -0.1478  1.9941
 8511SOL    HW237167   0.287   4.079   7.196 -0.7051 -1.2201  1.2819
 8512SOL     OW37168   3.186   1.331   6.181  0.2204  0.2473  0.1989
 8512SOL    HW137169   3.094   1.332   6.154  0.3043  4.2188 -0.0027
 8512SOL    HW237170   3.220   1.261   6.125 -1.2519 -0.8315  0.6434
 8513SOL     OW37171   3.762   4.052   5.022  0.0853 -0.2309  0.2895
 8513SOL    HW137172   3.677   4.060   5.066  0.2679  1.6821  0.2688
 8513SOL    HW237173   3.729   4.070   4.933 -1.3965  1.8183  1.2490
 8514SOL     OW37174   4.146   0.534  10.067 -0.8588 -0.3850  0.1845
 8514SOL    HW137175   4.137   0.485  10.149  1.4947 -1.4131 -0.1474
 8514SOL    HW237176   4.231   0.577  10.080 -0.0005 -2.0748  0.1739
 8515SOL     OW37177   2.695   0.748   7.986  0.2577 -0.0637 -0.4696
 8515SOL    HW137178   2.734   0.819   7.934 -1.8191  0.2682 -1.5641
 8515SOL    HW237179   2.648   0.696   7.921  2.1618 -1.3201 -0.8318
 8516SOL     OW37180   0.691   0.093  15.995  0.0092  0.2250 -0.3098
 8516SOL    HW137181   0.723   0.015  15.949 -0.3390 -0.0809 -0.0415
 8516SOL    HW237182   0.623   0.120  15.934 -0.3172 -0.7905 -0.4090
 8517SOL     OW37183   1.167   1.638   3.766  0.0394 -0.3357  0.6749
 8517SOL    HW137184   1.188   1.619   3.857 -0.3104 -1.3827  0.5367
 8517SOL    HW237185   1.254   1.642   3.726 -0.1157 -2.6735  0.1149
 8518SOL     OW37186   1.322   1.167   5.720  0.2469  0.4439  0.5887
 8518SOL    HW137187   1.363   1.250   5.700 -1.6515  1.2126 -0.1559
 8518SOL    HW237188   1.365   1.100   5.667 -0.0886 -0.1910  1.1206
 8519SOL     OW37189   1.882   1.885   7.229 -0.6960  0.2420  0.0368
 8519SOL    HW137190   1.878   1.825   7.155  3.3871  0.3562 -0.2209
 8519SOL    HW237191   1.971   1.880   7.262 -0.1113 -0.3200 -1.6761
 8520SOL     OW37192   2.528   1.731   5.655 -0.6641  0.5105 -0.1691
 8520SOL    HW137193   2.530   1.757   5.563 -2.8169 -1.4318 -0.7722
 8520SOL    HW237194   2.595   1.785   5.698 -0.7311  1.5371 -1.3621
 8521SOL     OW37195   3.387   0.759   0.289 -0.7400 -0.1399  0.5909
 8521SOL    HW137196   3.463   0.704   0.269 -0.1984  1.0241 -0.5538
 8521SOL    HW237197   3.355   0.767   0.199 -0.2110 -0.0912  0.4088
 8522SOL     OW37198   3.720   3.453   7.736 -0.9033 -0.5211  0.9843
 8522SOL    HW137199   3.640   3.417   7.774 -1.6591  0.8090  0.6808
 8522SOL    HW237200   3.781   3.383   7.758  1.5289  1.0536 -0.8003
 8523SOL     OW37201   1.252   0.849   6.132  0.0911 -0.1105  1.0513
 8523SOL    HW137202   1.174   0.898   6.153  0.2998  0.4833  0.4367
 8523SOL    HW237203   1.223   0.758   6.137  2.1667 -0.9628 -2.3812
 8524SOL     OW37204   3.973   2.072   5.515  0.1694  0.3900  0.3215
 8524SOL    HW137205   3.968   2.038   5.604 -1.7541  1.2322  0.5393
 8524SOL    HW237206   3.898   2.019   5.488 -0.5021  1.0812  0.8296
 8525SOL     OW37207   2.421   1.078  12.232  0.2036  0.1475  0.0398
 8525SOL    HW137208   2.462   1.160  12.203 -1.1763  1.4197  1.6684
 8525SOL    HW237209   2.358   1.113  12.295 -0.2206 -0.6155  0.0353
 8526SOL     OW37210   4.337   2.597   2.946 -0.1223 -0.0376  0.1914
 8526SOL    HW137211   4.269   2.630   2.888 -0.3025  2.1377  1.6407
 8526SOL    HW237212   4.412   2.647   2.912  0.0704 -0.8595 -0.6019
 8527SOL     OW37213   1.119   0.156  16.946 -0.2555 -0.4910  0.7602
 8527SOL    HW137214   1.043   0.165  17.005  1.5132  2.1507  2.6396
 8527SOL    HW237215   1.080   0.125  16.864 -2.0156  0.0355  1.3812
 8528SOL     OW37216   3.929   0.379   4.893  0.0716  0.1462  0.4689
 8528SOL    HW137217   3.897   0.365   4.982  0.0553 -1.9192  0.1564
 8528SOL    HW237218   4.010   0.428   4.909  0.9913 -0.8326 -1.0939
 8529SOL     OW37219   1.882   1.072   8.249  0.1443  0.0904 -0.1415
 8529SOL    HW137220   1.857   1.021   8.326  0.9432 -0.5255 -0.2897
 8529SOL    HW237221   1.795   1.104   8.223  0.5504  0.4745 -1.0333
 8530SOL     OW37222   3.334   3.467   2.164 -0.1099 -0.0575  0.6411
 8530SOL    HW137223   3.415   3.421   2.185  0.4322  1.8361  2.6686
 8530SOL    HW237224   3.271   3.397   2.147 -0.6875  0.4581  0.6109
 8531SOL     OW37225   2.627   3.599   5.958  0.6234 -0.3042 -0.5323
 8531SOL    HW137226   2.687   3.674   5.967 -0.5375  0.5209  0.3567
 8531SOL    HW237227   2.607   3.610   5.865  0.6870 -2.9886 -0.8480
 8532SOL     OW37228   2.323   1.248   7.339 -0.5267  0.1122  0.3149
 8532SOL    HW137229   2.401   1.194   7.355  0.4941  1.6503  0.5118
 8532SOL    HW237230   2.256   1.179   7.331 -0.5620  0.3345 -1.3148
 8533SOL     OW37231   0.399   2.250   0.171  0.4154 -0.5060 -0.2580
 8533SOL    HW137232   0.382   2.184   0.104  1.4411  0.7731 -1.7604
 8533SOL    HW237233   0.327   2.312   0.182 -0.4574 -1.3711 -1.0667
 8534SOL     OW37234   3.878   3.827   3.309  0.2511 -0.2538 -0.4987
 8534SOL    HW137235   3.798   3.880   3.312 -0.4101 -1.2943  0.3354
 8534SOL    HW237236   3.882   3.811   3.404  1.4820 -0.5022 -0.5867
 8535SOL     OW37237   4.414   1.045  17.189 -0.0827  0.6598  0.1462
 8535SOL    HW137238   4.432   1.114  17.125  1.2519  0.3933  0.2356
 8535SOL    HW237239   4.347   1.084  17.246 -0.8851  0.1591 -0.4581
 8536SOL     OW37240   1.520   2.747   3.978 -0.1949  1.0064 -0.0878
 8536SOL    HW137241   1.471   2.828   3.991 -1.4202  0.3641 -0.6937
 8536SOL    HW237242   1.603   2.780   4.010 -0.3154  0.3507  0.9150
 8537SOL     OW37243   1.913   3.893   8.708 -0.3077 -0.3118  0.0358
 8537SOL    HW137244   1.867   3.826   8.657  0.3832 -1.2265  0.6067
 8537SOL    HW237245   1.980   3.842   8.753 -1.4086 -1.1283  0.7447
 8538SOL     OW37246   0.115   4.512   2.521 -0.1722 -0.2285  0.2502
 8538SOL    HW137247   0.116   4.471   2.434  2.4205 -0.8645  0.5706
 8538SOL    HW237248   0.095   4.600   2.491 -0.5438 -1.2006 -2.4150
 8539SOL     OW37249   0.205   3.884   2.119  0.0893  0.1630  0.2558
 8539SOL    HW137250   0.272   3.940   2.080 -1.1900  0.5201 -1.4175
 8539SOL    HW237251   0.238   3.887   2.208 -2.0575 -3.1949  1.1687
 8540SOL     OW37252   3.307   0.062   6.113 -0.1905 -0.5175 -0.1985
 8540SOL    HW137253   3.335   0.073   6.204  0.0475 -2.7799 -0.0115
 8540SOL    HW237254   3.336   0.147   6.079  0.5894 -0.3687  0.8499
 8541SOL     OW37255   0.753   2.302   7.077  0.2732  0.4139  0.0301
 8541SOL    HW137256   0.713   2.290   6.991  0.5444  2.7744 -0.4364
 8541SOL    HW237257   0.846   2.283   7.069  0.2636  0.3854 -0.0113
 8542SOL     OW37258   3.677   1.603   6.015  0.4565  0.3594 -0.1562
 8542SOL    HW137259   3.593   1.557   6.010  0.0226  0.6105  4.0451
 8542SOL    HW237260   3.703   1.576   6.104  0.5910  3.5933  0.7922
 8543SOL     OW37261   4.610   1.649   3.343  0.1529 -0.1129 -0.2074
 8543SOL    HW137262   4.531   1.595   3.349  0.6169 -1.1474 -3.2467
 8543SOL    HW237263   4.574   1.737   3.331 -1.6212 -0.8391 -0.3080
 8544SOL     OW37264   4.016   1.307   1.366 -0.2076 -0.0148  0.0993
 8544SOL    HW137265   4.060   1.342   1.289 -0.4611  0.7889  0.3177
 8544SOL    HW237266   3.934   1.356   1.358 -0.2948  0.1423  1.9043
 8545SOL     OW37267   3.254   3.286   4.827 -0.8603 -0.0091 -0.3030
 8545SOL    HW137268   3.159   3.277   4.829 -0.9274  0.2867 -1.9255
 8545SOL    HW237269   3.281   3.197   4.853  0.5283  0.7542  0.9167
 8546SOL     OW37270   2.770   0.782   3.683  0.0634  0.6241  0.0877
 8546SOL    HW137271   2.786   0.865   3.728  1.1438  1.2680 -1.4793
 8546SOL    HW237272   2.688   0.754   3.723 -0.5252 -2.0999 -3.0256
 8547SOL     OW37273   1.163   0.722   1.765  0.1541  0.0114 -0.3463
 8547SOL    HW137274   1.121   0.803   1.737  2.3402  0.5288 -2.1750
 8547SOL    HW237275   1.245   0.718   1.715 -0.8464  1.1729 -2.1033
 8548SOL     OW37276   0.103   3.686   6.567  0.1079 -0.0917  0.2448
 8548SOL    HW137277   0.134   3.655   6.482 -0.6394 -1.0365  0.3113
 8548SOL    HW237278   0.068   3.602   6.597  0.9518 -0.1736  1.0167
 8549SOL     OW37279   3.107   1.161   8.919  0.1624  0.5418 -0.3455
 8549SOL    HW137280   3.053   1.089   8.887 -0.3502  1.6929 -2.0942
 8549SOL    HW237281   3.075   1.232   8.862 -4.2242 -0.6095  0.6269
 8550SOL     OW37282   3.575   3.314   4.958  0.0900 -0.0583  0.0801
 8550SOL    HW137283   3.636   3.385   4.977  1.2218 -1.1065  0.3410
 8550SOL    HW237284   3.497   3.334   5.009  1.1381  1.0513  1.2569
 8551SOL     OW37285   2.784   4.499   3.295 -0.0340 -0.2554 -0.5911
 8551SOL    HW137286   2.862   4.453   3.264  1.6811  1.5820  0.9647
 8551SOL    HW237287   2.760   4.558   3.224 -0.0912 -1.9871 -2.0094
 8552SOL     OW37288   0.941   0.576   3.895 -0.4720 -0.4572  0.6118
 8552SOL    HW137289   1.000   0.507   3.864  2.2219  2.2204 -0.2846
 8552SOL    HW237290   0.937   0.639   3.824  1.6947 -0.0708  0.8300
 8553SOL     OW37291   3.328   1.586   1.823  0.4392 -0.1382 -0.1510
 8553SOL    HW137292   3.260   1.533   1.865 -1.5228  2.0430 -0.6081
 8553SOL    HW237293   3.269   1.644   1.775  0.7481 -0.9361 -1.5241
 8554SOL     OW37294   2.178   1.190  13.423  0.4672  0.7618 -0.3940
 8554SOL    HW137295   2.224   1.127  13.479 -0.1528 -1.3640 -2.2554
 8554SOL    HW237296   2.092   1.150  13.410  0.7137 -0.2456  1.0117
 8555SOL     OW37297   1.851   2.312   9.893  0.1981 -0.0422  0.1390
 8555SOL    HW137298   1.773   2.365   9.910 -0.4158 -0.4118 -1.5629
 8555SOL    HW237299   1.914   2.383   9.878  0.0100  0.3614  1.2381
 8556SOL     OW37300   1.891   3.764   2.902 -0.0572 -0.6113  0.4374
 8556SOL    HW137301   1.881   3.845   2.851 -1.0461 -1.2463 -0.3715
 8556SOL    HW237302   1.815   3.718   2.868 -1.5095  1.4714  0.8508
 8557SOL     OW37303   2.048   0.654   5.169  0.0788  0.6412 -0.1809
 8557SOL    HW137304   1.983   0.683   5.105  0.4545 -0.2779 -0.9677
 8557SOL    HW237305   2.120   0.718   5.162  0.7961 -0.4078 -2.2110
 8558SOL     OW37306   1.495   2.139   8.773 -0.1532  0.2816  0.2700
 8558SOL    HW137307   1.576   2.138   8.825 -1.3180 -2.5643  2.0210
 8558SOL    HW237308   1.431   2.097   8.830  0.0028  1.4373  1.2804
 8559SOL     OW37309   1.399   1.273   7.671 -0.0908  0.8015  0.5563
 8559SOL    HW137310   1.355   1.225   7.601  1.0898 -0.0254  0.3777
 8559SOL    HW237311   1.379   1.362   7.644  1.7328  1.0086 -0.1104
 8560SOL     OW37312   3.611   1.724   3.190 -0.6892  0.1051 -0.3403
 8560SOL    HW137313   3.664   1.749   3.114  0.9950 -2.7337 -0.0785
 8560SOL    HW237314   3.618   1.800   3.248  0.3775 -1.1343  1.1359
 8561SOL     OW37315   3.641   2.738  14.576 -0.6810  0.1894 -0.2548
 8561SOL    HW137316   3.691   2.719  14.497 -2.5045  2.9911 -2.0788
 8561SOL    HW237317   3.676   2.821  14.607  2.7624 -0.9404 -1.1424
 8562SOL     OW37318   3.158   4.231   3.985  0.5798  0.4724 -0.1892
 8562SOL    HW137319   3.141   4.238   4.079 -3.5035 -1.2157 -0.7997
 8562SOL    HW237320   3.086   4.169   3.975 -1.9863  3.0310  2.4176
 8563SOL     OW37321   0.440   2.315   9.354  0.6947 -0.6304 -0.2699
 8563SOL    HW137322   0.422   2.248   9.289 -1.2983  0.3913 -0.7719
 8563SOL    HW237323   0.416   2.389   9.298 -1.1339 -1.0386 -0.0290
 8564SOL     OW37324   2.092   2.934   5.524 -0.4532 -0.1804 -0.5127
 8564SOL    HW137325   2.008   2.953   5.484 -0.4694 -2.2890 -1.4867
 8564SOL    HW237326   2.080   2.842   5.549  1.1781  0.4184  2.5674
 8565SOL     OW37327   0.140   0.353   3.024  0.1502 -0.4711 -0.2469
 8565SOL    HW137328   0.054   0.393   3.017 -1.4044 -3.4057  2.0247
 8565SOL    HW237329   0.173   0.380   3.109 -0.4594  0.4203 -0.2956
 8566SOL     OW37330   1.847   2.763   3.008  0.2866 -0.0450  0.0568
 8566SOL    HW137331   1.769   2.817   3.020 -1.5004 -3.1085  2.3695
 8566SOL    HW237332   1.920   2.818   3.039 -1.2376  1.2250  1.3798
 8567SOL     OW37333   2.936   4.220   9.534 -0.5117 -0.8914 -0.0219
 8567SOL    HW137334   2.842   4.227   9.517 -1.0795 -0.7619  3.1613
 8567SOL    HW237335   2.964   4.198   9.445  1.7214 -0.8447  0.6738
 8568SOL     OW37336   1.938   0.795   8.643  0.2130 -0.2029 -0.0901
 8568SOL    HW137337   1.857   0.817   8.597 -0.6847 -1.3891  0.9095
 8568SOL    HW237338   1.908   0.788   8.734  1.8752  0.9703  0.5480
 8569SOL     OW37339   2.293   1.099   4.961 -0.1119  0.1381 -0.1391
 8569SOL    HW137340   2.252   1.059   5.038  1.3486 -0.6186  0.2331
 8569SOL    HW237341   2.348   1.030   4.925  0.5178  0.6478 -0.1600
 8570SOL     OW37342   0.451   1.509   1.582 -0.1901 -0.3635  0.1508
 8570SOL    HW137343   0.521   1.490   1.520 -0.7088 -1.5920 -0.0648
 8570SOL    HW237344   0.373   1.478   1.536  0.2238 -2.5673  0.9498
 8571SOL     OW37345   0.179   4.259   5.210 -0.2668  0.5437  0.0513
 8571SOL    HW137346   0.180   4.168   5.239 -0.7386  0.2445 -0.8470
 8571SOL    HW237347   0.254   4.261   5.151 -1.0566  0.2119 -0.9722
 8572SOL     OW37348   4.138   1.433   5.910 -0.5619 -0.1490  0.5657
 8572SOL    HW137349   4.065   1.400   5.858 -1.0493  0.2053  1.0274
 8572SOL    HW237350   4.213   1.398   5.862  0.1921  0.9604  0.9229
 8573SOL     OW37351   1.676   1.404   0.645  0.2617  0.2822  0.1988
 8573SOL    HW137352   1.756   1.386   0.693  0.1998 -1.1656 -0.2292
 8573SOL    HW237353   1.714   1.412   0.557 -3.7604 -1.3639 -1.7184
 8574SOL     OW37354   1.939   1.626   8.991  0.1167  0.3659 -0.1801
 8574SOL    HW137355   1.914   1.574   9.067  0.3387 -1.7804 -1.5719
 8574SOL    HW237356   1.922   1.715   9.019 -1.4521  0.1572 -0.4790
 8575SOL     OW37357   3.434   1.166   5.857  0.2521  0.7514 -0.9058
 8575SOL    HW137358   3.462   1.121   5.937 -2.0159 -0.7427 -0.9283
 8575SOL    HW237359   3.360   1.114   5.825  1.0898 -0.6283 -0.6444
 8576SOL     OW37360   3.944   0.798   8.668 -0.0730 -0.0704  0.0762
 8576SOL    HW137361   3.855   0.831   8.679 -0.4882 -2.0988  2.8254
 8576SOL    HW237362   3.939   0.716   8.718 -3.3756 -0.2603 -0.5752
 8577SOL     OW37363   2.084   4.452   1.935 -0.3181  0.6357 -0.2444
 8577SOL    HW137364   2.038   4.369   1.926 -0.0057  0.6390 -1.7374
 8577SOL    HW237365   2.018   4.493   1.991 -0.7247  0.1058 -0.3382
 8578SOL     OW37366   2.336   0.357   1.920 -0.2952 -0.1248 -0.2507
 8578SOL    HW137367   2.364   0.448   1.912 -0.0312 -0.4380 -2.7285
 8578SOL    HW237368   2.385   0.315   1.850  1.7850 -0.2733  1.3159
 8579SOL     OW37369   4.659   2.774   5.386 -0.3295 -0.1531 -0.1418
 8579SOL    HW137370   4.662   2.688   5.429 -1.2644 -0.2118 -0.2002
 8579SOL    HW237371   4.604   2.817   5.451  1.1935 -1.6900  2.1495
 8580SOL     OW37372   0.652   0.075   1.381 -0.0398 -0.1298  0.6819
 8580SOL    HW137373   0.643   4.727   1.347  1.9331  0.5021 -1.5277
 8580SOL    HW237374   0.744   0.095   1.369  0.2864 -3.4764 -2.5323
 8581SOL     OW37375   0.744   0.489   0.668  0.0094  0.0991 -0.3285
 8581SOL    HW137376   0.669   0.536   0.632  0.5247  2.0305  1.1030
 8581SOL    HW237377   0.805   0.562   0.658  0.1398  0.0584  0.1617
 8582SOL     OW37378   1.668   3.551   4.082  0.5965  0.4962 -0.4448
 8582SOL    HW137379   1.734   3.521   4.019  2.8465  1.9797  1.2621
 8582SOL    HW237380   1.722   3.552   4.160  1.8567  0.6439 -1.3187
 8583SOL     OW37381   0.693   3.410   5.728 -0.0198  0.7580 -0.0280
 8583SOL    HW137382   0.755   3.473   5.764  0.8846  0.4060 -0.9637
 8583SOL    HW237383   0.716   3.419   5.635  3.0831 -0.3350  0.6600
 8584SOL     OW37384   4.169   2.774   5.282 -0.2026 -0.4417 -0.4717
 8584SOL    HW137385   4.096   2.737   5.233  0.1511 -0.4172 -1.0163
 8584SOL    HW237386   4.227   2.699   5.292 -1.7026 -1.4855  0.3594
 8585SOL     OW37387   2.046   3.949   3.510 -0.3644 -0.1082  0.3044
 8585SOL    HW137388   2.034   3.885   3.580 -3.1067  0.1610  0.0812
 8585SOL    HW237389   1.998   3.914   3.435 -0.2782 -0.1491  0.2686
 8586SOL     OW37390   3.538   0.859  11.825 -0.2592 -0.1564 -0.4291
 8586SOL    HW137391   3.627   0.892  11.819  0.8704 -2.7665  1.9096
 8586SOL    HW237392   3.495   0.886  11.744  0.5041 -2.5377 -1.6259
 8587SOL     OW37393   0.769   4.723   2.512  0.0988  0.1230 -0.2850
 8587SOL    HW137394   0.817   0.028   2.581  1.3353 -0.0040 -1.0662
 8587SOL    HW237395   0.705   0.051   2.497 -0.0776 -0.7966 -3.7844
 8588SOL     OW37396   3.383   1.094   3.294  0.0807 -0.1440 -0.0620
 8588SOL    HW137397   3.403   1.106   3.387  1.6578 -0.3710 -0.3742
 8588SOL    HW237398   3.427   1.173   3.262  2.4495 -0.2542  2.8763
 8589SOL     OW37399   3.287   3.637   7.451 -0.7126  0.1400 -0.0079
 8589SOL    HW137400   3.356   3.643   7.516 -0.7379 -1.9326  0.2149
 8589SOL    HW237401   3.289   3.722   7.407  0.2299  0.1287  0.0059
 8590SOL     OW37402   1.579   3.470   4.416  0.0292 -0.3852  0.4019
 8590SOL    HW137403   1.520   3.400   4.387 -2.2925  1.4958  0.6166
 8590SOL    HW237404   1.535   3.495   4.496  1.5096 -1.5564  1.5916
 8591SOL     OW37405   2.726   0.773   6.059 -0.1811  0.3365  0.3219
 8591SOL    HW137406   2.736   0.865   6.081  0.3909  0.0977  1.0524
 8591SOL    HW237407   2.643   0.747   6.100  0.2724  0.3295  1.2048
 8592SOL     OW37408   2.813   1.606   2.035 -0.2233  0.2161  0.3187
 8592SOL    HW137409   2.863   1.684   2.012  0.3216  0.0670  0.9812
 8592SOL    HW237410   2.724   1.627   2.006 -0.0610 -0.4453 -0.6359
 8593SOL     OW37411   4.653   0.866  13.676 -0.1229  0.1170 -0.3327
 8593SOL    HW137412   4.658   0.774  13.652 -2.3436 -0.1913  0.3783
 8593SOL    HW237413   4.664   0.861  13.771 -2.1412  0.7947 -0.0473
 8594SOL     OW37414   2.918   2.648   4.065  0.2161 -0.2847  0.0121
 8594SOL    HW137415   2.833   2.663   4.107  0.0878 -0.8308 -0.0509
 8594SOL    HW237416   2.896   2.674   3.976 -4.0495  0.2042  1.1864
 8595SOL     OW37417   4.348   0.529   1.617  0.2700  0.1714  0.2422
 8595SOL    HW137418   4.287   0.504   1.687 -0.0788 -0.9813 -0.4699
 8595SOL    HW237419   4.400   0.592   1.666 -0.4266  1.5711 -0.8190
 8596SOL     OW37420   4.645   0.862  12.813  0.2617  0.5090  0.3927
 8596SOL    HW137421   4.550   0.850  12.817  0.3285 -0.5737 -0.9973
 8596SOL    HW237422   4.660   0.947  12.772  0.3316  0.1138 -0.4248
 8597SOL     OW37423   3.750   3.120   4.058  0.2637 -0.0716 -0.5842
 8597SOL    HW137424   3.784   3.076   4.136  1.8272  0.1059 -1.1675
 8597SOL    HW237425   3.767   3.212   4.075  3.4675 -0.5068 -1.4548
 8598SOL     OW37426   1.264   2.090  17.564 -0.2228 -0.1536  0.1081
 8598SOL    HW137427   1.230   2.140  17.490 -2.0854 -0.4381  0.7716
 8598SOL    HW237428   1.218   2.007  17.557  1.0278 -0.9751  1.4945
 8599SOL     OW37429   2.293   4.663  10.841  0.0936 -0.1639 -0.2201
 8599SOL    HW137430   2.314   4.570  10.837  4.3437  0.8479 -1.2845
 8599SOL    HW237431   2.287   4.676  10.746 -1.4097 -0.1696 -0.1201
 8600SOL     OW37432   3.991   1.239   3.169 -0.3497  0.1707  0.8734
 8600SOL    HW137433   3.968   1.191   3.090 -0.1886  1.1765  0.2236
 8600SOL    HW237434   4.044   1.175   3.216  0.6817  0.7715  0.5260
 8601SOL     OW37435   0.418   3.835   4.021 -0.0380 -0.3991  0.5053
 8601SOL    HW137436   0.353   3.767   4.043 -0.8133  0.4824  0.9595
 8601SOL    HW237437   0.435   3.890   4.097 -1.3864 -0.4226  0.8346
 8602SOL     OW37438   3.308   0.282   6.747 -0.2293 -0.1440  0.1007
 8602SOL    HW137439   3.382   0.222   6.739 -0.9712 -0.6329 -2.9692
 8602SOL    HW237440   3.232   0.234   6.713  0.4560 -1.4824  0.4541
 8603SOL     OW37441   4.086   0.188   7.633  0.3015  0.6520 -0.5203
 8603SOL    HW137442   4.023   0.175   7.704 -0.5175  0.5482 -1.2734
 8603SOL    HW237443   4.167   0.225   7.669 -1.4091  1.4779  2.4597
 8604SOL     OW37444   4.617   2.559  12.843 -0.2961 -0.0505  0.1792
 8604SOL    HW137445   4.532   2.597  12.866  0.8363  2.8172 -0.4381
 8604SOL    HW237446   4.656   2.519  12.921 -0.7480  0.4983  0.6887
 8605SOL     OW37447   4.492   1.802   8.870 -0.5172  0.3958  0.0504
 8605SOL    HW137448   4.545   1.791   8.790 -1.4417  0.2609 -0.5363
 8605SOL    HW237449   4.412   1.843   8.839 -1.5870 -1.4564  0.3232
 8606SOL     OW37450   0.414   1.695   7.017 -0.3648  0.0977 -0.0724
 8606SOL    HW137451   0.381   1.666   6.932  0.3699  1.0577 -0.6814
 8606SOL    HW237452   0.352   1.762   7.045 -1.6344 -1.2478  0.3209
 8607SOL     OW37453   2.549   2.282   3.339  0.2244  0.1677 -0.2856
 8607SOL    HW137454   2.621   2.323   3.387 -0.1835 -0.4145  0.8139
 8607SOL    HW237455   2.577   2.281   3.247 -0.6289 -0.3195 -0.5423
 8608SOL     OW37456   1.945   2.875  10.430 -0.0586  0.1222 -0.2410
 8608SOL    HW137457   1.889   2.908  10.500 -2.2777  0.7946 -2.3064
 8608SOL    HW237458   1.880   2.872  10.359 -1.8594  2.1460  1.3389
 8609SOL     OW37459   4.197   2.217   4.898  0.3509 -0.7998  0.6508
 8609SOL    HW137460   4.236   2.195   4.814  2.9388  1.9640  1.1405
 8609SOL    HW237461   4.239   2.302   4.910 -0.2416 -0.7653  2.4759
 8610SOL     OW37462   1.597   4.705   4.402 -1.1248  0.3692 -0.1467
 8610SOL    HW137463   1.502   4.717   4.403 -1.2510 -0.6760  0.9053
 8610SOL    HW237464   1.605   4.687   4.496 -2.7818  1.4930  0.2143
 8611SOL     OW37465   0.436   2.409   8.262 -0.2392 -0.0599  0.4985
 8611SOL    HW137466   0.480   2.440   8.341 -0.9035 -1.2113  1.3035
 8611SOL    HW237467   0.496   2.347   8.220 -1.5933 -1.8002  1.1669
 8612SOL     OW37468   1.474   0.097   5.199 -0.3818 -0.0274 -0.3386
 8612SOL    HW137469   1.549   0.142   5.238  0.2947 -2.0176  0.6829
 8612SOL    HW237470   1.484   0.011   5.240 -2.3786 -0.0808  0.0536
 8613SOL     OW37471   2.397   1.760   7.286  0.4158  0.0976 -0.0615
 8613SOL    HW137472   2.455   1.824   7.245  0.3571 -1.1027 -2.0483
 8613SOL    HW237473   2.373   1.702   7.213  0.5427 -1.6640  1.2833
 8614SOL     OW37474   1.110   3.615   9.937  0.1455 -0.3509 -0.4017
 8614SOL    HW137475   1.121   3.528   9.974 -1.5883  0.2483  1.4947
 8614SOL    HW237476   1.202   3.638   9.921 -0.7527  1.8312 -2.5425
 8615SOL     OW37477   0.314   4.002  10.239  0.0537  0.3180 -0.7102
 8615SOL    HW137478   0.313   4.003  10.144  2.3260 -0.9241 -0.7429
 8615SOL    HW237479   0.396   4.037  10.274 -0.2977 -0.5563  0.9791
 8616SOL     OW37480   2.322   4.325   1.157  0.2421 -0.1504 -0.4157
 8616SOL    HW137481   2.352   4.246   1.113 -2.1937 -0.9635 -0.5709
 8616SOL    HW237482   2.299   4.279   1.238  0.9853  0.0723 -0.0760
 8617SOL     OW37483   3.655   0.140   0.424 -0.4244 -0.1287  0.1437
 8617SOL    HW137484   3.668   0.173   0.335 -0.9738  2.2092  0.9500
 8617SOL    HW237485   3.742   0.114   0.453  0.9832  3.6504 -0.7413
 8618SOL     OW37486   1.569   2.162   4.124 -0.1305  0.0865 -0.2580
 8618SOL    HW137487   1.496   2.166   4.063 -0.7294  1.2504  0.5489
 8618SOL    HW237488   1.600   2.252   4.120  1.4987 -0.5501 -2.1604
 8619SOL     OW37489   0.300   3.540  10.367  0.8319  0.1728  0.5289
 8619SOL    HW137490   0.249   3.496  10.435 -2.5142 -0.7907 -2.6764
 8619SOL    HW237491   0.284   3.634  10.374 -1.1487 -0.0382 -1.3367
 8620SOL     OW37492   2.879   4.360  17.304 -0.1693  0.3783 -0.3736
 8620SOL    HW137493   2.947   4.370  17.237 -2.4405 -0.3004 -2.7881
 8620SOL    HW237494   2.806   4.384  17.246  1.0265 -0.2328 -2.1433
 8621SOL     OW37495   2.627   3.992   8.740  0.0087 -0.1982  0.0180
 8621SOL    HW137496   2.682   4.070   8.734 -1.3143  0.8398  1.3076
 8621SOL    HW237497   2.695   3.928   8.716 -0.3879 -0.4610 -0.3837
 8622SOL     OW37498   3.772   4.155   3.002  0.5349  0.2514 -0.5207
 8622SOL    HW137499   3.779   4.232   3.060 -0.6042  0.5413 -0.7585
 8622SOL    HW237500   3.811   4.190   2.922  1.4825 -0.3338 -0.3075
 8623SOL     OW37501   2.680   0.708  17.680  0.0636 -0.1428 -0.2370
 8623SOL    HW137502   2.730   0.696  17.760 -1.1816 -0.0256  0.5507
 8623SOL    HW237503   2.735   0.758  17.619  0.3070 -2.5257 -1.9650
 8624SOL     OW37504   2.392   1.672   9.459  0.9469  0.1910 -0.5504
 8624SOL    HW137505   2.382   1.587   9.502  0.6369 -1.3329 -3.6577
 8624SOL    HW237506   2.442   1.723   9.522 -0.3053 -1.4197  1.7591
 8625SOL     OW37507   2.663   2.926   2.941  0.6745 -0.2966  0.7847
 8625SOL    HW137508   2.754   2.951   2.957  1.0094 -1.4979  0.7541
 8625SOL    HW237509   2.663   2.916   2.846 -1.0710  0.8405  0.6592
 8626SOL     OW37510   0.366   1.874   9.820  0.7166  0.2170 -0.2217
 8626SOL    HW137511   0.287   1.859   9.769 -0.3036 -1.0476  1.7439
 8626SOL    HW237512   0.347   1.821   9.898 -0.9632  1.0268 -0.0798
 8627SOL     OW37513   4.530   0.226   7.029  0.1169 -0.2764  0.3967
 8627SOL    HW137514   4.607   0.169   7.023  1.1816  1.2689 -0.8339
 8627SOL    HW237515   4.510   0.208   7.120 -2.1232  0.4562  0.0388
 8628SOL     OW37516   3.323   0.909   8.848  0.0684 -0.1870  0.0792
 8628SOL    HW137517   3.371   0.971   8.902 -1.4878  0.5381  0.6260
 8628SOL    HW237518   3.358   0.826   8.882 -1.1021 -1.5484 -2.0311
 8629SOL     OW37519   0.258   0.206   5.940 -0.2652  0.1210 -0.6496
 8629SOL    HW137520   0.171   0.197   5.977  0.3167  0.0759  0.6912
 8629SOL    HW237521   0.257   0.294   5.901  0.7244  0.7193  0.6851
 8630SOL     OW37522   3.769   1.620   3.395 -0.5585  0.1105  0.3278
 8630SOL    HW137523   3.712   1.641   3.321 -0.6227  0.4166  0.4634
 8630SOL    HW237524   3.713   1.628   3.473 -0.3380 -0.9745  0.5916
 8631SOL     OW37525   1.456   0.709  14.406 -0.6612 -0.6136 -0.0589
 8631SOL    HW137526   1.361   0.714  14.395 -0.3313  3.6899 -1.0709
 8631SOL    HW237527   1.450   0.679  14.497 -1.9204  0.2849  0.1514
 8632SOL     OW37528   0.377   3.100   6.300  0.0534  0.2623 -0.0406
 8632SOL    HW137529   0.406   3.163   6.366  1.0346  1.6903 -1.8385
 8632SOL    HW237530   0.457   3.067   6.260  0.9782  0.2134  1.8563
 8633SOL     OW37531   4.363   0.078   0.568 -0.2937  0.5374 -0.0284
 8633SOL    HW137532   4.355   0.050   0.477 -2.0220 -1.3216  0.6726
 8633SOL    HW237533   4.305   0.154   0.567  0.1176  0.8421 -0.5227
 8634SOL     OW37534   4.155   0.479   7.783  0.0179 -0.2950  0.0416
 8634SOL    HW137535   4.249   0.463   7.794 -0.0177 -0.5265 -0.0061
 8634SOL    HW237536   4.138   0.557   7.836  2.2734  1.4449 -1.7713
 8635SOL     OW37537   1.497   2.104   2.449 -0.2013 -0.2248  0.0178
 8635SOL    HW137538   1.490   2.119   2.355  0.8243  2.4912  0.3603
 8635SOL    HW237539   1.403   2.098   2.467  0.1360  0.4030  2.0287
 8636SOL     OW37540   0.515   1.843   3.817  0.1150  0.1049 -0.3029
 8636SOL    HW137541   0.600   1.832   3.860  0.6494  0.2247 -1.3316
 8636SOL    HW237542   0.456   1.865   3.889 -1.8674 -1.7102 -1.3693
 8637SOL     OW37543   4.084   4.372   3.731  0.4687 -0.1866 -0.0913
 8637SOL    HW137544   4.004   4.365   3.678 -0.8080 -0.4821  1.9100
 8637SOL    HW237545   4.097   4.280   3.752  2.2260 -0.1425 -0.8949
 8638SOL     OW37546   1.129   3.114   7.310  0.0019  0.2020 -0.7736
 8638SOL    HW137547   1.164   3.093   7.224  0.9521 -0.5292 -0.2046
 8638SOL    HW237548   1.109   3.032   7.353  2.1762 -0.4655 -1.0195
 8639SOL     OW37549   2.765   3.594   0.825  0.1983 -0.0405  0.0862
 8639SOL    HW137550   2.762   3.686   0.797  1.8609  0.1939  0.6426
 8639SOL    HW237551   2.826   3.602   0.899  0.0797 -0.8950  0.2764
 8640SOL     OW37552   1.849   4.629   3.494  0.5395  0.1208  0.5047
 8640SOL    HW137553   1.943   4.622   3.480 -0.0036 -0.1561 -2.8853
 8640SOL    HW237554   1.808   4.601   3.412  0.7120 -2.3216  1.2487
 8641SOL     OW37555   2.105   2.517  14.203 -0.4673 -0.0629 -0.0589
 8641SOL    HW137556   2.146   2.433  14.224 -0.2543 -0.1128 -0.6628
 8641SOL    HW237557   2.020   2.501  14.245  0.6875 -0.8547  1.9717
 8642SOL     OW37558   4.347   1.923   5.574  0.2651 -0.6476 -0.6266
 8642SOL    HW137559   4.372   1.866   5.647  1.8715  0.2534 -0.4810
 8642SOL    HW237560   4.312   1.857   5.513 -3.4850 -0.4853  1.3599
 8643SOL     OW37561   0.105   3.079   7.581 -0.1634 -0.0778 -0.5039
 8643SOL    HW137562   0.112   3.160   7.632  0.1678  0.7061 -1.7922
 8643SOL    HW237563   0.019   3.098   7.544  0.7916  0.3829 -2.5074
 8644SOL     OW37564   0.617   1.165   6.647  0.1851  0.4509  0.2907
 8644SOL    HW137565   0.637   1.084   6.600 -0.5443 -0.5739  1.7592
 8644SOL    HW237566   0.693   1.221   6.629 -0.1271  1.0666  0.8599
 8645SOL     OW37567   3.753   4.687   4.952  0.0811  0.6546 -0.2400
 8645SOL    HW137568   3.803   4.619   4.997  1.0095  1.5249  0.0283
 8645SOL    HW237569   3.736   0.006   5.023  1.0303  1.1324 -0.4256
 8646SOL     OW37570   2.606   1.076  13.271 -0.3700 -0.0385  0.1311
 8646SOL    HW137571   2.546   1.150  13.284  1.1710  1.2600 -0.1191
 8646SOL    HW237572   2.691   1.120  13.277 -0.7758  0.6004  1.1741
 8647SOL     OW37573   1.813   0.643   9.357 -0.0749 -0.4574  0.6439
 8647SOL    HW137574   1.728   0.676   9.330  2.1046  2.8302 -2.1496
 8647SOL    HW237575   1.794   0.555   9.390 -1.2732 -1.2193 -2.0083
 8648SOL     OW37576   4.116   4.024  13.612  0.6446  0.3633 -0.0033
 8648SOL    HW137577   4.162   3.945  13.584 -1.6044 -0.8385 -0.3328
 8648SOL    HW237578   4.161   4.050  13.692  0.5456  0.9729 -0.1459
 8649SOL     OW37579   3.009   1.064   6.823  0.0701 -0.1893  0.0492
 8649SOL    HW137580   3.086   1.092   6.874  1.3954 -0.7026 -1.6768
 8649SOL    HW237581   2.956   1.144   6.820 -1.3250 -1.0846  0.7534
 8650SOL     OW37582   1.212   4.065  15.805 -0.6315  0.2553 -0.5359
 8650SOL    HW137583   1.281   4.126  15.781  0.3074 -0.2529  0.8520
 8650SOL    HW237584   1.261   3.983  15.812 -0.9489 -0.1773 -3.2550
 8651SOL     OW37585   0.101   4.281  10.679 -0.2701 -0.4076 -0.3120
 8651SOL    HW137586   0.101   4.237  10.594  1.0725  0.2397 -0.6328
 8651SOL    HW237587   0.016   4.326  10.675 -1.2863 -2.4044 -1.3757
 8652SOL     OW37588   3.261   4.375   4.334  0.2498  0.4211  0.6971
 8652SOL    HW137589   3.311   4.297   4.312 -1.2659 -0.4853  0.4968
 8652SOL    HW237590   3.177   4.334   4.356  0.2551  0.4262  0.7280
 8653SOL     OW37591   0.900   2.888   6.950  0.4995  0.8087 -0.4912
 8653SOL    HW137592   0.973   2.914   6.893 -0.0573  3.1044 -0.1524
 8653SOL    HW237593   0.900   2.955   7.018 -0.4228 -1.3317  1.6304
 8654SOL     OW37594   3.180   0.359  10.152 -0.2284 -0.0804  0.6787
 8654SOL    HW137595   3.174   0.270  10.117 -0.0487 -1.0460  3.1263
 8654SOL    HW237596   3.191   0.348  10.247  1.7084 -1.0183  0.3436
 8655SOL     OW37597   1.954   4.077   0.315 -0.5477 -0.2160 -1.0671
 8655SOL    HW137598   1.898   4.006   0.282 -1.0221 -0.9192  1.2266
 8655SOL    HW237599   1.894   4.126   0.371 -0.2672 -0.0646 -0.8994
 8656SOL     OW37600   0.080   4.340   7.764  0.5165  0.1649 -0.8227
 8656SOL    HW137601   0.171   4.323   7.788  0.7624 -1.0711 -2.5921
 8656SOL    HW237602   0.088   4.309   7.673  2.7977  1.4906 -1.0635
 8657SOL     OW37603   2.999   3.656   9.591 -0.5659 -0.0208  0.2385
 8657SOL    HW137604   3.034   3.743   9.611 -0.6351  0.2721 -0.9461
 8657SOL    HW237605   2.953   3.669   9.509  0.4643 -1.0557 -0.4916
 8658SOL     OW37606   4.052   3.754   0.967 -0.2704  0.2989  0.0005
 8658SOL    HW137607   4.142   3.724   0.977 -0.5725 -0.1535  1.3421
 8658SOL    HW237608   4.069   3.816   0.897  3.4717  0.2120  0.8429
 8659SOL     OW37609   4.636   4.129   7.759  0.6186  0.5662 -0.0632
 8659SOL    HW137610   4.588   4.168   7.687 -0.2705 -0.9895 -0.3131
 8659SOL    HW237611   4.679   4.209   7.789  0.8658  0.7583 -0.9474
 8660SOL     OW37612   0.342   2.807   7.851  0.2311  0.3604  0.0390
 8660SOL    HW137613   0.390   2.887   7.871  1.0065  0.4028 -1.9920
 8660SOL    HW237614   0.357   2.743   7.920  0.5759  0.0743 -0.3089
 8661SOL     OW37615   2.921   4.449  17.035  0.3388 -0.3867 -0.3371
 8661SOL    HW137616   2.883   4.417  16.953 -0.7650  1.6168 -0.6191
 8661SOL    HW237617   2.977   4.375  17.057 -0.3142 -1.3814 -2.0149
 8662SOL     OW37618   4.636   4.618   5.220  0.5320  0.3843 -0.2205
 8662SOL    HW137619   4.554   4.635   5.267 -0.0864  3.2451 -2.3613
 8662SOL    HW237620   4.660   4.535   5.261  1.8239  1.1310  0.5328
 8663SOL     OW37621   1.199   1.623  16.000  0.5163 -0.2328  0.1812
 8663SOL    HW137622   1.148   1.686  16.050 -1.2065 -0.8800 -0.7360
 8663SOL    HW237623   1.184   1.666  15.916 -1.1737 -1.5380 -0.1943
 8664SOL     OW37624   4.491   3.328   6.609 -0.1357  0.5516  0.1645
 8664SOL    HW137625   4.506   3.343   6.516  2.8188  0.2646  0.5726
 8664SOL    HW237626   4.553   3.394   6.640 -0.2439  0.5434  0.3983
 8665SOL     OW37627   0.809   4.613   4.235  0.4749  0.6473 -0.7006
 8665SOL    HW137628   0.759   4.612   4.316  2.3473  2.5444  0.4714
 8665SOL    HW237629   0.792   4.524   4.204  0.9017  0.3994 -0.2169
 8666SOL     OW37630   2.670   4.429   9.945 -0.0406 -0.7220 -1.1073
 8666SOL    HW137631   2.747   4.388   9.985  1.0832 -1.6968 -4.2588
 8666SOL    HW237632   2.619   4.349   9.951 -1.8063  0.4601 -0.5517
 8667SOL     OW37633   1.894   0.739  11.787  1.0863 -0.5016  0.2425
 8667SOL    HW137634   1.921   0.694  11.867  0.0582 -0.7343  0.4521
 8667SOL    HW237635   1.922   0.827  11.813 -0.9257  0.1260  0.2726
 8668SOL     OW37636   4.323   2.931   0.663 -0.1580 -0.2791 -0.2973
 8668SOL    HW137637   4.273   2.960   0.587  1.1887  0.4975 -0.8821
 8668SOL    HW237638   4.352   2.842   0.646 -0.8665 -0.4780 -0.4323
 8669SOL     OW37639   4.188   0.287   0.555 -0.7068  0.2035  0.1976
 8669SOL    HW137640   4.122   0.266   0.488 -0.1528 -1.5327  0.2117
 8669SOL    HW237641   4.193   0.382   0.539  0.5565  0.1599  0.3997
 8670SOL     OW37642   2.986   0.168   3.811 -0.2747 -0.5238  0.1062
 8670SOL    HW137643   2.933   0.153   3.733  0.4729 -4.5739  0.4001
 8670SOL    HW237644   2.923   0.206   3.872  0.7570  1.7725 -0.2491
 8671SOL     OW37645   2.515   0.423   9.648  0.5316 -0.0573  0.5210
 8671SOL    HW137646   2.420   0.412   9.654  0.1199  2.2754 -1.6753
 8671SOL    HW237647   2.523   0.384   9.561 -0.3224 -1.5664  1.1193
 8672SOL     OW37648   3.358   1.432   3.565 -0.3827 -0.0252  0.2488
 8672SOL    HW137649   3.367   1.476   3.480 -0.9007 -2.1876 -0.9254
 8672SOL    HW237650   3.272   1.463   3.593 -0.1064  0.0292  1.0280
 8673SOL     OW37651   0.651   2.217  14.788 -0.1430  0.1854 -0.2785
 8673SOL    HW137652   0.590   2.290  14.786  0.8629  1.0463  0.5507
 8673SOL    HW237653   0.725   2.266  14.825  0.8109 -0.6788 -1.0468
 8674SOL     OW37654   0.495   2.109  10.070 -0.1020  0.2681  0.3254
 8674SOL    HW137655   0.571   2.055  10.091  2.2856  2.6094 -2.2523
 8674SOL    HW237656   0.431   2.080  10.135  0.5707  1.0999  1.3587
 8675SOL     OW37657   2.228   0.603  16.826 -0.1062 -0.1940 -0.0199
 8675SOL    HW137658   2.133   0.604  16.821 -0.1554 -0.4859  0.8115
 8675SOL    HW237659   2.260   0.540  16.761 -0.5773 -0.1480 -0.2965
 8676SOL     OW37660   1.891   1.626   2.186 -0.2348 -0.0104 -0.5464
 8676SOL    HW137661   1.849   1.630   2.101 -1.7674 -1.9728  0.1089
 8676SOL    HW237662   1.957   1.694   2.171  0.5215 -1.1670 -2.4777
 8677SOL     OW37663   3.887   3.810   3.865  0.2099  0.0566  0.0454
 8677SOL    HW137664   3.852   3.721   3.870  3.1467 -1.0091  1.5533
 8677SOL    HW237665   3.898   3.824   3.959 -1.3937 -2.9591  0.6890
 8678SOL     OW37666   1.662   0.590  11.473 -0.1997  0.2785  0.0768
 8678SOL    HW137667   1.742   0.595  11.421  1.0681  0.7917  2.0913
 8678SOL    HW237668   1.599   0.542  11.419  0.9216 -1.0726 -0.0173
 8679SOL     OW37669   4.253   0.850   4.272 -0.0585  0.6531 -0.3689
 8679SOL    HW137670   4.203   0.890   4.201  3.0028  2.3229 -1.5449
 8679SOL    HW237671   4.197   0.875   4.346 -0.6422 -1.7712  0.0333
 8680SOL     OW37672   2.964   0.290  16.637 -0.5753  0.1079 -0.6540
 8680SOL    HW137673   2.990   0.213  16.587 -1.7323 -1.7564  1.5861
 8680SOL    HW237674   3.029   0.351  16.602  1.3132 -3.8359 -4.0590
 8681SOL     OW37675   0.883   1.372   6.530  0.3198 -0.2629 -1.0343
 8681SOL    HW137676   0.853   1.453   6.489 -0.1501  0.6378  1.0848
 8681SOL    HW237677   0.878   1.314   6.453 -0.5980  0.4887 -1.5417
 8682SOL     OW37678   4.125   4.407   0.016  0.4592  0.2236  0.8738
 8682SOL    HW137679   4.067   4.348  17.731  1.5974 -1.6680  1.8078
 8682SOL    HW237680   4.156   4.457  17.705  0.6139 -1.4560 -0.2018
 8683SOL     OW37681   2.141   3.812   2.462 -0.3399  0.1248  0.3895
 8683SOL    HW137682   2.082   3.814   2.387 -1.6284  1.1609  1.4354
 8683SOL    HW237683   2.226   3.822   2.419 -1.4310  0.7869 -1.6053
 8684SOL     OW37684   4.699   1.459   4.867  0.1458  0.0154 -0.3932
 8684SOL    HW137685   4.664   1.529   4.813  0.6068  1.3204  1.0058
 8684SOL    HW237686   0.014   1.506   4.928  1.9265 -0.1133 -1.9435
 8685SOL     OW37687   1.672   0.337  11.941 -0.0086 -0.4616 -0.0905
 8685SOL    HW137688   1.637   0.411  11.992 -0.0717 -1.3219  1.1223
 8685SOL    HW237689   1.662   0.375  11.854  0.6174  0.2680  0.1524
 8686SOL     OW37690   1.773   0.583   4.642  0.5715 -0.5046  0.3803
 8686SOL    HW137691   1.857   0.549   4.610  1.4694  0.9779  1.1954
 8686SOL    HW237692   1.711   0.542   4.581  1.3271  2.1030 -2.1196
 8687SOL     OW37693   2.795   4.299  13.206  0.1570 -0.0334  0.0476
 8687SOL    HW137694   2.737   4.239  13.252 -0.1618 -0.0400 -0.3609
 8687SOL    HW237695   2.743   4.302  13.126  0.2483  2.2788  0.0771
 8688SOL     OW37696   2.886   0.270   0.593 -0.3732  0.4210  0.5716
 8688SOL    HW137697   2.923   0.259   0.680  0.6149 -0.6382  0.0096
 8688SOL    HW237698   2.961   0.287   0.537 -0.4488 -0.4933  0.1922
 8689SOL     OW37699   3.008   1.242  16.307  0.0787 -0.0672 -0.4101
 8689SOL    HW137700   2.925   1.258  16.262 -0.8138  3.0267  2.3463
 8689SOL    HW237701   3.067   1.228  16.233  0.3423  0.1140 -0.2338
 8690SOL     OW37702   4.432   0.505   7.774  0.8246  0.5245  0.5562
 8690SOL    HW137703   4.453   0.437   7.710 -3.7014 -1.8773  1.6289
 8690SOL    HW237704   4.510   0.497   7.829 -0.2114 -1.2679  1.7641
 8691SOL     OW37705   3.526   0.190  15.368 -0.3605 -0.6542  0.2993
 8691SOL    HW137706   3.609   0.203  15.321 -0.4547  3.3116  1.2528
 8691SOL    HW237707   3.535   0.265  15.426  1.7905 -0.2860 -0.4839
 8692SOL     OW37708   3.559   3.535   5.577  0.8699  0.3293 -0.4766
 8692SOL    HW137709   3.632   3.583   5.618 -0.8458  0.9359  1.8922
 8692SOL    HW237710   3.543   3.604   5.513  0.1598  0.4721 -0.1478
 8693SOL     OW37711   2.549   0.705   0.850  0.1292  0.0109 -0.0267
 8693SOL    HW137712   2.641   0.696   0.875 -0.3428 -0.9429  1.4187
 8693SOL    HW237713   2.513   0.746   0.929  2.4355  0.8062  0.6053
 8694SOL     OW37714   3.241   1.613   8.794 -0.3259 -0.2773  0.0574
 8694SOL    HW137715   3.244   1.709   8.793 -3.5348 -0.1834  0.1953
 8694SOL    HW237716   3.328   1.593   8.828  0.8884  2.2409 -1.5842
 8695SOL     OW37717   3.492   2.692   8.507 -0.6692 -0.4164 -0.4736
 8695SOL    HW137718   3.538   2.611   8.527  1.1220  0.8996  0.8325
 8695SOL    HW237719   3.446   2.680   8.424 -1.8734  0.1639  0.1168
 8696SOL     OW37720   1.177   4.302   0.672  0.0487 -0.3190  0.1555
 8696SOL    HW137721   1.179   4.298   0.767 -0.4926  0.6326  0.2047
 8696SOL    HW237722   1.110   4.368   0.653  0.4760  0.0667 -0.0105
 8697SOL     OW37723   4.335   1.639   7.327  0.2015  0.5022  0.3407
 8697SOL    HW137724   4.377   1.613   7.245 -0.9563 -1.3119  0.3237
 8697SOL    HW237725   4.342   1.734   7.321  0.1977  0.4888  0.1095
 8698SOL     OW37726   2.234   1.147   8.093 -0.1697  0.7737 -0.0809
 8698SOL    HW137727   2.290   1.216   8.057  1.3308 -0.2835  0.2352
 8698SOL    HW237728   2.158   1.150   8.035  0.2493  0.5247 -0.6402
 8699SOL     OW37729   4.099   2.917   9.005 -0.4381 -0.5034 -0.2446
 8699SOL    HW137730   4.132   2.993   9.052  0.6545 -1.7408  0.9993
 8699SOL    HW237731   4.171   2.903   8.943 -1.5192  1.8881 -2.0179
 8700SOL     OW37732   1.966   0.908   6.574  0.3248  0.1081  0.3766
 8700SOL    HW137733   1.920   0.903   6.658  0.3002  1.0452  0.4188
 8700SOL    HW237734   2.036   0.971   6.587  0.0430  0.3510  0.7332
 8701SOL     OW37735   1.025   3.080   6.618  0.2521  0.2271  0.0144
 8701SOL    HW137736   1.030   3.091   6.713  0.3509  0.4267 -0.0135
 8701SOL    HW237737   0.982   3.163   6.599 -1.3713 -0.4656  0.6863
 8702SOL     OW37738   2.685   2.750   4.995 -0.5948  0.5862 -0.4226
 8702SOL    HW137739   2.757   2.708   4.949 -0.4889 -0.3394  0.5843
 8702SOL    HW237740   2.722   2.838   5.004 -0.5981  0.5502 -0.0653
 8703SOL     OW37741   0.278   0.152  11.601 -0.0446  0.3523 -1.0000
 8703SOL    HW137742   0.343   0.095  11.560  2.5210  2.4404  0.1871
 8703SOL    HW237743   0.205   0.129  11.544  0.1748  1.1253 -1.5944
 8704SOL     OW37744   3.269   2.904   5.851  0.0288  0.3517  0.5545
 8704SOL    HW137745   3.184   2.946   5.864  0.7940  2.1993 -0.4887
 8704SOL    HW237746   3.241   2.812   5.843  1.0276  0.1144 -0.2346
 8705SOL     OW37747   4.184   0.589  12.459 -0.3609  0.1432  0.1014
 8705SOL    HW137748   4.254   0.535  12.497 -0.4708 -1.1736 -1.5362
 8705SOL    HW237749   4.214   0.679  12.473  0.7182  0.3043 -3.0710
 8706SOL     OW37750   2.331   0.261   9.922 -0.3280 -0.0660 -0.4831
 8706SOL    HW137751   2.372   0.282  10.006  2.1381 -1.6237 -1.3025
 8706SOL    HW237752   2.398   0.303   9.867 -0.1767 -2.1155 -1.8487
 8707SOL     OW37753   1.225   1.112   2.120  0.2106  0.4072 -0.4243
 8707SOL    HW137754   1.197   1.120   2.029  0.5687  2.1449 -0.3724
 8707SOL    HW237755   1.285   1.037   2.128 -0.8896 -0.4501 -0.2612
 8708SOL     OW37756   0.681   1.422   5.658  0.6324  0.0841  0.2043
 8708SOL    HW137757   0.736   1.499   5.642  0.5251  0.2313  0.5381
 8708SOL    HW237758   0.751   1.357   5.648  1.6065  0.7158  2.8189
 8709SOL     OW37759   0.689   2.259   6.158 -0.4533  0.2671  0.2787
 8709SOL    HW137760   0.720   2.324   6.221  0.7102 -0.2265  0.2348
 8709SOL    HW237761   0.760   2.195   6.148 -0.9610 -0.3536  0.6930
 8710SOL     OW37762   2.244   0.784  15.037  0.5495 -0.0447 -0.3096
 8710SOL    HW137763   2.300   0.862  15.035  1.4637 -0.6865  0.1457
 8710SOL    HW237764   2.268   0.732  14.960  1.4475  0.0224 -0.0761
 8711SOL     OW37765   0.909   0.597   3.311  0.1005 -0.0986  0.5365
 8711SOL    HW137766   0.913   0.675   3.367  1.1630 -0.0655  0.4157
 8711SOL    HW237767   0.940   0.639   3.230 -2.5671  1.9266  0.5631
 8712SOL     OW37768   4.214   0.384   1.833  0.3087  0.4953 -0.7002
 8712SOL    HW137769   4.185   0.295   1.810 -1.4448  0.9440 -0.1953
 8712SOL    HW237770   4.142   0.424   1.882  1.3462  1.9654 -0.3704
 8713SOL     OW37771   4.249   0.086   2.392  0.0635  0.5961  0.4638
 8713SOL    HW137772   4.293   0.002   2.406  0.8592  0.6387 -1.8776
 8713SOL    HW237773   4.168   0.058   2.349  0.8201  1.7566 -1.6855
 8714SOL     OW37774   1.979   4.570  14.927  0.5663 -0.3751 -0.7476
 8714SOL    HW137775   1.927   4.649  14.940  0.3465 -0.2946 -2.1128
 8714SOL    HW237776   2.065   4.589  14.964  0.3122 -0.0634 -0.3129
 8715SOL     OW37777   3.912   0.637   7.692  0.1556  0.2495 -0.2747
 8715SOL    HW137778   3.974   0.566   7.711  0.4458  1.1137  2.0080
 8715SOL    HW237779   3.963   0.713   7.721  0.1726 -0.6891  2.1512
 8716SOL     OW37780   3.009   2.989   7.587  0.5294 -0.0208 -0.2876
 8716SOL    HW137781   3.078   2.935   7.548  2.0668  1.2831  0.6257
 8716SOL    HW237782   3.066   3.063   7.608  1.0766 -0.2504 -0.9900
 8717SOL     OW37783   0.293   4.695   8.500  0.4317  0.3262  0.4792
 8717SOL    HW137784   0.205   4.658   8.496  0.1894  0.7639  1.6581
 8717SOL    HW237785   0.266   0.036   8.540 -0.5381  0.6064 -0.7669
 8718SOL     OW37786   2.076   1.231  15.309 -0.1767  0.8700 -0.0201
 8718SOL    HW137787   2.159   1.238  15.356  0.4105  2.2167 -1.2812
 8718SOL    HW237788   2.090   1.179  15.230  0.7654  0.4769  0.4043
 8719SOL     OW37789   4.229   3.948  15.677  0.3264  0.0633  0.5168
 8719SOL    HW137790   4.190   3.975  15.760 -1.3863 -2.0939  0.4370
 8719SOL    HW237791   4.277   4.027  15.655 -1.9212  0.9147 -1.3462
 8720SOL     OW37792   4.676   3.558   7.519  0.5909 -0.3177 -1.0999
 8720SOL    HW137793   4.596   3.607   7.540  0.2018 -0.8737 -1.2655
 8720SOL    HW237794   4.739   3.587   7.585  1.5458  0.4077 -2.3278
 8721SOL     OW37795   4.691   0.653   1.841 -0.5398 -0.6240  0.0616
 8721SOL    HW137796   4.689   0.673   1.748  0.5467 -0.8152  0.0051
 8721SOL    HW237797   0.043   0.648   1.857 -0.6422  0.0605  0.8737
 8722SOL     OW37798   3.349   4.655  10.850  0.5577  0.5804  0.3267
 8722SOL    HW137799   3.330   4.617  10.764  1.7162  2.6226 -0.8321
 8722SOL    HW237800   3.265   4.650  10.897  1.4450  0.9356  1.9498
 8723SOL     OW37801   1.610   4.171  17.057  0.0755 -0.2139 -0.5538
 8723SOL    HW137802   1.691   4.186  17.007 -0.4425 -0.8620 -1.5709
 8723SOL    HW237803   1.658   4.160  17.140  0.3100  1.8728 -0.4216
 8724SOL     OW37804   1.625   1.733   5.114 -0.0303  0.3518  0.0182
 8724SOL    HW137805   1.577   1.729   5.032 -1.6098  0.3127  0.9551
 8724SOL    HW237806   1.695   1.791   5.082 -0.0253  1.3403  1.8031
 8725SOL     OW37807   3.935   3.053   4.985  0.3408  0.2342  0.2203
 8725SOL    HW137808   3.840   3.057   4.996  0.3342 -2.1548  1.1750
 8725SOL    HW237809   3.966   3.036   5.073  4.2502  1.7167 -0.8933
 8726SOL     OW37810   4.736   2.399   4.943 -0.3824  0.0772  0.8591
 8726SOL    HW137811   4.692   2.394   5.027 -2.3082  1.2091 -0.0702
 8726SOL    HW237812   0.051   2.472   4.970  2.3529 -0.5875 -3.0506
 8727SOL     OW37813   1.685   1.880   6.763 -0.3146 -0.0771 -1.0596
 8727SOL    HW137814   1.722   1.965   6.785 -0.8685  0.5442 -2.5120
 8727SOL    HW237815   1.617   1.868   6.829  0.5677 -3.2277 -0.7126
 8728SOL     OW37816   3.936   2.538   1.529  0.9612  0.0204 -0.0846
 8728SOL    HW137817   3.846   2.508   1.540  0.1971  1.9552 -1.0081
 8728SOL    HW237818   3.930   2.588   1.447 -2.4425 -0.7862 -0.3286
 8729SOL     OW37819   3.852   3.254   5.423  0.1422  0.1177  0.2759
 8729SOL    HW137820   3.890   3.311   5.490 -0.8891  1.4375 -0.2605
 8729SOL    HW237821   3.883   3.291   5.341 -0.8324  0.3313  0.0064
 8730SOL     OW37822   3.869   1.972   5.744  0.2815  0.1423 -0.1413
 8730SOL    HW137823   3.907   1.901   5.795 -4.2678 -1.7836  0.5510
 8730SOL    HW237824   3.778   1.967   5.772  0.0239 -1.0513 -1.1900
 8731SOL     OW37825   0.998   3.302   1.533  0.4954 -0.4489 -0.5103
 8731SOL    HW137826   1.005   3.210   1.558 -2.5925 -0.3701  0.6203
 8731SOL    HW237827   1.003   3.345   1.618 -0.3473 -2.7077  0.6866
 8732SOL     OW37828   4.555   2.257   1.111  0.4966  0.1872 -0.3932
 8732SOL    HW137829   4.614   2.244   1.186 -0.3458  0.5433  0.3260
 8732SOL    HW237830   4.504   2.329   1.148 -1.2269 -0.0356 -2.4071
 8733SOL     OW37831   1.691   1.457   5.223  0.1543 -0.1295  0.2220
 8733SOL    HW137832   1.712   1.541   5.182 -0.7459 -0.4933 -0.9791
 8733SOL    HW237833   1.628   1.495   5.283 -0.3917 -0.3534 -0.2098
 8734SOL     OW37834   2.178   0.776   0.529 -0.4713  0.5174 -0.5218
 8734SOL    HW137835   2.194   0.696   0.478  2.1794  0.9750 -0.4143
 8734SOL    HW237836   2.269   0.772   0.559 -0.8115 -0.3748  0.4188
 8735SOL     OW37837   0.578   0.648   8.781 -0.0820 -0.0344 -0.4249
 8735SOL    HW137838   0.637   0.722   8.771  1.0305 -1.0606 -1.4706
 8735SOL    HW237839   0.646   0.581   8.793 -1.1717 -0.7555  1.8835
 8736SOL     OW37840   4.309   2.049   2.067 -0.0407  0.6577  0.2502
 8736SOL    HW137841   4.358   2.011   1.994  2.0734  3.8225  0.0233
 8736SOL    HW237842   4.316   1.974   2.125  1.0414 -0.9053 -1.8765
 8737SOL     OW37843   0.674   1.802  16.652  0.5350 -1.0125 -0.7606
 8737SOL    HW137844   0.731   1.815  16.729  1.4061  0.9027 -1.7295
 8737SOL    HW237845   0.655   1.708  16.656 -0.5477 -0.7434  0.3874
 8738SOL     OW37846   1.408   3.464   7.661  0.3731  0.2557 -0.0685
 8738SOL    HW137847   1.378   3.395   7.602  1.4666 -0.5249  0.2897
 8738SOL    HW237848   1.350   3.537   7.636 -0.1230 -0.4342 -0.9252
 8739SOL     OW37849   3.334   0.956   2.085 -0.2328  0.8439  0.2488
 8739SOL    HW137850   3.249   0.976   2.044  0.0033 -0.8764 -1.0785
 8739SOL    HW237851   3.382   0.933   2.006 -2.6728  2.7031 -1.7578
 8740SOL     OW37852   2.466   2.713   3.883 -0.0338  0.0543 -0.1805
 8740SOL    HW137853   2.446   2.764   3.961 -0.1344 -0.0066 -0.1651
 8740SOL    HW237854   2.405   2.639   3.893  0.4523 -0.3858 -0.4247
 8741SOL     OW37855   3.755   3.185   5.694  0.3455  0.1915 -0.1232
 8741SOL    HW137856   3.846   3.166   5.718  0.1829 -0.0394  0.3059
 8741SOL    HW237857   3.769   3.165   5.602  1.2804 -2.4772  0.6138
 8742SOL     OW37858   3.461   0.160   1.837  0.5804 -0.0501 -0.0706
 8742SOL    HW137859   3.476   0.241   1.788 -3.0177 -0.3240 -1.6325
 8742SOL    HW237860   3.416   0.102   1.775  1.3951  0.5471 -1.2246
 8743SOL     OW37861   2.563   0.647   3.781 -0.2753  0.2978 -0.5507
 8743SOL    HW137862   2.492   0.692   3.827  0.0631 -0.5572  0.7751
 8743SOL    HW237863   2.546   0.562   3.820 -0.1787  0.9808  0.9604
 8744SOL     OW37864   3.147   2.233   2.007  0.0817  0.4546 -0.3053
 8744SOL    HW137865   3.215   2.186   2.056 -1.3115 -0.6284  0.5751
 8744SOL    HW237866   3.082   2.221   2.076 -0.9190 -2.7626 -1.8217
 8745SOL     OW37867   3.426   3.368   4.083  0.4783  0.4380 -0.1542
 8745SOL    HW137868   3.461   3.280   4.101  1.8571  0.2879 -3.5208
 8745SOL    HW237869   3.382   3.393   4.164 -1.6414  0.7765 -1.4274
 8746SOL     OW37870   2.346   0.490   5.820 -0.5196  0.0071  0.0819
 8746SOL    HW137871   2.430   0.446   5.803 -0.1074  1.1449 -0.8925
 8746SOL    HW237872   2.337   0.534   5.736 -1.8307 -0.8635 -0.2292
 8747SOL     OW37873   1.171   4.312   2.743  0.3721 -0.2636  0.1179
 8747SOL    HW137874   1.180   4.221   2.771  0.2031 -0.4283 -0.3613
 8747SOL    HW237875   1.173   4.292   2.650  1.8402  1.3900 -0.2090
 8748SOL     OW37876   1.692   4.137   4.341  0.1911 -0.5834  0.2491
 8748SOL    HW137877   1.690   4.229   4.368 -1.3990 -1.2543  2.4676
 8748SOL    HW237878   1.724   4.094   4.420  1.2917 -0.5280 -0.1653
 8749SOL     OW37879   3.960   2.493   0.309  0.2149 -0.0410 -0.3978
 8749SOL    HW137880   3.994   2.405   0.292  0.1268 -0.2897  0.7071
 8749SOL    HW237881   3.876   2.483   0.264  0.0020  2.4994 -0.5770
 8750SOL     OW37882   1.589   3.790   8.836  0.0502  0.6421  0.0591
 8750SOL    HW137883   1.599   3.867   8.892 -1.0324  1.6224 -1.0918
 8750SOL    HW237884   1.504   3.756   8.864 -0.1430  1.6580  0.6715
 8751SOL     OW37885   3.628   0.437  11.281 -0.6823 -0.2638 -0.1425
 8751SOL    HW137886   3.669   0.413  11.198 -3.2053  0.2343 -1.5336
 8751SOL    HW237887   3.594   0.351  11.308  0.8435 -1.3382 -1.6403
 8752SOL     OW37888   0.315   1.091  13.256  0.3056  0.1689  0.0797
 8752SOL    HW137889   0.222   1.098  13.233  0.8869 -1.2826 -2.7906
 8752SOL    HW237890   0.316   1.123  13.346 -0.7061  0.0835  0.1207
 8753SOL     OW37891   4.009   4.055  10.730  0.2476  0.3639 -0.3346
 8753SOL    HW137892   3.992   4.034  10.822  2.5108 -0.3476 -0.0722
 8753SOL    HW237893   3.959   3.983  10.693  0.6173 -0.7920  1.4360
 8754SOL     OW37894   0.968   2.481  17.297  0.1804  0.2978 -0.6897
 8754SOL    HW137895   1.016   2.542  17.241  0.8123  0.0419 -0.4212
 8754SOL    HW237896   0.881   2.520  17.286 -0.2652 -0.2258  0.9971
 8755SOL     OW37897   1.487   0.545   9.988  0.5530  0.3246 -0.4615
 8755SOL    HW137898   1.434   0.619  10.017  1.2167  0.5803  0.0887
 8755SOL    HW237899   1.541   0.509  10.058  1.0534  2.6044  0.3171
 8756SOL     OW37900   2.572   4.529   8.998 -0.2256 -0.0580  0.3176
 8756SOL    HW137901   2.653   4.562   9.037 -0.3779  2.0713 -1.1293
 8756SOL    HW237902   2.522   4.496   9.072  1.8537 -0.4558  1.5315
 8757SOL     OW37903   2.774   0.423   1.996  0.0200  0.3533  0.1303
 8757SOL    HW137904   2.726   0.484   1.940 -1.5636 -0.3479  0.7174
 8757SOL    HW237905   2.706   0.395   2.057  0.7403 -2.1055 -0.2291
 8758SOL     OW37906   3.478   1.353  11.636 -0.1624  0.3644 -0.1634
 8758SOL    HW137907   3.554   1.343  11.693  1.2685 -2.1349 -2.5286
 8758SOL    HW237908   3.413   1.377  11.701 -0.8867  3.1698 -1.9411
 8759SOL     OW37909   1.684   2.780   4.489 -0.2139  0.4199  0.4409
 8759SOL    HW137910   1.629   2.857   4.504  0.9747  1.0985  1.3262
 8759SOL    HW237911   1.756   2.810   4.545 -0.8403  1.0447  0.9043
 8760SOL     OW37912   2.595   1.298  10.693 -0.5760  0.4742  0.1083
 8760SOL    HW137913   2.508   1.330  10.670 -0.8823 -0.7105 -0.3702
 8760SOL    HW237914   2.644   1.379  10.676  1.4336 -0.7877 -0.1290
 8761SOL     OW37915   3.217   4.570   1.428 -0.4529  0.0638  0.0144
 8761SOL    HW137916   3.235   4.660   1.401 -2.2164  0.2421 -0.6257
 8761SOL    HW237917   3.127   4.566   1.394  0.7139  1.4976 -3.1580
 8762SOL     OW37918   2.738   2.388   3.503 -0.3413  0.0373  0.1374
 8762SOL    HW137919   2.813   2.444   3.481 -1.2614  1.3840  0.4630
 8762SOL    HW237920   2.702   2.421   3.585 -0.1949  0.4829  0.0242
 8763SOL     OW37921   1.948   4.737   2.241 -0.3512 -0.2807  0.3557
 8763SOL    HW137922   1.946   0.042   2.157  2.6761  0.6510  0.8003
 8763SOL    HW237923   1.923   4.648   2.214  2.0035 -0.1150 -2.4310
 8764SOL     OW37924   4.428   0.543   5.569  0.3198  0.4207 -0.5737
 8764SOL    HW137925   4.371   0.597   5.622  0.8718 -1.1495  1.6318
 8764SOL    HW237926   4.397   0.564   5.481  0.6494 -0.6534 -0.9543
 8765SOL     OW37927   3.926   3.831   9.166  0.8165 -0.0090  0.0965
 8765SOL    HW137928   3.992   3.771   9.130  0.1590  1.6416 -3.8910
 8765SOL    HW237929   3.918   3.899   9.099 -2.1354 -1.1236 -0.7024
 8766SOL     OW37930   4.461   1.496   6.314  0.0915  0.2080  0.8580
 8766SOL    HW137931   4.522   1.452   6.255  1.1701  2.5902  0.2025
 8766SOL    HW237932   4.528   1.546   6.362  1.3740 -2.2065  1.5985
 8767SOL     OW37933   0.730   0.861  10.648 -0.0460 -0.1257  0.6998
 8767SOL    HW137934   0.720   0.802  10.723  1.0578 -0.9466  0.1759
 8767SOL    HW237935   0.779   0.934  10.686  1.0866 -0.5337 -0.0173
 8768SOL     OW37936   0.310   0.433  15.582 -0.5017 -0.0172 -0.2967
 8768SOL    HW137937   0.274   0.453  15.668 -1.5853  1.5424 -1.1259
 8768SOL    HW237938   0.234   0.458  15.531  0.6777  0.1870 -1.9656
 8769SOL     OW37939   4.661   0.079   1.404 -0.4371 -0.0405 -0.2988
 8769SOL    HW137940   0.005   0.043   1.429 -1.2287  0.1135  2.6006
 8769SOL    HW237941   4.611   0.081   1.486  0.9563  0.1002  0.5466
 8770SOL     OW37942   0.430   3.678   2.144 -0.1009  0.4262 -0.0501
 8770SOL    HW137943   0.426   3.770   2.121  2.5707  0.4773 -0.2610
 8770SOL    HW237944   0.359   3.672   2.209 -0.0751 -0.5225 -0.1058
 8771SOL     OW37945   1.438   4.263   8.961  0.4727 -0.6605  0.5501
 8771SOL    HW137946   1.493   4.309   9.024  2.0259  0.1098 -1.3825
 8771SOL    HW237947   1.365   4.234   9.016  1.0180 -1.5313  0.8063
 8772SOL     OW37948   4.033   4.622  11.118  0.1077 -0.2319  0.0885
 8772SOL    HW137949   4.049   4.536  11.156  3.0500 -0.4353 -1.6467
 8772SOL    HW237950   4.102   4.674  11.161  0.6382 -1.0227  0.1890
 8773SOL     OW37951   1.775   0.448   8.508 -0.1688  0.2006 -0.1679
 8773SOL    HW137952   1.757   0.413   8.595 -0.3854  1.1236  0.1605
 8773SOL    HW237953   1.859   0.409   8.484  0.6707  0.4844  2.3926
 8774SOL     OW37954   2.523   3.848   4.333  0.1664  0.1506 -0.8095
 8774SOL    HW137955   2.431   3.827   4.344  0.2088  0.0455 -0.6496
 8774SOL    HW237956   2.534   3.943   4.336  1.6819 -0.0688  0.8044
 8775SOL     OW37957   3.975   0.063   5.470  0.9710 -0.0824  0.0556
 8775SOL    HW137958   3.912   0.006   5.514  0.7101 -0.6404 -1.0291
 8775SOL    HW237959   4.025   0.000   5.418 -1.0583 -1.4541 -0.2115
 8776SOL     OW37960   0.029   4.611   7.617  0.1281 -0.6705  0.1638
 8776SOL    HW137961   0.039   4.535   7.674 -0.3131 -0.0001  1.1374
 8776SOL    HW237962   0.119   4.644   7.621  0.6340 -2.0340 -0.3044
 8777SOL     OW37963   0.687   3.922   8.157 -0.4357 -0.1985  0.0897
 8777SOL    HW137964   0.680   3.861   8.083  0.2630 -0.4995  0.2692
 8777SOL    HW237965   0.705   4.002   8.107  1.9494 -1.7230 -1.5261
 8778SOL     OW37966   1.293   4.395   1.815  0.1342 -0.2439 -0.1559
 8778SOL    HW137967   1.260   4.364   1.731  0.0519 -0.2306 -0.1280
 8778SOL    HW237968   1.287   4.491   1.812  1.1338 -0.1621  0.3274
 8779SOL     OW37969   4.545   0.125   6.551 -0.5063 -0.0898  0.6507
 8779SOL    HW137970   4.506   0.132   6.638  0.9612 -0.6148  1.3565
 8779SOL    HW237971   4.543   0.216   6.520 -0.7837  0.2358  1.6449
 8780SOL     OW37972   4.131   0.852   5.885 -0.5028 -0.1292  0.7789
 8780SOL    HW137973   4.117   0.870   5.979 -1.7491 -0.4069  0.6395
 8780SOL    HW237974   4.155   0.941   5.860 -0.8238 -0.2173  0.1696
 8781SOL     OW37975   3.579   2.320  17.255 -0.4900  0.4770 -0.5418
 8781SOL    HW137976   3.603   2.235  17.218  1.6786  0.7299  0.2805
 8781SOL    HW237977   3.507   2.341  17.196 -1.4396  0.5871  0.6565
 8782SOL     OW37978   4.446   0.326   5.738  0.2370 -0.0382 -0.0981
 8782SOL    HW137979   4.457   0.398   5.676 -0.6454 -0.1050 -0.3413
 8782SOL    HW237980   4.352   0.308   5.746  0.1740  0.3186 -0.0428
 8783SOL     OW37981   4.489   0.420   0.460  0.0342  0.2029  0.2556
 8783SOL    HW137982   4.397   0.449   0.460 -0.5389 -1.5887 -2.7237
 8783SOL    HW237983   4.505   0.437   0.367 -0.7168 -1.9290 -0.2469
 8784SOL     OW37984   3.476   3.065   5.327  0.0364 -0.0903 -0.0194
 8784SOL    HW137985   3.523   3.005   5.385 -2.4399 -1.1846  0.8641
 8784SOL    HW237986   3.492   3.151   5.366  1.4099 -0.6126  0.5699
 8785SOL     OW37987   3.640   2.697   6.746  0.3505  0.3847  0.3571
 8785SOL    HW137988   3.606   2.681   6.658 -0.2376  0.0631  0.6465
 8785SOL    HW237989   3.559   2.721   6.792  0.4287  2.9934 -0.8677
 8786SOL     OW37990   3.907   1.686   7.627 -0.3479  0.1437 -0.3592
 8786SOL    HW137991   3.976   1.696   7.561 -0.9815  1.4731 -0.8160
 8786SOL    HW237992   3.958   1.663   7.705  0.6976 -0.9458 -1.3540
 8787SOL     OW37993   0.057   3.680   4.825 -0.8439  0.2109 -0.5869
 8787SOL    HW137994   0.007   3.603   4.854 -0.1567  0.3947  1.0380
 8787SOL    HW237995   0.114   3.695   4.900 -0.4034  0.4827 -0.9735
 8788SOL     OW37996   1.028   0.406  13.946 -0.2761 -0.3532  0.0024
 8788SOL    HW137997   1.078   0.477  13.906 -1.0515 -0.2641 -0.8179
 8788SOL    HW237998   1.091   0.382  14.014  0.9463 -0.6677 -1.2407
 8789SOL     OW37999   3.323   0.187   2.386 -0.1021 -0.7332  0.3226
 8789SOL    HW138000   3.233   0.213   2.404 -0.3641 -1.9465  0.7712
 8789SOL    HW238001   3.340   0.214   2.296  1.6408 -1.6361  0.3786
 8790SOL     OW38002   2.069   3.607   5.936  0.4701  0.4524  0.4320
 8790SOL    HW138003   2.153   3.579   5.900  0.1513  0.1512 -0.0830
 8790SOL    HW238004   2.013   3.547   5.887 -1.7693  1.4684  1.7491
 8791SOL     OW38005   1.341   4.322   8.195  0.3202 -0.3084 -0.3176
 8791SOL    HW138006   1.253   4.317   8.158  0.3102  0.6671 -0.4328
 8791SOL    HW238007   1.328   4.351   8.285 -2.4055 -0.1899 -0.7322
 8792SOL     OW38008   3.349   1.671   8.417  0.3075 -0.5856 -0.7701
 8792SOL    HW138009   3.406   1.597   8.437  2.5470  1.0308 -1.1803
 8792SOL    HW238010   3.414   1.728   8.376 -1.7393  0.4751 -2.5269
 8793SOL     OW38011   3.441   0.067   8.927  0.2262 -0.0912  0.2846
 8793SOL    HW138012   3.515   0.096   8.874 -0.2705  0.7519  0.0489
 8793SOL    HW238013   3.417   0.148   8.972 -0.2962 -0.8311  1.3250
 8794SOL     OW38014   0.785   0.775   5.946 -0.5930 -0.3773 -0.3662
 8794SOL    HW138015   0.789   0.871   5.944 -3.9516 -0.2686 -1.2324
 8794SOL    HW238016   0.707   0.760   5.999  0.3213  1.5450  1.5347
 8795SOL     OW38017   1.458   3.864   1.109 -0.4415 -0.6247  0.7497
 8795SOL    HW138018   1.428   3.797   1.048 -0.9739  1.5532 -1.3892
 8795SOL    HW238019   1.539   3.830   1.148  0.3388  0.9853  0.5236
 8796SOL     OW38020   4.449   3.069  13.534 -0.4179  0.6767 -0.0818
 8796SOL    HW138021   4.413   3.132  13.472 -0.4222  1.0751  0.3290
 8796SOL    HW238022   4.391   2.995  13.517 -2.6497  2.9169 -2.2603
 8797SOL     OW38023   1.998   0.867   0.047 -0.0419  0.2926 -0.2453
 8797SOL    HW138024   2.029   0.957   0.032  3.0191 -0.6553  0.3559
 8797SOL    HW238025   2.049   0.803  17.763 -0.0533 -0.1657  0.3559
 8798SOL     OW38026   1.835   1.103   1.974 -0.1144 -0.6399  0.4696
 8798SOL    HW138027   1.853   1.155   2.053 -0.3677 -1.1346  0.8475
 8798SOL    HW238028   1.741   1.091   1.982 -0.2410  1.4895  2.3246
 8799SOL     OW38029   1.883   1.042   2.638  0.3398  0.5112 -0.1626
 8799SOL    HW138030   1.803   1.038   2.690 -0.7511 -0.1085 -1.8779
 8799SOL    HW238031   1.934   1.106   2.687  1.1336 -0.8553  0.7842
 8800SOL     OW38032   3.488   1.907   8.317 -0.0441 -0.3658 -0.5610
 8800SOL    HW138033   3.463   1.945   8.233  1.2399 -1.9142 -1.6352
 8800SOL    HW238034   3.474   1.983   8.373  0.7761  0.4624 -1.4844
 8801SOL     OW38035   4.173   1.017  11.768 -0.7363 -0.2309  0.0462
 8801SOL    HW138036   4.171   1.029  11.673 -0.0148 -1.2934 -0.0997
 8801SOL    HW238037   4.162   0.921  11.770 -1.4550 -0.1366  0.4481
 8802SOL     OW38038   4.713   1.028   5.890 -0.4579 -0.6656  0.9645
 8802SOL    HW138039   0.052   1.032   5.940 -0.0601  0.6545  0.2331
 8802SOL    HW238040   4.650   1.019   5.962 -2.0135  2.2426 -0.0009
 8803SOL     OW38041   1.182   1.402   5.465  0.0626  0.1172 -0.2158
 8803SOL    HW138042   1.252   1.360   5.414  1.1087  1.9320 -0.2499
 8803SOL    HW238043   1.110   1.340   5.450 -0.4856 -0.3883  4.3290
 8804SOL     OW38044   0.419   3.128   4.797 -0.1309 -0.3810  0.2919
 8804SOL    HW138045   0.446   3.036   4.804  1.4689  0.1459  1.1084
 8804SOL    HW238046   0.419   3.134   4.701 -2.2913 -0.7977  0.2702
 8805SOL     OW38047   2.652   2.324   3.081  1.0485  0.0588 -0.1937
 8805SOL    HW138048   2.590   2.360   3.017  0.5055 -2.3206 -0.9921
 8805SOL    HW238049   2.727   2.379   3.058  0.4403  0.2266 -1.7943
 8806SOL     OW38050   3.709   4.552   5.773  0.1901  0.2999 -0.3923
 8806SOL    HW138051   3.802   4.552   5.750  0.8121  0.1067  2.1305
 8806SOL    HW238052   3.670   4.608   5.707 -1.5221  0.9501  1.1764
 8807SOL     OW38053   3.389   3.588  12.627  0.0948  0.6951 -0.1294
 8807SOL    HW138054   3.462   3.568  12.686 -0.0294 -0.4036 -0.3516
 8807SOL    HW238055   3.318   3.537  12.666 -0.4893 -0.1848 -2.3811
 8808SOL     OW38056   0.830   1.744  16.140 -0.0720  0.4299 -0.4036
 8808SOL    HW138057   0.918   1.780  16.151  0.2815 -0.2795 -0.8949
 8808SOL    HW238058   0.770   1.814  16.166 -0.2339  0.4998 -0.9735
 8809SOL     OW38059   2.385   3.911   2.408 -0.1732  0.3037  0.0805
 8809SOL    HW138060   2.442   3.863   2.468  1.6253  1.7742 -0.4731
 8809SOL    HW238061   2.448   3.959   2.356 -0.7615 -0.0938 -0.9978
 8810SOL     OW38062   2.127   0.827  16.996 -0.1432  0.0436 -0.4704
 8810SOL    HW138063   2.035   0.803  16.985 -0.3989  0.8493 -0.0254
 8810SOL    HW238064   2.167   0.752  16.951 -1.4712  0.4019 -2.2287
 8811SOL     OW38065   3.808   3.646   5.986  0.2178  0.4552  0.4251
 8811SOL    HW138066   3.893   3.606   6.001  0.2990  1.0031  1.4169
 8811SOL    HW238067   3.758   3.615   6.061  0.1839  0.2015  0.2964
 8812SOL     OW38068   1.527   4.036   6.864 -0.2910 -0.0353 -0.7623
 8812SOL    HW138069   1.539   4.122   6.823  0.8305 -0.8035 -2.0495
 8812SOL    HW238070   1.618   4.006   6.870 -0.8092 -1.2644  0.8090
 8813SOL     OW38071   3.962   0.995   2.687  0.0063  0.6252  0.3745
 8813SOL    HW138072   3.873   1.007   2.719  0.1751 -0.5614  1.2969
 8813SOL    HW238073   3.982   1.079   2.646 -1.8724  1.1047  0.4290
 8814SOL     OW38074   0.771   3.057   9.096 -0.1462  0.7115  0.1977
 8814SOL    HW138075   0.686   3.086   9.129  0.1917  0.4008  1.3390
 8814SOL    HW238076   0.743   2.997   9.027  2.3160 -0.7801  0.4907
 8815SOL     OW38077   0.344   0.557   6.095  0.7432 -0.3428  0.1334
 8815SOL    HW138078   0.261   0.513   6.080  0.0067  0.5447  1.5738
 8815SOL    HW238079   0.365   0.598   6.010  1.5632 -0.8914  0.0742
 8816SOL     OW38080   0.087   3.001  15.050  0.6221  0.5870  0.0735
 8816SOL    HW138081   0.096   2.988  14.955  0.4122 -0.5936  0.2091
 8816SOL    HW238082   0.012   2.945  15.069  0.8878  0.3879  0.5317
 8817SOL     OW38083   4.480   0.568   5.054 -0.7461 -0.9383  0.4777
 8817SOL    HW138084   4.453   0.481   5.083  1.1603 -1.6496  0.0907
 8817SOL    HW238085   4.564   0.546   5.015  0.2821  0.7941  1.6784
 8818SOL     OW38086   2.460   2.199  17.505 -0.1964 -0.0611  0.0880
 8818SOL    HW138087   2.470   2.178  17.412 -1.4968 -0.1528 -0.0237
 8818SOL    HW238088   2.386   2.140  17.515 -1.9162  2.3161  1.6221
 8819SOL     OW38089   0.641   4.182   6.231 -0.4676 -0.1168  0.3914
 8819SOL    HW138090   0.712   4.216   6.285 -0.4345 -1.4151  1.1816
 8819SOL    HW238091   0.643   4.087   6.246 -2.5032 -0.3392 -0.7487
 8820SOL     OW38092   2.021   1.059   9.325 -0.3668 -0.1286  0.2797
 8820SOL    HW138093   2.066   1.140   9.302  0.5291  0.2055  3.1580
 8820SOL    HW238094   1.932   1.088   9.344 -0.7056  0.2433 -1.8691
 8821SOL     OW38095   3.649   2.915   7.582 -0.3902  0.5891  0.2448
 8821SOL    HW138096   3.691   2.899   7.498 -1.5756  0.6232 -0.3625
 8821SOL    HW238097   3.706   2.868   7.643 -1.2544  0.8427  1.2568
 8822SOL     OW38098   1.997   2.711   6.726 -0.0341  0.3641  0.3699
 8822SOL    HW138099   2.010   2.696   6.820  1.7675  1.9321  0.3706
 8822SOL    HW238100   1.913   2.757   6.734 -0.4054 -0.4185  1.0712
 8823SOL     OW38101   0.219   3.810   2.901  0.4357 -0.5115  0.4801
 8823SOL    HW138102   0.215   3.855   2.817 -0.2917  0.0696  0.8230
 8823SOL    HW238103   0.307   3.836   2.928  0.4135  1.1437 -1.1023
 8824SOL     OW38104   2.855   1.990   3.342 -0.0893 -0.0097  0.7824
 8824SOL    HW138105   2.925   1.959   3.284 -1.6486  0.4978 -1.3671
 8824SOL    HW238106   2.778   2.000   3.287 -0.3861  2.9358  1.7683
 8825SOL     OW38107   1.152   3.106   9.241 -0.1226 -0.5627 -0.2604
 8825SOL    HW138108   1.088   3.040   9.270 -2.2389  0.1059 -3.3226
 8825SOL    HW238109   1.132   3.177   9.302  1.3288 -0.1993 -0.2284
 8826SOL     OW38110   1.765   4.312   9.723  0.3473  0.2004 -0.1512
 8826SOL    HW138111   1.850   4.322   9.681 -1.0456  1.2277 -2.7408
 8826SOL    HW238112   1.792   4.289   9.812  1.1506 -0.2157 -0.5074
 8827SOL     OW38113   0.612   3.989  12.634 -0.0315 -0.6115  0.3594
 8827SOL    HW138114   0.556   4.065  12.616 -1.8115 -2.4445 -1.8535
 8827SOL    HW238115   0.689   4.018  12.584  0.0192  0.2204  0.9324
 8828SOL     OW38116   4.639   4.057   4.943 -0.3817  0.1145  0.0972
 8828SOL    HW138117   4.656   3.987   5.005  3.4567  2.2476  1.4105
 8828SOL    HW238118   4.696   4.036   4.869 -0.5685  0.7336 -0.2223
 8829SOL     OW38119   4.668   2.290   9.065 -0.0997  0.4797  0.5988
 8829SOL    HW138120   4.727   2.351   9.022 -0.7742 -1.0396 -2.4750
 8829SOL    HW238121   4.668   2.214   9.007  0.3473  1.8292 -1.1570
 8830SOL     OW38122   1.834   2.754   6.087  0.6079  0.0271 -0.3321
 8830SOL    HW138123   1.745   2.759   6.122  0.2405 -1.5136 -1.0214
 8830SOL    HW238124   1.858   2.845   6.103  3.4698 -0.9527  0.7850
 8831SOL     OW38125   0.803   1.809   7.348 -0.1401  0.5994  0.0721
 8831SOL    HW138126   0.774   1.783   7.261  1.2498 -0.5064 -0.0581
 8831SOL    HW238127   0.869   1.741   7.339 -0.8006  0.2446 -2.1414
 8832SOL     OW38128   2.873   4.510   4.709 -0.1401 -0.0821 -0.2075
 8832SOL    HW138129   2.807   4.573   4.737  0.6108  0.0168  1.2966
 8832SOL    HW238130   2.941   4.569   4.677 -0.1462 -0.0804 -0.2173
 8833SOL     OW38131   0.333   3.751  16.368  0.0699 -0.8933 -0.3845
 8833SOL    HW138132   0.298   3.824  16.317  2.6816  0.2963 -0.5032
 8833SOL    HW238133   0.420   3.751  16.328 -0.3352  0.7214 -1.2993
 8834SOL     OW38134   2.234   4.225   9.019 -0.2943  0.3929 -0.2562
 8834SOL    HW138135   2.317   4.257   9.055 -0.0367  0.2296 -0.7042
 8834SOL    HW238136   2.235   4.283   8.943  0.7953 -3.1341 -2.9263
 8835SOL     OW38137   2.233   4.492   6.955 -0.2493  0.6611 -0.3647
 8835SOL    HW138138   2.278   4.413   6.985  0.1189  0.7575 -0.6701
 8835SOL    HW238139   2.264   4.502   6.865  1.1448  0.7359  0.1302
 8836SOL     OW38140   2.694   3.326   5.903  0.0208  0.1581  0.2141
 8836SOL    HW138141   2.772   3.331   5.959 -0.6274  0.9219  1.0396
 8836SOL    HW238142   2.658   3.414   5.898 -0.8947 -0.1889  0.6859
 8837SOL     OW38143   1.047   0.897  15.768 -0.2389 -0.2352  0.2563
 8837SOL    HW138144   1.006   0.943  15.842 -2.2224 -0.8250 -0.4796
 8837SOL    HW238145   1.008   0.959  15.706 -1.4345 -0.9172  0.3179
 8838SOL     OW38146   4.362   1.896   4.030 -0.2976 -0.7548 -0.4814
 8838SOL    HW138147   4.454   1.918   4.014 -0.8721  0.4420 -2.1130
 8838SOL    HW238148   4.313   1.920   3.951 -1.4381  1.0194  0.7743
 8839SOL     OW38149   1.005   0.577  17.150 -0.1043 -0.5390 -0.0400
 8839SOL    HW138150   1.035   0.540  17.067 -1.2607  3.9421 -2.4197
 8839SOL    HW238151   0.920   0.615  17.130  1.7550  3.5584 -0.1026
 8840SOL     OW38152   2.065   3.479  10.145  0.0571  0.1919 -0.3332
 8840SOL    HW138153   2.103   3.409  10.199  1.0017  1.8820  1.2045
 8840SOL    HW238154   2.060   3.553  10.206 -2.9815 -0.2794 -0.0426
 8841SOL     OW38155   1.583   2.322   3.666  0.5102 -0.0888  0.3566
 8841SOL    HW138156   1.638   2.270   3.725  0.6595  0.4590  0.6994
 8841SOL    HW238157   1.656   2.377   3.635  0.2550 -0.0730 -0.2236
 8842SOL     OW38158   0.210   0.549  14.664 -0.0744  0.1992  0.0950
 8842SOL    HW138159   0.284   0.496  14.693 -0.5762 -0.4721  0.1567
 8842SOL    HW238160   0.150   0.484  14.626  1.2859 -0.3449 -1.1193
 8843SOL     OW38161   3.343   1.622  16.518 -0.1077 -0.2559  0.4658
 8843SOL    HW138162   3.299   1.547  16.556  1.7305 -0.8417  1.4067
 8843SOL    HW238163   3.278   1.653  16.454  0.0575  0.5776  0.7004
 8844SOL     OW38164   3.220   4.465   3.163  0.0687  0.0763  0.4532
 8844SOL    HW138165   3.280   4.540   3.162 -1.1391  1.0264 -0.7270
 8844SOL    HW238166   3.295   4.406   3.156 -0.6009 -0.7183  0.0885
 8845SOL     OW38167   3.874   2.737  17.020 -0.2461 -0.5039  0.1885
 8845SOL    HW138168   3.881   2.645  17.045  1.8021 -0.3688  0.0906
 8845SOL    HW238169   3.833   2.735  16.934 -3.4763  2.8295  1.6494
 8846SOL     OW38170   0.486   2.523   6.223  0.5959  0.5194 -0.1580
 8846SOL    HW138171   0.419   2.577   6.265  2.8077  2.0437  1.4221
 8846SOL    HW238172   0.549   2.588   6.190 -0.0399  1.6323  0.8142
 8847SOL     OW38173   2.451   3.686   9.447  0.3200  0.2056 -0.0545
 8847SOL    HW138174   2.404   3.690   9.363 -1.0356 -0.0875  0.6940
 8847SOL    HW238175   2.417   3.760   9.497  0.7425  1.2159 -1.2717
 8848SOL     OW38176   3.669   1.632   1.102 -0.5644 -0.1641  0.6254
 8848SOL    HW138177   3.618   1.604   1.026  1.3795 -0.0894 -0.7101
 8848SOL    HW238178   3.732   1.679   1.048  1.4565 -0.4680  2.7256
 8849SOL     OW38179   1.840   1.103   7.566  0.7311 -0.0847  0.0301
 8849SOL    HW138180   1.899   1.042   7.610 -0.5225 -0.5470  1.0707
 8849SOL    HW238181   1.794   1.147   7.637  0.2947 -2.1728  1.0406
 8850SOL     OW38182   4.244   1.302  14.719  0.1201 -0.1425 -0.5479
 8850SOL    HW138183   4.336   1.277  14.729  0.3467  1.4112  1.2699
 8850SOL    HW238184   4.223   1.312  14.812  2.6509  0.8612 -0.0841
 8851SOL     OW38185   4.234   0.682   9.140  0.5382  1.2460 -0.4609
 8851SOL    HW138186   4.235   0.586   9.137  0.8225  1.1986  1.1742
 8851SOL    HW238187   4.141   0.699   9.158  0.2507  2.3324 -2.9529
 8852SOL     OW38188   0.351   0.600   8.494 -0.2176 -0.0558 -0.7874
 8852SOL    HW138189   0.383   0.688   8.474 -0.2403  0.4163  1.2876
 8852SOL    HW238190   0.422   0.548   8.456 -1.0246 -1.8252  0.1684
 8853SOL     OW38191   0.457   1.341   3.343  0.3060  0.9142 -0.0036
 8853SOL    HW138192   0.517   1.353   3.417  1.5008 -1.5199 -0.5665
 8853SOL    HW238193   0.489   1.409   3.284  1.4270  0.6633  0.3157
 8854SOL     OW38194   1.754   1.680   4.329 -0.2018  0.0933 -0.4464
 8854SOL    HW138195   1.720   1.761   4.367 -0.8277  0.0861 -0.9811
 8854SOL    HW238196   1.793   1.716   4.250  1.7826 -1.4920 -0.1753
 8855SOL     OW38197   0.798   1.296  15.234 -0.5154 -0.1383  0.0260
 8855SOL    HW138198   0.760   1.230  15.292 -0.6186 -2.1976 -2.4100
 8855SOL    HW238199   0.884   1.309  15.274 -0.1899  0.2141 -0.7907
 8856SOL     OW38200   1.808   4.627   5.526  0.4905  0.6031 -0.3617
 8856SOL    HW138201   1.895   4.667   5.527 -0.3147  2.2989  2.8656
 8856SOL    HW238202   1.815   4.558   5.591 -0.7167 -0.1725 -1.0525
 8857SOL     OW38203   4.542   2.365  10.834  0.3824  0.2646  0.3165
 8857SOL    HW138204   4.590   2.430  10.886 -0.8321  0.7494  0.8384
 8857SOL    HW238205   4.529   2.413  10.752 -0.3582  0.0761  0.3276
 8858SOL     OW38206   1.019   1.972   7.655 -0.2237 -0.0010  0.1037
 8858SOL    HW138207   1.045   2.049   7.605 -1.0457 -0.6682 -1.3165
 8858SOL    HW238208   1.061   1.996   7.738 -0.2645  0.8991 -0.1343
 8859SOL     OW38209   0.576   0.621   6.928  0.2882 -0.1488  0.2947
 8859SOL    HW138210   0.645   0.557   6.943  0.2012 -0.1263  0.7732
 8859SOL    HW238211   0.549   0.581   6.845 -1.4435  2.3916 -0.3639
 8860SOL     OW38212   1.106   0.930   2.897  0.0268 -0.0646 -0.6289
 8860SOL    HW138213   1.155   1.008   2.870 -0.7008  1.2221  1.6927
 8860SOL    HW238214   1.020   0.937   2.856 -0.7023 -1.9970  0.5900
 8861SOL     OW38215   1.842   3.967   9.046  0.4321 -0.5333 -0.9098
 8861SOL    HW138216   1.934   3.954   9.022  0.6304 -0.8889  0.0404
 8861SOL    HW238217   1.837   3.902   9.116 -1.4686  0.7214  0.1234
 8862SOL     OW38218   4.618   2.069  10.172 -0.3196 -0.1275  0.0122
 8862SOL    HW138219   4.649   2.145  10.221 -1.2667  0.8696 -0.9383
 8862SOL    HW238220   4.697   2.032  10.132  0.8583  0.5473  1.6743
 8863SOL     OW38221   2.777   0.896   5.025 -0.2457  0.7042  0.0665
 8863SOL    HW138222   2.749   0.987   5.024 -1.2305  0.3959 -0.6063
 8863SOL    HW238223   2.836   0.908   5.100  1.1429  0.8553 -1.0678
 8864SOL     OW38224   3.200   1.539  16.772 -0.4822 -0.3966 -0.2004
 8864SOL    HW138225   3.159   1.479  16.834  1.1899  0.5335  1.7930
 8864SOL    HW238226   3.217   1.614  16.829 -1.1401 -0.4596  0.0753
 8865SOL     OW38227   4.361   4.256   8.908 -0.1218  0.0110  0.3493
 8865SOL    HW138228   4.408   4.308   8.842  0.8110  0.6088  1.4737
 8865SOL    HW238229   4.286   4.314   8.922  0.4709  0.1363  3.0001
 8866SOL     OW38230   3.149   3.884   1.865 -0.5977 -0.5903  0.1410
 8866SOL    HW138231   3.224   3.830   1.889  0.5857  0.6159 -0.8116
 8866SOL    HW238232   3.119   3.917   1.949  0.7444 -0.4069  0.5505
 8867SOL     OW38233   1.150   2.030  16.883  0.0893  0.1000  0.1243
 8867SOL    HW138234   1.225   2.023  16.823 -0.7107 -2.4403 -0.5579
 8867SOL    HW238235   1.195   2.002  16.963 -0.8542  1.2468  1.0496
 8868SOL     OW38236   1.125   0.351   7.048  0.0384 -0.6797  0.0567
 8868SOL    HW138237   1.193   0.316   6.990  0.3227 -0.1022  0.0303
 8868SOL    HW238238   1.159   0.317   7.131  1.5265 -0.1908 -0.3519
 8869SOL     OW38239   3.027   3.013   3.414  0.4401  0.9094  0.0486
 8869SOL    HW138240   3.071   3.085   3.370  1.4628  0.6645  0.6677
 8869SOL    HW238241   3.064   3.018   3.502 -0.2836 -1.0875  0.4529
 8870SOL     OW38242   4.530   0.581   4.632  0.4362 -0.2207  0.0447
 8870SOL    HW138243   4.528   0.663   4.681  2.5078  0.2400 -0.6558
 8870SOL    HW238244   4.574   0.527   4.697  0.0030 -0.2523  0.3072
 8871SOL     OW38245   1.318   2.623   4.181 -0.5832  0.1561  0.1327
 8871SOL    HW138246   1.376   2.614   4.106 -0.3801 -4.0367  0.7680
 8871SOL    HW238247   1.363   2.574   4.249  1.9416  3.5806  0.9228
 8872SOL     OW38248   1.350   3.678   4.306 -0.0753  0.0809 -0.3857
 8872SOL    HW138249   1.435   3.670   4.350  0.3633  0.6277 -1.1344
 8872SOL    HW238250   1.356   3.764   4.266  2.8064  0.1634  0.2231
 8873SOL     OW38251   0.595   2.112  13.366  0.0540 -0.1518  0.5542
 8873SOL    HW138252   0.675   2.061  13.369 -0.2790 -0.5722  2.1248
 8873SOL    HW238253   0.599   2.140  13.274  0.4985  0.3700  0.7357
 8874SOL     OW38254   0.170   2.729   3.517  0.2210  0.1622 -0.2007
 8874SOL    HW138255   0.207   2.817   3.510  0.1363  0.5874  4.2809
 8874SOL    HW238256   0.143   2.731   3.609 -0.5188  1.2380 -0.4452
 8875SOL     OW38257   2.769   2.685   7.908  0.4004  0.4320 -0.1292
 8875SOL    HW138258   2.685   2.707   7.868 -1.2787 -1.5700  2.2500
 8875SOL    HW238259   2.737   2.634   7.983 -0.5389  1.2405  0.0264
 8876SOL     OW38260   2.331   3.952   4.967 -0.3012 -1.1716  0.0309
 8876SOL    HW138261   2.241   3.926   4.988 -0.0607 -2.7136 -0.8803
 8876SOL    HW238262   2.318   3.943   4.872 -1.4715  0.6928  0.0107
 8877SOL     OW38263   4.514   4.646   1.719 -0.0171 -0.0690 -0.1416
 8877SOL    HW138264   4.608   4.663   1.708  0.0599  0.1138  0.7517
 8877SOL    HW238265   4.479   4.702   1.651 -1.1154 -0.0563  0.4357
 8878SOL     OW38266   3.557   0.901   3.767  0.2644 -0.2131 -0.1294
 8878SOL    HW138267   3.613   0.825   3.752 -1.3621 -1.4293 -0.1436
 8878SOL    HW238268   3.483   0.889   3.707  0.3677 -0.1169 -0.2765
 8879SOL     OW38269   1.692   0.516  13.446  0.1402  0.0387 -0.2514
 8879SOL    HW138270   1.696   0.567  13.366  1.5354 -0.4109 -0.4753
 8879SOL    HW238271   1.777   0.473  13.439  1.3363  1.8567  3.0145
 8880SOL     OW38272   3.183   4.269   0.698  0.2486  0.0397 -0.5828
 8880SOL    HW138273   3.159   4.284   0.607  0.6659  0.9967 -0.5280
 8880SOL    HW238274   3.117   4.333   0.725  2.3231  2.1081 -0.4330
 8881SOL     OW38275   0.243   2.158   3.338 -0.0867  0.0552 -0.4475
 8881SOL    HW138276   0.186   2.106   3.282  0.7449 -2.3926  0.9691
 8881SOL    HW238277   0.296   2.187   3.263 -0.6622  0.7956 -0.5629
 8882SOL     OW38278   0.145   3.159   6.808 -0.6626  0.7113 -0.2044
 8882SOL    HW138279   0.225   3.109   6.791 -1.1121 -0.1221  0.1061
 8882SOL    HW238280   0.162   3.240   6.761 -0.1069  0.8406  0.2144
 8883SOL     OW38281   1.543   3.341   5.353  0.5431 -0.3804  0.0037
 8883SOL    HW138282   1.523   3.432   5.332 -1.0902 -0.2604  2.0473
 8883SOL    HW238283   1.627   3.331   5.307 -0.5309 -4.5205 -1.1014
 8884SOL     OW38284   3.207   1.524   7.509 -0.0677 -0.2354 -0.6432
 8884SOL    HW138285   3.287   1.476   7.531 -0.3632 -0.0875  0.7894
 8884SOL    HW238286   3.250   1.608   7.522 -0.7162  0.4872 -3.2758
 8885SOL     OW38287   3.240   4.083  10.447  0.6645 -0.0877 -0.0314
 8885SOL    HW138288   3.200   4.166  10.472  2.9281  1.0274 -0.1294
 8885SOL    HW238289   3.194   4.018  10.501  0.0295  1.6547  1.5132
 8886SOL     OW38290   3.235   0.096   1.274  0.2127 -0.3832 -0.0375
 8886SOL    HW138291   3.315   0.126   1.230 -0.0138 -1.2696 -1.0652
 8886SOL    HW238292   3.245   0.142   1.357 -1.4894 -0.2235  0.0773
 8887SOL     OW38293   4.168   1.990   6.968 -0.2431  0.0192  0.2263
 8887SOL    HW138294   4.217   2.051   7.024  0.6686 -0.8539  0.3764
 8887SOL    HW238295   4.196   2.004   6.878  0.4988  0.3873  0.5181
 8888SOL     OW38296   1.727   0.518  11.744 -0.0250 -0.4679 -0.0262
 8888SOL    HW138297   1.756   0.600  11.783  0.3281 -1.1628  1.1708
 8888SOL    HW238298   1.675   0.551  11.670 -0.6628  0.1708  0.7054
 8889SOL     OW38299   4.518   0.069   5.818  0.1529 -0.1827  0.3154
 8889SOL    HW138300   4.497   0.151   5.775 -0.9369 -1.0137 -0.7382
 8889SOL    HW238301   4.478   0.077   5.905 -1.6099  2.0377 -0.6969
 8890SOL     OW38302   3.764   3.568   2.569 -0.1150 -0.4798 -0.6082
 8890SOL    HW138303   3.669   3.578   2.574  0.1719  3.3103 -2.7112
 8890SOL    HW238304   3.791   3.593   2.658  0.6567  1.5414 -1.3994
 8891SOL     OW38305   1.519   2.569   9.679 -0.1513  0.6870  0.3181
 8891SOL    HW138306   1.496   2.522   9.599  2.6869 -2.5888  1.3967
 8891SOL    HW238307   1.434   2.611   9.693 -0.6845 -0.4067  0.4121
 8892SOL     OW38308   2.047   0.005   2.836 -0.2269 -0.0115  0.0485
 8892SOL    HW138309   2.019   4.727   2.746 -0.7581  0.2178  0.1654
 8892SOL    HW238310   2.070   4.658   2.866 -3.9297 -1.2343 -0.7314
 8893SOL     OW38311   4.617   2.981   4.151  0.4732 -0.1841 -0.0213
 8893SOL    HW138312   4.691   3.000   4.208  2.3544 -1.3488 -2.0482
 8893SOL    HW238313   4.562   3.059   4.157  1.6070  0.6280 -0.1353
 8894SOL     OW38314   3.967   1.849  14.846 -0.0794  0.3789 -0.1677
 8894SOL    HW138315   3.980   1.938  14.816  0.7260  0.1331 -0.5544
 8894SOL    HW238316   4.044   1.809  14.806 -0.4245  1.3739 -1.7783
 8895SOL     OW38317   0.120   2.057   5.091 -0.0654 -0.2715  0.4071
 8895SOL    HW138318   0.157   2.135   5.131 -3.1259  1.3004  0.1312
 8895SOL    HW238319   0.076   2.011   5.163 -0.6680 -1.7479 -0.8883
 8896SOL     OW38320   4.282   4.580   8.187  0.1238 -0.2501  0.1801
 8896SOL    HW138321   4.262   4.672   8.168  5.3558  0.6985 -0.8000
 8896SOL    HW238322   4.210   4.556   8.245  0.1204 -0.5547  0.0512
 8897SOL     OW38323   3.453   2.537   7.612 -0.1932  0.7314  0.5640
 8897SOL    HW138324   3.533   2.505   7.569  0.2735  2.3968  0.1901
 8897SOL    HW238325   3.492   2.564   7.695 -1.3988 -1.9446  2.0043
 8898SOL     OW38326   3.779   0.030  14.427 -0.3758  0.4891  0.2870
 8898SOL    HW138327   3.806   0.059  14.514 -4.0761 -0.6238  1.8088
 8898SOL    HW238328   3.859   4.730  14.395 -0.1784 -0.0164  1.4160
 8899SOL     OW38329   2.015   0.635  11.005  0.4307 -1.0358 -0.2076
 8899SOL    HW138330   2.105   0.644  11.035  0.3116  1.3021 -0.5641
 8899SOL    HW238331   2.044   0.635  10.914  1.9801  1.2197  0.2833
 8900SOL     OW38332   3.646   3.293   0.380 -0.1859 -0.0158  0.1993
 8900SOL    HW138333   3.725   3.247   0.352 -1.3604 -1.4388 -0.7804
 8900SOL    HW238334   3.576   3.256   0.326 -0.2051  0.9071 -0.4166
 8901SOL     OW38335   2.248   1.522   8.452  0.4795 -0.8594 -0.0356
 8901SOL    HW138336   2.342   1.518   8.468  0.3622 -1.2254  0.5657
 8901SOL    HW238337   2.229   1.429   8.438  1.3025 -0.9968 -0.2621
 8902SOL     OW38338   1.822   0.192   5.567  0.0697  0.4949  0.9799
 8902SOL    HW138339   1.875   0.113   5.576 -0.5078 -0.0451 -0.2558
 8902SOL    HW238340   1.754   0.174   5.632  1.7347  0.8559  2.7890
 8903SOL     OW38341   0.374   4.600  11.417  0.1490 -0.3194 -0.2518
 8903SOL    HW138342   0.451   4.648  11.385 -0.4040  2.2908  2.4267
 8903SOL    HW238343   0.304   4.628  11.358  0.1645  0.8898  0.3086
 8904SOL     OW38344   2.072   3.182   0.682  0.3969  0.2154  0.2741
 8904SOL    HW138345   2.167   3.190   0.685  0.5948 -1.6946 -0.8683
 8904SOL    HW238346   2.038   3.271   0.694  0.3731  0.2952 -0.4196
 8905SOL     OW38347   0.694   2.382  15.158  0.2436  0.7293  0.1687
 8905SOL    HW138348   0.722   2.436  15.232 -1.6129 -0.3996  1.6728
 8905SOL    HW238349   0.722   2.293  15.178  2.8219  1.2888 -0.8471
 8906SOL     OW38350   1.022   3.634   7.967 -0.0257 -0.2714  0.6918
 8906SOL    HW138351   0.969   3.651   8.044  0.4712  0.5675  0.8451
 8906SOL    HW238352   0.947   3.612   7.911 -0.5858 -0.4187  1.5124
 8907SOL     OW38353   1.992   3.343   2.385  0.3197 -0.3376  0.3832
 8907SOL    HW138354   1.986   3.430   2.425 -1.0565 -0.2741  0.0265
 8907SOL    HW238355   2.077   3.336   2.340 -0.3209 -0.2102 -0.8476
 8908SOL     OW38356   4.501   4.146   1.589  0.2789  0.1548  0.2013
 8908SOL    HW138357   4.467   4.219   1.641  2.3320 -0.3931  2.3510
 8908SOL    HW238358   4.445   4.078   1.626 -0.9097  0.4067 -1.1552
 8909SOL     OW38359   2.011   0.726   0.730 -0.1295  0.4682  0.0012
 8909SOL    HW138360   2.058   0.646   0.753 -0.1476  0.2633 -0.6717
 8909SOL    HW238361   2.054   0.749   0.648 -0.2997  2.6616  0.5177
 8910SOL     OW38362   0.348   3.918   0.175  0.6351  0.2259  0.1112
 8910SOL    HW138363   0.335   3.991   0.236 -0.4748  0.5326 -0.4992
 8910SOL    HW238364   0.306   3.842   0.214 -0.5206  1.3015  0.9611
 8911SOL     OW38365   3.319   2.821   3.008 -0.2485  0.0420  0.0174
 8911SOL    HW138366   3.233   2.798   3.042 -0.1216 -0.1183  0.2370
 8911SOL    HW238367   3.316   2.803   2.914 -2.4973  1.5479 -0.1766
 8912SOL     OW38368   0.519   3.721   7.660  0.4526 -0.4924  0.1747
 8912SOL    HW138369   0.435   3.697   7.699 -0.7066  0.8933 -1.4493
 8912SOL    HW238370   0.535   3.649   7.599  1.9543  0.3992 -0.4776
 8913SOL     OW38371   3.060   2.967   4.253  0.1133  0.9611 -0.3010
 8913SOL    HW138372   3.081   3.045   4.305  0.8560  1.9281 -2.0554
 8913SOL    HW238373   3.013   2.909   4.313 -2.6059  1.1403 -2.2352
 8914SOL     OW38374   2.206   4.051   6.852  0.0422  0.0092 -0.1285
 8914SOL    HW138375   2.176   4.111   6.783  2.0899  3.1806  1.7315
 8914SOL    HW238376   2.267   4.001   6.798 -1.3247 -0.9631 -0.7961
 8915SOL     OW38377   0.798   2.626   6.205 -0.1627 -0.2840  1.1552
 8915SOL    HW138378   0.845   2.549   6.237 -0.1730  0.4242  2.8498
 8915SOL    HW238379   0.845   2.700   6.243 -1.2696  1.1108 -0.1708
 8916SOL     OW38380   2.966   1.191   4.704  0.3176  0.1970 -0.5248
 8916SOL    HW138381   3.021   1.157   4.774 -1.7306 -0.9240  0.5254
 8916SOL    HW238382   3.020   1.170   4.627  1.9666  1.1682  0.3719
 8917SOL     OW38383   0.442   3.855   7.325 -0.0227 -0.0223  0.0442
 8917SOL    HW138384   0.413   3.875   7.414 -1.3562  1.8871 -0.8368
 8917SOL    HW238385   0.402   3.771   7.303  1.8718 -1.3966  1.8004
 8918SOL     OW38386   2.184   4.510  10.111  0.1682  0.3349  0.0874
 8918SOL    HW138387   2.193   4.588  10.055 -1.8219  0.7119  0.2979
 8918SOL    HW238388   2.206   4.552  10.194  2.8505 -1.3945  0.2304
 8919SOL     OW38389   1.743   3.529  15.362  0.3247  0.3963 -0.1999
 8919SOL    HW138390   1.791   3.501  15.440 -0.0075 -0.5455 -0.3337
 8919SOL    HW238391   1.809   3.581  15.316  1.3560  0.8906  1.8107
 8920SOL     OW38392   0.672   3.565   0.457  0.6699 -0.1701  0.2208
 8920SOL    HW138393   0.607   3.495   0.466 -0.9710  1.1944 -1.1185
 8920SOL    HW238394   0.615   3.637   0.430  0.3323 -0.2945  0.6079
 8921SOL     OW38395   0.278   3.516  16.498 -0.1020 -0.4366 -0.2184
 8921SOL    HW138396   0.184   3.514  16.480  0.1640  0.6474 -1.7310
 8921SOL    HW238397   0.303   3.605  16.475  0.9031 -0.8191 -0.5896
 8922SOL     OW38398   4.044   3.580   5.715 -0.0643 -0.5334 -0.0663
 8922SOL    HW138399   4.058   3.520   5.788 -1.0965 -1.0029 -0.2611
 8922SOL    HW238400   4.071   3.531   5.638 -0.5457 -0.7606 -0.0867
 8923SOL     OW38401   2.714   2.554   4.373 -0.4960 -0.3335  0.2261
 8923SOL    HW138402   2.793   2.501   4.361 -1.8861 -2.0018 -1.4543
 8923SOL    HW238403   2.662   2.509   4.307  2.3733  0.4337 -2.5652
 8924SOL     OW38404   2.012   0.503   2.183  0.0981 -0.3631 -0.5094
 8924SOL    HW138405   1.968   0.587   2.172 -1.2859 -0.9900  0.3873
 8924SOL    HW238406   1.963   0.463   2.255 -1.1192  2.1359  0.0595
 8925SOL     OW38407   0.486   2.573  11.934 -0.4190 -0.2345 -0.4314
 8925SOL    HW138408   0.443   2.507  11.988  1.7546 -0.3283  1.1914
 8925SOL    HW238409   0.466   2.653  11.982  0.0126  1.3067 -2.8152
 8926SOL     OW38410   4.501   4.520   3.003  0.2012 -0.1735  0.6857
 8926SOL    HW138411   4.479   4.612   3.018  1.9841  0.2766  0.4670
 8926SOL    HW238412   4.592   4.528   3.031 -0.1490 -0.1752  1.8395
 8927SOL     OW38413   0.659   3.612  17.284 -0.1930 -0.0869 -0.1685
 8927SOL    HW138414   0.595   3.683  17.298 -0.5330  0.0136 -2.2032
 8927SOL    HW238415   0.642   3.581  17.195  2.2870  0.8917 -0.9777
 8928SOL     OW38416   0.336   1.205  13.530  0.2070  0.4146  0.2445
 8928SOL    HW138417   0.422   1.234  13.499  0.9842 -1.9957  0.1421
 8928SOL    HW238418   0.353   1.212  13.624 -0.7193  1.9532  0.2856
 8929SOL     OW38419   1.999   3.701   7.573 -0.4788 -0.2513 -0.3899
 8929SOL    HW138420   2.039   3.764   7.633 -1.0907  0.5831 -0.8501
 8929SOL    HW238421   1.920   3.740   7.536 -0.7277 -0.1120  0.2868
 8930SOL     OW38422   0.848   3.943   1.824 -0.3708  0.3616 -0.0405
 8930SOL    HW138423   0.940   3.968   1.836 -0.0167 -1.0378  0.1043
 8930SOL    HW238424   0.827   3.979   1.738  0.6268  0.4726 -0.2434
 8931SOL     OW38425   1.778   1.114   3.792 -0.0687  0.6047  0.0363
 8931SOL    HW138426   1.751   1.162   3.714  0.4769  2.1925  0.8339
 8931SOL    HW238427   1.764   1.024   3.762  2.4470  0.2876 -0.1764
 8932SOL     OW38428   3.959   0.329   5.567  0.0766  0.1382 -0.3621
 8932SOL    HW138429   3.968   0.241   5.531  1.1611  0.8620 -1.8834
 8932SOL    HW238430   3.890   0.378   5.522 -0.0535 -0.0417 -0.3565
 8933SOL     OW38431   3.376   4.232   6.706 -0.1180  0.2089  0.0945
 8933SOL    HW138432   3.413   4.194   6.786 -2.5069 -2.3374 -0.0212
 8933SOL    HW238433   3.447   4.290   6.679  1.0778 -0.6266  1.4558
 8934SOL     OW38434   0.669   2.986   4.459  0.2834  0.1526  0.2353
 8934SOL    HW138435   0.596   2.960   4.404  1.1162 -2.0738  0.1800
 8934SOL    HW238436   0.633   2.977   4.547 -1.6171  0.4683 -0.5245
 8935SOL     OW38437   3.397   0.798  12.313 -0.0730 -0.1816  0.1733
 8935SOL    HW138438   3.413   0.766  12.224 -1.0887 -0.2055  0.0007
 8935SOL    HW238439   3.420   0.890  12.302 -0.8258 -0.2174 -1.6818
 8936SOL     OW38440   0.218   0.048   3.546 -0.2946  0.4355  0.2083
 8936SOL    HW138441   0.123   0.058   3.548 -0.3950 -0.4643 -0.1655
 8936SOL    HW238442   0.224   4.711   3.492 -0.9832  0.5916 -0.1008
 8937SOL     OW38443   4.089   3.635   8.614 -0.2893  0.0702  0.2447
 8937SOL    HW138444   4.129   3.550   8.634 -1.3336  0.0117  2.1716
 8937SOL    HW238445   4.089   3.679   8.699  1.0395  0.6414 -0.0659
 8938SOL     OW38446   1.448   2.886   5.519  0.0496 -0.3690  0.5208
 8938SOL    HW138447   1.355   2.905   5.524  0.4540  1.3150  1.6018
 8938SOL    HW238448   1.480   2.977   5.521 -1.9052  0.2468  2.7373
 8939SOL     OW38449   2.165   1.454  13.389  0.2095 -0.1805 -0.0152
 8939SOL    HW138450   2.165   1.360  13.404 -0.9337 -0.3103 -0.8254
 8939SOL    HW238451   2.241   1.482  13.440 -0.0370  1.7270 -0.6838
 8940SOL     OW38452   3.149   4.342   7.798 -0.0688  0.7640 -0.2686
 8940SOL    HW138453   3.058   4.361   7.772  0.1755 -0.3042 -1.9010
 8940SOL    HW238454   3.193   4.317   7.717 -2.3756  2.2564 -2.0252
 8941SOL     OW38455   1.407   2.148   1.615  0.4220  0.0066  0.2125
 8941SOL    HW138456   1.330   2.100   1.648  0.3111 -0.3614 -0.5774
 8941SOL    HW238457   1.437   2.189   1.696 -0.2265  0.9351 -0.0251
 8942SOL     OW38458   0.716   2.988   5.402 -0.2155 -0.1576  0.4546
 8942SOL    HW138459   0.701   2.993   5.308 -1.7432 -1.1460  0.6501
 8942SOL    HW238460   0.631   2.963   5.438  0.9514 -2.3400  1.6787
 8943SOL     OW38461   2.486   0.520  13.050 -0.5874 -0.2548  0.1889
 8943SOL    HW138462   2.508   0.465  13.125 -0.8107 -1.3262 -0.5423
 8943SOL    HW238463   2.393   0.497  13.049 -0.7913  0.5779 -0.0293
 8944SOL     OW38464   4.665   0.749   5.814  0.5539  0.1123 -0.1498
 8944SOL    HW138465   4.689   0.841   5.818  0.7013  0.1628 -1.8694
 8944SOL    HW238466   4.579   0.753   5.856  0.2720  1.7205 -0.9089
 8945SOL     OW38467   2.221   4.621  10.543 -0.2769  0.2147  0.0224
 8945SOL    HW138468   2.302   4.570  10.529  0.2872  1.2396 -0.4466
 8945SOL    HW238469   2.147   4.560  10.544 -0.0197 -0.0859  0.4542
 8946SOL     OW38470   4.226   1.208  11.980 -0.4335  0.3455 -0.5662
 8946SOL    HW138471   4.218   1.157  11.900  0.9238 -0.6864 -0.0403
 8946SOL    HW238472   4.311   1.183  12.017 -0.4092 -0.9763 -1.5516
 8947SOL     OW38473   2.124   4.202  11.061 -0.3662 -0.4118  0.1204
 8947SOL    HW138474   2.046   4.189  11.116 -0.5625 -1.7334 -0.4745
 8947SOL    HW238475   2.120   4.297  11.046 -0.7521 -0.5750 -0.7709
 8948SOL     OW38476   2.874   0.695  11.220  0.1095  0.3605  0.2049
 8948SOL    HW138477   2.836   0.681  11.133 -1.4737  0.2299  0.9158
 8948SOL    HW238478   2.897   0.786  11.203  0.5472  0.0698 -0.7822
 8949SOL     OW38479   1.378   3.455   4.143  0.9510  0.4220 -0.0768
 8949SOL    HW138480   1.360   3.512   4.218 -0.9992 -0.1653 -0.0743
 8949SOL    HW238481   1.465   3.482   4.115  1.1142 -0.4611 -0.4244
 8950SOL     OW38482   4.340   1.126   4.654  0.3378  0.3537 -0.6384
 8950SOL    HW138483   4.258   1.151   4.696  0.9525 -0.5521  1.0686
 8950SOL    HW238484   4.317   1.034   4.638  1.1690  0.0177  0.1360
 8951SOL     OW38485   2.429   0.802   0.627  0.0068  0.1921  0.2682
 8951SOL    HW138486   2.500   0.867   0.625 -2.2863  2.7133  0.2271
 8951SOL    HW238487   2.452   0.749   0.703 -0.4114 -1.2012 -0.5827
 8952SOL     OW38488   0.672   2.713  17.056 -0.3037 -0.0027  0.1140
 8952SOL    HW138489   0.761   2.680  17.048 -1.2696 -2.6940  0.6842
 8952SOL    HW238490   0.671   2.784  16.992  1.1461 -0.8071 -0.7839
 8953SOL     OW38491   0.311   1.760  15.173  0.2209  0.2489  0.2148
 8953SOL    HW138492   0.295   1.855  15.173 -1.6375 -0.0714  1.3075
 8953SOL    HW238493   0.289   1.734  15.084  0.1098 -0.2507  0.3915
 8954SOL     OW38494   3.798   2.974  11.928 -0.5945  0.1207  0.9488
 8954SOL    HW138495   3.750   2.909  11.978  2.2717 -2.7330 -0.0450
 8954SOL    HW238496   3.769   2.968  11.837  0.1726  1.4026  0.6019
 8955SOL     OW38497   2.153   1.551   9.357  0.3441 -0.1053  0.6545
 8955SOL    HW138498   2.237   1.589   9.333  0.6222 -2.0927 -1.4720
 8955SOL    HW238499   2.169   1.534   9.450 -0.3183  1.2755  1.0296
 8956SOL     OW38500   0.344   1.083   3.350  0.3330 -0.1549  0.0029
 8956SOL    HW138501   0.336   1.057   3.442  1.8371 -2.5982 -0.5393
 8956SOL    HW238502   0.364   1.176   3.356  0.5379 -0.1955 -0.0541
 8957SOL     OW38503   4.226   2.420   5.805 -0.2758  0.8323  0.3872
 8957SOL    HW138504   4.182   2.358   5.863 -0.6492  0.3895 -0.3776
 8957SOL    HW238505   4.236   2.379   5.719  1.3661  1.0833  0.4461
 8958SOL     OW38506   3.268   0.404   2.110  0.0097  0.2753  0.0562
 8958SOL    HW138507   3.285   0.495   2.136  1.9322  0.3230 -1.3199
 8958SOL    HW238508   3.177   0.392   2.134  0.2066  0.4903  0.8865
 8959SOL     OW38509   2.488   1.776   6.388  0.2072 -0.1133 -0.6715
 8959SOL    HW138510   2.577   1.811   6.379 -0.5960  1.9232 -0.6653
 8959SOL    HW238511   2.507   1.682   6.388  1.1668  0.0789 -0.5407
 8960SOL     OW38512   3.817   3.439  12.034 -0.4454 -0.4810 -0.1597
 8960SOL    HW138513   3.833   3.500  12.106  0.2432 -1.5738  0.6158
 8960SOL    HW238514   3.798   3.359  12.084 -1.8377  0.0685  0.2024
 8961SOL     OW38515   1.509   2.964   7.506 -0.2060  0.4508  0.2452
 8961SOL    HW138516   1.574   2.924   7.564 -1.2639 -1.3698  0.1965
 8961SOL    HW238517   1.481   3.035   7.563  0.6026  0.7709  0.2339
 8962SOL     OW38518   2.944   0.197   4.653  0.1988  0.5450  0.4256
 8962SOL    HW138519   2.984   0.277   4.618  0.6991 -1.0093 -2.5756
 8962SOL    HW238520   2.852   0.216   4.672 -0.2467 -0.1866 -0.9598
 8963SOL     OW38521   1.595   2.173   2.816 -0.2076  0.3662  0.2609
 8963SOL    HW138522   1.598   2.242   2.882 -2.1697 -0.2398  0.9796
 8963SOL    HW238523   1.687   2.161   2.791 -0.3936 -0.6910  0.0758
 8964SOL     OW38524   3.615   3.381  16.151 -0.4155 -0.1663  0.2625
 8964SOL    HW138525   3.607   3.425  16.236  1.5264  1.2699 -0.2940
 8964SOL    HW238526   3.525   3.395  16.119 -1.1605 -2.4217  1.3936
 8965SOL     OW38527   3.197   2.801   2.319 -0.2434  0.4369  0.2066
 8965SOL    HW138528   3.102   2.793   2.307 -0.4171  2.2273  0.3477
 8965SOL    HW238529   3.202   2.866   2.389  3.2566  0.8586 -0.4762
 8966SOL     OW38530   3.366   1.223  12.500  0.0488 -0.0742  0.2731
 8966SOL    HW138531   3.370   1.157  12.432 -1.4454  0.3253 -0.1938
 8966SOL    HW238532   3.359   1.170  12.579 -2.1181  2.7564  1.9985
 8967SOL     OW38533   2.637   2.547  14.544  0.1894 -0.5004 -0.0205
 8967SOL    HW138534   2.681   2.631  14.560 -0.1189  0.0186 -1.9222
 8967SOL    HW238535   2.692   2.471  14.560  0.8035  0.2726  1.5061
 8968SOL     OW38536   2.322   2.408   8.818  0.0340  0.4186 -0.3651
 8968SOL    HW138537   2.244   2.416   8.872 -1.0846  2.7269 -2.3250
 8968SOL    HW238538   2.308   2.444   8.731 -0.7602  2.1707  0.4921
 8969SOL     OW38539   1.768   4.161   1.040  0.1515  0.6559 -0.2836
 8969SOL    HW138540   1.770   4.249   1.078 -2.2215  1.5743 -2.2484
 8969SOL    HW238541   1.847   4.130   1.083  0.6989 -0.3917 -2.0339
 8970SOL     OW38542   4.001   1.246   2.826 -0.0883  0.0777 -0.2515
 8970SOL    HW138543   4.078   1.190   2.837  0.7578  1.6328  1.8804
 8970SOL    HW238544   3.942   1.192   2.879  2.5738 -1.2801  1.3447
 8971SOL     OW38545   1.502   2.538   8.364 -0.7475  0.7968  0.0736
 8971SOL    HW138546   1.577   2.496   8.322 -0.0186  0.1716  1.9883
 8971SOL    HW238547   1.443   2.532   8.289 -0.2112  0.8093 -0.3547
 8972SOL     OW38548   3.799   3.179  12.113  0.2820  0.0045  0.4368
 8972SOL    HW138549   3.816   3.122  12.038 -0.6162  0.3554 -0.0286
 8972SOL    HW238550   3.771   3.124  12.185 -0.8435 -0.8682 -0.6681
 8973SOL     OW38551   3.476   3.739   8.854 -0.7287  0.1295 -0.2981
 8973SOL    HW138552   3.536   3.783   8.915 -1.6475  0.6172  0.2475
 8973SOL    HW238553   3.451   3.668   8.914  2.5106 -1.5965 -0.9588
 8974SOL     OW38554   4.055   0.086   5.875  0.2589 -0.1716 -0.3854
 8974SOL    HW138555   4.076   0.082   5.968  0.1139 -2.8252 -0.4770
 8974SOL    HW238556   3.978   0.142   5.871  0.4642  0.2277  1.1146
 8975SOL     OW38557   2.115   0.277   2.067  0.2060 -0.0419  0.4231
 8975SOL    HW138558   2.092   0.356   2.114 -1.1794  0.6142 -1.3607
 8975SOL    HW238559   2.198   0.305   2.028 -0.4415 -0.0152 -0.9561
 8976SOL     OW38560   4.213   2.507   8.008 -0.6918 -0.1031  0.1229
 8976SOL    HW138561   4.255   2.435   7.960  0.8595  0.5312  0.5146
 8976SOL    HW238562   4.271   2.528   8.081  0.9870 -2.6543 -0.4638
 8977SOL     OW38563   4.163   1.736   6.693 -0.4778  0.1765  0.7105
 8977SOL    HW138564   4.109   1.730   6.771 -0.7723 -0.4707  0.4518
 8977SOL    HW238565   4.223   1.808   6.715 -1.0532  0.4255  1.4632
 8978SOL     OW38566   1.700   1.727   8.423 -0.7271 -0.8384 -0.3868
 8978SOL    HW138567   1.719   1.720   8.517  0.7323  2.0115 -0.4613
 8978SOL    HW238568   1.701   1.823   8.416 -2.6395 -1.0101 -2.9904
 8979SOL     OW38569   0.637   2.828   3.617  0.5195  0.2445 -0.4554
 8979SOL    HW138570   0.708   2.841   3.554  1.0229  0.8325  0.2335
 8979SOL    HW238571   0.598   2.743   3.594 -0.2132  0.2206  0.8943
 8980SOL     OW38572   3.774   2.192   6.544  0.3009  0.4407 -0.1712
 8980SOL    HW138573   3.764   2.241   6.462  4.2917  0.8992 -0.3952
 8980SOL    HW238574   3.685   2.168   6.567  0.7233 -0.3375  0.6467
 8981SOL     OW38575   4.067   0.540  16.428 -0.2426  0.5846  0.0654
 8981SOL    HW138576   3.976   0.527  16.401  0.0715  1.0087 -1.1909
 8981SOL    HW238577   4.067   0.636  16.427  0.3151  0.6192  2.0140
 8982SOL     OW38578   2.203   0.346   7.947 -0.3178 -0.1154  0.2957
 8982SOL    HW138579   2.162   0.262   7.923 -0.2336  0.2962 -1.2914
 8982SOL    HW238580   2.284   0.331   7.898  0.1305 -0.4844  1.1534
 8983SOL     OW38581   3.192   4.098   8.113  0.1633  0.3421  0.7364
 8983SOL    HW138582   3.277   4.138   8.096 -1.0045  1.2911 -2.7476
 8983SOL    HW238583   3.132   4.157   8.067 -0.4165  2.2834  3.9723
 8984SOL     OW38584   0.125   4.463   9.387 -0.3738  0.8421  0.0534
 8984SOL    HW138585   0.062   4.512   9.333  0.4931  0.2686 -1.4930
 8984SOL    HW238586   0.077   4.414   9.454  1.0294  1.3315  1.4038
 8985SOL     OW38587   3.787   1.665  10.965  0.8089 -0.6265 -0.3443
 8985SOL    HW138588   3.838   1.674  10.884  0.2735 -0.8869 -0.7103
 8985SOL    HW238589   3.785   1.757  10.990 -0.6667 -0.7016 -0.2318
 8986SOL     OW38590   2.806   0.825   4.747  0.3327 -0.2702 -0.7390
 8986SOL    HW138591   2.812   0.873   4.830 -0.1901  1.7233 -1.8701
 8986SOL    HW238592   2.780   0.738   4.778  1.4791 -0.4213 -0.2164
 8987SOL     OW38593   4.442   3.482  14.566 -0.5272 -0.5555  0.5500
 8987SOL    HW138594   4.448   3.574  14.539  0.4579 -0.1108  2.2648
 8987SOL    HW238595   4.522   3.442  14.532  0.7833  0.3150  2.5087
 8988SOL     OW38596   0.629   2.957   4.722 -0.4157  0.4429 -0.3323
 8988SOL    HW138597   0.705   2.903   4.698 -1.6434 -1.2607 -0.3799
 8988SOL    HW238598   0.586   2.907   4.791 -0.2477  3.7288  2.1351
 8989SOL     OW38599   2.326   4.417   2.710  0.5435 -0.1394  0.0190
 8989SOL    HW138600   2.403   4.473   2.724  1.6948 -1.9581  0.8422
 8989SOL    HW238601   2.352   4.350   2.647 -1.9377 -1.9434  0.9231
 8990SOL     OW38602   3.024   1.040   0.139  0.9614 -0.2953 -1.1161
 8990SOL    HW138603   3.048   1.103   0.071 -0.1694  0.8412 -0.4665
 8990SOL    HW238604   2.953   1.080   0.190  2.7146  0.0079  1.1313
 8991SOL     OW38605   4.230   4.506   2.092  0.6379  0.2319 -0.5271
 8991SOL    HW138606   4.263   4.585   2.049 -1.8402  2.0261  0.8322
 8991SOL    HW238607   4.296   4.445   2.062 -1.7187 -3.2554  1.3588
 8992SOL     OW38608   4.338   1.481   7.777  0.2223  0.0539  0.4445
 8992SOL    HW138609   4.429   1.462   7.754  0.7274  2.5645  0.3301
 8992SOL    HW238610   4.293   1.402   7.747  1.6443 -0.8543  0.7237
 8993SOL     OW38611   1.450   4.618   4.036  0.0052  0.1328  0.6152
 8993SOL    HW138612   1.538   4.589   4.059 -0.7014 -3.0856 -0.6526
 8993SOL    HW238613   1.421   4.558   3.968 -0.6263  0.9483  0.1716
 8994SOL     OW38614   1.052   2.716  14.113 -0.3617 -0.1124  0.3259
 8994SOL    HW138615   1.099   2.638  14.142  0.7449  0.0093 -1.1676
 8994SOL    HW238616   1.034   2.677  14.027  2.7442  0.6852 -0.6688
 8995SOL     OW38617   2.253   3.303   5.749 -0.3646  0.3411 -0.0931
 8995SOL    HW138618   2.261   3.247   5.672 -0.3112  0.4977 -0.2020
 8995SOL    HW238619   2.280   3.241   5.816 -1.2553  0.1448  0.0878
 8996SOL     OW38620   3.816   4.413   3.555 -0.4107  0.1851 -0.0866
 8996SOL    HW138621   3.746   4.421   3.620 -0.7699 -2.1973 -0.1905
 8996SOL    HW238622   3.784   4.336   3.508 -0.3631  1.9627 -3.0294
 8997SOL     OW38623   1.614   1.850   7.609  0.1754 -0.3487  0.1882
 8997SOL    HW138624   1.584   1.935   7.578  0.0070  0.2406  1.9598
 8997SOL    HW238625   1.709   1.862   7.602  0.1607 -1.5285 -1.9302
 8998SOL     OW38626   3.467   0.287   6.243 -0.1067 -0.1583 -0.1101
 8998SOL    HW138627   3.539   0.247   6.195 -0.2710 -0.6636  0.0624
 8998SOL    HW238628   3.507   0.289   6.330 -1.5247  1.0240  0.5256
 8999SOL     OW38629   1.157   0.180   4.700 -0.6404 -0.0424 -0.7492
 8999SOL    HW138630   1.121   0.154   4.785 -3.1823  2.3173 -1.1267
 8999SOL    HW238631   1.181   0.272   4.709 -1.3180  0.1322 -0.7998
 9000SOL     OW38632   2.838   0.876   0.600 -0.4707  0.0461 -0.3291
 9000SOL    HW138633   2.835   0.781   0.591 -2.4026  0.1354 -0.6566
 9000SOL    HW238634   2.914   0.896   0.545  0.0793 -0.0322  0.4043
 9001SOL     OW38635   3.658   0.655   4.008 -0.3925 -0.1027  0.4946
 9001SOL    HW138636   3.752   0.659   4.024 -0.2551  0.1695 -0.3731
 9001SOL    HW238637   3.621   0.643   4.095 -0.2932  0.4900  0.6153
 9002SOL     OW38638   2.239   1.988   1.717  0.2929  0.0231  0.1101
 9002SOL    HW138639   2.168   2.046   1.744 -0.3139 -0.1327 -1.1880
 9002SOL    HW238640   2.189   1.909   1.699 -1.5212  0.5284  2.9536
 9003SOL     OW38641   2.925   0.585   7.425  0.2622 -0.1695 -0.5828
 9003SOL    HW138642   3.008   0.592   7.378  1.3276  1.3219  1.5095
 9003SOL    HW238643   2.903   0.492   7.421  2.1704 -0.6758  0.5292
 9004SOL     OW38644   2.068   3.093   9.585  0.1442  0.2238  0.2063
 9004SOL    HW138645   2.122   3.066   9.511  0.1858 -0.5017  0.5011
 9004SOL    HW238646   2.057   3.006   9.624 -2.2118  1.5448  2.4956
 9005SOL     OW38647   1.957   0.478   2.696  0.3106 -1.1876 -0.9047
 9005SOL    HW138648   2.020   0.544   2.669 -2.2249  1.5860 -0.0568
 9005SOL    HW238649   1.927   0.515   2.779  1.3301 -3.8538  0.6622
 9006SOL     OW38650   3.308   2.047   4.105  0.6604  0.6290  0.2993
 9006SOL    HW138651   3.398   2.049   4.073  1.5543 -0.5490  2.7329
 9006SOL    HW238652   3.307   1.952   4.121  1.3442  0.2587 -1.8982
 9007SOL     OW38653   3.670   0.321  12.003  0.2091  0.0751  0.3569
 9007SOL    HW138654   3.663   0.395  12.063  1.3806  0.9698 -0.6160
 9007SOL    HW238655   3.577   0.313  11.983 -0.0218  0.5663  1.2477
 9008SOL     OW38656   0.622   1.932   8.116  0.6842 -0.3156 -0.1703
 9008SOL    HW138657   0.708   1.965   8.141  1.0594 -1.2655 -0.2036
 9008SOL    HW238658   0.626   1.843   8.150 -0.2666  0.4671  1.9999
 9009SOL     OW38659   0.767   3.911   4.173  0.1138 -0.4576  0.0836
 9009SOL    HW138660   0.681   3.946   4.194 -0.4445 -2.1385  0.5469
 9009SOL    HW238661   0.784   3.969   4.099  1.5197 -1.6626 -0.5345
 9010SOL     OW38662   0.236   2.126   8.957  0.1722 -0.3230  0.3387
 9010SOL    HW138663   0.297   2.120   9.030  0.5769  1.3339  0.1294
 9010SOL    HW238664   0.250   2.209   8.911  1.4539  0.3087  1.9104
 9011SOL     OW38665   2.470   2.739  14.707  0.4167  0.1936  0.0604
 9011SOL    HW138666   2.408   2.760  14.638  0.7414  1.3394  0.1247
 9011SOL    HW238667   2.519   2.673  14.657 -0.7504 -0.7448  0.1613
 9012SOL     OW38668   0.189   2.260   3.053 -0.3098 -0.0173 -0.7322
 9012SOL    HW138669   0.214   2.339   3.100 -1.0105 -0.3677  0.2313
 9012SOL    HW238670   0.184   2.287   2.961 -0.1648  0.6286 -0.5500
 9013SOL     OW38671   3.369   2.117  15.559  0.0418 -0.0301  0.1855
 9013SOL    HW138672   3.302   2.118  15.490 -0.2601  0.3569  0.4819
 9013SOL    HW238673   3.448   2.111  15.506  0.9611 -0.2237  1.5636
 9014SOL     OW38674   1.736   1.426   1.047 -0.4675 -0.3281 -0.1182
 9014SOL    HW138675   1.746   1.360   0.980 -3.5505  0.6207 -1.5115
 9014SOL    HW238676   1.641   1.435   1.039 -0.3088  0.6234 -0.9854
 9015SOL     OW38677   3.881   2.397   9.192 -0.1513  0.4905 -0.2074
 9015SOL    HW138678   3.969   2.367   9.214 -0.5862  0.1399  1.0467
 9015SOL    HW238679   3.853   2.449   9.267  0.4067  0.9401 -0.3119
 9016SOL     OW38680   1.647   3.860   3.175  0.7089  0.5764 -0.1889
 9016SOL    HW138681   1.602   3.832   3.096  0.6892 -1.2287  0.4513
 9016SOL    HW238682   1.595   3.813   3.241  0.9271  0.8530  0.1785
 9017SOL     OW38683   0.132   3.943   1.386  0.2428 -0.1818 -0.3363
 9017SOL    HW138684   0.191   3.968   1.457 -3.2834 -1.4676  3.0856
 9017SOL    HW238685   0.062   4.008   1.385  0.6912  0.3063 -0.0073
 9018SOL     OW38686   0.673   3.528   2.198  0.3457 -0.1387  0.7546
 9018SOL    HW138687   0.737   3.586   2.157 -0.8978 -0.0162 -1.0440
 9018SOL    HW238688   0.596   3.577   2.169 -0.3358 -0.5191  1.9408
 9019SOL     OW38689   2.700   0.645   5.305  0.2514 -0.0196  0.4899
 9019SOL    HW138690   2.648   0.601   5.372  0.2842  0.0273  0.5472
 9019SOL    HW238691   2.752   0.709   5.355  0.8941 -0.2876  0.1754
 9020SOL     OW38692   3.095   3.974   8.648 -0.3203 -0.2991  0.1277
 9020SOL    HW138693   3.087   4.006   8.558 -2.2608 -1.2972 -0.0595
 9020SOL    HW238694   3.190   3.980   8.652 -0.3959  0.9894 -0.0699
 9021SOL     OW38695   3.439   3.407  11.531  0.6559 -0.1819  0.4139
 9021SOL    HW138696   3.503   3.477  11.543 -1.5943  1.8728  0.2494
 9021SOL    HW238697   3.499   3.346  11.487 -0.6759 -1.2547  0.1068
 9022SOL     OW38698   2.688   0.455   1.090 -0.1882  0.6212 -0.4258
 9022SOL    HW138699   2.759   0.492   1.037 -0.1844  0.8194 -0.2800
 9022SOL    HW238700   2.655   0.541   1.117 -0.1003  0.5062  0.0529
 9023SOL     OW38701   2.358   1.742   4.192  0.4847 -0.2569  0.1087
 9023SOL    HW138702   2.317   1.795   4.124  1.8472  1.1535  0.3763
 9023SOL    HW238703   2.451   1.751   4.168  0.3400 -0.6350 -0.5957
 9024SOL     OW38704   0.406   3.184   9.676 -0.3426  0.4256  0.3903
 9024SOL    HW138705   0.476   3.132   9.716  0.4084 -0.3160 -1.8765
 9024SOL    HW238706   0.445   3.270   9.664  1.0031 -0.3621 -0.9404
 9025SOL     OW38707   1.016   3.839   8.585 -0.0035 -0.2845 -0.0543
 9025SOL    HW138708   0.943   3.821   8.526  0.0594 -1.2001  0.1509
 9025SOL    HW238709   0.994   3.929   8.610 -0.0648 -0.7066  1.4367
 9026SOL     OW38710   1.005   3.029   2.827  0.4729  0.1647 -0.1826
 9026SOL    HW138711   1.002   2.943   2.785  3.3598 -0.0381  0.0053
 9026SOL    HW238712   0.980   3.007   2.917  0.9977  0.5463  0.0572
 9027SOL     OW38713   3.612   1.500  10.799  0.5635 -0.3006 -0.5728
 9027SOL    HW138714   3.664   1.545  10.865  1.4365 -0.8700 -0.8684
 9027SOL    HW238715   3.591   1.423  10.853 -2.5135  2.0951  1.6969
 9028SOL     OW38716   1.027   3.538   8.660 -0.7945 -0.1264 -0.3326
 9028SOL    HW138717   1.078   3.491   8.595 -3.2000  0.9802 -2.9977
 9028SOL    HW238718   1.014   3.622   8.616  0.7181  1.2306  1.7870
 9029SOL     OW38719   2.580   2.657   2.601 -0.4582  0.0343  0.3202
 9029SOL    HW138720   2.555   2.565   2.611  2.3349 -0.7783 -0.3492
 9029SOL    HW238721   2.527   2.679   2.524 -1.3633 -0.4390  0.8072
 9030SOL     OW38722   4.015   0.179  14.201  0.7845  0.1796 -0.1394
 9030SOL    HW138723   3.972   0.127  14.133  0.8270  0.4645 -0.3852
 9030SOL    HW238724   4.034   0.261  14.154 -3.2922  0.7148 -0.8115
 9031SOL     OW38725   2.908   1.218   8.577 -0.8627  0.5412  1.0106
 9031SOL    HW138726   2.846   1.201   8.649  1.0213  0.7038  2.6724
 9031SOL    HW238727   2.970   1.273   8.624 -0.8271  3.2971 -2.2834
 9032SOL     OW38728   1.190   0.007   5.061 -0.6852  0.4145 -0.9279
 9032SOL    HW138729   1.131   0.081   5.044  0.7363  1.1333 -2.7366
 9032SOL    HW238730   1.204   0.031   5.152 -2.7517  2.0719 -1.0290
 9033SOL     OW38731   0.072   4.572   8.231  0.0500 -0.1084  0.1914
 9033SOL    HW138732   0.039   4.509   8.168  0.7102  0.9796 -1.2432
 9033SOL    HW238733   0.123   4.630   8.175  0.4323 -1.7631 -1.1515
 9034SOL     OW38734   2.771   0.477   7.787 -0.3329 -0.4418 -0.6576
 9034SOL    HW138735   2.754   0.562   7.748  1.7802  1.8286  3.3327
 9034SOL    HW238736   2.685   0.436   7.785 -0.8997  0.7089  0.1897
 9035SOL     OW38737   3.129   1.322   8.398 -0.4548  0.2660  0.3416
 9035SOL    HW138738   3.065   1.392   8.387  0.6451  1.3231  0.6385
 9035SOL    HW238739   3.069   1.249   8.410 -0.9278  0.6770  0.4706
 9036SOL     OW38740   1.777   4.214   3.269  0.8539 -0.8864 -0.0877
 9036SOL    HW138741   1.795   4.242   3.179 -0.1238 -0.0130 -0.0062
 9036SOL    HW238742   1.835   4.277   3.311  1.9406  0.9639 -4.3529
 9037SOL     OW38743   3.639   2.986  13.295  0.2288 -0.3163  0.3121
 9037SOL    HW138744   3.638   3.074  13.332 -0.2778 -0.3224  0.3105
 9037SOL    HW238745   3.595   3.009  13.213  1.5669  0.1152 -0.2923
 9038SOL     OW38746   1.767   4.146  17.293  0.4827  0.0254 -0.6198
 9038SOL    HW138747   1.799   4.058  17.272 -0.0128 -0.5493  1.0219
 9038SOL    HW238748   1.831   4.171  17.360 -0.0049 -0.8745  0.1853
 9039SOL     OW38749   4.330   2.075   2.970  0.4991 -0.0641 -0.6528
 9039SOL    HW138750   4.351   2.167   2.990 -0.5072 -0.4706  2.2933
 9039SOL    HW238751   4.418   2.039   2.965 -0.0851 -1.3217 -1.9799
 9040SOL     OW38752   0.388   3.080  14.677  0.2649  1.1609  0.1684
 9040SOL    HW138753   0.456   3.127  14.725  0.8725  1.2464 -0.7578
 9040SOL    HW238754   0.431   3.058  14.594 -0.8623  1.2890 -0.4595
 9041SOL     OW38755   1.846   1.606   6.532 -0.4204 -0.1090  0.4459
 9041SOL    HW138756   1.769   1.555   6.557  0.4728 -0.6168  2.1847
 9041SOL    HW238757   1.794   1.675   6.491  0.2790 -0.1795 -0.5498
 9042SOL     OW38758   1.359   0.297   3.691  0.1365  0.8329  0.0644
 9042SOL    HW138759   1.341   0.223   3.633 -0.6071  0.0553  1.2926
 9042SOL    HW238760   1.373   0.250   3.773  1.5677 -0.4267 -0.9105
 9043SOL     OW38761   3.703   3.081   8.599 -0.2383  0.0591  0.7172
 9043SOL    HW138762   3.674   3.027   8.525 -0.4382 -0.4272  1.1541
 9043SOL    HW238763   3.643   3.044   8.663 -2.5472  0.9477 -0.9076
 9044SOL     OW38764   1.858   2.036   7.602 -0.6193 -0.3027 -0.4303
 9044SOL    HW138765   1.920   2.106   7.621 -0.5818 -0.2488 -0.7515
 9044SOL    HW238766   1.821   2.015   7.688 -1.0671 -0.4529 -0.6577
 9045SOL     OW38767   1.651   1.513   7.515 -0.3930  0.1712  0.0765
 9045SOL    HW138768   1.592   1.439   7.503  1.4952 -0.8779 -2.7607
 9045SOL    HW238769   1.642   1.540   7.607  0.8116 -3.3626  1.2759
 9046SOL     OW38770   4.132   3.385  14.977 -0.3168 -0.0087 -0.3407
 9046SOL    HW138771   4.183   3.449  15.027 -3.0576  1.7865  0.1091
 9046SOL    HW238772   4.102   3.335  15.052 -0.1702 -0.9483 -0.9124
 9047SOL     OW38773   4.249   0.293   1.477 -0.5204  0.5105  0.0085
 9047SOL    HW138774   4.181   0.299   1.544 -0.8680 -4.5255  0.0924
 9047SOL    HW238775   4.275   0.385   1.469 -0.2990  0.7402  3.2999
 9048SOL     OW38776   2.489   2.934   7.703 -0.2901  0.0172  0.2282
 9048SOL    HW138777   2.491   2.842   7.728 -0.6371  0.5221  2.1737
 9048SOL    HW238778   2.397   2.942   7.676  0.3650 -1.3402 -2.3638
 9049SOL     OW38779   3.175   4.092  14.075 -0.1929  0.5457  0.0931
 9049SOL    HW138780   3.168   4.020  14.013  1.8088  0.5948 -0.1839
 9049SOL    HW238781   3.190   4.052  14.161  0.9868  1.7221  0.4343
 9050SOL     OW38782   3.045   0.444   0.897 -0.4827  0.3021  0.4047
 9050SOL    HW138783   3.091   0.504   0.955 -0.1333  0.6344 -0.2146
 9050SOL    HW238784   3.117   0.383   0.881  0.2087  1.6777 -1.7074
 9051SOL     OW38785   3.154   4.392   8.532  0.0871  0.0587  0.1654
 9051SOL    HW138786   3.135   4.431   8.446 -1.4586  0.5465  0.7272
 9051SOL    HW238787   3.195   4.308   8.511  0.3777  0.1658  0.3207
 9052SOL     OW38788   0.154   4.130   0.685 -0.1558  0.3921  1.0607
 9052SOL    HW138789   0.062   4.122   0.658 -0.0372  0.2922  0.6827
 9052SOL    HW238790   0.151   4.104   0.777  2.7339 -3.4228  0.0696
 9053SOL     OW38791   2.080   3.891  10.239  0.4556 -0.6028 -0.2423
 9053SOL    HW138792   2.015   3.823  10.226  0.6781 -0.8949  0.1786
 9053SOL    HW238793   2.063   3.917  10.330  0.4025  2.3779 -1.0879
 9054SOL     OW38794   1.022   3.746   2.290 -0.0230  0.5833  0.5164
 9054SOL    HW138795   1.082   3.672   2.282  1.6975  1.7600  2.5228
 9054SOL    HW238796   0.966   3.737   2.213 -0.2925  0.3879  0.7391
 9055SOL     OW38797   3.455   0.867   5.994  0.0695  0.3914 -0.4658
 9055SOL    HW138798   3.466   0.772   6.005 -1.7553  0.3447  0.8289
 9055SOL    HW238799   3.472   0.883   5.901  0.3656 -1.9700 -0.8136
 9056SOL     OW38800   3.767   0.609   9.043 -0.0079 -0.3005  0.4314
 9056SOL    HW138801   3.833   0.669   9.077 -1.1054  1.3272 -0.3339
 9056SOL    HW238802   3.811   0.524   9.052  0.7403 -0.0686 -1.1824
 9057SOL     OW38803   0.012   0.654   2.916  0.2201 -0.2008 -0.4865
 9057SOL    HW138804   4.713   0.575   2.949  0.5823 -0.2518 -0.1612
 9057SOL    HW238805   0.095   0.656   2.963  0.9338 -0.6162 -1.7201
 9058SOL     OW38806   4.330   2.279   6.674 -0.2108 -0.1094 -0.1215
 9058SOL    HW138807   4.386   2.313   6.604  0.1482 -1.6785 -0.5996
 9058SOL    HW238808   4.243   2.308   6.644 -0.4940  0.5330  1.3318
 9059SOL     OW38809   2.056   3.709   4.283 -0.6392  0.2240 -0.0865
 9059SOL    HW138810   2.046   3.618   4.254 -0.2325  0.1903 -0.1177
 9059SOL    HW238811   2.003   3.752   4.216 -2.2434 -0.3732  0.7894
 9060SOL     OW38812   2.116   1.829  12.165 -0.6105 -0.1323  0.1965
 9060SOL    HW138813   2.063   1.792  12.236 -2.0950  2.5560  0.4828
 9060SOL    HW238814   2.185   1.856  12.227 -2.0661  3.7785  0.1353
 9061SOL     OW38815   1.442   1.628   5.295  0.3530 -0.3456 -0.2011
 9061SOL    HW138816   1.499   1.682   5.240  1.6516  1.1877  2.6410
 9061SOL    HW238817   1.377   1.690   5.328 -0.4601  0.5387 -3.4172
 9062SOL     OW38818   3.461   0.119   1.088  0.2370  0.1781 -0.4965
 9062SOL    HW138819   3.514   0.043   1.063 -0.3384 -0.5195  0.4214
 9062SOL    HW238820   3.535   0.160   1.132  0.6902 -1.0883 -0.0703
 9063SOL     OW38821   0.964   1.241   1.942  0.1090  0.1333  0.7464
 9063SOL    HW138822   0.929   1.303   1.878  2.0626  1.4296  0.9034
 9063SOL    HW238823   0.889   1.188   1.969  1.2964 -1.5361  0.7835
 9064SOL     OW38824   1.109   0.321   2.602 -0.0858  0.0020 -0.2478
 9064SOL    HW138825   1.199   0.289   2.597 -0.4277 -1.2377  1.6428
 9064SOL    HW238826   1.088   0.335   2.510  0.9508  0.5988 -0.4007
 9065SOL     OW38827   3.064   1.024   9.996  0.3137  0.6495 -0.1417
 9065SOL    HW138828   2.981   0.998   9.955  1.3549  0.1174 -1.9262
 9065SOL    HW238829   3.125   0.961   9.957  0.6596  1.5977 -1.1486
 9066SOL     OW38830   2.069   0.934  11.880  0.1211 -0.8794  0.0425
 9066SOL    HW138831   2.137   0.938  11.947 -0.6148 -0.3367  0.7579
 9066SOL    HW238832   2.113   0.889  11.808  1.5190 -0.4264  0.6321
 9067SOL     OW38833   0.691   0.272   7.840  0.4996  0.2564 -0.4058
 9067SOL    HW138834   0.682   0.364   7.818  0.6972  0.0144 -1.4810
 9067SOL    HW238835   0.783   0.256   7.820  1.0668  1.8074  0.9414
 9068SOL     OW38836   1.874   3.169   8.393 -0.1049 -0.2946 -0.1364
 9068SOL    HW138837   1.935   3.127   8.454  1.6371  0.5422 -1.2831
 9068SOL    HW238838   1.900   3.261   8.401  2.2208 -0.9839  0.3789
 9069SOL     OW38839   3.586   0.598  16.230  0.1969 -0.0520  0.4744
 9069SOL    HW138840   3.632   0.544  16.295 -1.2966  0.2135  1.7288
 9069SOL    HW238841   3.637   0.574  16.152 -0.4833 -0.6184  0.2051
 9070SOL     OW38842   0.338   3.203   8.418  0.2824  0.2243  0.0037
 9070SOL    HW138843   0.310   3.219   8.328 -1.0626 -1.3804  0.1218
 9070SOL    HW238844   0.289   3.263   8.474  0.4948  0.1705  0.2513
 9071SOL     OW38845   2.696   4.396   2.126 -0.0174  0.8865  0.0178
 9071SOL    HW138846   2.750   4.347   2.188 -3.0154 -1.7291  0.6052
 9071SOL    HW238847   2.642   4.447   2.187  0.3377  1.1482  0.1128
 9072SOL     OW38848   1.902   4.125   6.967  0.4537 -0.4137  0.0729
 9072SOL    HW138849   1.903   4.190   7.037 -0.5320 -0.5749  0.2330
 9072SOL    HW238850   1.964   4.162   6.904 -0.6602 -1.5025 -1.6958
 9073SOL     OW38851   1.744   4.725   1.816 -0.5088  0.1102 -0.0324
 9073SOL    HW138852   1.802   0.029   1.876 -0.3086 -0.4935  0.2309
 9073SOL    HW238853   1.706   0.052   1.762 -0.4462 -1.3695 -1.9693
 9074SOL     OW38854   4.736   1.547  14.265  0.1638 -1.0072  0.4358
 9074SOL    HW138855   4.710   1.638  14.252  3.4673 -0.1483 -0.2720
 9074SOL    HW238856   0.073   1.538  14.211  0.0636 -0.0382  0.1287
 9075SOL     OW38857   4.417   2.892   6.525  0.2769  0.0154  0.0879
 9075SOL    HW138858   4.356   2.838   6.575 -0.1854  1.4380  1.0611
 9075SOL    HW238859   4.373   2.886   6.440  1.6297 -1.1722 -0.5281
 9076SOL     OW38860   0.046   0.786   2.665 -0.1168  0.2066 -0.2689
 9076SOL    HW138861   0.138   0.797   2.686  0.1314 -1.9533 -0.2366
 9076SOL    HW238862   0.020   0.721   2.730 -0.2050  0.4464 -0.0650
 9077SOL     OW38863   4.712   3.466   5.073  0.4588 -0.1477 -0.9207
 9077SOL    HW138864   0.045   3.518   5.044  0.7094  0.7013  1.2637
 9077SOL    HW238865   4.705   3.400   5.003  0.2190  1.5160 -2.4462
 9078SOL     OW38866   2.113   0.698  17.641  0.7973  0.0055  0.3609
 9078SOL    HW138867   2.192   0.644  17.639  0.0699 -1.0539  0.1888
 9078SOL    HW238868   2.044   0.633  17.652 -0.2444  1.3873  2.0646
 9079SOL     OW38869   4.152   4.120  15.135 -0.9598 -0.4844  0.0206
 9079SOL    HW138870   4.216   4.072  15.082 -1.8659 -1.1109 -0.5021
 9079SOL    HW238871   4.113   4.175  15.068 -0.1573 -0.8102 -0.7112
 9080SOL     OW38872   1.348   1.209  17.502  0.2933  0.1128 -0.2581
 9080SOL    HW138873   1.362   1.267  17.576  0.2305  1.2335 -1.1218
 9080SOL    HW238874   1.408   1.244  17.436 -2.0548  3.8779 -0.3453
 9081SOL     OW38875   0.622   2.258   2.390 -0.0331  0.0956  0.0847
 9081SOL    HW138876   0.557   2.284   2.456 -0.7704  0.6435 -0.8667
 9081SOL    HW238877   0.646   2.177   2.436 -1.8169 -0.9878 -0.8765
 9082SOL     OW38878   0.185   0.892   6.824 -0.9003 -0.1181  0.4350
 9082SOL    HW138879   0.244   0.863   6.894 -1.4460 -0.4481  0.7604
 9082SOL    HW238880   0.124   0.818   6.825  1.8362 -2.3614  0.5888
 9083SOL     OW38881   3.646   3.334   4.418 -0.5552  0.1017  0.6123
 9083SOL    HW138882   3.562   3.337   4.373 -1.4050 -0.9317  2.0843
 9083SOL    HW238883   3.617   3.348   4.509  1.4819 -0.6997  1.3901
 9084SOL     OW38884   1.250   1.458   7.440  0.2770  0.1568 -0.0552
 9084SOL    HW138885   1.313   1.418   7.379  0.6786  0.5760  0.0807
 9084SOL    HW238886   1.308   1.512   7.494 -0.6678 -0.0747  1.1784
 9085SOL     OW38887   4.206   3.387  14.681  0.4559  0.1199  0.2070
 9085SOL    HW138888   4.202   3.399  14.776 -0.1262 -0.9845  0.3272
 9085SOL    HW238889   4.295   3.421  14.674  0.5252 -0.4676 -1.7174
 9086SOL     OW38890   4.074   3.465   2.611 -0.0802 -0.4045 -0.6791
 9086SOL    HW138891   4.001   3.497   2.664 -0.5496 -2.2435 -0.2293
 9086SOL    HW238892   4.057   3.376   2.580  0.8572 -0.5439 -0.7757
 9087SOL     OW38893   0.409   3.921   5.007  0.3839  0.2393 -0.1199
 9087SOL    HW138894   0.458   3.981   5.063  1.7317  1.3512 -2.4808
 9087SOL    HW238895   0.389   3.847   5.065 -0.5829  0.1667 -0.5438
 9088SOL     OW38896   3.762   2.898  15.564  0.3096  0.0189  0.4553
 9088SOL    HW138897   3.840   2.856  15.601 -0.5265 -2.7187 -0.8816
 9088SOL    HW238898   3.754   2.982  15.610 -1.0536 -1.0176  2.1332
 9089SOL     OW38899   2.574   2.601  13.535 -0.5612 -0.4210 -0.2469
 9089SOL    HW138900   2.604   2.511  13.524  1.2612 -0.2982  3.6153
 9089SOL    HW238901   2.547   2.615  13.445 -2.0196 -1.0120  0.1007
 9090SOL     OW38902   1.556   1.346   9.712  0.7241  0.3554 -0.4098
 9090SOL    HW138903   1.522   1.338   9.623  1.7710 -0.5330 -0.7330
 9090SOL    HW238904   1.494   1.406   9.753 -0.1447 -0.3236 -0.7481
 9091SOL     OW38905   2.042   0.871   5.625  0.3722  0.5273 -0.4384
 9091SOL    HW138906   2.034   0.949   5.570  1.0594 -0.5335 -2.0364
 9091SOL    HW238907   1.977   0.811   5.589  0.4576  1.2710 -1.8567
 9092SOL     OW38908   2.088   3.593   8.755  0.2419  0.3863  0.7268
 9092SOL    HW138909   2.042   3.586   8.839 -0.7952 -3.1889 -0.1495
 9092SOL    HW238910   2.014   3.595   8.694  1.6422  0.5098 -0.9689
 9093SOL     OW38911   2.163   0.867   8.221 -0.3712 -0.0739  0.0935
 9093SOL    HW138912   2.215   0.943   8.195  0.6731 -1.0081 -0.5461
 9093SOL    HW238913   2.141   0.890   8.311 -0.7741 -1.2434  0.2915
 9094SOL     OW38914   4.249   3.414   1.308 -0.2867 -0.1297  0.0143
 9094SOL    HW138915   4.162   3.394   1.273 -0.1113  0.2225 -0.6367
 9094SOL    HW238916   4.251   3.510   1.306  0.0043 -0.1596 -1.0950
 9095SOL     OW38917   2.232   1.890   9.087  0.1295 -0.6931 -0.5574
 9095SOL    HW138918   2.156   1.833   9.078 -1.7075  1.8651 -0.9785
 9095SOL    HW238919   2.193   1.976   9.076  0.8500 -0.4661 -1.4003
 9096SOL     OW38920   4.151   2.395   2.774  0.3655  0.1052  0.0904
 9096SOL    HW138921   4.183   2.401   2.863 -0.9926 -1.9649  0.7116
 9096SOL    HW238922   4.162   2.489   2.756  0.0477 -0.5804 -3.8306
 9097SOL     OW38923   0.316   2.313   6.424 -0.5867 -0.4930  0.8063
 9097SOL    HW138924   0.389   2.292   6.483 -0.8143  0.0339  1.2699
 9097SOL    HW238925   0.298   2.405   6.442  0.7239 -0.1762  0.4804
 9098SOL     OW38926   1.012   0.156   1.802  0.0522  0.5392 -0.1561
 9098SOL    HW138927   1.064   0.128   1.878  0.5807  0.4973 -0.5381
 9098SOL    HW238928   1.068   0.223   1.765 -0.8274  2.2136  1.5601
 9099SOL     OW38929   3.733   1.749   2.940  0.0348  0.2072 -0.0079
 9099SOL    HW138930   3.734   1.654   2.924 -0.1466  0.1628  0.2392
 9099SOL    HW238931   3.828   1.760   2.934 -0.1622  1.7198 -0.3932
 9100SOL     OW38932   1.207   0.157   4.274  0.8011  0.5977 -0.4097
 9100SOL    HW138933   1.193   0.130   4.184  2.2761 -4.4323  0.8984
 9100SOL    HW238934   1.254   0.077   4.299  1.3932  1.2350  0.5538
 9101SOL     OW38935   0.845   3.143   3.307  0.2568  0.0071 -0.5552
 9101SOL    HW138936   0.880   3.214   3.361  1.0634 -1.0481  0.2967
 9101SOL    HW238937   0.829   3.190   3.225  0.5406  1.5147  0.2607
 9102SOL     OW38938   0.068   0.864   4.501 -0.0739 -0.1674 -0.2586
 9102SOL    HW138939   4.725   0.906   4.511  0.9995  1.3206  2.5878
 9102SOL    HW238940   0.135   0.932   4.501 -0.4050  0.1552 -1.0748
 9103SOL     OW38941   4.068   2.904  15.633  0.8359 -0.5117  0.0447
 9103SOL    HW138942   4.050   2.810  15.634 -1.2922 -0.1168 -1.4049
 9103SOL    HW238943   4.163   2.908  15.640  0.7869 -0.2839  0.5716
 9104SOL     OW38944   3.061   2.047   5.302 -0.2966  0.2491 -0.5362
 9104SOL    HW138945   3.146   2.092   5.299  0.3730 -0.9438  0.7301
 9104SOL    HW238946   3.009   2.111   5.253  0.9625  1.1613 -0.6806
 9105SOL     OW38947   3.092   4.323   1.560 -0.3896 -0.3166  0.2397
 9105SOL    HW138948   3.008   4.323   1.515 -1.0070 -1.9003  1.3917
 9105SOL    HW238949   3.142   4.386   1.508 -2.3438  0.4361 -0.7234
 9106SOL     OW38950   3.263   1.236  15.482  0.3426  0.2515 -0.5343
 9106SOL    HW138951   3.271   1.328  15.457  2.6802  0.0564 -0.4790
 9106SOL    HW238952   3.189   1.233  15.542  0.9510  2.0151  0.3213
 9107SOL     OW38953   0.104   3.616   2.065  0.2423  0.0109  0.2895
 9107SOL    HW138954   0.114   3.708   2.087  0.4697  0.4485 -1.6220
 9107SOL    HW238955   0.086   3.621   1.971 -0.0353  0.5724  0.3753
 9108SOL     OW38956   0.867   4.542   5.718 -0.0818  0.7604  0.2364
 9108SOL    HW138957   0.772   4.551   5.714 -0.1548 -0.3370 -0.5835
 9108SOL    HW238958   0.878   4.594   5.797  1.9588 -0.5803  0.8303
 9109SOL     OW38959   0.095   2.070  15.400 -0.4757 -0.4686 -0.3071
 9109SOL    HW138960   0.074   2.099  15.311  2.5959  1.1642 -0.5117
 9109SOL    HW238961   0.013   2.092  15.445  0.2000  0.8584  0.2771
 9110SOL     OW38962   0.485   1.728   5.576 -0.0978 -0.0955  0.0293
 9110SOL    HW138963   0.422   1.725   5.648  0.6895  1.4022  0.7792
 9110SOL    HW238964   0.505   1.822   5.569  1.8987 -0.5189  0.0602
 9111SOL     OW38965   0.652   0.405   2.358  0.0202 -0.2164  0.2456
 9111SOL    HW138966   0.626   0.492   2.387  1.1913  0.5211 -0.9513
 9111SOL    HW238967   0.627   0.402   2.266  2.0237  1.3463 -0.3453
 9112SOL     OW38968   0.176   1.349   3.158  0.1189 -0.5358 -0.5358
 9112SOL    HW138969   0.188   1.434   3.201 -3.8759  0.4910 -1.4306
 9112SOL    HW238970   0.135   1.379   3.076 -0.1491  2.6656  0.7826
 9113SOL     OW38971   2.169   4.417   2.385 -0.1477  0.2404 -0.0269
 9113SOL    HW138972   2.136   4.477   2.452  0.4310  0.8045 -0.2486
 9113SOL    HW238973   2.260   4.439   2.368 -0.2382  0.5383 -0.1184
 9114SOL     OW38974   3.797   2.763  16.027  0.3922  0.4368  0.8531
 9114SOL    HW138975   3.800   2.682  15.977  0.7961 -0.2317  1.9686
 9114SOL    HW238976   3.735   2.822  15.985  0.5952  0.7226  0.9476
 9115SOL     OW38977   2.110   1.562   3.700  0.1161 -0.7903  0.7193
 9115SOL    HW138978   2.200   1.574   3.670  0.8146  0.1824  3.2489
 9115SOL    HW238979   2.103   1.468   3.717  0.9433 -1.0470 -0.3522
 9116SOL     OW38980   2.077   3.888   5.025  0.0315 -0.5086  0.0601
 9116SOL    HW138981   2.121   3.833   5.090 -2.7129 -2.6207  0.1001
 9116SOL    HW238982   1.989   3.857   5.044  0.6811 -1.8366  0.8776
 9117SOL     OW38983   4.126   4.074  15.890  0.2175 -0.0209  0.2234
 9117SOL    HW138984   4.047   4.069  15.944 -1.1873 -1.8310 -2.0147
 9117SOL    HW238985   4.139   4.169  15.882  0.3088 -0.1987 -1.7720
 9118SOL     OW38986   1.673   3.255   2.942  0.2284 -0.0206  0.4920
 9118SOL    HW138987   1.664   3.169   2.902  0.0101  0.8072 -1.2326
 9118SOL    HW238988   1.731   3.220   3.009  1.2137 -2.6219 -1.7461
 9119SOL     OW38989   4.590   3.767   2.957  0.1623 -0.3838  0.3397
 9119SOL    HW138990   4.623   3.854   2.978  0.1898 -0.1962 -0.5157
 9119SOL    HW238991   4.498   3.787   2.939  0.3004  0.5160  0.6633
 9120SOL     OW38992   3.925   3.739   7.339  0.2768 -0.5829 -0.3682
 9120SOL    HW138993   3.906   3.648   7.316  0.3925 -0.3234 -1.4753
 9120SOL    HW238994   3.919   3.717   7.432 -1.3155  0.2249 -0.2687
 9121SOL     OW38995   2.838   1.492   4.604 -0.0915 -0.2636  0.4202
 9121SOL    HW138996   2.808   1.506   4.515  1.7158 -0.7350 -0.2671
 9121SOL    HW238997   2.931   1.475   4.589 -0.1101 -1.7818  1.8653
 9122SOL     OW38998   3.663   3.464   9.205 -0.0067  0.5212 -0.4152
 9122SOL    HW138999   3.709   3.485   9.123  0.5125  0.6336 -0.0972
 9122SOL    HW239000   3.740   3.439   9.256 -0.4133 -1.0868 -0.6134
 9123SOL     OW39001   2.448   4.646  17.308  0.0859  0.1229 -0.0462
 9123SOL    HW139002   2.461   4.635  17.402 -0.1610  1.3690  0.1339
 9123SOL    HW239003   2.423   4.737  17.291 -1.2589 -0.0117  1.2716
 9124SOL     OW39004   0.497   1.278   4.987 -0.3633 -0.3190 -0.1822
 9124SOL    HW139005   0.458   1.274   5.074  0.1530  0.1675  0.0691
 9124SOL    HW239006   0.445   1.214   4.938  0.5045 -0.7107 -0.5900
 9125SOL     OW39007   1.249   1.798   8.632  0.0723 -0.6491 -0.7820
 9125SOL    HW139008   1.339   1.819   8.608 -0.6819  2.1658 -1.1491
 9125SOL    HW239009   1.218   1.888   8.621 -2.0420 -0.9830  2.6792
 9126SOL     OW39010   1.634   0.256   2.756 -0.2842 -0.0098 -0.4427
 9126SOL    HW139011   1.663   0.194   2.823 -0.5887 -0.5154 -0.7782
 9126SOL    HW239012   1.680   0.336   2.779 -2.0586  0.6120  0.9318
 9127SOL     OW39013   4.026   0.581   4.588 -0.2947  0.8201  0.1501
 9127SOL    HW139014   3.962   0.566   4.658  0.2322 -1.2214  0.1888
 9127SOL    HW239015   3.993   0.656   4.538 -0.6510  0.8985  0.4993
 9128SOL     OW39016   0.496   3.326   6.717 -0.3746 -0.4625 -0.3191
 9128SOL    HW139017   0.526   3.320   6.808  1.7814  3.5940 -0.7251
 9128SOL    HW239018   0.557   3.392   6.682 -2.1664  1.7545  0.7347
 9129SOL     OW39019   1.599   4.484   9.869 -0.5298 -0.4891 -0.0351
 9129SOL    HW139020   1.558   4.407   9.908 -1.4234 -0.7292 -1.4551
 9129SOL    HW239021   1.641   4.446   9.792  0.9478 -0.9998  1.0119
 9130SOL     OW39022   3.999   0.526   0.159 -0.0045 -0.0724  0.0623
 9130SOL    HW139023   3.996   0.445   0.108  1.0152  0.1302 -0.3264
 9130SOL    HW239024   4.069   0.577   0.118  0.4352  0.8466  1.9332
 9131SOL     OW39025   3.491   3.836   7.063  0.5731  0.1387 -0.0294
 9131SOL    HW139026   3.525   3.900   7.125  2.4231 -0.4648 -0.4326
 9131SOL    HW239027   3.516   3.752   7.103 -1.0944  0.4066  1.5809
 9132SOL     OW39028   0.958   4.084   8.340  0.2452  0.1522  0.9659
 9132SOL    HW139029   0.996   4.131   8.415 -1.3581 -1.2117  2.6408
 9132SOL    HW239030   0.868   4.074   8.371  0.6931 -0.4766  2.0790
 9133SOL     OW39031   0.765   1.928   0.868  0.3258 -0.1142  0.0677
 9133SOL    HW139032   0.830   1.885   0.814  1.9857  1.3664  0.9110
 9133SOL    HW239033   0.743   2.009   0.822  1.1196 -0.7541 -1.4367
 9134SOL     OW39034   0.350   1.453   8.629  0.4571 -0.1144 -0.2038
 9134SOL    HW139035   0.414   1.402   8.679  1.8744  1.3972 -0.4791
 9134SOL    HW239036   0.342   1.403   8.548  0.7126  1.0886 -0.9805
 9135SOL     OW39037   3.951   2.433   8.423 -0.0001 -0.6066 -0.3422
 9135SOL    HW139038   4.028   2.378   8.433 -0.1212 -0.1297  3.0798
 9135SOL    HW239039   3.898   2.417   8.501  0.1773 -0.8729 -0.2786
 9136SOL     OW39040   4.155   2.356   2.375  0.1205  0.3696 -0.1177
 9136SOL    HW139041   4.225   2.402   2.423  0.9489 -3.3794  2.2164
 9136SOL    HW239042   4.090   2.427   2.378 -0.8288 -0.5819  2.3305
 9137SOL     OW39043   4.416   0.097   1.555 -0.0799  0.0021  0.2223
 9137SOL    HW139044   4.348   0.163   1.545  1.7354  1.7985 -0.3088
 9137SOL    HW239045   4.384   0.038   1.486 -1.5492  1.6052 -0.4571
 9138SOL     OW39046   1.016   4.518   0.547  0.5022 -0.5853 -0.6363
 9138SOL    HW139047   1.033   4.608   0.572 -1.1513  0.2192 -2.4134
 9138SOL    HW239048   0.990   4.517   0.455 -0.4128 -0.2173 -0.3785
 9139SOL     OW39049   2.697   4.287  10.619  0.6086 -0.0083 -0.3868
 9139SOL    HW139050   2.630   4.237  10.572 -0.2537  0.5911  0.2052
 9139SOL    HW239051   2.644   4.362  10.646 -0.2306 -1.5555  2.2447
 9140SOL     OW39052   1.251   2.088  13.717  0.0468 -0.2318 -0.0573
 9140SOL    HW139053   1.276   2.082  13.810  0.8362  0.9251 -0.2014
 9140SOL    HW239054   1.193   2.015  13.697 -1.3010  0.8859 -0.2315
 9141SOL     OW39055   2.972   2.242   7.614 -0.0645 -0.4506 -0.4862
 9141SOL    HW139056   2.964   2.249   7.709 -0.5496  2.9793 -0.7792
 9141SOL    HW239057   3.060   2.203   7.611  0.1918  0.1559 -0.8536
 9142SOL     OW39058   0.646   0.881   8.647 -0.1852 -0.3042  0.3311
 9142SOL    HW139059   0.648   0.839   8.561 -2.2276  0.8370 -0.2927
 9142SOL    HW239060   0.712   0.950   8.640 -1.1715  0.4590 -1.5459
 9143SOL     OW39061   3.836   3.826   3.585  0.0677  0.6567  0.1869
 9143SOL    HW139062   3.897   3.848   3.655  1.1752 -1.3785 -0.1294
 9143SOL    HW239063   3.788   3.756   3.629  0.9884 -0.4156 -0.5151
 9144SOL     OW39064   4.142   2.452   9.922 -0.2252  0.0870  0.1720
 9144SOL    HW139065   4.135   2.525   9.861 -0.5152  0.4603  0.6501
 9144SOL    HW239066   4.232   2.426   9.902  0.0596  0.3584  1.1303
 9145SOL     OW39067   2.001   4.201   6.703 -0.1515  0.0759 -0.5117
 9145SOL    HW139068   2.055   4.232   6.630  0.7924  1.1709  0.6423
 9145SOL    HW239069   1.932   4.267   6.703 -2.9228 -2.8648  0.0614
 9146SOL     OW39070   1.424   1.623   9.983 -0.5048 -0.0169  0.0680
 9146SOL    HW139071   1.449   1.683  10.053  3.0939 -1.6716  0.2236
 9146SOL    HW239072   1.410   1.684   9.911 -2.7422 -1.0678 -0.3811
 9147SOL     OW39073   0.407   2.605   9.244  0.0636  0.9467 -0.4940
 9147SOL    HW139074   0.342   2.667   9.212 -1.4059 -1.3084 -1.8191
 9147SOL    HW239075   0.404   2.632   9.336 -0.5778 -0.9526  0.0239
 9148SOL     OW39076   0.139   3.926   3.631  0.4046 -0.1208  0.0657
 9148SOL    HW139077   0.072   3.862   3.606  1.7563 -1.8823  0.9312
 9148SOL    HW239078   0.152   3.904   3.723  1.1502  0.1387  0.0204
 9149SOL     OW39079   3.787   3.156   6.639 -0.2099  0.0630  0.1380
 9149SOL    HW139080   3.747   3.126   6.721  1.5986 -1.7312  0.3832
 9149SOL    HW239081   3.876   3.125   6.657  0.4257  2.3965  1.0053
 9150SOL     OW39082   1.573   3.239  10.103  0.1420 -0.0186  0.0360
 9150SOL    HW139083   1.520   3.300  10.052  1.5401  1.5828  0.4778
 9150SOL    HW239084   1.541   3.154  10.074 -1.3439  0.8949 -1.0401
 9151SOL     OW39085   1.573   1.855   4.127  0.1600  0.1184 -0.4936
 9151SOL    HW139086   1.524   1.932   4.096  0.7832  0.1810 -1.3425
 9151SOL    HW239087   1.591   1.889   4.214 -0.1801  1.1688 -0.8247
 9152SOL     OW39088   1.982   4.578  12.889 -0.3788  0.2535 -0.1854
 9152SOL    HW139089   1.961   4.671  12.885  6.0357  1.6069 -2.1521
 9152SOL    HW239090   1.900   4.538  12.861  0.9156 -1.3243 -1.7373
 9153SOL     OW39091   1.818   4.182   4.093 -0.3082  0.5325  0.4510
 9153SOL    HW139092   1.812   4.194   4.188 -0.6593  0.7920  0.3979
 9153SOL    HW239093   1.851   4.092   4.095 -0.6196  0.4243  0.7615
 9154SOL     OW39094   1.342   1.385   3.373  0.5224 -0.3833  0.2383
 9154SOL    HW139095   1.347   1.479   3.386 -0.4119 -0.7782  3.4891
 9154SOL    HW239096   1.437   1.371   3.377  0.4853 -0.4897  0.8283
 9155SOL     OW39097   3.510   0.738   9.010  0.6089 -0.5467  0.2694
 9155SOL    HW139098   3.595   0.696   8.997  0.7060  1.0532 -4.1549
 9155SOL    HW239099   3.466   0.682   9.073 -2.3338  0.2289 -1.0807
 9156SOL     OW39100   0.762   4.329   8.120 -0.1372  0.5477 -0.7525
 9156SOL    HW139101   0.688   4.384   8.097  0.1969  1.8616  1.2783
 9156SOL    HW239102   0.737   4.316   8.212 -0.7691 -0.1357 -1.0191
 9157SOL     OW39103   4.051   3.509   6.044 -0.1159 -0.1170  0.2812
 9157SOL    HW139104   4.089   3.437   5.994  1.4907  0.8040  0.1598
 9157SOL    HW239105   4.127   3.533   6.097 -0.1364 -2.1798  1.2417
 9158SOL     OW39106   0.482   1.424   9.615 -0.2211  0.9687  0.2054
 9158SOL    HW139107   0.420   1.469   9.558  0.1958  1.0034 -0.2217
 9158SOL    HW239108   0.540   1.493   9.646  0.3615  0.4368  0.2942
 9159SOL     OW39109   1.857   3.134   9.241  0.2426 -0.3534  0.0716
 9159SOL    HW139110   1.838   3.078   9.317 -0.4493  2.1279  1.7051
 9159SOL    HW239111   1.795   3.095   9.179 -1.0071  1.9604 -0.1056
 9160SOL     OW39112   1.530   3.208   4.107  0.1528  0.4260  0.5507
 9160SOL    HW139113   1.587   3.252   4.169 -1.1982  2.9045  0.0180
 9160SOL    HW239114   1.463   3.274   4.090 -0.9980 -0.9257 -0.1599
 9161SOL     OW39115   0.822   1.558  16.359 -0.3370 -0.3443 -0.5843
 9161SOL    HW139116   0.829   1.594  16.271  0.1616  1.0307  0.0151
 9161SOL    HW239117   0.912   1.539  16.384 -0.3877 -0.1673 -0.2567
 9162SOL     OW39118   1.313   1.625   4.446  0.0386 -0.1020  0.1464
 9162SOL    HW139119   1.334   1.612   4.354 -0.6307 -1.4496  0.1781
 9162SOL    HW239120   1.260   1.547   4.464 -0.5899  0.7687  2.0374
 9163SOL     OW39121   4.046   4.095   7.880 -0.6977  0.0696 -0.3258
 9163SOL    HW139122   4.126   4.067   7.836  0.9569  2.8617  0.9368
 9163SOL    HW239123   3.981   4.038   7.840  0.1856 -0.7509 -0.5896
 9164SOL     OW39124   1.169   0.059   7.847  0.0209 -0.1065 -0.3555
 9164SOL    HW139125   1.077   0.034   7.845  0.5600 -2.2614  2.5469
 9164SOL    HW239126   1.187   0.078   7.939 -1.4538  0.1481 -0.1304
 9165SOL     OW39127   2.760   4.598   3.858  0.3289 -0.3994 -0.5159
 9165SOL    HW139128   2.752   4.596   3.763  0.0819  0.3348 -0.5137
 9165SOL    HW239129   2.836   4.542   3.871  0.4602 -0.0289  0.3997
 9166SOL     OW39130   2.063   4.644   0.872  0.1915  0.0182 -0.6003
 9166SOL    HW139131   2.156   4.629   0.855  0.1670 -1.0453  0.2372
 9166SOL    HW239132   2.055   4.612   0.962  2.0352 -0.7007 -0.6883
 9167SOL     OW39133   1.525   2.998   4.493  0.0495 -0.3249 -0.1315
 9167SOL    HW139134   1.438   2.972   4.463 -1.2275 -0.6591  3.8492
 9167SOL    HW239135   1.511   3.092   4.504  1.8736 -0.1616  0.7309
 9168SOL     OW39136   1.328   0.063   9.964 -0.0319  0.1568  0.2875
 9168SOL    HW139137   1.335   0.157   9.947 -0.7854  0.5684  2.2131
 9168SOL    HW239138   1.354   0.047  10.055 -1.1753  1.4699  0.8393
 9169SOL     OW39139   1.776   2.334  10.763  0.4886 -0.0777 -0.3541
 9169SOL    HW139140   1.704   2.382  10.722  1.3756 -0.2789 -2.1369
 9169SOL    HW239141   1.805   2.274  10.694 -0.9640  1.3976 -2.2307
 9170SOL     OW39142   3.654   0.616   7.349  0.3897 -0.1746 -0.3463
 9170SOL    HW139143   3.681   0.657   7.266 -0.2866 -0.0889 -0.5293
 9170SOL    HW239144   3.622   0.532   7.314 -1.5514  0.1534  0.6293
 9171SOL     OW39145   1.093   2.900  14.354  0.0369 -0.0648 -0.8847
 9171SOL    HW139146   1.036   2.882  14.279 -1.0180 -2.1972  0.4135
 9171SOL    HW239147   1.140   2.979  14.331  1.7126 -1.1964 -1.3368
 9172SOL     OW39148   0.411   0.114   8.195  0.2331 -0.2713 -0.0987
 9172SOL    HW139149   0.360   0.151   8.266 -0.1971 -1.2429  0.0923
 9172SOL    HW239150   0.438   0.033   8.237  0.7117 -0.5758 -0.9797
 9173SOL     OW39151   3.260   3.799   2.382 -0.5588  0.8089  0.1297
 9173SOL    HW139152   3.343   3.758   2.359  0.4999  2.3727  1.1640
 9173SOL    HW239153   3.234   3.752   2.462  1.1255  1.2836  0.9451
 9174SOL     OW39154   3.594   1.782  10.692 -0.2652  0.1007  0.0495
 9174SOL    HW139155   3.509   1.758  10.655  0.2795 -1.3533 -0.2378
 9174SOL    HW239156   3.620   1.695  10.722  0.5525  0.4048  0.2257
 9175SOL     OW39157   1.568   0.849  11.745 -0.6916  0.0541 -0.2488
 9175SOL    HW139158   1.617   0.889  11.674 -2.0102 -0.8250 -1.6540
 9175SOL    HW239159   1.487   0.897  11.734  0.2637  1.0748 -2.9042
 9176SOL     OW39160   4.392   0.311   5.171  0.1033  0.1995  0.0907
 9176SOL    HW139161   4.365   0.229   5.129  3.8250 -0.7750 -0.4146
 9176SOL    HW239162   4.428   0.280   5.254  0.4976 -1.5946 -0.7605
 9177SOL     OW39163   3.357   4.269  11.838 -0.1497  0.5643 -0.3353
 9177SOL    HW139164   3.361   4.179  11.870  1.3606  0.2478 -1.3883
 9177SOL    HW239165   3.293   4.298  11.903 -0.2317 -2.2437  0.8194
 9178SOL     OW39166   0.719   2.354   7.669  0.4293  0.3838 -0.0723
 9178SOL    HW139167   0.797   2.343   7.615 -0.2933  1.0815 -1.2666
 9178SOL    HW239168   0.659   2.299   7.618  2.1972  0.5216 -2.3121
 9179SOL     OW39169   1.896   0.369   7.854 -0.2361  0.0325 -0.0375
 9179SOL    HW139170   1.832   0.387   7.922  0.2594  1.4403  0.0605
 9179SOL    HW239171   1.955   0.312   7.905 -2.1676 -2.1148 -0.2134
 9180SOL     OW39172   3.855   4.330   3.213 -0.3415 -0.5502 -0.4374
 9180SOL    HW139173   3.814   4.275   3.280 -0.8432 -0.7379 -0.8924
 9180SOL    HW239174   3.933   4.355   3.262  0.3912 -3.7104  0.0057
 9181SOL     OW39175   0.991   1.423   4.171  0.7733 -0.6457  0.2038
 9181SOL    HW139176   0.954   1.356   4.113 -0.7265  1.6745 -1.5142
 9181SOL    HW239177   1.051   1.359   4.209  0.6800 -1.6226 -1.2811
 9182SOL     OW39178   0.505   1.079   1.941  0.1865 -0.5916  0.0758
 9182SOL    HW139179   0.490   1.155   1.884  2.9821 -0.0814 -0.0175
 9182SOL    HW239180   0.468   1.110   2.023  0.8112 -3.5288  1.4668
 9183SOL     OW39181   2.995   4.082   3.086  0.8951 -0.1649 -0.3503
 9183SOL    HW139182   2.924   4.052   3.143  0.8192  1.5183  0.4472
 9183SOL    HW239183   3.015   3.999   3.042  0.0055 -0.0981 -0.8814
 9184SOL     OW39184   0.681   3.737   4.857 -0.0113 -0.1805  0.0697
 9184SOL    HW139185   0.728   3.776   4.930  1.6499 -0.8266 -0.6570
 9184SOL    HW239186   0.753   3.690   4.815  0.0068  0.4867 -0.6425
 9185SOL     OW39187   0.320   4.033   6.785 -0.2338  0.1619 -0.2664
 9185SOL    HW139188   0.267   3.982   6.724 -0.7062  0.0632  0.2248
 9185SOL    HW239189   0.378   4.070   6.719  1.2149 -2.0854 -0.2866
 9186SOL     OW39190   1.536   0.446  16.953  0.6771  0.0532 -0.4697
 9186SOL    HW139191   1.464   0.402  16.998  1.7242 -1.2752 -0.1102
 9186SOL    HW239192   1.561   0.500  17.028  0.3385  1.4518 -1.3582
 9187SOL     OW39193   1.795   3.443   2.217 -0.0547  0.0873  0.4340
 9187SOL    HW139194   1.857   3.390   2.268  0.1204  0.5541  0.7039
 9187SOL    HW239195   1.713   3.419   2.260  0.7569  1.5949  2.8026
 9188SOL     OW39196   2.390   1.332  13.070  0.6820 -0.4438  0.0527
 9188SOL    HW139197   2.338   1.413  13.070  2.6648  0.8291  1.0413
 9188SOL    HW239198   2.394   1.300  12.980 -2.0245 -1.0417  0.1531
 9189SOL     OW39199   1.229   1.173   2.844 -0.3723  0.5493  0.2187
 9189SOL    HW139200   1.248   1.212   2.929  1.6823  0.4496 -0.1932
 9189SOL    HW239201   1.314   1.169   2.801 -1.3268 -1.3720 -1.4971
 9190SOL     OW39202   1.704   0.670  15.215 -0.4945 -0.4647 -0.4524
 9190SOL    HW139203   1.702   0.749  15.161 -1.1292 -0.5089 -0.5006
 9190SOL    HW239204   1.749   0.696  15.296 -0.0565 -0.4997 -0.6859
 9191SOL     OW39205   0.693   0.438   3.415  0.6418  0.5800  0.5993
 9191SOL    HW139206   0.756   0.506   3.393  1.5199 -1.3572 -2.8567
 9191SOL    HW239207   0.720   0.421   3.504  0.5975 -2.8216 -0.0296
 9192SOL     OW39208   3.595   0.424  12.521 -0.0928 -0.1426  0.2144
 9192SOL    HW139209   3.522   0.406  12.462 -1.6703 -0.5521  2.3035
 9192SOL    HW239210   3.657   0.445  12.451  1.5649  1.1260  2.0722
 9193SOL     OW39211   3.585   1.701  17.556 -0.2700  0.5713  0.0438
 9193SOL    HW139212   3.673   1.716  17.590 -1.1827  1.5504  2.0143
 9193SOL    HW239213   3.536   1.728  17.634  1.2175  0.4695  1.0058
 9194SOL     OW39214   0.158   2.616   8.772 -0.3968 -0.2968 -0.2053
 9194SOL    HW139215   0.097   2.689   8.763 -1.1871 -0.8750  0.4988
 9194SOL    HW239216   0.239   2.656   8.805 -0.1656 -1.0206  0.1100
 9195SOL     OW39217   3.872   3.075   6.305 -0.0940  0.0535  0.3733
 9195SOL    HW139218   3.789   3.120   6.322  0.6725  2.0313 -1.0847
 9195SOL    HW239219   3.931   3.139   6.344  0.1937  1.1679 -1.8813
 9196SOL     OW39220   2.177   0.431  14.994  0.5927 -0.1029 -0.0517
 9196SOL    HW139221   2.263   0.430  15.035  0.3781 -0.4898  0.4003
 9196SOL    HW239222   2.134   0.502  15.043  2.2015 -1.8319  3.8517
 9197SOL     OW39223   2.503   1.937   5.126 -0.1476  0.4549  0.2008
 9197SOL    HW139224   2.422   1.928   5.077 -0.1028  0.7203  0.0765
 9197SOL    HW239225   2.538   2.018   5.087 -1.2461  0.7914 -0.0832
 9198SOL     OW39226   3.429   4.067   7.926  0.2443 -0.1074 -0.2489
 9198SOL    HW139227   3.382   3.984   7.926  1.5915 -0.8673  0.5894
 9198SOL    HW239228   3.409   4.113   7.845  1.1323 -0.2142 -0.5285
 9199SOL     OW39229   2.741   3.381   8.302 -0.1563 -0.1225 -0.2931
 9199SOL    HW139230   2.692   3.430   8.368 -1.2719 -1.3526 -0.2097
 9199SOL    HW239231   2.799   3.442   8.257  2.0522 -1.2346  1.0070
 9200SOL     OW39232   3.218   2.423   7.833 -0.2315 -0.5505  0.0046
 9200SOL    HW139233   3.259   2.389   7.913 -2.8678 -0.3764  1.4148
 9200SOL    HW239234   3.260   2.361   7.772 -0.9361 -0.9838 -0.0364
 9201SOL     OW39235   1.372   2.660  13.983  0.3256 -0.3343  0.3188
 9201SOL    HW139236   1.356   2.612  13.902 -1.0737  0.9935 -0.1894
 9201SOL    HW239237   1.327   2.597  14.040  1.5579 -0.1820  1.4717
 9202SOL     OW39238   2.494   4.659   3.607 -0.1968 -0.2945 -0.0918
 9202SOL    HW139239   2.581   4.662   3.567 -0.1166  0.2163  0.1260
 9202SOL    HW239240   2.477   4.567   3.628  2.7581 -0.7070  0.4192
 9203SOL     OW39241   4.619   0.892  11.078  0.3289 -0.0340 -0.4296
 9203SOL    HW139242   4.599   0.983  11.102 -0.1261  0.0551 -1.1453
 9203SOL    HW239243   4.573   0.891  10.994  1.7534  0.4494 -1.2263
 9204SOL     OW39244   0.302   3.941  13.970 -0.1570  0.3006  0.2344
 9204SOL    HW139245   0.298   3.851  14.004  0.0776 -0.8648 -2.8122
 9204SOL    HW239246   0.344   3.989  14.042  0.2224 -0.6986  0.6903
 9205SOL     OW39247   1.706   0.949   8.455  0.2241  0.8423 -0.1044
 9205SOL    HW139248   1.643   0.979   8.521 -1.2929 -3.4022  0.4044
 9205SOL    HW239249   1.646   0.939   8.381  1.6117 -1.5955 -0.9060
 9206SOL     OW39250   2.809   0.155   3.621  0.0754  0.5020  0.0200
 9206SOL    HW139251   2.750   0.196   3.558  3.0693  0.0481 -3.1404
 9206SOL    HW239252   2.809   0.064   3.590 -1.2406  0.5591 -0.1583
 9207SOL     OW39253   1.749   2.882  14.903  0.2964 -1.1217 -0.1162
 9207SOL    HW139254   1.670   2.934  14.892  3.0498  3.2861  0.9271
 9207SOL    HW239255   1.823   2.941  14.916 -0.4321 -0.3439  0.4648
 9208SOL     OW39256   3.694   1.608  15.065  0.0295  0.0583  0.5462
 9208SOL    HW139257   3.615   1.662  15.060  0.3361  0.4440 -0.2231
 9208SOL    HW239258   3.712   1.585  14.974 -1.5356 -2.7410  0.9591
 9209SOL     OW39259   2.063   2.675   7.720  0.4795 -0.8456 -0.0842
 9209SOL    HW139260   2.081   2.606   7.784  0.1746 -0.2900  0.6045
 9209SOL    HW239261   1.986   2.715   7.760  1.9306  0.8766  1.0359
 9210SOL     OW39262   3.619   1.538  16.898  0.2912 -0.9054  0.0084
 9210SOL    HW139263   3.656   1.495  16.821 -1.2738 -1.3800 -0.4769
 9210SOL    HW239264   3.656   1.481  16.965 -0.8981  0.9950  2.2699
 9211SOL     OW39265   2.848   0.791   8.825 -0.1304  0.1529  0.7986
 9211SOL    HW139266   2.904   0.844   8.767  1.2634  0.3848  2.3375
 9211SOL    HW239267   2.846   0.846   8.904  0.4791  0.3890  0.6586
 9212SOL     OW39268   3.836   0.935  15.011  0.2826 -0.2057 -0.1942
 9212SOL    HW139269   3.911   0.876  15.013  0.8454  0.5478  1.4524
 9212SOL    HW239270   3.880   1.020  15.003 -3.6016  1.8871  0.8395
 9213SOL     OW39271   3.379   1.764  16.917  0.0134  0.0393 -0.3719
 9213SOL    HW139272   3.431   1.696  16.960 -0.0417 -0.0906 -0.5088
 9213SOL    HW239273   3.431   1.766  16.837 -2.4875 -0.6622 -2.0180
 9214SOL     OW39274   4.005   2.236   0.268  0.5891  0.3053  0.9096
 9214SOL    HW139275   4.069   2.172   0.237 -0.7376 -1.6252  2.1368
 9214SOL    HW239276   3.962   2.185   0.337 -1.2088  1.1844  0.4412
 9215SOL     OW39277   1.570   2.815   6.159 -0.2071 -0.0589  0.4442
 9215SOL    HW139278   1.484   2.819   6.117  0.8968 -0.9946 -1.9072
 9215SOL    HW239279   1.584   2.887   6.221 -1.3365 -0.1409  0.7867
 9216SOL     OW39280   0.539   4.543   0.278  0.6706 -0.4749 -0.0929
 9216SOL    HW139281   0.550   4.466   0.334 -2.2371 -2.3461 -2.1082
 9216SOL    HW239282   0.443   4.545   0.276  0.6285 -2.1379 -0.2666
 9217SOL     OW39283   1.831   1.688   1.931  0.1583  0.4916 -0.1740
 9217SOL    HW139284   1.864   1.763   1.881 -1.6424 -0.2441 -2.4877
 9217SOL    HW239285   1.769   1.648   1.870 -0.5334  0.3291  0.6349
 9218SOL     OW39286   1.541   1.951   4.612 -0.3220 -0.1082 -0.6252
 9218SOL    HW139287   1.455   1.992   4.625 -1.5208 -2.2499 -1.5872
 9218SOL    HW239288   1.519   1.861   4.637  2.5567 -0.3690  0.9217
 9219SOL     OW39289   1.900   3.772  16.572 -0.5029  0.3457  0.3052
 9219SOL    HW139290   1.867   3.850  16.529  0.3865  1.0199  0.8653
 9219SOL    HW239291   1.892   3.707  16.502 -1.3176  3.2887 -2.3299
 9220SOL     OW39292   3.401   2.620  14.634  0.3714 -0.0265  0.1643
 9220SOL    HW139293   3.470   2.667  14.586 -0.7433 -0.6784 -2.0931
 9220SOL    HW239294   3.437   2.532  14.627 -0.1255 -0.3253  1.4169
 9221SOL     OW39295   1.662   2.818   7.675  0.1341  0.3228  0.0611
 9221SOL    HW139296   1.713   2.866   7.741 -2.4364  1.2831  1.3503
 9221SOL    HW239297   1.690   2.729   7.693 -1.4697 -0.1504  0.1971
 9222SOL     OW39298   1.027   4.533   2.637  0.2412 -0.0112  0.4097
 9222SOL    HW139299   0.993   4.603   2.692 -0.2944  0.0812 -0.0395
 9222SOL    HW239300   1.052   4.465   2.699  1.2760  0.1476  0.1653
 9223SOL     OW39301   3.474   1.978   7.043 -0.0682 -0.2864 -0.0868
 9223SOL    HW139302   3.515   1.983   7.129  0.0657  0.3468 -0.1887
 9223SOL    HW239303   3.381   1.987   7.065  0.0538  1.0527 -0.1369
 9224SOL     OW39304   3.206   4.148  15.536  0.1561  0.6490 -0.4688
 9224SOL    HW139305   3.144   4.093  15.584 -0.7727  0.7765 -1.5269
 9224SOL    HW239306   3.235   4.091  15.464 -2.2712 -1.0325 -0.1081
 9225SOL     OW39307   0.297   3.533  14.441  0.0627  0.2568  0.4268
 9225SOL    HW139308   0.338   3.609  14.399 -0.4892 -0.7401 -1.9532
 9225SOL    HW239309   0.232   3.512  14.373  1.1968 -0.2936 -0.4850
 9226SOL     OW39310   1.290   1.822   6.679  0.4696 -0.1133  0.2062
 9226SOL    HW139311   1.279   1.916   6.667 -1.8770 -0.1056  2.4381
 9226SOL    HW239312   1.225   1.811   6.748  2.6479 -0.5796  2.1859
 9227SOL     OW39313   4.211   4.558   5.117 -0.2885 -0.5583 -0.3388
 9227SOL    HW139314   4.249   4.470   5.114 -2.7929 -1.6174 -1.7275
 9227SOL    HW239315   4.188   4.556   5.023 -0.6840 -3.1509 -0.2025
 9228SOL     OW39316   0.375   2.027   8.163 -0.1705 -0.3460 -0.1563
 9228SOL    HW139317   0.462   1.987   8.162 -0.4655 -0.9460 -2.6152
 9228SOL    HW239318   0.377   2.099   8.227 -3.0592 -0.3950 -0.0352
 9229SOL     OW39319   0.403   1.239  11.849 -0.0341  0.5870  0.0139
 9229SOL    HW139320   0.314   1.267  11.831 -0.0669 -1.4882 -3.0356
 9229SOL    HW239321   0.428   1.218  11.759 -1.0680 -2.2130  0.3732
 9230SOL     OW39322   3.248   4.650   0.643 -0.1410 -0.4331 -0.1522
 9230SOL    HW139323   3.314   4.681   0.581  0.3580 -0.1784  0.5058
 9230SOL    HW239324   3.209   4.588   0.583  0.9014 -0.1960 -1.0705
 9231SOL     OW39325   0.035   0.014   0.996 -0.2276 -0.0422 -0.1539
 9231SOL    HW139326   0.037   0.110   1.000 -0.5489 -0.0971  1.6392
 9231SOL    HW239327   4.722   4.737   1.073  1.1794 -1.0750  0.5804
 9232SOL     OW39328   2.311   3.080   6.438 -0.0766 -0.0405 -0.2080
 9232SOL    HW139329   2.406   3.072   6.449 -0.1699  0.7521  1.0769
 9232SOL    HW239330   2.285   2.988   6.425  1.0735 -0.7228  2.3566
 9233SOL     OW39331   1.693   1.703   0.702  0.0091 -0.2934  0.0528
 9233SOL    HW139332   1.731   1.667   0.622 -0.8938  0.1834 -0.5854
 9233SOL    HW239333   1.693   1.798   0.688 -0.1556 -0.2082  0.6124
 9234SOL     OW39334   4.212   2.205   3.948  0.7192  0.2337  0.6535
 9234SOL    HW139335   4.298   2.235   3.977 -0.0990  1.5150  1.7876
 9234SOL    HW239336   4.247   2.145   3.882  1.0833 -0.0678  1.1197
 9235SOL     OW39337   1.983   3.231   7.503  0.3286  0.2085 -0.1397
 9235SOL    HW139338   1.983   3.174   7.580  1.7058  0.8402  0.3412
 9235SOL    HW239339   1.922   3.300   7.532  1.4481 -0.0431  2.8863
 9236SOL     OW39340   1.655   2.070   9.021 -0.2676  0.2520  0.0661
 9236SOL    HW139341   1.712   2.054   8.945 -0.4723 -0.5007  0.0714
 9236SOL    HW239342   1.668   2.163   9.035 -1.1410  0.4589 -0.5431
 9237SOL     OW39343   1.351   3.045   2.684 -0.3966  0.2844  0.5278
 9237SOL    HW139344   1.430   3.040   2.737  0.1375  0.9446 -0.1997
 9237SOL    HW239345   1.390   3.022   2.600  1.8848  3.1119  0.8260
 9238SOL     OW39346   4.521   3.458  16.435 -0.3869  1.0072 -0.4786
 9238SOL    HW139347   4.479   3.539  16.465 -2.0813 -0.4463  1.1429
 9238SOL    HW239348   4.565   3.431  16.516  0.2791 -1.0424 -1.5200
 9239SOL     OW39349   0.134   3.234  11.631 -0.0211  0.0117 -0.2694
 9239SOL    HW139350   0.188   3.247  11.553  0.3831 -1.4295 -0.2239
 9239SOL    HW239351   0.157   3.314  11.679  1.2417 -1.7322  2.0381
 9240SOL     OW39352   1.000   1.643   7.248 -0.1620 -0.3914 -0.0568
 9240SOL    HW139353   1.091   1.661   7.224 -0.1720 -0.1186  0.1083
 9240SOL    HW239354   1.010   1.549   7.258  1.3228 -0.1587  0.6273
 9241SOL     OW39355   2.038   0.577   4.616 -0.0506 -0.6201 -0.0957
 9241SOL    HW139356   2.111   0.573   4.677 -0.1620 -1.0721  0.0088
 9241SOL    HW239357   2.040   0.669   4.588 -1.2869 -0.4085  0.5072
 9242SOL     OW39358   3.336   4.605   4.869 -0.0470  0.6573 -0.2287
 9242SOL    HW139359   3.419   4.559   4.881 -0.7189  0.0005  2.0416
 9242SOL    HW239360   3.332   4.655   4.951 -0.8104  1.3157 -0.6706
 9243SOL     OW39361   3.159   3.739  16.220 -0.2106 -0.3073 -0.0262
 9243SOL    HW139362   3.120   3.807  16.164  0.2210 -0.4236 -0.4622
 9243SOL    HW239363   3.233   3.780  16.265 -1.3421  1.8532 -0.1339
 9244SOL     OW39364   0.048   2.596   7.556  0.1317 -0.0933 -0.0052
 9244SOL    HW139365   0.090   2.662   7.501  0.5126 -0.4173 -0.1038
 9244SOL    HW239366   0.129   2.566   7.597 -0.7511 -1.4581  0.7389
 9245SOL     OW39367   1.671   4.461   1.748 -0.5379  0.0733 -0.2051
 9245SOL    HW139368   1.746   4.420   1.705 -0.0185  1.7316 -0.8796
 9245SOL    HW239369   1.704   4.549   1.763  3.3802 -1.5276  0.6896
 9246SOL     OW39370   3.671   2.837   7.956 -0.5849 -0.2292 -0.6277
 9246SOL    HW139371   3.695   2.805   8.043 -1.0219  0.8999 -0.0852
 9246SOL    HW239372   3.681   2.932   7.959 -0.1633 -0.3459  1.8461
 9247SOL     OW39373   2.071   1.440  14.531  0.5126 -0.0151 -0.0691
 9247SOL    HW139374   2.076   1.363  14.475  0.2953  0.5442 -0.8587
 9247SOL    HW239375   1.988   1.474  14.498  0.0134 -3.3462 -2.2907
 9248SOL     OW39376   1.268   0.652   3.244 -0.0654 -0.2095  0.7935
 9248SOL    HW139377   1.333   0.722   3.235  1.2692 -1.4181  0.9470
 9248SOL    HW239378   1.191   0.697   3.211  0.9596 -1.4569 -3.3753
 9249SOL     OW39379   1.710   1.646   4.009  0.2689  0.0689  0.4324
 9249SOL    HW139380   1.798   1.682   4.011 -0.4295  1.8870 -2.5099
 9249SOL    HW239381   1.677   1.720   4.061 -2.2714 -0.9248  0.2577
 9250SOL     OW39382   4.023   0.297   3.086 -0.5934 -0.2249  0.1585
 9250SOL    HW139383   4.046   0.213   3.047 -1.7747 -0.2649 -0.4373
 9250SOL    HW239384   3.938   0.317   3.047  0.5790 -1.1899 -2.8851
 9251SOL     OW39385   1.044   1.104  13.754  0.2824 -0.3569 -0.1638
 9251SOL    HW139386   1.019   1.050  13.679 -0.1281  0.1933 -0.4254
 9251SOL    HW239387   1.025   1.191  13.718 -2.0427 -0.2270  1.3137
 9252SOL     OW39388   0.107   0.501   5.950 -0.0467 -0.6587  0.3182
 9252SOL    HW139389   0.016   0.490   5.978  0.0662  1.5263  1.5131
 9252SOL    HW239390   0.094   0.474   5.859  0.1014 -2.1042  0.7240
 9253SOL     OW39391   1.069   3.482   6.505 -0.0728 -0.4996  0.0683
 9253SOL    HW139392   1.151   3.477   6.457 -0.6646 -0.0129 -0.9980
 9253SOL    HW239393   1.090   3.547   6.572  1.3372 -0.4630 -0.4083
 9254SOL     OW39394   1.496   0.002   7.477 -0.1944  0.1505 -0.4784
 9254SOL    HW139395   1.441   4.714   7.404 -0.5884  0.2017 -0.1969
 9254SOL    HW239396   1.575   0.016   7.424 -0.7490 -0.9259 -1.6121
 9255SOL     OW39397   2.605   0.005   9.614  0.2443  0.5522 -0.4596
 9255SOL    HW139398   2.630   0.088   9.653 -0.8814  0.4726  0.4457
 9255SOL    HW239399   2.514   4.741   9.645  0.4945 -0.4273  0.0859
 9256SOL     OW39400   0.374   0.495   9.003  0.2800 -0.3427 -0.2797
 9256SOL    HW139401   0.329   0.548   9.068  1.0287 -1.2409  0.9676
 9256SOL    HW239402   0.452   0.549   8.994 -0.1752  0.4310  0.5533
 9257SOL     OW39403   0.281   4.297   6.423  0.2020 -0.0875  0.3262
 9257SOL    HW139404   0.231   4.357   6.479 -0.5705 -1.1264  0.7579
 9257SOL    HW239405   0.313   4.363   6.362 -0.0353  1.6735  2.1023
 9258SOL     OW39406   0.443   3.992   2.034 -0.1960  0.0577 -0.3038
 9258SOL    HW139407   0.433   4.033   1.948  3.3669  1.4266 -0.0561
 9258SOL    HW239408   0.536   4.006   2.046 -0.1868  0.7567 -1.1622
 9259SOL     OW39409   1.882   2.869  15.634 -0.1725 -0.2302 -0.3357
 9259SOL    HW139410   1.912   2.843  15.721 -3.8165  0.5463  1.1338
 9259SOL    HW239411   1.942   2.820  15.577  0.0793  0.3543 -0.5737
 9260SOL     OW39412   2.500   4.470   2.959  0.1041 -0.1883 -0.0701
 9260SOL    HW139413   2.563   4.399   2.960 -0.2254 -0.4510  1.5394
 9260SOL    HW239414   2.447   4.452   3.036  0.4785  0.5021  0.3446
 9261SOL     OW39415   3.800   0.166   2.724 -0.3198  0.2651 -0.0989
 9261SOL    HW139416   3.714   0.204   2.706 -1.2283 -2.0805 -0.6930
 9261SOL    HW239417   3.786   0.131   2.812  0.9598 -0.8946 -0.3635
 9262SOL     OW39418   3.328   1.998   2.956 -0.0297  0.2831 -0.1723
 9262SOL    HW139419   3.353   2.073   2.902  0.6065  0.6898  0.6810
 9262SOL    HW239420   3.296   1.937   2.890 -1.4773  0.9215 -0.0547
 9263SOL     OW39421   3.138   0.622   1.740  0.1645 -0.1805 -0.1860
 9263SOL    HW139422   3.139   0.709   1.700 -0.8550 -0.6306 -1.1958
 9263SOL    HW239423   3.043   0.616   1.742  0.0974  0.1215 -2.1410
 9264SOL     OW39424   1.342   2.942   2.992  0.2005 -0.0681  0.0491
 9264SOL    HW139425   1.341   2.851   3.024  0.1606 -0.8465 -2.2104
 9264SOL    HW239426   1.261   2.943   2.941 -1.4870  1.0681  2.7535
 9265SOL     OW39427   3.885   1.374  12.003 -0.5731  0.3234  0.6832
 9265SOL    HW139428   3.888   1.325  12.086 -1.4922  0.8403  1.0140
 9265SOL    HW239429   3.973   1.412  12.000 -0.7711  0.8613  1.7812
 9266SOL     OW39430   2.026   0.820   2.823 -0.1879 -0.4546 -0.1923
 9266SOL    HW139431   2.070   0.782   2.899  0.0278  0.6065  0.2164
 9266SOL    HW239432   2.101   0.854   2.774 -0.8542  0.4875 -0.5808
 9267SOL     OW39433   2.484   1.795   9.225 -0.3248 -0.7942 -0.0595
 9267SOL    HW139434   2.399   1.810   9.184  0.4567  0.3872 -1.2711
 9267SOL    HW239435   2.459   1.745   9.302  0.1210  0.3230  0.8084
 9268SOL     OW39436   3.240   1.725   4.584 -1.1396  0.0424  0.1808
 9268SOL    HW139437   3.322   1.735   4.535 -1.2447  0.5821  0.1141
 9268SOL    HW239438   3.174   1.716   4.516  0.2331 -3.2231 -0.6816
 9269SOL     OW39439   4.650   0.350  10.827 -0.8990  0.4420  0.2401
 9269SOL    HW139440   4.738   0.373  10.797 -0.8632  0.6833  0.5194
 9269SOL    HW239441   4.621   0.431  10.869 -2.4919 -0.7449  1.4405
 9270SOL     OW39442   2.254   0.723   9.610 -0.4948  0.0379  0.1288
 9270SOL    HW139443   2.183   0.688   9.557  0.1061 -0.5147 -0.3141
 9270SOL    HW239444   2.221   0.812   9.599 -1.1067 -0.5643 -2.7259
 9271SOL     OW39445   0.597   0.554   7.779 -0.0248  0.1881  0.3703
 9271SOL    HW139446   0.679   0.575   7.733  0.0514  2.3961  1.5588
 9271SOL    HW239447   0.575   0.638   7.819 -0.6786  0.0616  0.2690
 9272SOL     OW39448   3.967   4.613   2.103  0.2183  0.6375  0.3113
 9272SOL    HW139449   4.058   4.597   2.127 -0.0166 -0.9394  0.1636
 9272SOL    HW239450   3.959   4.579   2.014  0.2747  3.7884 -0.8950
 9273SOL     OW39451   0.441   0.109   6.107 -0.3872  0.2325  0.1508
 9273SOL    HW139452   0.382   0.126   6.034  0.0953 -0.9006 -0.5138
 9273SOL    HW239453   0.465   0.017   6.091 -0.0222  0.4587 -0.6378
 9274SOL     OW39454   3.464   4.084  14.362  0.1633 -0.3445 -0.3071
 9274SOL    HW139455   3.480   3.998  14.323  4.6949  0.4993 -0.3359
 9274SOL    HW239456   3.370   4.074  14.379  1.1247 -1.4859  4.2821
 9275SOL     OW39457   1.177   2.987   1.393 -0.0654  0.2260  0.0651
 9275SOL    HW139458   1.160   3.030   1.477  1.2490  0.4371  0.2245
 9275SOL    HW239459   1.136   2.901   1.398 -3.0154  1.6702  0.5221
 9276SOL     OW39460   1.442   4.714   2.016  0.0912  0.2647 -0.0250
 9276SOL    HW139461   1.519   4.676   1.974  0.1168 -0.1525  0.3947
 9276SOL    HW239462   1.392   4.637   2.044  0.6524 -0.9850 -2.4525
 9277SOL     OW39463   0.126   4.620   1.923 -0.1539  0.2562  0.4941
 9277SOL    HW139464   0.213   4.650   1.951  0.6779 -2.0879  0.4860
 9277SOL    HW239465   0.154   4.556   1.857  0.1591  0.0425  0.8345
 9278SOL     OW39466   2.467   1.302   2.915 -0.2572 -0.4177  0.1366
 9278SOL    HW139467   2.448   1.209   2.901 -1.3784 -0.3586  1.2286
 9278SOL    HW239468   2.558   1.310   2.885 -0.5464 -0.1860 -0.6641
 9279SOL     OW39469   3.526   1.213   7.646 -0.0030  0.0026 -0.0390
 9279SOL    HW139470   3.580   1.282   7.684 -0.5352  2.6904 -4.1450
 9279SOL    HW239471   3.440   1.250   7.626 -0.0442 -0.8848 -1.5036
 9280SOL     OW39472   1.506   0.595  13.641  0.4106  0.2209 -0.0373
 9280SOL    HW139473   1.588   0.579  13.594 -0.2211 -1.5641 -0.5256
 9280SOL    HW239474   1.458   0.656  13.586  1.2409  0.6654 -0.2670
 9281SOL     OW39475   4.618   2.497   3.184  0.2571  0.1342 -0.2332
 9281SOL    HW139476   4.668   2.523   3.261 -0.3902 -0.5753  0.4261
 9281SOL    HW239477   4.535   2.539   3.209  0.6515 -0.0172  1.3600
 9282SOL     OW39478   2.353   2.778  12.799  0.2566 -0.0243  0.0641
 9282SOL    HW139479   2.261   2.787  12.775  0.1565  1.2573  0.9120
 9282SOL    HW239480   2.365   2.851  12.860  2.9599 -0.5037  0.1074
 9283SOL     OW39481   3.096   2.788  11.942  0.2382  0.6838 -0.2532
 9283SOL    HW139482   3.012   2.748  11.964  2.2585 -2.0424  2.5056
 9283SOL    HW239483   3.091   2.869  11.992 -2.5780  2.7102 -3.9013
 9284SOL     OW39484   0.987   3.295   3.489  0.1322  0.0912  0.4276
 9284SOL    HW139485   1.024   3.382   3.501  0.6360 -0.1210  0.4130
 9284SOL    HW239486   1.024   3.250   3.565  0.5116 -2.0090 -1.0115
 9285SOL     OW39487   4.669   3.986  10.344 -0.6300 -0.2754  0.5160
 9285SOL    HW139488   4.589   4.014  10.389 -1.0230  0.7092 -0.7892
 9285SOL    HW239489   4.731   3.985  10.417 -0.2922  1.1499  0.2365
 9286SOL     OW39490   0.292   2.984   3.491  0.3038 -0.2308  0.6676
 9286SOL    HW139491   0.204   3.022   3.490  1.2392  1.9607  0.5739
 9286SOL    HW239492   0.345   3.056   3.525 -1.3792 -0.0264  2.8577
 9287SOL     OW39493   0.413   4.149   2.751 -0.0680 -0.0750  0.4784
 9287SOL    HW139494   0.339   4.187   2.798  0.5098  2.0109 -0.2888
 9287SOL    HW239495   0.477   4.215   2.777  0.0434 -0.1277  0.3406
 9288SOL     OW39496   4.319   2.296   7.849  0.2235 -0.0098 -0.2915
 9288SOL    HW139497   4.286   2.207   7.866 -0.1713  0.6249  2.2272
 9288SOL    HW239498   4.324   2.289   7.753  1.0462  2.3692 -0.4200
 9289SOL     OW39499   1.093   1.787   0.759  0.0046 -0.4330 -0.5119
 9289SOL    HW139500   1.181   1.787   0.721  0.0172  2.8123 -0.4670
 9289SOL    HW239501   1.053   1.866   0.722 -1.3316 -0.6545  0.4240
 9290SOL     OW39502   0.600   1.221   9.241 -0.0627 -0.4931  0.2121
 9290SOL    HW139503   0.657   1.242   9.315  1.1003  0.1326 -0.8513
 9290SOL    HW239504   0.525   1.278   9.255  1.1047  1.0369  0.2131
 9291SOL     OW39505   2.573   4.109   7.640  0.2504  0.1889  0.2653
 9291SOL    HW139506   2.616   4.083   7.559  0.1154 -1.6479  0.7577
 9291SOL    HW239507   2.499   4.048   7.634  0.2220  0.1357  1.1657
 9292SOL     OW39508   0.776   2.895   8.350  0.1380 -0.1832 -0.5138
 9292SOL    HW139509   0.814   2.824   8.296  3.2888  2.1662 -1.4164
 9292SOL    HW239510   0.702   2.935   8.306 -0.3571  0.8332  1.2645
 9293SOL     OW39511   2.255   2.281   5.649 -0.5425  0.1358  0.3101
 9293SOL    HW139512   2.171   2.238   5.664  0.0645 -0.9886  0.5272
 9293SOL    HW239513   2.310   2.206   5.627  0.0482 -0.3482  3.4505
 9294SOL     OW39514   2.412   4.652   7.937 -0.4400  0.4734  0.1047
 9294SOL    HW139515   2.455   4.566   7.935 -1.6056 -0.1387  1.8886
 9294SOL    HW239516   2.496   4.698   7.939 -0.9099  1.1774  2.4419
 9295SOL     OW39517   3.986   0.557  17.195 -0.0695 -0.6739 -0.0882
 9295SOL    HW139518   3.977   0.652  17.207  1.0380 -0.5168 -0.5074
 9295SOL    HW239519   4.074   0.543  17.229 -0.6796  0.2884  1.8610
 9296SOL     OW39520   4.043   1.087   3.527 -0.1092  0.2301 -0.2782
 9296SOL    HW139521   4.077   0.999   3.513 -2.6804 -0.7485 -0.3071
 9296SOL    HW239522   4.063   1.131   3.444  0.3134 -0.8776 -0.7590
 9297SOL     OW39523   1.624   4.418  10.202  1.1745  0.5779 -0.0407
 9297SOL    HW139524   1.682   4.414  10.126  2.4577 -2.4279  1.0951
 9297SOL    HW239525   1.549   4.456  10.156  0.3868  1.0495  1.6088
 9298SOL     OW39526   0.053   0.378   5.714 -0.2587  0.5921 -0.0852
 9298SOL    HW139527   0.038   0.283   5.709  0.1924  0.6120 -1.9680
 9298SOL    HW239528   0.135   0.383   5.666 -0.8985 -0.6279 -1.3246
 9299SOL     OW39529   0.460   0.417   1.888 -0.1924  0.0514 -0.0166
 9299SOL    HW139530   0.537   0.419   1.945  0.6585 -3.1339 -1.0966
 9299SOL    HW239531   0.493   0.429   1.799 -1.1102 -0.3238 -0.4028
 9300SOL     OW39532   4.042   1.243   2.249 -0.1801  0.4656  0.6795
 9300SOL    HW139533   3.986   1.282   2.182  0.3413  0.9969  0.5497
 9300SOL    HW239534   4.109   1.311   2.245 -1.6529  1.9468  1.0738
 9301SOL     OW39535   4.623   4.426  15.531 -1.0285  0.1744 -0.1920
 9301SOL    HW139536   4.535   4.461  15.550 -2.4174 -2.6033 -1.5394
 9301SOL    HW239537   4.605   4.351  15.475 -0.6622 -0.0851  0.0423
 9302SOL     OW39538   1.168   1.047   6.533 -0.5582  0.2790 -0.3263
 9302SOL    HW139539   1.256   1.015   6.555  0.6885  2.9648 -1.3504
 9302SOL    HW239540   1.191   1.061   6.441 -0.0644  1.2580 -0.0458
 9303SOL     OW39541   4.310   4.476  11.034 -0.1965  0.4889 -1.0946
 9303SOL    HW139542   4.264   4.465  10.950  0.4901 -0.3928 -1.3496
 9303SOL    HW239543   4.305   4.570  11.051 -1.0066  0.0627  0.9805
 9304SOL     OW39544   0.817   1.607   6.412 -0.6893  0.2900  0.0840
 9304SOL    HW139545   0.749   1.643   6.469 -1.7490  0.3528 -1.2054
 9304SOL    HW239546   0.794   1.654   6.332  0.1530  0.1443 -0.2391
 9305SOL     OW39547   2.211   0.594   4.818 -0.5870 -0.2795  0.7347
 9305SOL    HW139548   2.297   0.634   4.832 -1.5641  1.0526  3.0658
 9305SOL    HW239549   2.237   0.504   4.837  1.7761 -0.1592 -1.9098
 9306SOL     OW39550   0.854   1.047   5.957 -0.7565  0.0163  0.3304
 9306SOL    HW139551   0.776   1.100   5.939 -0.4793  0.7098  1.1669
 9306SOL    HW239552   0.930   1.097   5.929 -1.7046  0.3954 -1.5593
 9307SOL     OW39553   1.619   2.768   6.570 -0.1428 -0.3213 -0.4061
 9307SOL    HW139554   1.564   2.701   6.530  1.2968 -2.3802  1.0530
 9307SOL    HW239555   1.686   2.769   6.502  0.2512  0.8085 -0.0025
 9308SOL     OW39556   0.875   2.658   0.881  0.1188 -0.1399  0.3251
 9308SOL    HW139557   0.868   2.700   0.967  2.3126  1.3540 -0.2500
 9308SOL    HW239558   0.801   2.690   0.829  1.3152  1.7921 -0.1748
 9309SOL     OW39559   0.673   2.744  12.269 -0.3797  0.2521 -0.2641
 9309SOL    HW139560   0.647   2.822  12.221  1.6059  2.0889  1.6642
 9309SOL    HW239561   0.682   2.765  12.362  0.2791  2.2397 -0.7763
 9310SOL     OW39562   3.847   3.022   5.302 -0.0601 -0.3375  0.5744
 9310SOL    HW139563   3.937   3.038   5.275  0.3838 -2.8381  0.6252
 9310SOL    HW239564   3.834   3.097   5.360  1.8862 -1.9381  3.0583
 9311SOL     OW39565   0.425   2.226   3.813 -0.2482  0.3116  0.3150
 9311SOL    HW139566   0.347   2.179   3.844  0.4474 -0.9256  0.1952
 9311SOL    HW239567   0.445   2.187   3.728  0.2904 -1.2350  1.1591
 9312SOL     OW39568   1.925   1.665   7.823  0.4188 -0.3699  0.2145
 9312SOL    HW139569   1.939   1.757   7.845  3.2198 -0.7485 -0.0215
 9312SOL    HW239570   2.015   1.634   7.819  0.6035 -0.0269  1.8089
 9313SOL     OW39571   1.129   4.656   8.202  0.0570  0.4440  0.3568
 9313SOL    HW139572   1.224   4.654   8.213  0.1823  1.5000 -0.5357
 9313SOL    HW239573   1.110   0.008   8.195 -2.3996  0.0216  1.4201
 9314SOL     OW39574   2.040   1.271   3.636 -0.2681 -0.2696  0.2089
 9314SOL    HW139575   2.005   1.256   3.548  2.8328 -1.4674 -0.8230
 9314SOL    HW239576   2.107   1.203   3.634  0.7868  0.8686 -3.0877
 9315SOL     OW39577   0.121   1.990  10.047 -0.7523  0.1191  0.2019
 9315SOL    HW139578   0.119   2.050   9.973 -1.4922 -0.8843 -0.6009
 9315SOL    HW239579   0.199   2.024  10.091 -0.2012 -0.0196 -0.6664
 9316SOL     OW39580   0.989   0.316   6.057  0.6735 -0.0308  0.1205
 9316SOL    HW139581   1.082   0.311   6.036  0.2802 -1.7076 -1.2028
 9316SOL    HW239582   0.988   0.404   6.092 -1.1075  0.3465 -0.8877
 9317SOL     OW39583   2.722   1.940   1.845 -1.0529  0.1663  0.5750
 9317SOL    HW139584   2.738   2.005   1.914 -0.2305  2.3415 -1.6716
 9317SOL    HW239585   2.761   1.986   1.771 -1.4164 -0.5629 -0.0709
 9318SOL     OW39586   0.428   3.723  11.193 -0.2157 -0.5385 -0.9003
 9318SOL    HW139587   0.520   3.718  11.166 -0.8645 -2.1282 -2.8233
 9318SOL    HW239588   0.434   3.791  11.259 -0.1354 -2.0354  0.6323
 9319SOL     OW39589   1.624   2.671  17.640 -0.4036  0.4506  0.1996
 9319SOL    HW139590   1.648   2.740  17.702  0.2693  2.0294 -1.8275
 9319SOL    HW239591   1.665   2.725  17.572 -1.9097 -0.9379 -1.8326
 9320SOL     OW39592   1.893   1.176   9.042 -0.2257 -0.0643  0.5904
 9320SOL    HW139593   1.847   1.178   8.959  1.3541 -3.1517 -0.3432
 9320SOL    HW239594   1.832   1.228   9.094  1.3036  2.3680 -0.0532
 9321SOL     OW39595   3.126   1.885   4.828  0.3051  0.0068  0.0829
 9321SOL    HW139596   3.046   1.929   4.798 -0.1295 -1.6685 -1.2443
 9321SOL    HW239597   3.164   1.867   4.742 -0.8196  0.7565 -0.5721
 9322SOL     OW39598   1.294   1.868   7.515  0.1470  0.0768  0.6801
 9322SOL    HW139599   1.321   1.778   7.531 -0.0641 -0.1394 -0.1495
 9322SOL    HW239600   1.306   1.899   7.605 -1.0382  0.9271  0.5440
 9323SOL     OW39601   4.210   4.531  17.547  0.3836  0.1873 -0.0832
 9323SOL    HW139602   4.236   4.611  17.502 -0.2147  0.2723 -0.2783
 9323SOL    HW239603   4.149   4.496  17.482  0.1608 -1.7646  1.1765
 9324SOL     OW39604   0.454   3.113  13.950 -0.1413  0.3025  0.2529
 9324SOL    HW139605   0.361   3.136  13.952 -0.2288  0.2950 -3.5022
 9324SOL    HW239606   0.495   3.196  13.926 -1.2647  0.9764  0.6668
 9325SOL     OW39607   4.740   2.675   6.320  0.1312 -0.6489 -0.2532
 9325SOL    HW139608   0.054   2.752   6.331  0.2425 -0.7452 -0.1370
 9325SOL    HW239609   4.730   2.640   6.408  2.2640  0.2294  0.3439
 9326SOL     OW39610   0.530   2.444   8.552  0.1167  0.0636 -0.2607
 9326SOL    HW139611   0.564   2.412   8.636 -0.0076 -0.0323 -0.2462
 9326SOL    HW239612   0.436   2.453   8.566  0.1495  0.3914 -0.2588
 9327SOL     OW39613   1.956   2.170   9.490 -0.1182  0.5551  0.3221
 9327SOL    HW139614   2.049   2.190   9.489  0.0461 -0.2901 -1.7628
 9327SOL    HW239615   1.950   2.083   9.450 -2.3857  1.1629 -0.6952
 9328SOL     OW39616   3.456   1.069  17.392 -0.5404 -0.0505  0.4219
 9328SOL    HW139617   3.463   1.147  17.338  1.3797 -0.8315 -0.4215
 9328SOL    HW239618   3.376   1.027  17.360 -0.1536 -0.9790  0.6916
 9329SOL     OW39619   2.266   0.662  14.790  0.0654 -0.3729  0.2203
 9329SOL    HW139620   2.289   0.647  14.698  1.0621 -0.3288  0.4651
 9329SOL    HW239621   2.206   0.588  14.800  0.1465 -0.2307  1.7818
 9330SOL     OW39622   3.882   0.107   1.407  0.5804  0.2526  0.3910
 9330SOL    HW139623   3.876   0.073   1.497  1.4823  0.5515  0.5673
 9330SOL    HW239624   3.900   0.200   1.413  4.1601 -0.4469  1.0423
 9331SOL     OW39625   0.109   1.206   8.657 -0.3154 -0.0247 -0.1468
 9331SOL    HW139626   0.018   1.195   8.628  0.1788 -2.0747 -0.9858
 9331SOL    HW239627   0.090   1.192   8.749  0.7385 -5.0783 -0.6691
 9332SOL     OW39628   4.699   0.742   8.267 -0.0174  0.7228  0.3972
 9332SOL    HW139629   4.688   0.704   8.354 -2.7434  2.1666  0.6722
 9332SOL    HW239630   4.629   0.806   8.275 -0.1207  0.3555  2.4520
 9333SOL     OW39631   2.798   0.464   6.544 -0.0935  0.1891  0.2371
 9333SOL    HW139632   2.738   0.538   6.550 -0.7084 -0.2798 -0.1204
 9333SOL    HW239633   2.881   0.496   6.509  0.1293 -0.8183 -0.1637
 9334SOL     OW39634   0.278   3.455   3.419  0.1822  0.1786 -0.6298
 9334SOL    HW139635   0.202   3.463   3.362 -0.0667  1.2385 -0.1523
 9334SOL    HW239636   0.316   3.541   3.406  0.9616  0.0232  0.5909
 9335SOL     OW39637   4.655   4.416   7.372  0.3199 -0.1176 -0.0442
 9335SOL    HW139638   4.654   4.511   7.359 -1.2562  0.0540  1.2604
 9335SOL    HW239639   4.668   4.380   7.284  2.6821  1.8645 -0.4827
 9336SOL     OW39640   3.839   4.367  14.426  0.2448  0.0262  0.4624
 9336SOL    HW139641   3.767   4.304  14.435  0.7027 -0.4123  1.0617
 9336SOL    HW239642   3.804   4.435  14.368  1.4112  0.4279  0.2323
 9337SOL     OW39643   3.450   2.280  14.089  0.0098  0.3888  0.3231
 9337SOL    HW139644   3.381   2.299  14.153 -0.3713 -0.3585  0.1272
 9337SOL    HW239645   3.441   2.185  14.085 -0.1171  0.3525  1.4675
 9338SOL     OW39646   3.565   0.919  14.893  0.4691  0.3700  0.0655
 9338SOL    HW139647   3.543   0.851  14.956 -0.2894 -0.4623 -1.1042
 9338SOL    HW239648   3.647   0.947  14.934  0.6496  1.7684 -1.2492
 9339SOL     OW39649   4.177   1.009   0.345  0.5532 -0.3708 -0.2133
 9339SOL    HW139650   4.145   1.096   0.319  0.1998 -0.0482  1.2496
 9339SOL    HW239651   4.112   0.944   0.319 -0.6516  0.2166  1.2419
 9340SOL     OW39652   1.156   0.240   0.481 -0.3048 -0.0293  0.2594
 9340SOL    HW139653   1.101   0.308   0.443 -0.9917 -0.7556 -0.0413
 9340SOL    HW239654   1.238   0.257   0.435  0.2842 -0.9903  0.9574
 9341SOL     OW39655   4.186   2.567   1.012  0.5943  0.0885 -0.1062
 9341SOL    HW139656   4.144   2.566   0.926  3.3369 -2.0192 -1.3817
 9341SOL    HW239657   4.141   2.504   1.068  0.8881 -0.7097 -0.7758
 9342SOL     OW39658   0.604   4.295   5.628 -0.2373 -0.0524  0.1796
 9342SOL    HW139659   0.639   4.288   5.717  2.6792  0.7267 -0.9076
 9342SOL    HW239660   0.559   4.380   5.638 -0.2198  0.3333 -2.8637
 9343SOL     OW39661   0.515   3.131   8.814  0.0713  0.3385  0.1442
 9343SOL    HW139662   0.580   3.127   8.744 -0.8907  2.0394 -0.8518
 9343SOL    HW239663   0.539   3.211   8.860  2.4384 -1.4288  1.9939
 9344SOL     OW39664   1.666   4.556   7.770 -0.4067  0.1323  0.6516
 9344SOL    HW139665   1.724   4.540   7.845  1.2787  0.2931 -0.6034
 9344SOL    HW239666   1.710   4.628   7.724  1.0817 -0.6965  0.7817
 9345SOL     OW39667   2.768   4.221  15.517  0.6864 -0.0060  0.0068
 9345SOL    HW139668   2.762   4.314  15.498 -0.2963  0.5464  2.8972
 9345SOL    HW239669   2.684   4.198  15.559  0.0621 -0.7267 -1.6530
 9346SOL     OW39670   2.285   4.191   5.967  0.5354 -0.3125 -0.0968
 9346SOL    HW139671   2.333   4.133   6.026 -0.9255 -0.9544  0.4546
 9346SOL    HW239672   2.311   4.272   6.012 -1.7396 -0.5089  1.5380
 9347SOL     OW39673   2.713   2.033  10.645 -0.1817  0.1945 -0.2881
 9347SOL    HW139674   2.778   2.000  10.583 -1.3830 -2.0126 -0.3901
 9347SOL    HW239675   2.631   1.988  10.626 -0.8196  1.2825 -0.0802
 9348SOL     OW39676   3.485   3.680  16.481 -0.0418 -0.2293  0.1734
 9348SOL    HW139677   3.404   3.680  16.533  0.1169 -0.1053  0.4226
 9348SOL    HW239678   3.512   3.588  16.476  2.3566  0.5323 -0.8859
 9349SOL     OW39679   0.356   0.385  11.722  0.1010 -0.4171 -0.0335
 9349SOL    HW139680   0.345   0.364  11.815  1.1426  1.6525  0.5652
 9349SOL    HW239681   0.338   0.303  11.677 -2.2116 -1.4676  2.8260
 9350SOL     OW39682   1.483   2.159  11.437  0.2011  0.3676 -0.2586
 9350SOL    HW139683   1.401   2.128  11.397  2.4261 -3.4870 -1.8367
 9350SOL    HW239684   1.551   2.117  11.384 -1.5422 -1.1151 -1.3691
 9351SOL     OW39685   4.134   1.257   7.757 -0.3359  0.0151  0.1918
 9351SOL    HW139686   4.153   1.214   7.673 -0.1455 -1.1899  0.8524
 9351SOL    HW239687   4.039   1.263   7.743 -0.2805 -0.4548 -0.3735
 9352SOL     OW39688   4.561   0.742   3.104  0.3647 -0.3505 -0.2956
 9352SOL    HW139689   4.634   0.739   3.167  0.1936 -2.4050 -0.2180
 9352SOL    HW239690   4.613   0.741   3.024  0.9562  2.1392  0.0361
 9353SOL     OW39691   3.027   4.422   6.552 -0.3096  0.7351 -0.1293
 9353SOL    HW139692   3.112   4.461   6.530  0.2988 -1.5484 -1.7996
 9353SOL    HW239693   2.976   4.437   6.472  0.2146  2.3220 -0.1601
 9354SOL     OW39694   4.464   4.132   0.040  0.2425 -1.1101  0.3593
 9354SOL    HW139695   4.401   4.173   0.099 -0.2813  0.9052 -1.5903
 9354SOL    HW239696   4.536   4.151   0.100  0.0361  1.1456 -0.0871
 9355SOL     OW39697   0.960   4.340   3.301 -0.1269 -0.3658  0.0259
 9355SOL    HW139698   1.012   4.414   3.270  1.1437 -1.0608  0.5321
 9355SOL    HW239699   0.904   4.332   3.223 -0.3660 -1.4629  0.3159
 9356SOL     OW39700   3.189   4.204  17.757 -0.1917  0.6694  0.2364
 9356SOL    HW139701   3.174   4.119   0.034  0.7525 -0.0047 -0.8301
 9356SOL    HW239702   3.124   4.191  17.689  0.5790 -2.1931  0.0366
 9357SOL     OW39703   4.350   3.881   6.001 -0.4002  0.3444  0.3869
 9357SOL    HW139704   4.312   3.968   5.991 -0.5117  0.5538  2.6651
 9357SOL    HW239705   4.305   3.838   5.928 -0.9067  0.7028  0.4888
 9358SOL     OW39706   1.854   0.936   7.341 -0.4428  0.0008 -0.3254
 9358SOL    HW139707   1.860   0.997   7.414  1.8936 -0.9718  0.3136
 9358SOL    HW239708   1.798   0.870   7.381  1.6998 -0.2557  2.2645
 9359SOL     OW39709   4.697   4.186   5.457 -0.6569 -0.3969 -0.0725
 9359SOL    HW139710   4.620   4.130   5.450 -1.4116  0.7199 -0.6196
 9359SOL    HW239711   0.002   4.165   5.538  0.0073  0.0506 -0.3342
 9360SOL     OW39712   0.577   3.771   2.680 -0.3692  0.6478 -0.1322
 9360SOL    HW139713   0.528   3.694   2.652  1.3548 -0.2081 -0.7621
 9360SOL    HW239714   0.557   3.833   2.610  0.6479 -1.0715 -1.9360
 9361SOL     OW39715   1.269   2.871   8.466 -0.7432 -0.0726  0.2969
 9361SOL    HW139716   1.312   2.870   8.381 -1.1526 -0.2068  0.0930
 9361SOL    HW239717   1.192   2.925   8.445  0.5632  1.5681 -0.2068
 9362SOL     OW39718   1.931   4.045   2.756 -0.3409 -0.2588  0.1228
 9362SOL    HW139719   1.901   4.135   2.743 -3.4485 -1.5463 -1.8196
 9362SOL    HW239720   2.023   4.050   2.729 -0.6543  2.0762 -0.4728
 9363SOL     OW39721   2.061   3.826  16.086  0.1484  0.4295  0.5043
 9363SOL    HW139722   1.995   3.878  16.132 -0.7309 -0.2397 -0.0064
 9363SOL    HW239723   2.085   3.773  16.162  1.3295  1.1750  0.6634
 9364SOL     OW39724   3.155   1.593   3.350 -0.1246  0.5409 -0.5152
 9364SOL    HW139725   3.172   1.680   3.386  2.6745  0.0830 -0.6889
 9364SOL    HW239726   3.237   1.576   3.303  0.8853  0.4292  1.2739
 9365SOL     OW39727   4.402   3.729   3.559 -0.4846  0.1313  0.1354
 9365SOL    HW139728   4.407   3.779   3.477  1.5408 -1.3850 -0.6700
 9365SOL    HW239729   4.426   3.642   3.526 -0.5406 -0.4240  1.5535
 9366SOL     OW39730   0.513   0.772   7.909  0.4180 -0.4244  0.2609
 9366SOL    HW139731   0.420   0.781   7.928  0.0883  0.0267 -1.5398
 9366SOL    HW239732   0.522   0.860   7.873 -0.1047 -1.1671 -1.6958
 9367SOL     OW39733   3.494   0.636   7.827 -0.5873 -0.1675 -0.2791
 9367SOL    HW139734   3.442   0.556   7.814 -0.4822 -0.3413  0.3949
 9367SOL    HW239735   3.547   0.633   7.747 -0.5851  1.6594 -0.3625
 9368SOL     OW39736   0.136   1.677   6.996  0.1129  0.3602 -0.1317
 9368SOL    HW139737   0.121   1.770   7.017  1.2083  0.3565  0.6599
 9368SOL    HW239738   0.116   1.631   7.078  0.8216  1.7646  0.8339
 9369SOL     OW39739   3.191   0.274   3.429  0.0626 -0.1121 -0.2851
 9369SOL    HW139740   3.130   0.330   3.477  0.9575 -0.8764  1.7654
 9369SOL    HW239741   3.160   0.262   3.340  2.5284 -0.8137 -1.0698
 9370SOL     OW39742   0.934   1.653  15.237  0.0558  0.0051  0.3340
 9370SOL    HW139743   0.955   1.560  15.224  0.9945  0.2982 -0.2935
 9370SOL    HW239744   1.005   1.693  15.186 -0.7815  0.5964 -0.3748
 9371SOL     OW39745   0.456   1.383  12.062 -0.3842  0.0953  0.0649
 9371SOL    HW139746   0.455   1.322  11.988 -2.1051 -0.1119  0.2756
 9371SOL    HW239747   0.407   1.460  12.033  0.1901  0.5959  0.4083
 9372SOL     OW39748   3.578   1.040  16.594  0.5253 -0.0160 -0.4019
 9372SOL    HW139749   3.492   1.081  16.590  0.3633 -0.2932  0.3086
 9372SOL    HW239750   3.596   1.068  16.683 -2.3702  0.5206  0.0184
 9373SOL     OW39751   4.574   0.586  10.938  0.8854 -0.1999  0.1422
 9373SOL    HW139752   4.663   0.619  10.943  0.7922 -0.1917  1.5782
 9373SOL    HW239753   4.529   0.626  11.012  0.0037 -1.7472  0.4307
 9374SOL     OW39754   1.841   3.326  16.165  0.4788  0.0206 -0.6127
 9374SOL    HW139755   1.791   3.290  16.091 -1.3900  0.8150  0.2602
 9374SOL    HW239756   1.872   3.408  16.127  0.9667 -0.6076 -1.5866
 9375SOL     OW39757   2.980   0.259   5.146  0.4279  0.1837  0.3376
 9375SOL    HW139758   3.038   0.186   5.164 -0.0036 -0.2302  0.0361
 9375SOL    HW239759   2.977   0.298   5.233  1.6114  0.9434  0.0454
 9376SOL     OW39760   2.882   2.641   7.620 -0.3355 -0.0571  0.2554
 9376SOL    HW139761   2.972   2.634   7.650 -0.3457  1.5494  0.6170
 9376SOL    HW239762   2.846   2.650   7.708  2.7012 -1.2149  1.6181
 9377SOL     OW39763   0.426   0.197   3.511  0.0399 -0.3568  0.0094
 9377SOL    HW139764   0.346   0.146   3.509 -0.3248  0.2403 -0.8400
 9377SOL    HW239765   0.454   0.181   3.601 -0.9117 -0.1068  0.3449
 9378SOL     OW39766   2.981   4.581   7.746  0.3131  0.2931  0.6128
 9378SOL    HW139767   3.000   4.574   7.652  1.0269 -1.1258  0.8634
 9378SOL    HW239768   3.059   4.636   7.758  1.6944 -1.7141  0.8003
 9379SOL     OW39769   0.893   3.276   6.477 -0.7551  0.3921 -0.2499
 9379SOL    HW139770   0.819   3.332   6.453 -0.4372  1.2361  0.7205
 9379SOL    HW239771   0.961   3.340   6.498 -0.3234  0.0073 -0.4878
 9380SOL     OW39772   0.108   0.999   7.925  0.7438  0.3752 -0.0484
 9380SOL    HW139773   0.192   1.044   7.919  1.5546 -1.3479 -1.8759
 9380SOL    HW239774   0.112   0.961   8.013 -1.6992 -3.1399 -1.4376
 9381SOL     OW39775   4.145   1.123   6.028  0.0518  0.1679  0.0827
 9381SOL    HW139776   4.104   1.143   6.113  0.6586  0.0822  0.3944
 9381SOL    HW239777   4.066   1.137   5.976  0.0217 -0.4441 -0.0415
 9382SOL     OW39778   4.257   1.422  13.214 -0.1237  1.1029 -0.2389
 9382SOL    HW139779   4.339   1.387  13.179  0.0845  1.4406 -0.1013
 9382SOL    HW239780   4.215   1.336  13.213 -1.2731  1.6506  0.5260
 9383SOL     OW39781   3.174   1.928   5.709  0.3161  0.0592 -0.8412
 9383SOL    HW139782   3.227   1.914   5.788 -1.4590  0.9999  0.5024
 9383SOL    HW239783   3.091   1.960   5.745  1.1770 -0.5514  1.7174
 9384SOL     OW39784   2.166   0.156   1.277 -0.2320  0.2767 -0.3451
 9384SOL    HW139785   2.247   0.152   1.226 -0.6188 -0.7197 -0.8754
 9384SOL    HW239786   2.165   0.249   1.297 -0.7514  0.6559 -2.1351
 9385SOL     OW39787   2.962   4.301  13.430 -0.2492 -0.7291  0.0705
 9385SOL    HW139788   2.912   4.307  13.349  0.0517 -3.4361 -0.2916
 9385SOL    HW239789   3.033   4.238  13.417  1.8353  1.5061  0.5503
 9386SOL     OW39790   2.886   0.790   7.075 -0.0826 -0.6112  0.7607
 9386SOL    HW139791   2.900   0.697   7.055 -0.4360 -0.2843 -1.0052
 9386SOL    HW239792   2.814   0.811   7.015  0.1161  1.9976  1.4572
 9387SOL     OW39793   2.118   0.152   7.555 -0.1293  0.3659 -0.3653
 9387SOL    HW139794   2.120   0.108   7.640  1.8002  1.0334 -0.0782
 9387SOL    HW239795   2.206   0.184   7.539  1.1822 -2.9182  0.3252
 9388SOL     OW39796   1.502   1.382   5.970  0.0028  0.4981 -0.0281
 9388SOL    HW139797   1.519   1.337   6.053  0.7889  0.4382 -0.2244
 9388SOL    HW239798   1.412   1.413   5.976  1.1655  3.9554 -0.5711
 9389SOL     OW39799   1.878   3.823   7.089 -0.4071  0.1386  0.1464
 9389SOL    HW139800   1.961   3.793   7.051 -1.2034  0.1188 -1.5647
 9389SOL    HW239801   1.858   3.897   7.031  2.2597  1.0497  0.3547
 9390SOL     OW39802   1.938   0.302   4.668 -0.2576 -0.0851 -0.4087
 9390SOL    HW139803   1.930   0.365   4.597  1.0653  0.3632 -0.1570
 9390SOL    HW239804   1.850   0.265   4.670 -1.3945  2.6592  1.8555
 9391SOL     OW39805   4.338   1.514   5.193 -0.1264  0.1548  0.3300
 9391SOL    HW139806   4.394   1.438   5.208  0.5747  0.6363  0.1079
 9391SOL    HW239807   4.364   1.558   5.112  0.6965  0.7625  0.9277
 9392SOL     OW39808   1.860   1.251   2.214 -0.3162  0.1052  0.0061
 9392SOL    HW139809   1.922   1.188   2.251  2.3333  1.5699 -1.9905
 9392SOL    HW239810   1.838   1.306   2.290 -1.1212  1.2858 -1.0871
 9393SOL     OW39811   4.243   2.721   3.666  0.4190  0.3840 -0.0479
 9393SOL    HW139812   4.321   2.670   3.644 -0.5063 -0.5642 -1.1045
 9393SOL    HW239813   4.262   2.724   3.760  1.0079 -0.5521 -0.1380
 9394SOL     OW39814   3.939   4.609   3.366  0.0608  0.4857 -0.0616
 9394SOL    HW139815   4.022   4.564   3.383  0.8004  1.4247 -1.1607
 9394SOL    HW239816   3.888   4.565   3.433 -1.5550  3.0209  0.3937
 9395SOL     OW39817   2.393   2.763   7.095 -0.1896 -0.4627 -0.6506
 9395SOL    HW139818   2.410   2.669   7.092  1.8093 -0.1276  0.4161
 9395SOL    HW239819   2.425   2.792   7.009 -1.9854  0.2365 -1.0867
 9396SOL     OW39820   2.067   1.377   5.620  0.5599 -0.2058 -0.6827
 9396SOL    HW139821   2.097   1.467   5.631  1.4641 -0.4412 -1.1710
 9396SOL    HW239822   1.991   1.388   5.563  0.7930  0.7938 -0.8076
 9397SOL     OW39823   1.835   0.044  10.203 -0.3282 -0.8576 -0.5374
 9397SOL    HW139824   1.864   4.697  10.185  0.1142 -0.5674 -1.2528
 9397SOL    HW239825   1.875   0.091  10.130 -1.2885  1.4856  0.4258
 9398SOL     OW39826   3.106   2.064   1.798  0.0552  0.4092 -0.0434
 9398SOL    HW139827   3.179   2.084   1.739 -0.2918  0.6679 -0.3789
 9398SOL    HW239828   3.139   2.099   1.881  1.8513 -1.1539 -0.0954
 9399SOL     OW39829   2.994   3.362   2.179 -0.4887  0.3487  0.2511
 9399SOL    HW139830   2.958   3.441   2.218  0.3803 -0.0433  1.8562
 9399SOL    HW239831   3.041   3.318   2.250 -2.1348 -0.9961  0.5062
 9400SOL     OW39832   2.976   1.427  10.501 -0.6994 -0.1825  0.1462
 9400SOL    HW139833   3.037   1.486  10.545 -0.1436 -0.5666 -0.1051
 9400SOL    HW239834   3.033   1.354  10.476  0.7173  1.8949 -2.7920
 9401SOL     OW39835   2.875   2.120   1.676 -0.2280  0.0977  0.3596
 9401SOL    HW139836   2.947   2.102   1.737 -0.2136 -1.1156 -0.0106
 9401SOL    HW239837   2.888   2.214   1.662 -1.7865  0.2657  0.0809
 9402SOL     OW39838   2.512   2.374   2.629  0.7831  0.0338  0.0143
 9402SOL    HW139839   2.439   2.349   2.573  2.9265 -2.1921 -1.7434
 9402SOL    HW239840   2.565   2.295   2.625  0.5787 -0.1316  0.5781
 9403SOL     OW39841   3.708   0.750   5.060 -0.5427  0.5474 -0.2676
 9403SOL    HW139842   3.776   0.797   5.012  0.0069 -0.0671 -0.0909
 9403SOL    HW239843   3.655   0.718   4.987  0.6191 -0.3323 -0.7254
 9404SOL     OW39844   3.356   2.216   7.222  0.2357 -0.4874  0.1431
 9404SOL    HW139845   3.388   2.280   7.286  2.0087 -0.6981 -0.5158
 9404SOL    HW239846   3.331   2.136   7.270  0.5225 -0.1787  0.8120
 9405SOL     OW39847   3.563   3.586   1.859 -0.2350  0.5952 -0.2686
 9405SOL    HW139848   3.477   3.549   1.882  0.9021 -1.2003  1.1230
 9405SOL    HW239849   3.523   3.642   1.792 -2.0736 -0.4074 -0.0201
 9406SOL     OW39850   1.369   1.067   6.234  0.5099 -0.0642 -0.2096
 9406SOL    HW139851   1.402   1.013   6.306  1.0876  0.0438 -0.3906
 9406SOL    HW239852   1.329   0.997   6.182  2.4060 -1.0597 -0.3305
 9407SOL     OW39853   3.653   2.305   8.343 -0.2632 -0.3501  0.0256
 9407SOL    HW139854   3.630   2.217   8.312 -0.3383 -0.3331  0.0347
 9407SOL    HW239855   3.569   2.346   8.362 -0.4718 -1.4120  1.3325
 9408SOL     OW39856   0.903   2.850   6.373  0.1475  0.4008 -0.0319
 9408SOL    HW139857   0.902   2.942   6.346  1.5621  0.2528 -0.6124
 9408SOL    HW239858   0.836   2.867   6.439  0.2333  0.1841  0.1110
 9409SOL     OW39859   1.969   2.486   9.620 -0.2738  0.0201  0.3082
 9409SOL    HW139860   2.036   2.470   9.553 -1.8301  2.6220 -1.8792
 9409SOL    HW239861   1.900   2.429   9.585 -1.3418  1.7530 -0.4216
 9410SOL     OW39862   4.387   3.715   1.394  0.1012  0.1135 -0.1873
 9410SOL    HW139863   4.477   3.733   1.367  0.4083 -1.1656 -0.0321
 9410SOL    HW239864   4.390   3.750   1.482  1.9304 -0.6817  0.0474
 9411SOL     OW39865   2.120   2.147   5.109 -0.4228  0.3709 -0.3847
 9411SOL    HW139866   2.182   2.192   5.167 -0.0825 -2.2965  1.3372
 9411SOL    HW239867   2.034   2.182   5.132 -0.5081 -1.3804  1.9933
 9412SOL     OW39868   3.274   0.391   8.678 -0.4126 -0.2981 -0.0491
 9412SOL    HW139869   3.282   0.477   8.720 -3.3557 -0.0959  0.1537
 9412SOL    HW239870   3.190   0.411   8.636 -0.7844 -0.5148  0.5913
 9413SOL     OW39871   1.853   1.075  12.046 -0.1128  0.3598 -0.0869
 9413SOL    HW139872   1.866   1.082  12.140  0.4949 -1.5196 -0.0230
 9413SOL    HW239873   1.932   1.031  12.016 -1.6649 -2.6397  0.2161
 9414SOL     OW39874   3.512   3.025   4.437 -0.2168  0.2258 -0.3640
 9414SOL    HW139875   3.503   3.060   4.348 -0.5050 -0.5202 -0.6240
 9414SOL    HW239876   3.422   3.003   4.462  0.5189  0.2708  2.3584
 9415SOL     OW39877   3.727   2.978   3.196  0.3775 -0.1532 -0.4462
 9415SOL    HW139878   3.701   2.905   3.141 -0.6028 -1.1373  1.3159
 9415SOL    HW239879   3.747   3.050   3.136 -0.1459  1.3151  1.1450
 9416SOL     OW39880   0.567   4.516   8.082 -0.1704 -0.0381  0.5652
 9416SOL    HW139881   0.529   4.565   8.155  1.6086 -1.6428  2.5617
 9416SOL    HW239882   0.560   4.577   8.009  0.5053 -0.5083  0.1049
 9417SOL     OW39883   2.381   3.548   3.035  0.0220  0.7738  0.3385
 9417SOL    HW139884   2.369   3.484   3.105  1.3671  1.6429  1.3457
 9417SOL    HW239885   2.426   3.497   2.968  0.4590  0.9334  0.5123
 9418SOL     OW39886   4.484   3.150   8.709  0.7087  0.3814  0.5371
 9418SOL    HW139887   4.438   3.138   8.626 -1.0145  1.1374  1.4032
 9418SOL    HW239888   4.503   3.059   8.734  1.2481  0.2212 -0.4295
 9419SOL     OW39889   1.051   3.285   3.019 -0.1396  0.0258 -0.3242
 9419SOL    HW139890   0.968   3.322   3.047 -0.8352 -1.2225 -0.7424
 9419SOL    HW239891   1.029   3.195   2.995  0.1235 -0.5965  1.8183
 9420SOL     OW39892   0.419   1.953   0.911  0.1371 -0.6958  0.0939
 9420SOL    HW139893   0.356   2.018   0.878 -1.0446 -0.2486  3.1867
 9420SOL    HW239894   0.447   1.910   0.831 -0.5133  1.1349 -1.1255
 9421SOL     OW39895   1.554   2.987   6.947  0.1502 -0.1411  0.3442
 9421SOL    HW139896   1.601   3.060   6.986  0.5915 -0.7821  1.0090
 9421SOL    HW239897   1.571   2.933   7.024  1.1676  1.0503  0.9540
 9422SOL     OW39898   1.209   4.343   6.021  0.4943  0.0776  0.3365
 9422SOL    HW139899   1.169   4.427   6.000  1.2649  0.5323  0.7063
 9422SOL    HW239900   1.254   4.356   6.104 -0.5234 -1.5476  1.1414
 9423SOL     OW39901   3.701   2.785  17.263  0.0432  0.1102 -0.0644
 9423SOL    HW139902   3.707   2.854  17.197 -2.4080  1.0185  0.6588
 9423SOL    HW239903   3.607   2.787  17.278 -0.6162 -1.8215 -3.9390
 9424SOL     OW39904   0.128   4.384   3.934 -0.7034 -0.2637  0.2487
 9424SOL    HW139905   0.111   4.337   3.853 -0.3669  2.0702 -1.1562
 9424SOL    HW239906   0.139   4.474   3.905 -1.7588 -0.0771  0.4296
 9425SOL     OW39907   0.048   1.849   5.740 -0.4728 -0.4328  0.7723
 9425SOL    HW139908   0.088   1.922   5.787  0.5153 -1.7574  1.9751
 9425SOL    HW239909   4.715   1.832   5.798 -1.1523 -0.2513 -0.0363
 9426SOL     OW39910   2.974   0.389   6.226 -0.0936 -0.3379 -0.1608
 9426SOL    HW139911   3.069   0.401   6.228 -0.0776 -0.2081 -1.6738
 9426SOL    HW239912   2.947   0.469   6.271 -1.9478  0.0545 -2.0026
 9427SOL     OW39913   3.526   3.270   5.487 -0.0156  0.7310 -0.3480
 9427SOL    HW139914   3.600   3.271   5.548 -1.4227  3.0760  1.3038
 9427SOL    HW239915   3.495   3.360   5.490 -2.8397 -0.2111 -1.6306
 9428SOL     OW39916   0.592   0.700  16.873 -0.5072 -0.7077  0.2895
 9428SOL    HW139917   0.608   0.673  16.783 -1.7652 -0.1130 -0.1106
 9428SOL    HW239918   0.544   0.627  16.912 -1.5085 -0.1489  0.1007
 9429SOL     OW39919   3.404   3.359   6.969 -0.1651 -0.5942  0.1961
 9429SOL    HW139920   3.320   3.356   7.016 -0.8765 -3.6138 -1.3003
 9429SOL    HW239921   3.394   3.425   6.901 -1.0027 -0.2808  0.6176
 9430SOL     OW39922   0.387   1.927  16.304 -0.7798 -0.1483  0.3015
 9430SOL    HW139923   0.375   1.928  16.209  0.9481  0.6433  0.0828
 9430SOL    HW239924   0.433   1.844  16.318 -0.1108  0.5151  2.0830
 9431SOL     OW39925   0.096   3.584  16.885 -0.4864 -0.0331  0.2525
 9431SOL    HW139926   0.082   3.533  16.964 -0.2860  0.3573  0.5415
 9431SOL    HW239927   0.007   3.579  16.850 -0.4998  2.5090 -0.1419
 9432SOL     OW39928   4.122   4.267   3.323  0.5527 -0.1026  0.3569
 9432SOL    HW139929   4.160   4.191   3.367  1.6456 -0.0050 -0.4238
 9432SOL    HW239930   4.180   4.337   3.353 -2.1783  2.6556 -0.8466
 9433SOL     OW39931   2.323   1.069  11.704 -0.1330  0.1658  0.1170
 9433SOL    HW139932   2.375   1.037  11.778 -1.1148  0.3831  0.9054
 9433SOL    HW239933   2.271   0.990  11.686 -0.6140  0.5588 -0.2134
 9434SOL     OW39934   0.523   0.572   3.734  0.4670  0.2636 -0.2506
 9434SOL    HW139935   0.476   0.515   3.674 -1.4839 -0.3627  1.8906
 9434SOL    HW239936   0.508   0.522   3.814 -1.7294  3.1585  1.1447
 9435SOL     OW39937   2.970   0.748  13.586 -0.1364  0.0085  0.1709
 9435SOL    HW139938   2.955   0.655  13.602  0.7635 -0.0332  0.7470
 9435SOL    HW239939   2.905   0.755  13.516 -0.1912 -1.2882  0.1083
 9436SOL     OW39940   3.785   0.167   9.334  0.0620  0.2843  0.8139
 9436SOL    HW139941   3.848   0.234   9.359  1.6115 -1.9839  2.9787
 9436SOL    HW239942   3.767   0.126   9.419  2.0928  0.7633  1.4671
 9437SOL     OW39943   0.166   1.559   4.247 -0.8035 -0.2119 -0.4218
 9437SOL    HW139944   0.239   1.583   4.189 -1.4279 -1.3388 -1.6741
 9437SOL    HW239945   0.099   1.616   4.210  0.6758  1.8273  0.0513
 9438SOL     OW39946   0.752   1.559  15.904 -0.2368  0.4540 -0.2571
 9438SOL    HW139947   0.673   1.538  15.955 -0.0954 -0.8228 -0.5513
 9438SOL    HW239948   0.782   1.633  15.955 -0.8321  0.6699 -0.2168
 9439SOL     OW39949   2.046   3.222   9.858 -0.1242  0.9221 -0.0506
 9439SOL    HW139950   2.082   3.174   9.932 -1.1821 -1.0055 -0.7907
 9439SOL    HW239951   2.052   3.150   9.795  0.2607  2.9237 -2.3174
 9440SOL     OW39952   1.250   3.878   2.512  0.1444  0.0768 -0.1512
 9440SOL    HW139953   1.172   3.895   2.459 -0.2200  1.9359  1.0077
 9440SOL    HW239954   1.295   3.825   2.446 -1.8329 -1.5078 -0.2480
 9441SOL     OW39955   3.884   3.371  14.830 -0.2848  0.0913 -0.1811
 9441SOL    HW139956   3.887   3.280  14.803  0.8015  0.4156 -1.1880
 9441SOL    HW239957   3.966   3.365  14.881 -0.6036  0.5085  0.3907
 9442SOL     OW39958   4.093   3.821   2.097 -0.7528 -0.2745 -0.8056
 9442SOL    HW139959   4.165   3.795   2.154 -0.1730 -1.0299 -1.8802
 9442SOL    HW239960   4.036   3.749   2.124 -2.6543  1.1729 -0.9916
 9443SOL     OW39961   0.974   0.828   7.404  0.6368 -0.0196  0.0901
 9443SOL    HW139962   0.973   0.733   7.416 -0.2252  0.0942  0.9195
 9443SOL    HW239963   0.897   0.828   7.347 -0.0790 -0.7071  1.0726
 9444SOL     OW39964   2.757   2.735   3.873  0.1886  0.1623  0.2282
 9444SOL    HW139965   2.794   2.804   3.928 -1.8416  1.6068 -0.1954
 9444SOL    HW239966   2.662   2.741   3.884  0.1087 -0.0657 -0.3004
 9445SOL     OW39967   1.729   1.256   6.656  0.2028 -0.3676 -0.2244
 9445SOL    HW139968   1.684   1.340   6.645  2.0487  0.4450 -1.5417
 9445SOL    HW239969   1.743   1.255   6.751 -1.4306 -1.2388  0.0052
 9446SOL     OW39970   3.252   3.084   7.226  0.0448 -0.5146  0.6724
 9446SOL    HW139971   3.232   3.161   7.171 -0.1428 -1.8292 -1.0994
 9446SOL    HW239972   3.276   3.021   7.158 -1.8837 -1.3012  0.7449
 9447SOL     OW39973   2.855   2.152   4.318  0.1261  0.4807  0.4181
 9447SOL    HW139974   2.828   2.216   4.384 -2.5126 -0.6159  0.4111
 9447SOL    HW239975   2.778   2.097   4.307  1.3299 -0.7787 -1.7613
 9448SOL     OW39976   4.556   3.306   3.293  0.0196 -0.3286 -0.9291
 9448SOL    HW139977   4.650   3.306   3.307 -0.4410  0.6720  2.0851
 9448SOL    HW239978   4.552   3.273   3.203 -1.1654  2.4254 -1.8758
 9449SOL     OW39979   1.855   1.881   0.493  0.1865  0.0646 -0.0814
 9449SOL    HW139980   1.929   1.839   0.536 -0.3211 -2.3682 -1.5530
 9449SOL    HW239981   1.899   1.952   0.445 -0.2329  0.8595  0.7145
 9450SOL     OW39982   2.032   2.676   5.154 -0.4217  0.1306  0.4975
 9450SOL    HW139983   1.965   2.669   5.223 -0.7049 -0.0571  0.2023
 9450SOL    HW239984   2.110   2.678   5.210  0.2200  1.2642 -0.4644
 9451SOL     OW39985   0.157   3.738   9.067 -0.4243 -0.2960  0.7622
 9451SOL    HW139986   0.141   3.827   9.037  0.9642  0.1340  1.2847
 9451SOL    HW239987   0.092   3.717   9.135 -2.7189  1.2589 -0.9893
 9452SOL     OW39988   0.067   3.378   6.158 -0.6129 -0.1693  0.4248
 9452SOL    HW139989   0.075   3.323   6.236  1.6010  0.6090  0.7552
 9452SOL    HW239990   0.073   3.306   6.096  0.2863  0.8438 -0.6840
 9453SOL     OW39991   1.152   1.756  12.454  0.0924  0.3406 -0.1969
 9453SOL    HW139992   1.126   1.681  12.402  0.7359  0.7282 -1.0674
 9453SOL    HW239993   1.241   1.776  12.427  0.4486  0.3221  0.9551
 9454SOL     OW39994   2.708   4.678  13.431  0.6688  0.1261  0.6935
 9454SOL    HW139995   2.772   4.638  13.372 -1.0128 -1.9931  0.2877
 9454SOL    HW239996   2.654   4.599  13.421 -0.1979  1.0184 -1.5292
 9455SOL     OW39997   4.079   1.492   3.259  0.1113  0.9672 -0.1104
 9455SOL    HW139998   4.057   1.414   3.208 -2.9988  1.6009  0.2673
 9455SOL    HW239999   4.045   1.562   3.204 -3.9506 -0.6085  0.4321
 9456SOL     OW40000   1.547   1.988   2.081  0.0544  0.1415  0.4040
 9456SOL    HW140001   1.633   1.960   2.112 -1.2885 -1.3282  2.8011
 9456SOL    HW240002   1.560   1.952   1.993 -0.9532  0.9109 -0.0656
 9457SOL     OW40003   0.284   2.346   2.802 -0.0025 -0.2335  0.3001
 9457SOL    HW140004   0.196   2.342   2.765  0.1960 -0.4427 -0.1490
 9457SOL    HW240005   0.288   2.440   2.818 -1.7281  0.4003 -2.8930
 9458SOL     OW40006   1.494   3.332   7.331  0.0490  0.0475 -0.3712
 9458SOL    HW140007   1.428   3.346   7.399  0.8867  2.4095 -0.0661
 9458SOL    HW240008   1.489   3.238   7.313 -1.0570 -0.5548  3.1118
 9459SOL     OW40009   2.712   0.560   9.259  0.3249  0.1584 -0.2991
 9459SOL    HW140010   2.710   0.644   9.305 -2.3264 -1.3267  2.3302
 9459SOL    HW240011   2.720   0.591   9.169 -0.7825 -0.4558 -0.6168
 9460SOL     OW40012   1.648   1.523   3.732  0.3060  0.3764  0.1680
 9460SOL    HW140013   1.676   1.550   3.820  0.3577  2.2763 -0.4180
 9460SOL    HW240014   1.718   1.567   3.684  1.1356  0.6204  1.6038
 9461SOL     OW40015   1.499   0.509  14.602 -0.0866  0.1700 -0.1652
 9461SOL    HW140016   1.526   0.528  14.692  0.3221 -0.3733 -0.1728
 9461SOL    HW240017   1.471   0.417  14.606  0.3255  0.0740  0.4810
 9462SOL     OW40018   0.559   1.260   9.886  0.2565  0.3707  0.3791
 9462SOL    HW140019   0.591   1.260   9.796 -2.1066  0.2053 -0.4687
 9462SOL    HW240020   0.503   1.337   9.878 -0.3970 -0.1152  0.2365
 9463SOL     OW40021   1.680   4.058   8.476 -1.1603 -0.0300 -0.0293
 9463SOL    HW140022   1.640   3.974   8.500  1.4720 -0.4481  2.9948
 9463SOL    HW240023   1.602   4.109   8.456  0.1295  2.1002  0.4445
 9464SOL     OW40024   0.733   1.123  15.425 -0.2950  0.3445 -0.5775
 9464SOL    HW140025   0.687   1.048  15.463 -0.1205  0.9669  0.8416
 9464SOL    HW240026   0.806   1.133  15.485  0.5050 -1.0273 -1.3056
 9465SOL     OW40027   1.138   1.021   3.171 -0.0923  0.3559  0.3966
 9465SOL    HW140028   1.047   1.046   3.189  0.1789 -0.1190  2.4182
 9465SOL    HW240029   1.138   1.007   3.076  0.4102 -0.1465  0.4764
 9466SOL     OW40030   1.861   2.241  11.210 -0.0377  0.2506  0.6089
 9466SOL    HW140031   1.876   2.315  11.150 -1.5409  0.5658  0.6346
 9466SOL    HW240032   1.936   2.186  11.188  0.4160  0.0439  2.7654
 9467SOL     OW40033   0.402   3.051   6.782  0.0353 -0.1744 -0.0452
 9467SOL    HW140034   0.435   3.132   6.741  2.0881 -0.1369  1.6287
 9467SOL    HW240035   0.479   3.004   6.815 -0.4545 -0.4797  0.6562
 9468SOL     OW40036   4.228   3.239   3.339  0.2608 -0.6105 -0.0253
 9468SOL    HW140037   4.252   3.236   3.246  0.5698  0.7173  0.0050
 9468SOL    HW240038   4.312   3.205   3.369 -0.2892 -0.6216  1.4801
 9469SOL     OW40039   1.874   0.741   0.277 -0.3858 -0.4024 -0.0349
 9469SOL    HW140040   1.924   0.659   0.280 -0.3006 -0.2963  1.3228
 9469SOL    HW240041   1.898   0.777   0.192  0.5816  2.7508  1.5757
 9470SOL     OW40042   4.003   4.466   8.241  0.4486 -1.0219  0.2817
 9470SOL    HW140043   3.932   4.525   8.267  2.6212  2.1073 -0.8454
 9470SOL    HW240044   3.996   4.493   8.150 -1.7081 -1.1325  0.4081
 9471SOL     OW40045   1.711   3.299  12.137  0.3401 -0.7902  0.2564
 9471SOL    HW140046   1.650   3.363  12.099  0.1635 -1.2883 -0.2927
 9471SOL    HW240047   1.704   3.222  12.081  1.8079 -1.3250  0.8349
 9472SOL     OW40048   1.930   1.115  11.710 -0.3293  0.2584  0.2385
 9472SOL    HW140049   1.982   1.049  11.757 -1.8984 -0.6238  0.7374
 9472SOL    HW240050   1.984   1.192  11.729  0.3469 -0.5037  1.4311
 9473SOL     OW40051   4.388   4.033   7.109  0.0430  1.1434 -1.0563
 9473SOL    HW140052   4.430   4.119   7.108  1.9346  0.2531  2.7870
 9473SOL    HW240053   4.448   3.988   7.168  2.9532  3.9766 -1.8214
 9474SOL     OW40054   0.460   0.957   6.021  0.4320  0.1278  0.3451
 9474SOL    HW140055   0.450   0.865   6.046  2.3968  0.4795  2.5054
 9474SOL    HW240056   0.460   0.967   5.926  1.4776  4.5493  0.8150
 9475SOL     OW40057   2.112   1.778   2.144 -0.2501  0.0781 -0.6147
 9475SOL    HW140058   2.106   1.812   2.233 -0.0739  2.2317 -1.4267
 9475SOL    HW240059   2.205   1.795   2.130  0.3262 -3.0203 -0.5644
 9476SOL     OW40060   3.878   4.150   2.259 -0.0127  0.4967  0.2720
 9476SOL    HW140061   3.967   4.167   2.288  0.0017  1.3572 -0.3033
 9476SOL    HW240062   3.864   4.058   2.284 -2.8574  1.0956  0.9584
 9477SOL     OW40063   1.884   1.686   7.481 -0.4162 -0.0061  0.0762
 9477SOL    HW140064   1.877   1.740   7.403 -2.3374  1.7419  1.4549
 9477SOL    HW240065   1.806   1.630   7.482  1.8733 -3.1938 -1.3496
 9478SOL     OW40066   4.520   3.672   4.913 -0.5876 -0.1363  0.0924
 9478SOL    HW140067   4.472   3.610   4.969 -0.5230  1.4395  1.9194
 9478SOL    HW240068   4.572   3.724   4.975 -0.3282  0.2466 -0.4531
 9479SOL     OW40069   3.272   4.653   6.766  0.3980  0.0622 -0.4082
 9479SOL    HW140070   3.267   4.607   6.682  1.2545  1.7027 -1.3685
 9479SOL    HW240071   3.360   4.686   6.749 -0.4113  1.5877 -1.7323
 9480SOL     OW40072   1.309   0.323   5.991 -0.0744 -0.7949 -0.6488
 9480SOL    HW140073   1.291   0.383   5.918  2.5684  1.6793  0.7457
 9480SOL    HW240074   1.399   0.347   6.014 -1.2409  1.4431  1.6060
 9481SOL     OW40075   1.647   3.202   9.806  0.7754  0.3976  0.1598
 9481SOL    HW140076   1.733   3.243   9.811  0.8379  0.3935 -0.8413
 9481SOL    HW240077   1.605   3.255   9.739  0.2396  0.4220  0.5185
 9482SOL     OW40078   4.430   0.063   6.825 -0.3803  0.1509 -0.1120
 9482SOL    HW140079   4.457   0.129   6.889  1.7712  0.8032 -1.6669
 9482SOL    HW240080   4.346   0.100   6.799 -0.1887  1.0511  0.5638
 9483SOL     OW40081   3.311   0.585  11.937 -0.0606  0.2558  0.4037
 9483SOL    HW140082   3.372   0.512  11.951 -0.1849  0.3804  1.6026
 9483SOL    HW240083   3.341   0.595  11.847  0.1642 -0.0349  0.4438
 9484SOL     OW40084   1.039   1.393   7.988  0.1308  0.1340 -0.0400
 9484SOL    HW140085   1.065   1.312   8.032 -2.3277 -0.1990  0.8054
 9484SOL    HW240086   0.982   1.424   8.058 -1.1784 -1.4243 -0.4149
 9485SOL     OW40087   3.172   4.314   1.832 -0.1704 -0.2062  0.5165
 9485SOL    HW140088   3.146   4.404   1.849 -1.2208 -0.1282 -1.5510
 9485SOL    HW240089   3.150   4.304   1.740 -0.8680  1.4650  0.5112
 9486SOL     OW40090   0.272   0.491   5.558  0.2776  0.1542 -0.2382
 9486SOL    HW140091   0.201   0.552   5.577  0.0674  0.2679 -1.3921
 9486SOL    HW240092   0.267   0.473   5.464 -1.0957  2.5729 -0.6208
 9487SOL     OW40093   2.440   0.849   5.479  0.3327 -0.5558 -0.6383
 9487SOL    HW140094   2.428   0.944   5.472 -2.3277 -0.8577 -0.2748
 9487SOL    HW240095   2.435   0.820   5.388  2.5865  0.7943 -1.2054
 9488SOL     OW40096   0.841   4.530  16.693  0.4917 -0.2903  0.2624
 9488SOL    HW140097   0.813   4.440  16.710 -1.1198  0.1436 -0.0482
 9488SOL    HW240098   0.849   4.539  16.598 -0.2832 -0.7042  0.1552
 9489SOL     OW40099   2.293   0.310  15.698 -0.1097  0.1997  0.4017
 9489SOL    HW140100   2.262   0.241  15.756  0.5700 -1.1902 -0.9132
 9489SOL    HW240101   2.318   0.376  15.764  0.7394  1.7230 -1.4493
 9490SOL     OW40102   2.193   1.924   5.285 -0.4607  0.3703 -0.0111
 9490SOL    HW140103   2.214   1.844   5.236  2.5397  1.2175 -0.1050
 9490SOL    HW240104   2.185   1.991   5.217  1.7618  0.7331  0.0943
 9491SOL     OW40105   1.408   2.217   8.344  0.6730  0.2194 -0.0859
 9491SOL    HW140106   1.479   2.231   8.407  0.1863 -3.3717  1.2631
 9491SOL    HW240107   1.397   2.122   8.346 -2.4519  0.5970 -0.1474
 9492SOL     OW40108   1.116   4.152   4.691 -0.1812 -0.2035 -0.0370
 9492SOL    HW140109   1.125   4.096   4.614 -0.1076 -0.2020 -0.0294
 9492SOL    HW240110   1.202   4.193   4.684  0.4465 -0.7232  4.7942
 9493SOL     OW40111   1.767   3.804  14.361  0.1055 -0.4582 -0.1850
 9493SOL    HW140112   1.793   3.872  14.423 -1.7505  0.1356 -0.0575
 9493SOL    HW240113   1.741   3.858  14.286  1.9312  0.8536  0.1300
 9494SOL     OW40114   3.918   0.311   1.863  0.1778  0.4349 -0.5494
 9494SOL    HW140115   3.878   0.263   1.935 -0.9604  0.4587 -1.1766
 9494SOL    HW240116   3.965   0.245   1.812 -0.9104 -2.9598  2.8761
 9495SOL     OW40117   0.440   2.816   3.283 -0.4322  0.2491 -0.2580
 9495SOL    HW140118   0.391   2.871   3.344 -1.0670  0.0464 -0.5850
 9495SOL    HW240119   0.523   2.863   3.273  0.1859 -0.7966  0.0431
 9496SOL     OW40120   0.547   0.634  17.387  0.7671 -0.6498 -0.0500
 9496SOL    HW140121   0.480   0.633  17.320  1.3029 -0.5139 -0.5831
 9496SOL    HW240122   0.482   0.651  17.455 -0.0496 -2.3548 -0.3998
 9497SOL     OW40123   1.039   1.433   1.066 -0.0006  0.4781 -0.3772
 9497SOL    HW140124   1.063   1.391   0.983  0.9793  0.6031 -0.1576
 9497SOL    HW240125   1.042   1.525   1.039  0.4809  0.0323 -1.8116
 9498SOL     OW40126   2.312   0.629   0.168  0.5656  0.3170  0.0487
 9498SOL    HW140127   2.399   0.636   0.206 -0.9207  3.2505  2.9273
 9498SOL    HW240128   2.335   0.603   0.079  0.9788  0.5825  0.0786
 9499SOL     OW40129   3.387   0.725   9.678  0.0273 -0.6547  0.1068
 9499SOL    HW140130   3.421   0.777   9.604  0.1840 -2.2367 -0.9453
 9499SOL    HW240131   3.445   0.754   9.748 -0.5884  1.6104 -0.3305
 9500SOL     OW40132   3.558   0.913  12.976 -0.4293 -0.1239 -0.6148
 9500SOL    HW140133   3.463   0.904  12.978 -0.3953  0.0754  1.1854
 9500SOL    HW240134   3.566   1.008  12.965  0.9959 -0.3225 -1.3909
 9501SOL     OW40135   0.135   0.133   3.936 -0.5750  0.2589 -0.3407
 9501SOL    HW140136   0.096   0.207   3.983  1.8870  0.6431  1.0825
 9501SOL    HW240137   0.228   0.157   3.940 -0.5125 -0.5233  2.5445
 9502SOL     OW40138   3.015   1.710  15.617 -0.1640 -0.0373 -0.0944
 9502SOL    HW140139   3.093   1.706  15.672 -0.3826 -2.6567  0.0306
 9502SOL    HW240140   3.000   1.804  15.606  0.0113  0.0819  0.7452
 9503SOL     OW40141   2.403   0.410   4.404  0.3798 -0.2152  0.0077
 9503SOL    HW140142   2.427   0.502   4.415  0.0341 -0.1377  0.1061
 9503SOL    HW240143   2.310   0.412   4.384  0.9215 -1.6930 -2.6508
 9504SOL     OW40144   0.584   3.392   9.731 -0.1160  0.0521  0.0867
 9504SOL    HW140145   0.554   3.400   9.641  2.4253 -1.0623 -0.8687
 9504SOL    HW240146   0.679   3.402   9.722 -0.3997  3.7474  1.5910
 9505SOL     OW40147   2.368   4.134   1.449 -0.2985  0.2495 -0.2724
 9505SOL    HW140148   2.380   4.067   1.517 -0.2680  0.0640 -0.4584
 9505SOL    HW240149   2.347   4.080   1.373  1.2569 -0.1313 -0.4238
 9506SOL     OW40150   0.649   2.955   9.671 -0.0712  0.2099  0.2649
 9506SOL    HW140151   0.721   3.017   9.663 -0.1676  0.0197 -1.9769
 9506SOL    HW240152   0.630   2.950   9.577  1.6791 -0.0939 -0.0657
 9507SOL     OW40153   3.428   0.112  14.762 -0.0681 -0.7275 -0.7910
 9507SOL    HW140154   3.428   0.205  14.739 -0.4235 -0.1020  1.7102
 9507SOL    HW240155   3.339   0.095  14.794  0.0575  2.7522  1.3269
 9508SOL     OW40156   3.599   1.757   9.799 -0.3232 -0.5488  0.0373
 9508SOL    HW140157   3.627   1.774   9.889  1.0036 -1.2636 -0.2555
 9508SOL    HW240158   3.678   1.784   9.753 -0.6227 -1.0065 -0.7503
 9509SOL     OW40159   2.353   2.881   8.120 -0.2147  0.2749 -0.0871
 9509SOL    HW140160   2.419   2.941   8.084 -0.7165  0.9379  0.1045
 9509SOL    HW240161   2.284   2.936   8.156  1.1306  0.8018  1.7215
 9510SOL     OW40162   0.255   1.098   4.526 -0.4527  0.3698  0.0113
 9510SOL    HW140163   0.328   1.156   4.506 -1.2288  2.4825  3.3830
 9510SOL    HW240164   0.209   1.135   4.601  1.9411  1.2946  0.9974
 9511SOL     OW40165   3.877   4.699  15.206  0.3026  0.4953  0.7055
 9511SOL    HW140166   3.895   4.661  15.292 -2.0318 -1.9119  0.1323
 9511SOL    HW240167   3.958   0.005  15.189 -1.1834  1.8569 -2.4865
 9512SOL     OW40168   1.493   2.967  10.057  0.1345  0.0434 -0.2798
 9512SOL    HW140169   1.422   2.913  10.020  0.0564 -0.3308  0.4188
 9512SOL    HW240170   1.561   2.922  10.008  0.2865  1.2795 -1.1873
 9513SOL     OW40171   1.866   0.957   5.278 -0.3022 -0.1913 -0.7050
 9513SOL    HW140172   1.838   0.886   5.221 -0.8853  0.3276 -1.0656
 9513SOL    HW240173   1.791   1.016   5.277 -2.2511 -2.5963  1.0142
 9514SOL     OW40174   0.725   4.300   4.504 -0.3537 -0.6684 -0.1349
 9514SOL    HW140175   0.635   4.330   4.521 -0.0919 -0.1488  0.3285
 9514SOL    HW240176   0.717   4.207   4.525 -0.2677 -0.8005 -0.7036
 9515SOL     OW40177   0.161   2.126   3.743  0.0246  0.0077  0.0386
 9515SOL    HW140178   0.099   2.163   3.805  0.2129  1.7973 -0.8210
 9515SOL    HW240179   0.121   2.043   3.719  0.0926  0.0716 -0.2969
 9516SOL     OW40180   0.321   0.553   5.265  0.0104 -0.1252  0.1169
 9516SOL    HW140181   0.414   0.531   5.253  0.0511  1.0320 -1.6022
 9516SOL    HW240182   0.296   0.542   5.174 -0.8855 -1.0561  0.4775
 9517SOL     OW40183   3.232   3.611   3.390  0.0554 -0.0196  0.6526
 9517SOL    HW140184   3.232   3.518   3.410 -0.4550  0.4623  2.8733
 9517SOL    HW240185   3.314   3.615   3.340 -0.8363  0.3856 -0.7765
 9518SOL     OW40186   4.222   2.619   1.377  0.6338  0.4641  0.0418
 9518SOL    HW140187   4.154   2.618   1.444 -0.1940  0.3343 -0.8135
 9518SOL    HW240188   4.261   2.707   1.375  1.5296  0.0212 -2.3987
 9519SOL     OW40189   3.488   4.332   3.143 -0.1339  0.1667 -0.2679
 9519SOL    HW140190   3.490   4.341   3.048  0.5830 -1.2290 -0.3894
 9519SOL    HW240191   3.514   4.240   3.149 -2.2007 -0.2582  1.9303
 9520SOL     OW40192   3.807   4.599  16.674 -0.3257  0.6720 -0.6463
 9520SOL    HW140193   3.877   4.662  16.657 -1.7288  2.3522 -0.2309
 9520SOL    HW240194   3.810   4.541  16.599 -1.2657 -0.7097  0.3782
 9521SOL     OW40195   1.251   1.453   5.986  0.1586  0.2336  0.3609
 9521SOL    HW140196   1.173   1.407   6.020 -0.8939  0.8419 -1.2467
 9521SOL    HW240197   1.211   1.506   5.917  0.7285 -0.2945 -0.3751
 9522SOL     OW40198   4.729   3.920   0.276  0.2639  0.5445  0.4081
 9522SOL    HW140199   4.638   3.891   0.265  1.0176 -1.6754 -0.0073
 9522SOL    HW240200   4.711   4.013   0.263 -0.6596  0.5555  1.8016
 9523SOL     OW40201   3.167   3.260   6.054  0.1822 -0.0992  0.6094
 9523SOL    HW140202   3.260   3.281   6.063 -0.5651  2.7065  1.7519
 9523SOL    HW240203   3.163   3.211   5.972 -0.2859  1.6014 -0.3813
 9524SOL     OW40204   1.787   1.183   7.819  0.2456 -0.2338  0.1040
 9524SOL    HW140205   1.836   1.131   7.882  1.4847 -2.0492 -2.3315
 9524SOL    HW240206   1.703   1.195   7.864  2.1938  0.2752  3.5839
 9525SOL     OW40207   0.497   2.045   7.082  0.2079 -0.6648 -0.2774
 9525SOL    HW140208   0.503   2.122   7.138  0.2254 -0.0147 -1.1632
 9525SOL    HW240209   0.454   1.986   7.142 -2.4623  0.9545 -0.5988
 9526SOL     OW40210   2.268   2.130  10.879  0.0197 -0.3420  0.3737
 9526SOL    HW140211   2.317   2.099  10.955  2.6929  0.3473 -1.0398
 9526SOL    HW240212   2.258   2.225  10.891 -0.6148 -0.3900  0.1835
 9527SOL     OW40213   4.362   0.226   8.778  0.7068  0.2732  0.2970
 9527SOL    HW140214   4.295   0.272   8.828 -1.0123 -2.0920  0.1810
 9527SOL    HW240215   4.440   0.241   8.831  0.0807  1.5206  0.8836
 9528SOL     OW40216   0.533   4.555   9.012  0.0635 -0.0821  0.0421
 9528SOL    HW140217   0.568   4.644   9.008  1.1057 -0.4738  0.4301
 9528SOL    HW240218   0.596   4.499   8.966 -0.8177  0.5237 -1.8769
 9529SOL     OW40219   2.991   1.893   0.118 -0.0358  0.5091  0.3877
 9529SOL    HW140220   3.044   1.869   0.193  1.5068  0.3479 -0.7581
 9529SOL    HW240221   3.059   1.900   0.051 -0.8279 -0.7064 -0.5494
 9530SOL     OW40222   0.499   1.237  12.740  0.5408 -0.0439 -0.0134
 9530SOL    HW140223   0.582   1.253  12.695  0.6092  0.7748  0.4077
 9530SOL    HW240224   0.522   1.242  12.833  2.1906 -1.3775 -0.3333
 9531SOL     OW40225   3.316   0.517  16.122  0.1522 -0.3066  0.1709
 9531SOL    HW140226   3.376   0.547  16.191  0.7953 -0.2085 -0.4326
 9531SOL    HW240227   3.323   0.587  16.057 -0.3606 -2.5165 -2.2702
 9532SOL     OW40228   1.992   3.076   7.720 -0.3261 -0.2417 -0.2070
 9532SOL    HW140229   1.907   3.049   7.757 -0.5440  0.1175 -0.4477
 9532SOL    HW240230   2.034   3.081   7.805 -0.3413 -1.7038 -0.1122
 9533SOL     OW40231   0.245   2.912  10.837 -0.3673  0.2803  0.1004
 9533SOL    HW140232   0.290   2.929  10.920 -1.4239 -0.7838  0.8949
 9533SOL    HW240233   0.215   2.823  10.855  2.4752 -0.2469  2.2574
 9534SOL     OW40234   0.207   4.647   3.794  0.0298 -0.0414 -0.1845
 9534SOL    HW140235   0.213   4.699   3.714 -0.5141 -0.2912 -0.3835
 9534SOL    HW240236   0.163   4.713   3.847  0.3822 -0.3727  0.5285
 9535SOL     OW40237   0.764   0.594   4.413  0.6885  0.5779  0.9764
 9535SOL    HW140238   0.787   0.613   4.322  1.1636  0.3320  1.0445
 9535SOL    HW240239   0.786   0.501   4.406  0.8003  0.6006  1.0205
 9536SOL     OW40240   4.299   0.437   9.084 -0.8954  0.3901  0.1394
 9536SOL    HW140241   4.240   0.366   9.060 -0.3489 -0.0739  0.1923
 9536SOL    HW240242   4.380   0.390   9.104 -2.8436 -3.2273 -0.4615
 9537SOL     OW40243   1.430   3.082  16.776  0.1849  0.2208 -0.3243
 9537SOL    HW140244   1.392   3.167  16.800 -0.7278  0.0936 -1.3189
 9537SOL    HW240245   1.522   3.101  16.795 -0.0071 -2.3061  3.1682
 9538SOL     OW40246   2.998   3.652   4.269  0.2015 -0.3711 -0.3187
 9538SOL    HW140247   2.959   3.692   4.347 -0.6579 -2.8366  0.5158
 9538SOL    HW240248   3.089   3.653   4.298  0.4065  0.3466 -0.9949
 9539SOL     OW40249   2.077   2.622  13.947  0.7021  0.7239 -0.0491
 9539SOL    HW140250   2.039   2.579  14.023 -1.0595  1.6640 -0.4132
 9539SOL    HW240251   2.152   2.569  13.918 -0.3860 -0.2060 -1.1994
 9540SOL     OW40252   0.600   0.395  12.538  0.0157  0.2545 -0.0675
 9540SOL    HW140253   0.634   0.331  12.600  2.9204  1.6614 -0.2197
 9540SOL    HW240254   0.560   0.454  12.602  1.1960 -0.5762  1.4162
 9541SOL     OW40255   3.271   2.532   6.485  0.6954 -0.9762 -0.3400
 9541SOL    HW140256   3.201   2.490   6.435 -0.0112  0.7177 -0.7942
 9541SOL    HW240257   3.260   2.505   6.576 -0.5519  0.6144 -0.0217
 9542SOL     OW40258   2.691   4.714  16.134 -0.1530  0.3651 -1.0523
 9542SOL    HW140259   2.749   4.733  16.061 -0.1158 -0.9871 -1.3602
 9542SOL    HW240260   2.705   4.620  16.145 -0.3101  0.4333 -0.2179
 9543SOL     OW40261   4.404   3.964   0.580  0.1048  0.0077  0.1493
 9543SOL    HW140262   4.474   3.924   0.530  0.7796 -0.3253  1.3510
 9543SOL    HW240263   4.404   4.054   0.547  0.3542 -0.1761 -0.3473
 9544SOL     OW40264   2.942   3.533  12.471 -0.2087  0.6667  0.4447
 9544SOL    HW140265   2.964   3.583  12.550  0.6970 -0.9714  1.2265
 9544SOL    HW240266   2.852   3.507  12.489 -0.5601  2.2387  0.9313
 9545SOL     OW40267   1.093   3.453  16.960 -0.3231 -0.2439 -0.7357
 9545SOL    HW140268   1.014   3.400  16.951 -0.2253 -0.3308 -1.0737
 9545SOL    HW240269   1.060   3.517  17.023  0.3456  0.6477 -1.2873
 9546SOL     OW40270   3.082   1.032   1.957 -0.1802  0.1262  0.0219
 9546SOL    HW140271   3.004   0.976   1.961 -1.1564  1.4414 -0.6992
 9546SOL    HW240272   3.030   1.107   1.929  1.3651  1.7609  1.5571
 9547SOL     OW40273   0.763   4.438  10.998  0.1220 -0.2038 -0.5504
 9547SOL    HW140274   0.857   4.453  10.985  0.1161  2.1583  2.3749
 9547SOL    HW240275   0.762   4.401  11.086 -0.5707  1.9017  0.3148
 9548SOL     OW40276   4.399   4.432   7.215 -0.0638 -0.9009  0.2062
 9548SOL    HW140277   4.309   4.436   7.248  0.1334 -1.1199  0.7652
 9548SOL    HW240278   4.420   4.525   7.202 -0.7583 -0.9390 -1.1984
 9549SOL     OW40279   3.047   0.553   8.604  0.0435 -0.1284 -0.4781
 9549SOL    HW140280   2.977   0.612   8.577 -0.4115  0.2117  1.4465
 9549SOL    HW240281   3.029   0.543   8.697 -1.9221 -2.0555 -1.0708
 9550SOL     OW40282   3.547   1.474   5.060  0.2252 -0.4801 -0.5609
 9550SOL    HW140283   3.593   1.497   4.979 -0.2391  1.8274 -0.1857
 9550SOL    HW240284   3.480   1.541   5.069  1.9357  1.1259  0.3825
 9551SOL     OW40285   3.383   2.251   6.034 -0.4602 -0.2682  0.8462
 9551SOL    HW140286   3.345   2.213   6.113 -0.6338 -0.2321  0.7795
 9551SOL    HW240287   3.398   2.343   6.056  0.8739  0.0470 -1.3088
 9552SOL     OW40288   4.624   3.853   5.135  0.1877 -0.1221  0.0526
 9552SOL    HW140289   4.554   3.857   5.200  1.1306  3.2459  0.8640
 9552SOL    HW240290   4.690   3.908   5.178 -1.4990  0.8241  1.4722
 9553SOL     OW40291   2.704   0.274   8.785  0.2338 -0.1190  0.2493
 9553SOL    HW140292   2.665   0.218   8.853 -1.6402  1.3226  0.3849
 9553SOL    HW240293   2.795   0.246   8.790  0.0762 -0.2846  2.5216
 9554SOL     OW40294   0.897   1.259  12.333  0.1471 -0.4440  0.4202
 9554SOL    HW140295   0.872   1.327  12.270  0.2808  0.0284  0.8740
 9554SOL    HW240296   0.962   1.306  12.385  0.7184 -0.7417 -0.0189
 9555SOL     OW40297   0.474   3.043   1.303 -0.6655 -0.1185  0.5098
 9555SOL    HW140298   0.413   3.102   1.261 -0.0778  0.2080  0.1205
 9555SOL    HW240299   0.411   2.999   1.360  0.9956 -2.3418  0.6324
 9556SOL     OW40300   4.389   3.210   4.431 -0.0766 -0.1733  0.3314
 9556SOL    HW140301   4.360   3.156   4.357 -1.4547  1.3238 -0.2213
 9556SOL    HW240302   4.310   3.202   4.484 -0.0670  1.2754  0.5449
 9557SOL     OW40303   4.332   1.262   6.927 -0.2530 -0.4894 -0.5137
 9557SOL    HW140304   4.367   1.173   6.931  0.8584 -0.1387 -2.8535
 9557SOL    HW240305   4.328   1.275   7.022  1.7094 -1.5249 -0.2872
 9558SOL     OW40306   0.635   0.664   2.143  0.0867 -0.3767  0.4116
 9558SOL    HW140307   0.650   0.691   2.052 -1.5972  0.6210  0.4511
 9558SOL    HW240308   0.721   0.668   2.184 -0.2520 -3.3971  1.4764
 9559SOL     OW40309   2.617   4.436  17.190  0.1947  0.2603 -0.3867
 9559SOL    HW140310   2.588   4.512  17.241 -1.2476 -0.3415 -0.3180
 9559SOL    HW240311   2.635   4.487  17.111  0.2667  0.3628 -0.3028
 9560SOL     OW40312   1.514   2.671   9.057 -0.0899  0.1643  0.4170
 9560SOL    HW140313   1.499   2.632   8.971 -2.0994  0.6113  0.5628
 9560SOL    HW240314   1.435   2.665   9.111 -1.2240  0.9874 -1.1508
 9561SOL     OW40315   1.621   4.150   5.419 -0.3444  0.1482 -0.3064
 9561SOL    HW140316   1.567   4.217   5.461 -1.8433  0.1314 -2.2173
 9561SOL    HW240317   1.557   4.101   5.368  0.3992 -0.5420 -0.5705
 9562SOL     OW40318   4.522   3.272   5.915  0.1974  0.1188  0.2746
 9562SOL    HW140319   4.485   3.187   5.891  0.0992  0.9993 -2.7827
 9562SOL    HW240320   4.614   3.253   5.930  0.1449 -0.6746 -0.4041
 9563SOL     OW40321   0.130   1.388  15.809 -0.3552 -0.1712 -0.0263
 9563SOL    HW140322   0.169   1.462  15.762 -2.7214  1.0754  0.0069
 9563SOL    HW240323   0.076   1.350  15.740 -0.5457 -3.3493  1.8845
 9564SOL     OW40324   2.480   4.609  10.034 -0.1719  0.3088  0.2686
 9564SOL    HW140325   2.519   4.533   9.990 -1.7529  0.7277 -1.8486
 9564SOL    HW240326   2.525   4.680   9.988  0.9012 -1.5967 -1.6528
 9565SOL     OW40327   1.675   4.084   8.137  0.5738  0.3748 -0.3683
 9565SOL    HW140328   1.587   4.058   8.162 -0.2207  2.8501 -0.6719
 9565SOL    HW240329   1.711   4.080   8.226 -0.2435 -0.0823 -0.0617
 9566SOL     OW40330   1.453   4.631   8.483 -0.1662  0.1911  0.2153
 9566SOL    HW140331   1.476   4.713   8.526 -1.0375  0.0559  0.9350
 9566SOL    HW240332   1.442   4.672   8.397  0.5683 -1.7500 -0.8055
 9567SOL     OW40333   0.350   0.094  12.450  0.4907 -0.7190 -0.5129
 9567SOL    HW140334   0.417   0.057  12.393 -0.6308 -0.2049 -2.1816
 9567SOL    HW240335   0.270   0.040  12.447  1.5884 -2.3601 -0.3707
 9568SOL     OW40336   3.784   0.720   6.886  0.3873 -0.6565 -0.3386
 9568SOL    HW140337   3.821   0.635   6.910  0.8652 -0.7007 -1.2417
 9568SOL    HW240338   3.819   0.736   6.798  0.7166  0.0600 -0.0782
 9569SOL     OW40339   2.420   2.441   5.776  0.2971 -0.4793  0.1038
 9569SOL    HW140340   2.354   2.401   5.720  0.9462 -0.0986 -0.9406
 9569SOL    HW240341   2.369   2.450   5.857 -0.6329  0.1096 -0.5523
 9570SOL     OW40342   4.617   0.454   0.224 -0.0465  0.4052  0.2392
 9570SOL    HW140343   4.682   0.399   0.180  1.2188  1.6244  0.6140
 9570SOL    HW240344   4.640   0.541   0.193 -2.0148  0.7924 -0.1386
 9571SOL     OW40345   3.801   2.268   2.963  0.0591  0.3834  0.0169
 9571SOL    HW140346   3.835   2.188   2.923 -0.8097 -0.4465  0.9754
 9571SOL    HW240347   3.743   2.242   3.034 -1.6493  0.2531 -1.4375
   4.74159   4.74159  17.76355
