Membrane in water
40347
    1TMC1    C1    1   3.061   3.863  11.860  0.8613 -0.4651  0.3315
    1TMC1    C2    2   3.032   3.843  11.992 -0.3308 -0.3573  0.2549
    1TMC1    C3    3   3.077   3.933  12.089  0.1966  0.5800  0.4461
    1TMC1    C4    4   3.123   3.977  11.812  0.1754  1.0119 -0.5395
    1TMC1    C5    5   3.145   4.071  11.908 -0.6294 -0.3213  0.1426
    1TMC1    C6    6   3.139   4.048  12.048 -0.2930  0.2835  0.2296
    1TMC1     C    7   3.038   3.745  11.775 -0.3380 -0.3208  0.3826
    1TMC1     O    8   2.931   3.690  11.805 -0.6622  0.0924 -0.3313
    1TMC1     H    9   2.960   3.767  12.019 -0.9803 -0.0526 -0.6235
    1TMC1    H1   10   3.123   4.000  11.706 -1.9944  1.2054 -0.5027
    1TMC1    H2   11   3.186   4.125  12.109 -0.0131  0.9320 -0.7917
    1TMC1    C7   12   3.207   4.197  11.865 -1.1599 -0.0449 -0.0936
    1TMC1    C8   13   3.044   3.910  12.225 -0.4194 -0.2075  0.0320
    1TMC1    O1   14   3.233   4.282  11.945  0.4618  0.0921  0.9518
    1TMC1    O2   15   3.099   3.988  12.302 -0.7393  0.0649 -0.2922
    1TMC1    O3   16   3.302   4.146  11.778  0.6159 -0.0836  0.6000
    1TMC1    H3   17   3.301   4.058  11.735  1.0867  0.8646 -1.3117
    1TMC1    O5   18   2.906   3.896  12.222  0.4038  0.3397  0.0853
    1TMC1    H5   19   2.876   3.853  12.139 -0.9793  3.2590 -0.9362
    2MPD2     C   20   3.095   3.445  11.358  0.9757  0.2691  0.2979
    2MPD2    C1   21   2.991   3.470  11.442  1.5598  0.2799  0.2767
    2MPD2    C2   22   2.996   3.561  11.545 -0.4719 -0.4843  0.4689
    2MPD2    C3   23   3.106   3.639  11.568  0.3998  0.0449 -0.9368
    2MPD2    C4   24   3.210   3.620  11.482 -0.3997 -0.3574  0.1150
    2MPD2    C5   25   3.206   3.527  11.382 -0.5106  0.5599 -0.4609
    2MPD2     H   26   2.911   3.569  11.612 -1.7700 -1.7846 -1.0231
    2MPD2    H1   27   3.300   3.676  11.503 -0.6829  0.3616 -0.5778
    2MPD2    H2   28   3.099   3.373  11.277 -1.5549 -1.0263  1.3288
    2MPD2    H3   29   3.290   3.528  11.313  0.5950 -3.0634  0.7835
    2MPD2     N   30   3.127   3.730  11.673 -0.4223 -0.4977  0.3833
    2MPD2    H5   31   3.212   3.785  11.662 -1.2852  1.3153  2.9238
    2MPD2    N1   32   2.865   3.398  11.435  0.1488 -0.4138  0.3712
    2MPD2    H7   33   2.789   3.421  11.498  0.1003  1.1413 -0.2390
    3TMC1    C1   34   1.440   3.775  11.083 -0.7758  0.1437 -0.8470
    3TMC1    C2   35   1.535   3.816  10.998  0.4262 -0.5860 -0.0220
    3TMC1    C3   36   1.582   3.738  10.892  0.3335  0.3847  0.0961
    3TMC1    C4   37   1.391   3.644  11.061 -0.9195 -0.6330 -0.4942
    3TMC1    C5   38   1.444   3.560  10.961 -0.3831 -0.6733 -0.3430
    3TMC1    C6   39   1.543   3.605  10.876  0.1931 -0.2932 -0.0264
    3TMC1     C   40   1.415   3.840  11.214 -0.5921 -0.7637  0.3148
    3TMC1     O   41   1.348   3.769  11.290 -0.2697 -0.6171 -0.0455
    3TMC1     H   42   1.573   3.918  10.997 -1.6500  0.1483 -1.8751
    3TMC1    H1   43   1.300   3.626  11.119 -0.9712  1.1549 -0.0124
    3TMC1    H2   44   1.587   3.547  10.796 -2.0959 -2.7975  0.5038
    3TMC1    C7   45   1.363   3.445  10.935 -0.3618 -0.3192 -0.1603
    3TMC1    C8   46   1.644   3.815  10.786 -0.1398  0.0436 -0.5941
    3TMC1    O1   47   1.254   3.418  10.984 -0.2805 -0.5142  0.6034
    3TMC1    O2   48   1.698   3.923  10.807  0.3898 -0.9004  0.3269
    3TMC1    O3   49   1.432   3.362  10.866 -0.1776 -0.0385 -0.2825
    3TMC1    H3   50   1.528   3.376  10.883 -0.3338  1.3984 -0.6214
    3TMC1    O5   51   1.564   3.793  10.677 -0.6692  0.5009  0.3000
    3TMC1    H5   52   1.527   3.702  10.675 -0.3753  0.3893 -0.0348
    4MPD2     C   53   1.360   4.214  11.549  0.3127  0.0630 -0.0698
    4MPD2    C1   54   1.418   4.271  11.438  0.2652 -0.2760 -0.0120
    4MPD2    C2   55   1.462   4.191  11.329  0.4002 -0.1373 -0.3347
    4MPD2    C3   56   1.444   4.056  11.338  0.0963 -0.0173  0.4962
    4MPD2    C4   57   1.399   3.996  11.459  0.2334  0.5763  0.1971
    4MPD2    C5   58   1.350   4.078  11.557  0.0384 -0.3098 -0.0975
    4MPD2     H   59   1.501   4.228  11.235 -0.0100  2.9077  0.6947
    4MPD2    H1   60   1.396   3.889  11.474  0.0693  0.6729  0.8609
    4MPD2    H2   61   1.309   4.267  11.628  1.1806  0.8931 -0.0705
    4MPD2    H3   62   1.310   4.034  11.648 -0.8347 -0.6598 -0.6484
    4MPD2     N   63   1.470   3.969  11.226 -0.0578 -0.3216 -0.3027
    4MPD2    H5   64   1.520   4.010  11.147 -2.2855  2.3678 -0.3049
    4MPD2    N1   65   1.422   4.411  11.422 -0.1527 -0.2834 -0.0754
    4MPD2    H7   66   1.439   4.444  11.327 -2.2738  1.1694  0.0477
    5TCq1    O1   67   2.643   1.699  12.134 -0.3045  0.3250 -0.1756
    5TCq1    C1   68   2.626   1.709  11.995 -0.2207  0.0805 -0.5650
    5TCq1    O2   69   2.667   1.804  11.924  0.2938 -0.8283  0.2957
    5TCq1    C2   70   2.571   1.589  11.941 -0.5898  0.0412  0.0810
    5TCq1    C3   71   2.504   1.499  12.015 -0.1108 -0.2581 -0.1779
    5TCq1    C4   72   2.485   1.376  11.953 -0.5735 -0.7530  0.5838
    5TCq1    C5   73   2.530   1.353  11.825 -0.5616 -0.4965  0.3167
    5TCq1    C6   74   2.584   1.451  11.752 -0.4606 -0.6274 -0.0202
    5TCq1    C7   75   2.602   1.571  11.807 -0.1946 -0.6338  0.2487
    5TCq1    C8   76   2.615   1.420  11.612 -0.4867 -0.2882  0.0971
    5TCq1    O4   77   2.583   1.314  11.561 -0.4358 -0.2528  0.3616
    5TCq1    C9   78   2.404   1.278  12.032 -0.1873 -0.0060 -0.0051
    5TCq1    O5   79   2.367   1.181  11.962 -0.2010 -0.4523 -0.4978
    5TCq1    O6   80   2.345   1.317  12.132 -0.4044  0.3562  0.9357
    5TCq1    H1   81   2.608   1.614  12.169 -0.5422 -0.6777 -2.8089
    5TCq1    H2   82   2.480   1.509  12.120 -0.5001 -0.0959 -0.2826
    5TCq1    H3   83   2.504   1.258  11.779 -0.1183 -0.1498 -0.6616
    5TCq1    H4   84   2.649   1.653  11.753 -1.9357  0.6539  0.7026
    6MPD2     C   85   2.706   1.683  11.381  0.2898  0.4517 -0.4159
    6MPD2    C1   86   2.688   1.554  11.417 -0.0501 -0.4695 -0.1791
    6MPD2    C2   87   2.715   1.450  11.329 -0.3692 -0.2099  1.0788
    6MPD2    C3   88   2.758   1.468  11.197  0.2947 -0.4144  0.3050
    6MPD2    C4   89   2.779   1.600  11.160  0.2309  0.0054  0.3330
    6MPD2    C5   90   2.738   1.699  11.247  0.4415 -0.1322  0.8035
    6MPD2     H   91   2.709   1.348  11.363  1.1876 -0.6785 -0.0109
    6MPD2    H1   92   2.831   1.628  11.070  0.5840 -1.4794  0.0692
    6MPD2    H2   93   2.676   1.765  11.445  0.6831  1.0698 -1.0343
    6MPD2    H3   94   2.754   1.800  11.211  0.6201 -0.1780  0.7523
    6MPD2     N   95   2.783   1.363  11.110  0.2948 -0.3619  0.3456
    6MPD2    H5   96   2.781   1.270  11.151  0.5549 -0.5833 -0.1410
    6MPD2    N1   97   2.655   1.536  11.554  0.6221  0.1969 -0.1757
    6MPD2    H7   98   2.633   1.618  11.609 -0.6955  0.2858 -0.8354
    7TCq1    O1   99   3.939   0.700  13.037 -0.1609  0.2603  0.5729
    7TCq1    C1  100   3.888   0.604  13.116 -0.0611  0.4306 -0.1358
    7TCq1    O2  101   3.892   0.585  13.236 -0.3309  0.0094  0.4997
    7TCq1    C2  102   3.882   0.495  13.021 -0.1752 -0.3856 -0.4452
    7TCq1    C3  103   3.827   0.518  12.896  0.7309 -0.1564  0.0017
    7TCq1    C4  104   3.836   0.422  12.800 -0.1175  0.2210  0.2179
    7TCq1    C5  105   3.901   0.308  12.830  1.1764  0.1392  0.0050
    7TCq1    C6  106   3.959   0.287  12.954  0.5099 -0.6481  0.4327
    7TCq1    C7  107   3.950   0.381  13.053  0.3995  0.2288  0.1199
    7TCq1    C8  108   4.046   0.169  12.968 -0.4913  0.6541 -0.1689
    7TCq1    O4  109   4.049   0.080  12.886  0.0866 -0.8032 -0.1361
    7TCq1    C9  110   3.762   0.427  12.677  0.0555  0.6645 -0.0746
    7TCq1    O5  111   3.777   0.338  12.597 -0.0499 -0.0993  0.3376
    7TCq1    O6  112   3.707   0.539  12.653 -0.7794  0.2235  0.3458
    7TCq1    H1  113   3.964   0.667  12.948  0.3845 -0.7800  1.1102
    7TCq1    H2  114   3.766   0.604  12.870 -2.3605 -2.5367 -0.6500
    7TCq1    H3  115   3.893   0.224  12.762  0.6108  0.0563  0.1731
    7TCq1    H4  116   3.988   0.379  13.155  1.0214  0.8135 -0.1034
    8MPD2     C  117   4.459   4.695  13.185  0.5384 -0.3210 -0.4087
    8MPD2    C1  118   4.343   4.645  13.128  1.1042 -0.6602 -0.6051
    8MPD2    C2  119   4.237   4.721  13.086  0.0578 -0.2568  0.5899
    8MPD2    C3  120   4.247   0.121  13.104  0.1396 -0.8427  0.1829
    8MPD2    C4  121   4.355   0.173  13.169  0.1002 -0.4390 -0.1722
    8MPD2    C5  122   4.462   0.092  13.205 -0.3453 -0.4870 -0.0661
    8MPD2     H  123   4.149   4.675  13.044  1.3717 -1.7855 -0.5071
    8MPD2    H1  124   4.366   0.278  13.191  0.1057 -1.0662  2.8591
    8MPD2    H2  125   4.539   4.634  13.225  1.7887  1.6846  0.1288
    8MPD2    H3  126   4.553   0.138  13.240 -0.4118  0.0711 -0.6182
    8MPD2     N  127   4.139   0.202  13.068 -0.2762  0.1355 -0.7392
    8MPD2    H5  128   4.142   0.297  13.105 -3.2247 -0.0907  0.0922
    8MPD2    N1  129   4.336   4.505  13.129 -0.3483  0.2755  0.4421
    8MPD2    H7  130   4.399   4.462  13.195 -1.8765 -2.8588 -0.1150
    9TMC1    C1  131   2.389   0.305  11.467  0.0898 -0.3853  1.0443
    9TMC1    C2  132   2.426   0.399  11.373 -0.1283 -0.2283 -0.3201
    9TMC1    C3  133   2.332   0.486  11.325  0.4204  0.2927  0.5784
    9TMC1    C4  134   2.258   0.294  11.511  0.0323 -0.2941  0.0570
    9TMC1    C5  135   2.166   0.379  11.452  0.4355 -0.2406 -1.0753
    9TMC1    C6  136   2.202   0.472  11.355 -0.2220  0.0229  0.0527
    9TMC1     C  137   2.486   0.232  11.548 -0.4504 -0.1118 -0.9119
    9TMC1     O  138   2.600   0.265  11.537 -0.5088  0.4937 -0.2144
    9TMC1     H  139   2.532   0.416  11.359  0.1470 -0.4563  1.3995
    9TMC1    H1  140   2.239   0.239  11.602 -0.4286  2.5587  1.6640
    9TMC1    H2  141   2.127   0.542  11.319  0.3210  0.0848 -0.9547
    9TMC1    C7  142   2.049   0.400  11.535 -0.0191 -0.1198 -0.4217
    9TMC1    C8  143   2.376   0.612  11.257  0.0574 -0.6454 -0.4640
    9TMC1    O1  144   2.039   0.351  11.645 -0.3728  0.3042 -0.1717
    9TMC1    O2  145   2.492   0.654  11.265 -0.1773 -0.4167  0.9433
    9TMC1    O3  146   1.952   0.448  11.459  0.6987  0.2653  0.1949
    9TMC1    H3  147   1.968   0.446  11.362  2.1297 -1.2469  0.4651
    9TMC1    O5  148   2.305   0.635  11.149  0.1649  0.2475  0.1344
    9TMC1    H5  149   2.234   0.569  11.134  0.1113  0.3846 -0.2333
   10MPD2     C  150   2.629   0.054  11.745 -0.5041 -0.0207 -0.5431
   10MPD2    C1  151   2.503   0.029  11.695  0.1148 -0.6382 -0.2303
   10MPD2    C2  152   2.442   4.642  11.724  1.1381 -0.1018  0.3403
   10MPD2    C3  153   2.498   4.542  11.803  0.0672  0.4595 -0.3014
   10MPD2    C4  154   2.621   4.577  11.864 -0.7218 -0.0746 -0.2433
   10MPD2    C5  155   2.680   4.694  11.826 -0.5100  0.2924 -0.2297
   10MPD2     H  156   2.355   4.605  11.672  1.0822 -0.3156  0.5829
   10MPD2    H1  157   2.677   4.518  11.936 -0.6457  0.9997  0.5834
   10MPD2    H2  158   2.689   0.143  11.734  0.6997 -0.5931  1.4684
   10MPD2    H3  159   2.783   4.711  11.856 -0.8009  2.0892 -0.2138
   10MPD2     N  160   2.444   4.414  11.825 -0.8965 -0.2030  0.0036
   10MPD2    H5  161   2.493   4.353  11.890  0.4470 -1.1418 -1.8743
   10MPD2    N1  162   2.427   0.122  11.614 -0.1312  0.3044  0.0770
   10MPD2    H7  163   2.335   0.089  11.586  0.4084 -0.4400 -0.7810
   11TCq1    O1  164   3.300   3.507  14.338 -0.1417  0.1235  0.1868
   11TCq1    C1  165   3.242   3.386  14.298 -1.1165  0.7476  0.4926
   11TCq1    O2  166   3.298   3.275  14.302  0.3786 -0.0972 -0.0184
   11TCq1    C2  167   3.100   3.415  14.299 -0.0997  0.3032  1.1465
   11TCq1    C3  168   3.044   3.518  14.369  0.3109  0.6534  0.5437
   11TCq1    C4  169   2.906   3.513  14.369  0.1901 -0.1851 -0.3513
   11TCq1    C5  170   2.824   3.416  14.313 -0.2294  0.0070 -0.3061
   11TCq1    C6  171   2.893   3.323  14.238 -0.7777 -0.1184  0.3156
   11TCq1    C7  172   3.028   3.324  14.234 -0.6066  0.4542  0.3655
   11TCq1    C8  173   2.810   3.225  14.167 -0.2209  0.1181  0.5732
   11TCq1    O4  174   2.691   3.237  14.188 -0.2040 -0.0892 -0.1872
   11TCq1    C9  175   2.837   3.617  14.443  0.3699  0.3381  0.0503
   11TCq1    O5  176   2.719   3.587  14.469  0.2701  0.1340 -0.0171
   11TCq1    O6  177   2.909   3.699  14.512  0.2596 -0.2242 -0.2161
   11TCq1    H1  178   3.255   3.590  14.313 -2.7287 -1.8124 -1.5608
   11TCq1    H2  179   3.086   3.598  14.429 -0.7237  1.5546  0.0775
   11TCq1    H3  180   2.717   3.429  14.301 -0.6031 -2.4598  0.4128
   11TCq1    H4  181   3.085   3.258  14.170 -0.9735  0.4042  0.0895
   12MPD2     C  182   2.673   3.060  13.967  0.2952 -0.4301 -0.5551
   12MPD2    C1  183   2.807   3.051  14.001  0.5257 -0.0443  0.6677
   12MPD2    C2  184   2.873   2.932  13.968 -0.3608  0.7702 -0.6624
   12MPD2    C3  185   2.807   2.824  13.902 -0.9067  0.1377 -0.4501
   12MPD2    C4  186   2.683   2.843  13.855 -0.4209  0.8884  0.9998
   12MPD2    C5  187   2.618   2.958  13.892 -0.6816 -0.2969 -0.3526
   12MPD2     H  188   2.978   2.920  13.992 -1.5183 -2.7132  2.4992
   12MPD2    H1  189   2.631   2.776  13.787 -1.1663 -0.6048  3.0364
   12MPD2    H2  190   2.622   3.153  13.992  0.2629 -0.4949 -0.3771
   12MPD2    H3  191   2.518   2.966  13.852 -0.6934  0.0053 -0.2600
   12MPD2     N  192   2.866   2.705  13.861  0.1062  0.9047 -0.3044
   12MPD2    H5  193   2.805   2.644  13.807 -0.3029  1.6162 -0.6405
   12MPD2    N1  194   2.876   3.138  14.082 -0.5167 -0.0846  0.7157
   12MPD2    H7  195   2.976   3.123  14.084 -0.5219 -0.2736 -0.6699
   13TCq1    O1  196   3.261   3.852  10.472  0.6647 -0.1220 -0.4618
   13TCq1    C1  197   3.158   3.812  10.549  0.4204 -0.2573  0.7972
   13TCq1    O2  198   3.074   3.735  10.508 -0.2513  0.3598  0.0893
   13TCq1    C2  199   3.141   3.893  10.664 -0.0458  0.3852  0.7691
   13TCq1    C3  200   3.251   3.958  10.711 -0.5586  0.1913 -0.0963
   13TCq1    C4  201   3.240   4.048  10.816 -0.7579  0.1540 -0.0925
   13TCq1    C5  202   3.117   4.068  10.864  0.1131 -0.5933 -0.2232
   13TCq1    C6  203   3.006   4.001  10.819  0.7991  0.3088 -0.3013
   13TCq1    C7  204   3.014   3.901  10.721 -0.3403 -0.3512 -0.1594
   13TCq1    C8  205   2.879   4.009  10.888 -0.1048 -0.0610  0.3839
   13TCq1    O4  206   2.783   3.965  10.829 -0.3831 -0.7659  0.3247
   13TCq1    C9  207   3.354   4.111  10.878  0.1786  0.2678 -0.1849
   13TCq1    O5  208   3.334   4.187  10.974  0.3243 -0.2302  0.2342
   13TCq1    O6  209   3.468   4.098  10.818 -0.0090 -0.1670  0.5857
   13TCq1    H1  210   3.320   3.923  10.506 -2.2081  2.2001 -0.3420
   13TCq1    H2  211   3.351   3.956  10.668  0.2744  0.2280  1.8274
   13TCq1    H3  212   3.102   4.141  10.944  1.0077 -0.3436 -0.2916
   13TCq1    H4  213   2.926   3.853  10.681  0.1562 -0.3825 -1.2196
   14MPD2     C  214   2.809   4.185  11.188  0.3561 -0.6603 -0.1121
   14MPD2    C1  215   2.777   4.115  11.083 -0.3860 -0.0445 -0.4675
   14MPD2    C2  216   2.640   4.083  11.062 -0.5474 -0.3866 -0.4241
   14MPD2    C3  217   2.547   4.116  11.161  0.7770 -0.1680 -0.2417
   14MPD2    C4  218   2.590   4.170  11.281  0.2464  0.6852  0.8169
   14MPD2    C5  219   2.724   4.212  11.288 -0.2845  0.8362  0.3077
   14MPD2     H  220   2.599   4.045  10.970 -2.1947  0.0873  0.1113
   14MPD2    H1  221   2.522   4.196  11.361 -1.1623 -2.8637  0.7820
   14MPD2    H2  222   2.912   4.218  11.198 -0.0030 -0.1621  2.0377
   14MPD2    H3  223   2.754   4.263  11.379 -0.6428 -0.6043  1.2337
   14MPD2     N  224   2.407   4.093  11.133 -0.2909 -0.0457  0.1524
   14MPD2    H5  225   2.377   4.064  11.041 -0.1896  0.4183 -0.0303
   14MPD2    N1  226   2.882   4.087  11.001 -0.3762 -0.3418  0.6095
   14MPD2    H7  227   2.974   4.121  11.027 -0.2158  0.9908 -1.7272
   15TCq1    O1  228   0.674   2.270   1.381  0.3375  0.0978 -0.1210
   15TCq1    C1  229   0.679   2.281   1.515 -0.4364 -0.3352 -0.1547
   15TCq1    O2  230   0.747   2.366   1.567  0.1167  0.2832  0.1249
   15TCq1    C2  231   0.543   2.243   1.551  0.6273  0.5618 -0.2165
   15TCq1    C3  232   0.484   2.339   1.626  0.8478  0.7882 -0.6038
   15TCq1    C4  233   0.346   2.343   1.620  0.6377  0.4859 -0.4350
   15TCq1    C5  234   0.277   2.256   1.543 -0.7777  0.2571  0.1846
   15TCq1    C6  235   0.346   2.155   1.478  1.2493 -0.5943 -1.0948
   15TCq1    C7  236   0.482   2.142   1.478 -0.0565 -0.8946  0.1075
   15TCq1    C8  237   0.276   2.036   1.419 -0.3893  0.6040  0.3936
   15TCq1    O4  238   0.339   1.934   1.415 -0.8991  0.4204 -0.6271
   15TCq1    C9  239   0.273   2.445   1.679 -0.0973  0.1862 -0.4732
   15TCq1    O5  240   0.345   2.497   1.770  0.5356  0.0320 -0.3333
   15TCq1    O6  241   0.170   2.501   1.624  0.1676  0.2525 -0.1819
   15TCq1    H1  242   0.596   2.223   1.346  1.6130 -1.1217 -1.3598
   15TCq1    H2  243   0.542   2.416   1.676 -0.2934  2.6650 -2.1543
   15TCq1    H3  244   0.172   2.280   1.528 -1.1789  0.0227  2.6617
   15TCq1    H4  245   0.524   2.059   1.422 -1.9071  0.3416 -3.0821
   16MPD2     C  246   4.680   2.003   1.303 -0.0658 -0.4927  0.3485
   16MPD2    C1  247   0.062   1.954   1.340 -1.0435 -0.6492  0.2150
   16MPD2    C2  248   0.081   1.820   1.357  0.4003 -0.3568 -0.3880
   16MPD2    C3  249   4.731   1.728   1.317  0.0979 -0.2333 -0.1258
   16MPD2    C4  250   4.607   1.771   1.277 -0.7063  0.5281 -0.2626
   16MPD2    C5  251   4.589   1.912   1.266 -0.9235  0.2313 -0.3794
   16MPD2     H  252   0.179   1.784   1.382  0.2479 -0.1765  0.4629
   16MPD2    H1  253   4.529   1.700   1.250  0.6253 -1.2697  0.6618
   16MPD2    H2  254   4.656   2.108   1.297 -3.5312 -1.3218 -0.0402
   16MPD2    H3  255   4.495   1.951   1.228 -0.8315  2.3321  1.5620
   16MPD2     N  256   0.039   1.593   1.308  0.7428 -0.2744 -0.0828
   16MPD2    H5  257   0.137   1.577   1.332 -0.0963 -0.8840  2.9078
   16MPD2    N1  258   0.149   2.058   1.381 -0.8890 -0.5284 -0.2449
   16MPD2    H7  259   0.111   2.152   1.386  2.3364  0.8110 -0.8144
   17TMC1    C1  260   2.311   2.688  10.109 -0.0773  0.0242  0.0972
   17TMC1    C2  261   2.326   2.691  10.245 -0.2151  0.6645 -0.5931
   17TMC1    C3  262   2.298   2.578  10.310 -0.1333  0.7004 -0.2743
   17TMC1    C4  263   2.265   2.578  10.043  0.1064 -0.0221 -0.2621
   17TMC1    C5  264   2.246   2.463  10.120  0.9651 -0.3913 -0.1763
   17TMC1    C6  265   2.262   2.461  10.254  0.3686 -0.1216  0.0262
   17TMC1     C  266   2.298   2.810  10.029  0.8778  0.4025 -0.1183
   17TMC1     O  267   2.316   2.796   9.908 -0.1115 -0.0125  0.1027
   17TMC1     H  268   2.345   2.785  10.295  0.2833 -0.2587  0.9404
   17TMC1    H1  269   2.244   2.578   9.937  0.0891 -4.3964 -0.2362
   17TMC1    H2  270   2.216   2.388  10.319  0.9382 -2.1379 -1.8235
   17TMC1    C7  271   2.216   2.340  10.051 -0.5042 -0.6247  0.4378
   17TMC1    C8  272   2.332   2.576  10.452 -0.1909  0.0403 -0.1611
   17TMC1    O1  273   2.152   2.335   9.947 -0.0443 -0.0416  0.5123
   17TMC1    O2  274   2.308   2.662  10.535 -0.0682 -0.3297  0.0145
   17TMC1    O3  275   2.243   2.237  10.134 -0.2597  0.6246 -0.1200
   17TMC1    H3  276   2.311   2.251  10.204  0.1117  1.7539 -0.7051
   17TMC1    O5  277   2.410   2.467  10.475  0.8945  0.5051  0.6098
   17TMC1    H5  278   2.423   2.410  10.396 -0.3719 -0.0075  0.7672
   18MPD2     C  279   2.268   3.089   9.938  0.2945  0.1065 -0.0613
   18MPD2    C1  280   2.263   3.050  10.070 -0.1623  0.2993  0.4108
   18MPD2    C2  281   2.241   3.146  10.164 -0.6817  0.5151  0.6031
   18MPD2    C3  282   2.224   3.278  10.130 -0.1450  0.5437  0.4434
   18MPD2    C4  283   2.230   3.321   9.993 -0.4723 -0.0208 -0.1409
   18MPD2    C5  284   2.246   3.215   9.899 -0.6829 -0.0531 -0.1350
   18MPD2     H  285   2.245   3.117  10.268 -1.5470 -1.9058 -0.0327
   18MPD2    H1  286   2.230   3.426   9.965  2.0491  0.4071  1.4447
   18MPD2    H2  287   2.277   3.022   9.853  1.0501  0.7880 -0.5230
   18MPD2    H3  288   2.246   3.234   9.793 -0.3115 -1.9966 -0.4832
   18MPD2     N  289   2.225   3.384  10.220  0.2725  0.2383 -0.0338
   18MPD2    H5  290   2.214   3.477  10.180  1.9230  0.0999 -0.8060
   18MPD2    N1  291   2.269   2.920  10.105 -0.2230  0.6030  0.0437
   18MPD2    H7  292   2.242   2.901  10.201 -2.8700  1.0463 -0.6149
   19TMC2    C1  293   3.846   3.497  14.477  0.1825  0.6455  0.3441
   19TMC2    C2  294   3.762   3.583  14.406  0.1422 -0.7823  0.9741
   19TMC2    C3  295   3.656   3.530  14.345 -0.7555  0.1695 -1.0005
   19TMC2    C4  296   3.816   3.359  14.481 -0.3250  0.2612 -0.0985
   19TMC2    C5  297   3.715   3.314  14.403  0.3574  0.8087 -1.2401
   19TMC2    C6  298   3.633   3.397  14.329  1.2781 -0.0492 -0.7086
   19TMC2     C  299   3.977   3.543  14.502 -0.5895  0.0018 -0.1227
   19TMC2     O  300   4.010   3.650  14.451  0.4074 -0.3146  0.5164
   19TMC2     H  301   3.797   3.684  14.388  1.2538 -1.5185 -0.9767
   19TMC2    H1  302   3.862   3.288  14.549 -1.0429  0.2100  0.3278
   19TMC2    H2  303   3.561   3.362  14.256  1.0048 -1.8800  0.4455
   19TMC2    C7  304   3.707   3.174  14.379 -0.3078 -0.2464  0.3772
   19TMC2    C8  305   3.582   3.624  14.253  0.2220 -0.3042  0.1980
   19TMC2    O1  306   3.812   3.111  14.388 -0.2541  0.0570  0.0517
   19TMC2    O2  307   3.603   3.639  14.132 -0.2137 -0.0312 -0.3840
   19TMC2    O5  308   3.517   3.714  14.331  0.7882  0.1068  0.1780
   19TMC2    H5  309   3.514   3.693  14.427  0.8480  1.8569  0.5658
   20MPD2     C  310   4.274   3.558  14.524  0.0397 -0.1755 -0.5246
   20MPD2    C1  311   4.188   3.456  14.579  0.0412 -0.1975 -0.1733
   20MPD2    C2  312   4.253   3.349  14.632 -0.7627 -0.8012 -0.3227
   20MPD2    C3  313   4.387   3.347  14.663 -0.1019  0.5261 -0.5262
   20MPD2    C4  314   4.459   3.454  14.624 -0.0489 -0.1169  0.5688
   20MPD2    C5  315   4.408   3.551  14.548  0.1588  0.9158 -0.3462
   20MPD2     H  316   4.187   3.270  14.664 -1.3183 -1.5616 -3.3648
   20MPD2    H1  317   4.565   3.439  14.642 -0.0377  1.4548  1.7912
   20MPD2    H2  318   4.236   3.636  14.460 -2.6538  0.5429  1.9457
   20MPD2    H3  319   4.474   3.616  14.492  1.8782 -1.6464 -1.2833
   20MPD2     N  320   4.456   3.248  14.737  0.2704 -0.4459  0.1847
   20MPD2    H5  321   4.556   3.264  14.739  0.0895  0.6407  0.6706
   20MPD2    N1  322   4.047   3.453  14.573  0.6074 -0.0377 -0.2799
   20MPD2    H7  323   3.987   3.388  14.624  0.7933  0.7461  0.9406
   21TMC2    C1  324   1.438   3.617  14.285 -0.2712 -0.4468 -0.0507
   21TMC2    C2  325   1.361   3.537  14.359  0.7163  0.2034  0.5679
   21TMC2    C3  326   1.231   3.572  14.389  0.3521  0.1628  0.2159
   21TMC2    C4  327   1.385   3.736  14.247 -0.1825  0.7188  0.8150
   21TMC2    C5  328   1.255   3.767  14.278 -0.2551 -0.0835  0.8874
   21TMC2    C6  329   1.175   3.689  14.352  0.0378 -0.5397 -0.1117
   21TMC2     C  330   1.583   3.578  14.273 -0.3943 -0.0241 -0.5606
   21TMC2     O  331   1.611   3.456  14.286  0.0073 -0.3973 -0.1453
   21TMC2     H  332   1.401   3.443  14.394  0.0016 -0.9737 -1.8231
   21TMC2    H1  333   1.440   3.813  14.193 -0.9797  0.1111 -0.8684
   21TMC2    H2  334   1.072   3.712  14.375 -0.6537 -2.1515 -1.5883
   21TMC2    C7  335   1.210   3.897  14.239  0.0139  0.7228 -0.6766
   21TMC2    C8  336   1.145   3.467  14.446  0.1630 -0.4459 -0.5544
   21TMC2    O1  337   1.300   3.978  14.224 -0.7169 -0.2336 -0.2272
   21TMC2    O2  338   1.188   3.371  14.507 -0.2183  0.0541 -0.1474
   21TMC2    O5  339   1.037   3.460  14.366 -0.2943  0.2304 -0.4850
   21TMC2    H5  340   1.018   3.529  14.298 -0.4289 -0.2897 -0.9766
   22MPD2     C  341   2.086   3.691  14.291  0.3291 -0.5338 -0.8278
   22MPD2    C1  342   2.021   3.570  14.286 -0.2912 -0.3430 -0.0524
   22MPD2    C2  343   1.884   3.569  14.292 -0.4440 -0.3192  0.0124
   22MPD2    C3  344   1.807   3.687  14.296 -0.0239 -0.3142 -0.5265
   22MPD2    C4  345   1.874   3.809  14.296  0.2032 -0.2338  0.2147
   22MPD2    C5  346   2.017   3.812  14.291 -0.0301 -0.4781  0.3245
   22MPD2     H  347   1.839   3.472  14.309  0.6590 -0.8966 -0.3630
   22MPD2    H1  348   1.818   3.901  14.306  1.9458  0.8530 -0.0161
   22MPD2    H2  349   2.190   3.715  14.276 -1.2871  5.0921 -3.0218
   22MPD2    H3  350   2.070   3.906  14.291 -0.1299 -0.4218  0.2617
   22MPD2     N  351   1.664   3.691  14.283  0.4255 -0.5868  0.3898
   22MPD2    H5  352   1.616   3.780  14.281 -0.2346 -0.9590 -0.6674
   22MPD2    N1  353   2.080   3.447  14.277  0.0779 -0.0397  0.1812
   22MPD2    H7  354   2.016   3.369  14.273  0.0394 -0.0539  0.9573
   23TMC2    C1  355   2.685   4.681  14.648  0.7215  0.5270 -0.2079
   23TMC2    C2  356   2.675   0.049  14.559  0.3613 -0.0647  0.2922
   23TMC2    C3  357   2.553   0.056  14.496  0.0807 -0.2911 -0.6882
   23TMC2    C4  358   2.584   4.596  14.679  0.1609 -0.6219  0.2577
   23TMC2    C5  359   2.464   4.615  14.614 -0.3444 -0.2938  0.4743
   23TMC2    C6  360   2.441   4.718  14.531  0.7360 -0.0863  0.0502
   23TMC2     C  361   2.795   4.645  14.733  0.5079  0.1039 -0.5398
   23TMC2     O  362   2.804   4.538  14.793  0.8198 -0.2733 -0.1487
   23TMC2     H  363   2.760   0.102  14.518  2.0423 -3.8718 -1.1296
   23TMC2    H1  364   2.591   4.515  14.750  0.3256 -0.8518 -0.0172
   23TMC2    H2  365   2.348   0.011  14.484  1.7947  1.0344 -1.3135
   23TMC2    C7  366   2.355   4.525  14.661 -0.0332 -0.6003 -0.1124
   23TMC2    C8  367   2.538   0.151  14.386  0.3346  0.1408  0.1381
   23TMC2    O1  368   2.362   4.458  14.759  0.0230 -0.1819  0.1949
   23TMC2    O2  369   2.601   0.258  14.375 -0.2969  1.0521  0.4757
   23TMC2    O5  370   2.453   0.105  14.291 -0.1071 -0.5582 -0.0017
   23TMC2    H5  371   2.449   0.007  14.293 -1.2374 -0.4493  2.5883
   24MPD2     C  372   3.234   0.050  14.967 -0.1060  0.2096 -0.3840
   24MPD2    C1  373   3.136   4.700  15.003  0.4492  0.3242  0.1650
   24MPD2    C2  374   3.028   4.676  14.923 -0.5648  0.4887 -0.5471
   24MPD2    C3  375   3.005   0.010  14.806  0.4266 -0.0570  0.0262
   24MPD2    C4  376   3.095   0.103  14.777 -0.1485 -0.2654 -0.5529
   24MPD2    C5  377   3.209   0.112  14.849  0.6520  0.1451  0.4371
   24MPD2     H  378   2.961   4.603  14.967 -0.7708  2.7726  2.8615
   24MPD2    H1  379   3.083   0.169  14.692 -2.2115  1.9997  1.4934
   24MPD2    H2  380   3.330   0.062  15.016 -0.6249 -1.3432  1.0102
   24MPD2    H3  381   3.285   0.175  14.805 -0.6821  0.5878 -1.2570
   24MPD2     N  382   2.895   4.734  14.725 -0.2109  0.1767  0.0732
   24MPD2    H5  383   2.884   0.070  14.655 -3.4768 -0.9260 -0.5333
   24MPD2    N1  384   3.146   4.651  15.138 -0.1884  1.1417 -0.3070
   24MPD2    H7  385   3.090   4.567  15.153  0.0707  1.2827  1.5057
   25TMC2    C1  386   1.704   2.984  11.913 -0.2125 -0.2694 -0.4268
   25TMC2    C2  387   1.828   2.986  11.966 -0.0621 -0.1930 -0.3210
   25TMC2    C3  388   1.832   2.981  12.105 -0.5719  0.0030 -0.8107
   25TMC2    C4  389   1.591   2.972  11.990  0.3396  0.1096  0.5183
   25TMC2    C5  390   1.592   2.970  12.126 -0.2612 -0.3093  0.2801
   25TMC2    C6  391   1.716   2.973  12.186 -0.7519  0.1164 -0.9584
   25TMC2     C  392   1.700   2.962  11.771 -0.3786 -0.4303 -0.3247
   25TMC2     O  393   1.790   3.022  11.711  0.0768 -0.0937  0.2402
   25TMC2     H  394   1.915   2.992  11.901 -0.6981  0.3403 -1.1205
   25TMC2    H1  395   1.501   2.954  11.933  0.2558  0.7502  0.4478
   25TMC2    H2  396   1.721   2.972  12.295 -0.8304 -0.8992 -0.9674
   25TMC2    C7  397   1.493   2.915  12.212 -0.1942  1.0614  0.7870
   25TMC2    C8  398   1.961   2.986  12.168  0.3456 -0.4985  0.0765
   25TMC2    O1  399   1.537   2.839  12.295  0.9373 -0.2608 -0.4081
   25TMC2    O2  400   1.970   3.001  12.290 -0.1221  0.4767 -0.2720
   25TMC2    O5  401   2.050   2.911  12.101 -0.0223  0.0409  0.8652
   25TMC2    H5  402   2.005   2.873  12.023  0.7966  0.0223  0.4011
   26MPD2     C  403   1.672   2.652  11.364  0.5726 -0.0339 -0.5429
   26MPD2    C1  404   1.625   2.585  11.468  0.0137  0.0605  0.8213
   26MPD2    C2  405   1.610   2.651  11.589  0.0543 -0.0057  0.3694
   26MPD2    C3  406   1.640   2.784  11.604  0.4509  0.2080 -0.2503
   26MPD2    C4  407   1.687   2.854  11.497  0.5074  0.1703  0.0522
   26MPD2    C5  408   1.705   2.783  11.379 -0.2704 -0.3936 -0.6001
   26MPD2     H  409   1.582   2.590  11.675  0.2158  0.4272  0.7293
   26MPD2    H1  410   1.711   2.959  11.493 -0.8568  0.4560 -0.6372
   26MPD2    H2  411   1.671   2.615  11.262  2.5206 -0.5008 -0.3849
   26MPD2    H3  412   1.747   2.840  11.297 -3.2096  3.1511  0.3208
   26MPD2     N  413   1.627   2.847  11.729  0.5314 -0.0696 -0.5309
   26MPD2    H5  414   1.583   2.807  11.810 -0.5817  1.1842 -0.5236
   26MPD2    N1  415   1.593   2.450  11.444  0.1135 -0.3049 -0.1664
   26MPD2    H7  416   1.630   2.418  11.355 -0.4011  0.3292 -0.6094
   27TMC2    C1  417   0.631   4.140  12.476 -0.0231  0.5627 -0.6388
   27TMC2    C2  418   0.763   4.178  12.446 -0.5453 -0.0388 -0.0443
   27TMC2    C3  419   0.857   4.103  12.509 -0.1136  0.1851 -0.1905
   27TMC2    C4  420   0.601   4.041  12.568  0.5496  0.0677 -0.4789
   27TMC2    C5  421   0.703   3.983  12.634 -0.6738 -0.1509 -0.0880
   27TMC2    C6  422   0.836   4.012  12.605  0.6436 -0.2262  0.4683
   27TMC2     C  423   0.527   4.189  12.396  0.6794  0.3557 -0.1005
   27TMC2     O  424   0.414   4.196  12.441 -0.9127 -0.6889 -0.1894
   27TMC2     H  425   0.796   4.265  12.390  1.6506  0.4880  2.0759
   27TMC2    H1  426   0.496   4.026  12.589  0.7891 -0.0033  0.7105
   27TMC2    H2  427   0.914   3.944  12.638 -0.8312 -1.5945  1.0876
   27TMC2    C7  428   0.664   3.910  12.749  0.6079 -0.1937 -0.3657
   27TMC2    C8  429   0.995   4.122  12.474 -0.7139 -0.5280  0.1146
   27TMC2    O1  430   0.549   3.911  12.785  0.3340  0.3736 -0.1179
   27TMC2    O2  431   1.029   4.141  12.360 -0.6364  0.1460  0.0350
   27TMC2    O5  432   1.079   4.117  12.576 -0.1735  0.1178 -0.5038
   27TMC2    H5  433   1.041   4.117  12.667  1.5996  0.5782  0.2437
   28MPD2     C  434   0.332   4.345  11.952  0.2143 -0.1280 -0.1730
   28MPD2    C1  435   0.293   4.371  12.081 -0.2578  0.4060 -0.6411
   28MPD2    C2  436   0.372   4.331  12.193 -0.0371  0.4589  0.0961
   28MPD2    C3  437   0.491   4.268  12.166  0.6709  0.7088  0.2468
   28MPD2    C4  438   0.532   4.251  12.036  0.1651  0.8239  0.3335
   28MPD2    C5  439   0.457   4.291  11.929  0.5792  0.5438 -0.1469
   28MPD2     H  440   0.329   4.347  12.292 -1.3736 -2.4032 -0.0419
   28MPD2    H1  441   0.628   4.206  12.012 -0.3243  1.6174 -3.0643
   28MPD2    H2  442   0.259   4.371  11.877 -0.5570  0.2635  0.7073
   28MPD2    H3  443   0.492   4.280  11.827  0.7439 -1.3619  0.1201
   28MPD2     N  444   0.572   4.215  12.265  0.0532 -0.3802 -0.2587
   28MPD2    H5  445   0.665   4.192  12.231  0.7720  0.6447  1.0331
   28MPD2    N1  446   0.154   4.404  12.103  0.3551 -0.1045  0.2691
   28MPD2    H7  447   0.096   4.374  12.026  1.2656 -0.4439 -0.2826
   29TMC2    C1  448   0.360   1.825  13.984 -0.7392  0.3859  0.2112
   29TMC2    C2  449   0.480   1.775  14.022 -0.8720  0.1436 -0.2796
   29TMC2    C3  450   0.554   1.839  14.119  0.1725 -1.1476  0.6123
   29TMC2    C4  451   0.307   1.939  14.038 -1.0967 -0.2444  0.0851
   29TMC2    C5  452   0.388   2.005  14.129 -1.0974 -0.0472 -0.1149
   29TMC2    C6  453   0.511   1.961  14.176 -0.1223  0.0358  0.6502
   29TMC2     C  454   0.272   1.726  13.911 -0.3695  0.0533 -0.4493
   29TMC2     O  455   0.308   1.608  13.918  0.4674  0.2628  0.1598
   29TMC2     H  456   0.500   1.673  13.992  1.5938 -0.1637  2.3907
   29TMC2    H1  457   0.209   1.976  14.008 -1.6111 -2.4933 -1.0547
   29TMC2    H2  458   0.557   1.997  14.267 -0.4421  1.3137  0.3031
   29TMC2    C7  459   0.314   2.088  14.220 -0.0947 -0.4248 -0.7969
   29TMC2    C8  460   0.669   1.766  14.172 -0.9430  0.0896 -0.3526
   29TMC2    O1  461   0.191   2.088  14.213 -0.6394  0.1388 -0.4267
   29TMC2    O2  462   0.676   1.733  14.289 -0.1103 -0.4001  0.0903
   29TMC2    O5  463   0.714   1.696  14.067 -0.2475 -0.0571  0.6762
   29TMC2    H5  464   0.702   1.732  13.976  0.6798 -1.0500  0.1667
   30MPD2     C  465   4.615   1.558  13.618 -0.0104  0.9776  0.5692
   30MPD2    C1  466   4.723   1.491  13.677  0.2162 -0.6986 -0.2404
   30MPD2    C2  467   0.081   1.563  13.745 -0.7355  0.1347 -0.2877
   30MPD2    C3  468   0.078   1.705  13.754 -0.5586 -0.9238  0.6584
   30MPD2    C4  469   4.718   1.764  13.684 -0.0823  0.5347  0.3602
   30MPD2    C5  470   4.615   1.697  13.626 -0.4527  0.5661 -0.2048
   30MPD2     H  471   0.167   1.516  13.792 -1.8292 -2.5102 -0.9312
   30MPD2    H1  472   4.713   1.872  13.690  2.6577  0.5791  1.5046
   30MPD2    H2  473   4.538   1.514  13.556  0.2116 -1.7408  2.2284
   30MPD2    H3  474   4.527   1.743  13.585 -0.0208 -1.0507 -2.9213
   30MPD2     N  475   0.169   1.783  13.835  0.1716 -0.3408 -0.5293
   30MPD2    H5  476   0.140   1.880  13.842  0.8009 -0.2208  0.4135
   30MPD2    N1  477   0.021   1.358  13.645 -0.6250 -0.1569 -0.2965
   30MPD2    H7  478   0.114   1.325  13.668  0.1233  2.0321 -0.2372
   31TMC2    C1  479   2.516   0.549  15.526 -0.3884 -0.4587 -1.0326
   31TMC2    C2  480   2.391   0.599  15.507  0.5688 -0.1748 -0.3180
   31TMC2    C3  481   2.320   0.619  15.619 -0.6342 -0.0816 -0.1053
   31TMC2    C4  482   2.572   0.530  15.653 -0.7726 -0.5807 -0.5338
   31TMC2    C5  483   2.490   0.540  15.757 -0.1859  0.4070  0.2703
   31TMC2    C6  484   2.363   0.587  15.748  0.0229 -0.7077 -0.2314
   31TMC2     C  485   2.604   0.589  15.420 -0.1648  0.0771 -0.3098
   31TMC2     O  486   2.558   0.645  15.325 -0.2558 -0.2891  0.7514
   31TMC2     H  487   2.345   0.611  15.410  0.5698  0.0837 -0.2878
   31TMC2    H1  488   2.671   0.491  15.674  0.2181  2.9754  1.3060
   31TMC2    H2  489   2.294   0.604  15.830  0.7875  0.3785  0.1810
   31TMC2    C7  490   2.558   0.511  15.883  0.1563  0.0565 -0.0239
   31TMC2    C8  491   2.179   0.633  15.605  0.2712  0.2612 -0.0374
   31TMC2    O1  492   2.642   0.423  15.880  0.3678 -0.1983  0.1342
   31TMC2    O2  493   2.099   0.579  15.681  0.0155  0.0454  0.1591
   31TMC2    O5  494   2.157   0.741  15.528 -0.3768  0.0281 -0.0796
   31TMC2    H5  495   2.241   0.785  15.503 -0.0183 -1.4061 -1.4642
   32MPD2     C  496   3.085   0.648  15.251  0.0803 -0.0959 -0.6456
   32MPD2    C1  497   2.968   0.699  15.199  0.0597 -0.2857 -0.0229
   32MPD2    C2  498   2.855   0.672  15.272 -0.1025 -0.3032 -1.0311
   32MPD2    C3  499   2.851   0.597  15.388 -0.6846  0.2694 -0.0211
   32MPD2    C4  500   2.968   0.554  15.440  0.2258  0.3986  0.1139
   32MPD2    C5  501   3.080   0.571  15.360 -0.0950  1.0525  0.7438
   32MPD2     H  502   2.763   0.722  15.244  1.5278  2.2790 -1.8384
   32MPD2    H1  503   2.962   0.478  15.517 -1.7231  1.2371  0.7866
   32MPD2    H2  504   3.180   0.656  15.199  0.8675  0.0673  0.8294
   32MPD2    H3  505   3.173   0.529  15.395  0.7029  1.7542 -0.5327
   32MPD2     N  506   2.733   0.560  15.454 -0.4743  0.0669 -0.2585
   32MPD2    H5  507   2.742   0.507  15.539  0.9735  1.8155  0.6662
   32MPD2    N1  508   2.985   0.782  15.086  0.2048  0.3780  0.1831
   32MPD2    H7  509   3.081   0.802  15.060 -0.3496 -0.3842 -2.4264
   33TMC2    C1  510   2.585   4.331   9.981 -0.1074 -0.4919 -0.0376
   33TMC2    C2  511   2.469   4.405   9.982 -0.8053  0.3379 -0.0092
   33TMC2    C3  512   2.483   4.537   9.975  0.4700 -0.5998 -0.3799
   33TMC2    C4  513   2.708   4.388   9.964 -0.2507 -0.3382  0.0804
   33TMC2    C5  514   2.716   4.526   9.964  0.2847 -0.6758 -0.4282
   33TMC2    C6  515   2.601   4.604   9.964  0.4776  0.3829 -0.8975
   33TMC2     C  516   2.575   4.208  10.060  0.1745  0.2782  0.7070
   33TMC2     O  517   2.475   4.138  10.041  0.2814  0.3056 -0.3055
   33TMC2     H  518   2.370   4.360   9.979 -0.4733 -0.4462  1.1378
   33TMC2    H1  519   2.800   4.332   9.959  2.6771  4.5800 -1.0654
   33TMC2    H2  520   2.607   4.712   9.955 -1.7061  0.7009  1.6967
   33TMC2    C7  521   2.831   4.583   9.897 -0.6376 -0.0739  0.6419
   33TMC2    C8  522   2.369   4.619  10.011  0.1298  0.0110 -0.7067
   33TMC2    O1  523   2.943   4.531   9.911  0.0027  0.5647 -0.0754
   33TMC2    O2  524   2.254   4.585  10.005 -1.5798  0.7495  0.1224
   33TMC2    O5  525   2.423   4.665  10.123  0.3634  0.5620 -0.0549
   33TMC2    H5  526   2.519   4.687  10.118 -0.0154  2.8748  2.7273
   34MPD2     C  527   2.708   3.974  10.498 -0.5997 -0.2682  0.5082
   34MPD2    C1  528   2.592   3.966  10.426  0.7260 -0.5703  0.1162
   34MPD2    C2  529   2.575   4.044  10.313 -0.0372 -0.0843  0.3369
   34MPD2    C3  530   2.675   4.122  10.267  0.1670 -0.5301  0.7581
   34MPD2    C4  531   2.802   4.117  10.326  0.6643  0.1281 -0.5737
   34MPD2    C5  532   2.819   4.057  10.448  0.3178 -0.5479  0.5069
   34MPD2     H  533   2.476   4.044  10.268  1.1588 -1.3634 -2.3064
   34MPD2    H1  534   2.887   4.171  10.286  1.5096 -0.4828  0.4085
   34MPD2    H2  535   2.731   3.919  10.588  0.3902 -1.4254 -0.4606
   34MPD2    H3  536   2.915   4.054  10.499  0.2467  0.5588  0.6929
   34MPD2     N  537   2.669   4.207  10.159 -0.0668 -0.4243 -0.6677
   34MPD2    H5  538   2.737   4.283  10.155 -1.1677  0.5005 -1.7723
   34MPD2    N1  539   2.486   3.883  10.466  0.7766 -0.2141  0.5339
   34MPD2    H7  540   2.492   3.845  10.559 -1.0700  0.6400  1.0171
   35TMC2    C1  541   3.986   0.150  11.236 -0.3546  0.1515 -0.2900
   35TMC2    C2  542   3.898   0.228  11.170 -0.7916 -0.3863 -0.0301
   35TMC2    C3  543   3.779   0.265  11.232  0.1177 -0.8699 -0.0615
   35TMC2    C4  544   3.964   0.106  11.362 -0.5286  0.5672  0.4143
   35TMC2    C5  545   3.839   0.135  11.416 -0.7557 -0.1759 -0.1163
   35TMC2    C6  546   3.745   0.209  11.355 -0.2006  0.2080  0.2212
   35TMC2     C  547   4.112   0.113  11.171 -1.1648 -0.1023  0.4903
   35TMC2     O  548   4.124   0.184  11.071 -0.1964  0.5631  0.3457
   35TMC2     H  549   3.912   0.254  11.065 -2.7213 -1.3888 -0.5423
   35TMC2    H1  550   4.041   0.067  11.427  1.4724  0.7487 -1.8257
   35TMC2    H2  551   3.648   0.225  11.401  1.5480  1.2058  3.5736
   35TMC2    C7  552   3.794   0.020  11.490 -0.5217 -0.2633  0.3565
   35TMC2    C8  553   3.670   0.330  11.170 -0.5501 -0.3014  0.3295
   35TMC2    O1  554   3.869   4.664  11.488  0.4921  0.0782  0.6154
   35TMC2    O2  555   3.550   0.294  11.182 -0.2554 -0.3731  0.2783
   35TMC2    O5  556   3.721   0.376  11.057  0.1810 -0.1395 -0.3136
   35TMC2    H5  557   3.809   0.415  11.076 -0.7508  1.8285 -0.0398
   36MPD2     C  558   4.578   4.663  11.102  0.4385 -0.4655  0.1380
   36MPD2    C1  559   4.526   4.609  11.220 -0.4394  0.6178 -0.5001
   36MPD2    C2  560   4.399   4.634  11.257  0.6174 -0.5589  0.1787
   36MPD2    C3  561   4.321   4.717  11.172  0.8799  0.2316  0.4433
   36MPD2    C4  562   4.364   0.015  11.043 -0.2000  0.0758 -0.3475
   36MPD2    C5  563   4.496   4.727  11.010 -0.3486 -0.2138  0.4818
   36MPD2     H  564   4.368   4.601  11.355 -1.8154  0.4259 -0.2644
   36MPD2    H1  565   4.302   0.074  10.976  0.9549  0.4324 -1.1228
   36MPD2    H2  566   4.682   4.661  11.070 -0.3061 -1.0177 -2.2797
   36MPD2    H3  567   4.526   0.029  10.913 -0.4127  0.5174  0.7540
   36MPD2     N  568   4.199   0.020  11.232 -0.1089  0.0884  0.8036
   36MPD2    H5  569   4.181   4.731  11.328  1.0311 -0.8175  0.7750
   36MPD2    N1  570   4.612   4.548  11.309 -0.8811 -0.2331 -0.3528
   36MPD2    H7  571   4.707   4.551  11.273 -0.7817  0.2559 -0.0557
   37TMC2    C1  572   1.500   0.671  11.856 -0.1168  0.3783 -0.6359
   37TMC2    C2  573   1.434   0.735  11.749  0.7577  0.4476  0.4529
   37TMC2    C3  574   1.518   0.802  11.664  0.2675  0.4101  0.0315
   37TMC2    C4  575   1.635   0.679  11.873 -0.5357  0.8232  0.4997
   37TMC2    C5  576   1.712   0.745  11.778  0.1259 -0.2410 -0.8818
   37TMC2    C6  577   1.652   0.805  11.669 -0.1303  0.2239  0.3510
   37TMC2     C  578   1.412   0.606  11.959  0.2482 -0.1305  0.1892
   37TMC2     O  579   1.297   0.647  11.961 -0.5707  0.6204  0.1335
   37TMC2     H  580   1.327   0.741  11.733  0.9808  1.1951 -0.7321
   37TMC2    H1  581   1.690   0.661  11.965  0.4158 -2.1829 -0.6664
   37TMC2    H2  582   1.714   0.851  11.594 -1.1094 -0.4141 -0.8490
   37TMC2    C7  583   1.855   0.733  11.784  0.2423 -0.1713  0.2838
   37TMC2    C8  584   1.454   0.865  11.553 -0.3289 -0.1475 -0.5845
   37TMC2    O1  585   1.904   0.705  11.892 -0.1250 -0.2321  0.2428
   37TMC2    O2  586   1.342   0.909  11.545 -0.3929 -0.4735 -0.3668
   37TMC2    O5  587   1.507   0.808  11.443 -0.2929  0.0547 -0.1276
   37TMC2    H5  588   1.575   0.743  11.473  1.0984  0.6519 -2.0316
   38MPD2     C  589   1.338   0.275  12.345 -0.1054  0.7607  0.3158
   38MPD2    C1  590   1.465   0.249  12.292 -0.0611 -0.3056 -0.0891
   38MPD2    C2  591   1.504   0.329  12.181  0.2599 -0.1637 -0.5054
   38MPD2    C3  592   1.423   0.426  12.126  0.1029 -0.5064 -0.1209
   38MPD2    C4  593   1.298   0.443  12.182 -0.2463 -0.6442  0.3873
   38MPD2    C5  594   1.263   0.377  12.295  0.5476 -0.2395  0.1540
   38MPD2     H  595   1.599   0.318  12.130  0.5008 -1.6907  0.2873
   38MPD2    H1  596   1.226   0.516  12.147  0.0686 -0.0772  0.9187
   38MPD2    H2  597   1.302   0.219  12.430 -0.1046 -0.6819 -0.6276
   38MPD2    H3  598   1.164   0.400  12.332  1.6724  1.3716  2.1820
   38MPD2     N  599   1.475   0.505  12.021  0.6897 -0.1051  0.1285
   38MPD2    H5  600   1.571   0.495  11.989  0.4794  0.2670 -0.6287
   38MPD2    N1  601   1.556   0.154  12.339 -0.2414 -0.7101 -0.6081
   38MPD2    H7  602   1.644   0.150  12.289  0.3787 -1.5915  0.5513
   39TMC2    C1  603   4.695   1.706   1.670 -0.4081  0.2984  0.0472
   39TMC2    C2  604   4.629   1.823   1.698 -0.6569  0.9155  0.7995
   39TMC2    C3  605   4.702   1.939   1.708 -0.3502 -0.3533 -0.1732
   39TMC2    C4  606   0.096   1.708   1.674  0.2222 -0.0144 -0.2386
   39TMC2    C5  607   0.159   1.821   1.707  0.8022  0.5057  0.6976
   39TMC2    C6  608   0.098   1.946   1.717 -1.3118 -0.6494 -0.4509
   39TMC2     C  609   4.616   1.585   1.637  0.1982 -0.6783  0.4393
   39TMC2     O  610   4.502   1.618   1.606  0.3473 -0.5490 -0.1661
   39TMC2     H  611   4.523   1.833   1.674 -0.3711  0.9263 -0.4674
   39TMC2    H1  612   0.153   1.618   1.654  3.4517  1.6701  1.3335
   39TMC2    H2  613   0.155   2.035   1.739 -0.4590 -0.8518 -1.8165
   39TMC2    C7  614   0.311   1.815   1.721 -0.4950 -0.2731  1.4772
   39TMC2    C8  615   4.631   2.067   1.712  0.5096 -0.1814 -0.4122
   39TMC2    O1  616   0.360   1.708   1.699  0.2550  0.7343  0.1419
   39TMC2    O2  617   4.690   2.168   1.673  0.3299 -0.1920  0.4323
   39TMC2    O5  618   4.548   2.063   1.815  0.3727  0.0472 -0.1767
   39TMC2    H5  619   4.516   1.973   1.836 -0.4229 -0.0329 -1.7533
   40MPD2     C  620   4.703   1.225   1.630  0.1976 -0.4408  0.3873
   40MPD2    C1  621   4.622   1.336   1.601 -0.7234  0.2180  0.0305
   40MPD2    C2  622   4.496   1.311   1.557 -0.0625  1.0034  0.2522
   40MPD2    C3  623   4.448   1.189   1.528  0.2821 -0.8033 -0.1764
   40MPD2    C4  624   4.531   1.081   1.546 -0.2454 -0.3650  0.0037
   40MPD2    C5  625   4.654   1.101   1.609 -0.1224 -1.0720 -0.6821
   40MPD2     H  626   4.436   1.394   1.521 -0.2424  1.0643  0.6968
   40MPD2    H1  627   4.489   0.983   1.528  2.1629 -1.6109  1.0497
   40MPD2    H2  628   0.065   1.230   1.674  0.1706 -1.0406  0.5127
   40MPD2    H3  629   4.707   1.009   1.632 -0.6841 -0.5134  2.7974
   40MPD2     N  630   4.321   1.166   1.480 -0.4589  0.1326  0.4982
   40MPD2    H5  631   4.305   1.068   1.459  1.0980  0.2831 -1.3198
   40MPD2    N1  632   4.683   1.460   1.633  0.1033 -0.2027 -0.2776
   40MPD2    H7  633   0.029   1.448   1.691  1.1389 -0.2585 -1.7507
   41TMC2    C1  634   3.761   0.331  13.819  0.3485 -0.5713  0.0914
   41TMC2    C2  635   3.769   0.443  13.895 -0.3031  0.7653 -0.4935
   41TMC2    C3  636   3.706   0.557  13.850  1.0310 -0.1449 -0.3684
   41TMC2    C4  637   3.705   0.331  13.686  0.5489  0.2192  0.8379
   41TMC2    C5  638   3.661   0.450  13.638  0.1941  0.7867  0.1736
   41TMC2    C6  639   3.652   0.560  13.720  0.2191 -0.2608  0.8448
   41TMC2     C  640   3.781   0.199  13.872 -0.5523  0.1766 -0.9943
   41TMC2     O  641   3.783   0.099  13.798  0.0970 -0.4795 -0.7384
   41TMC2     H  642   3.825   0.445  13.988  0.7960  0.4191 -1.1428
   41TMC2    H1  643   3.691   0.236  13.635 -1.6742  0.2663  1.3652
   41TMC2    H2  644   3.613   0.654  13.681  1.9485  0.1205  0.0401
   41TMC2    C7  645   3.627   0.467  13.500  0.3155 -0.3320 -0.4395
   41TMC2    C8  646   3.700   0.672  13.932 -0.3495 -0.1069  0.0418
   41TMC2    O1  647   3.588   0.580  13.467  0.2178  0.4160  0.3406
   41TMC2    O2  648   3.760   0.664  14.035 -0.7183 -0.1127 -0.2391
   41TMC2    O5  649   3.569   0.705  13.927  0.2309  0.1255  0.5294
   41TMC2    H5  650   3.512   0.670  13.855 -0.3266 -1.5972  1.8127
   42MPD2     C  651   3.821   4.716  14.061  0.2380 -0.1252 -0.1650
   42MPD2    C1  652   3.756   0.099  14.096  0.1992  1.0698 -0.3262
   42MPD2    C2  653   3.684   0.100  14.211  0.2490 -0.3291  0.0467
   42MPD2    C3  654   3.688   0.010  14.302 -0.4552 -1.0451  0.7786
   42MPD2    C4  655   3.757   4.632  14.270  0.4068 -0.2868 -0.0119
   42MPD2    C5  656   3.804   4.612  14.144 -0.0729  0.2490  0.6059
   42MPD2     H  657   3.629   0.193  14.215  0.3294 -0.2750 -0.0946
   42MPD2    H1  658   3.761   4.553  14.345 -2.0110 -1.1912 -0.8429
   42MPD2    H2  659   3.874   4.703  13.967 -1.6410  1.7326 -1.4970
   42MPD2    H3  660   3.844   4.514  14.122  3.0226  1.7277 -0.3849
   42MPD2     N  661   3.622   0.023  14.424 -0.0670 -0.2857  0.2937
   42MPD2    H5  662   3.608   4.676  14.479  0.0217  1.2592  2.6812
   42MPD2    N1  663   3.752   0.207  14.008 -0.1327  0.0747 -0.3132
   42MPD2    H7  664   3.719   0.294  14.048  0.0084 -1.1682  2.4719
   43TMC2    C1  665   0.016   2.469   0.775  0.8428 -0.2868  0.2696
   43TMC2    C2  666   4.642   2.471   0.853  0.7050  0.0299  0.1487
   43TMC2    C3  667   4.588   2.595   0.867 -0.0299 -0.4858 -0.6703
   43TMC2    C4  668   0.069   2.573   0.705  0.0538  0.0824 -0.6368
   43TMC2    C5  669   0.002   2.695   0.726  0.7060 -0.1715 -0.1642
   43TMC2    C6  670   4.629   2.708   0.805  0.3550  0.4086  0.2275
   43TMC2     C  671   0.094   2.343   0.754 -0.1013  0.5212 -0.0100
   43TMC2     O  672   0.184   2.342   0.665  0.5027  0.3321 -1.1394
   43TMC2     H  673   4.589   2.382   0.885  0.4802 -1.0181 -3.1898
   43TMC2    H1  674   0.158   2.566   0.644 -0.6030 -0.1036 -1.5741
   43TMC2    H2  675   4.566   2.796   0.798 -0.8062 -0.3549  1.0965
   43TMC2    C7  676   0.103   2.800   0.740 -0.4454  0.2482  0.7569
   43TMC2    C8  677   4.459   2.601   0.932 -0.0370 -0.0224  0.3721
   43TMC2    O1  678   0.216   2.763   0.750  0.5590 -0.4495 -0.6827
   43TMC2    O2  679   4.404   2.494   0.947  0.1861 -0.2328  0.0818
   43TMC2    O5  680   4.461   2.709   1.022 -0.1462 -0.5703 -0.1230
   43TMC2    H5  681   4.549   2.752   1.018  0.9381 -2.7791 -0.1797
   44MPD2     C  682   0.288   1.912   0.930 -0.0270  0.3567  0.5028
   44MPD2    C1  683   0.326   1.985   0.822 -0.0945  0.2405 -0.0853
   44MPD2    C2  684   0.258   2.099   0.791  0.2577 -0.1171 -0.0423
   44MPD2    C3  685   0.155   2.143   0.875 -0.1007 -0.1071 -0.0349
   44MPD2    C4  686   0.128   2.069   0.993  0.0633 -0.1158 -0.1315
   44MPD2    C5  687   0.198   1.957   1.016  0.0183 -0.2303  0.1601
   44MPD2     H  688   0.278   2.143   0.694 -1.7454 -0.1934 -0.4911
   44MPD2    H1  689   0.055   2.097   1.067 -0.2885 -0.9286 -0.1684
   44MPD2    H2  690   0.340   1.821   0.959 -3.9923 -1.5149  1.7347
   44MPD2    H3  691   0.185   1.904   1.110  1.0431  1.1115  1.0636
   44MPD2     N  692   0.076   2.261   0.858  0.0678 -0.1392  0.4164
   44MPD2    H5  693   0.030   2.295   0.941  0.5223  3.0882 -0.6580
   44MPD2    N1  694   0.432   1.946   0.741 -0.0136  0.2735  0.1452
   44MPD2    H7  695   0.452   2.004   0.660  3.6583 -2.0404 -0.6187
   45TMC2    C1  696   1.259   0.700   9.750  0.2370  0.0727 -0.2129
   45TMC2    C2  697   1.195   0.739   9.634  0.1381  0.4567 -0.4203
   45TMC2    C3  698   1.195   0.868   9.601  0.6495 -0.3001  0.2375
   45TMC2    C4  699   1.333   0.788   9.813  0.1394  0.6354 -0.4883
   45TMC2    C5  700   1.323   0.919   9.784  0.1500 -0.1582 -0.2632
   45TMC2    C6  701   1.252   0.964   9.676 -0.0851  0.0210  1.0232
   45TMC2     C  702   1.299   0.563   9.751 -0.1940 -0.4444  0.2046
   45TMC2     O  703   1.395   0.536   9.823 -0.4053  0.1170 -0.4228
   45TMC2     H  704   1.136   0.678   9.566 -0.9727  0.3469  0.6515
   45TMC2    H1  705   1.400   0.759   9.893 -2.8207  0.1162  1.8364
   45TMC2    H2  706   1.258   1.065   9.637 -0.9593 -0.2502  0.1636
   45TMC2    C7  707   1.365   1.013   9.887 -0.2569  0.7089  0.1623
   45TMC2    C8  708   1.111   0.910   9.492 -0.3436 -0.3096  0.1298
   45TMC2    O1  709   1.448   0.969   9.965  0.2049  0.3626 -0.0512
   45TMC2    O2  710   1.109   0.846   9.388 -0.1809  0.2962 -0.1184
   45TMC2    O5  711   1.040   1.025   9.519  0.4955  0.4439 -0.6482
   45TMC2    H5  712   1.043   1.061   9.610  0.4474  2.2579 -1.3562
   46MPD2     C  713   1.301   0.271   9.786 -0.2407 -0.3294  0.0094
   46MPD2    C1  714   1.198   0.344   9.720 -0.6474 -0.1314 -0.1599
   46MPD2    C2  715   1.088   0.276   9.678  0.2995 -0.2174 -0.3187
   46MPD2    C3  716   1.084   0.137   9.692  0.1812 -0.2536  0.1763
   46MPD2    C4  717   1.196   0.070   9.745 -0.0077 -0.5638  0.0533
   46MPD2    C5  718   1.293   0.138   9.800 -0.3560 -0.0672 -0.0324
   46MPD2     H  719   1.004   0.331   9.637 -0.6986 -0.8468  0.8817
   46MPD2    H1  720   1.205   4.699   9.756  1.0152 -0.4787  0.0767
   46MPD2    H2  721   1.388   0.319   9.828 -1.8436  0.6528  2.1540
   46MPD2    H3  722   1.373   0.082   9.846  1.1223  2.2102  0.2126
   46MPD2     N  723   0.972   0.069   9.641  0.5183  0.1541  0.3247
   46MPD2    H5  724   0.895   0.124   9.606 -1.2304 -1.7232  1.1945
   46MPD2    N1  725   1.203   0.484   9.698 -0.0875  0.7128 -0.1885
   46MPD2    H7  726   1.130   0.531   9.645 -1.9647 -2.9296 -0.8709
   47TMC2    C1  727   3.408   0.969   9.040 -0.0998  0.2139 -0.6014
   47TMC2    C2  728   3.445   0.908   9.158 -0.6849  0.0652 -0.5419
   47TMC2    C3  729   3.378   0.934   9.267 -0.0467  0.5094 -0.1164
   47TMC2    C4  730   3.290   1.040   9.035  0.2855  0.9190 -0.2970
   47TMC2    C5  731   3.220   1.050   9.155  0.1290  0.0354  0.3946
   47TMC2    C6  732   3.267   1.011   9.270 -0.4623 -0.7104  0.6827
   47TMC2     C  733   3.491   0.959   8.920 -0.1500 -0.2393  0.1244
   47TMC2     O  734   3.466   1.047   8.842  0.0162  0.7144  0.4797
   47TMC2     H  735   3.532   0.844   9.169  0.0196  1.2319  0.5909
   47TMC2    H1  736   3.258   1.086   8.942 -0.1283  2.2200  0.4966
   47TMC2    H2  737   3.229   1.039   9.368  1.1215  3.3619  0.1628
   47TMC2    C7  738   3.106   1.139   9.146 -0.1618  0.4579  0.2619
   47TMC2    C8  739   3.424   0.880   9.390 -0.1123  0.1482 -0.6453
   47TMC2    O1  740   3.091   1.197   9.044  0.5127  0.3863  0.0125
   47TMC2    O2  741   3.529   0.813   9.398 -0.1030  0.4611 -0.0205
   47TMC2    O5  742   3.323   0.868   9.474  0.3107  0.1873  0.2726
   47TMC2    H5  743   3.252   0.933   9.454  1.2717  1.0618 -0.3266
   48MPD2     C  744   3.717   0.939   8.740  0.3642 -0.7294 -0.2290
   48MPD2    C1  745   3.681   0.834   8.835  0.0678  0.1087  0.1291
   48MPD2    C2  746   3.754   0.717   8.833  0.1802 -0.3652 -0.4602
   48MPD2    C3  747   3.855   0.697   8.743  0.3349 -0.4409  0.6547
   48MPD2    C4  748   3.884   0.790   8.653 -0.1156 -0.3737  0.1346
   48MPD2    C5  749   3.819   0.914   8.654  0.0469 -0.4015  0.1253
   48MPD2     H  750   3.732   0.637   8.903  0.4849 -1.1589 -1.2735
   48MPD2    H1  751   3.970   0.786   8.586  0.3029  0.3408  0.6309
   48MPD2    H2  752   3.670   1.037   8.740 -0.2148 -1.0075 -0.0236
   48MPD2    H3  753   3.852   0.984   8.578  1.1345  0.7714  1.6855
   48MPD2     N  754   3.929   0.576   8.743  0.0522 -0.2066 -0.5775
   48MPD2    H5  755   3.905   0.513   8.819  1.4079 -0.8630 -0.6869
   48MPD2    N1  756   3.580   0.854   8.931 -0.0090  0.4693 -0.0714
   48MPD2    H7  757   3.567   0.779   9.000 -1.4712  0.7238 -0.0611
   49TMC2    C1  758   1.898   2.969  10.690 -0.7410  0.2099 -0.6613
   49TMC2    C2  759   1.948   3.000  10.567  0.5393  0.5565 -0.1172
   49TMC2    C3  760   1.934   2.899  10.474 -0.5005 -0.3714  0.3219
   49TMC2    C4  761   1.825   2.850  10.714  0.3580 -0.1043 -0.1438
   49TMC2    C5  762   1.806   2.763  10.612 -0.0159  0.0202  0.8058
   49TMC2    C6  763   1.859   2.787  10.490 -0.6665  0.0596 -0.4889
   49TMC2     C  764   1.933   3.065  10.795  0.1127 -0.1822 -0.8059
   49TMC2     O  765   2.002   3.159  10.763 -0.4249  0.4102 -0.4490
   49TMC2     H  766   2.000   3.092  10.542  1.1390 -0.0678 -1.1756
   49TMC2    H1  767   1.799   2.829  10.817 -0.9644  3.1134  0.1596
   49TMC2    H2  768   1.855   2.716  10.408 -1.2439  1.7458 -1.9256
   49TMC2    C7  769   1.763   2.625  10.643 -0.2590  0.8844  0.5568
   49TMC2    C8  770   2.018   2.902  10.356  0.4522 -0.3683  0.3133
   49TMC2    O1  771   1.709   2.565  10.548 -0.4421 -0.1332 -0.2991
   49TMC2    O2  772   1.983   2.846  10.253 -0.3145  0.1268 -0.3675
   49TMC2    O5  773   2.144   2.916  10.393 -0.1349 -0.4364 -0.0121
   49TMC2    H5  774   2.162   2.945  10.485  0.1132 -1.2703  0.2051
   50MPD2     C  775   1.970   3.207  11.061  0.5711  0.0975  1.0395
   50MPD2    C1  776   1.863   3.131  11.021  0.0905  0.4146  0.0386
   50MPD2    C2  777   1.753   3.124  11.106 -0.0557 -0.2224 -0.0016
   50MPD2    C3  778   1.752   3.195  11.223 -0.4270  0.6546 -0.3746
   50MPD2    C4  779   1.867   3.256  11.267  0.5610  0.6092 -0.3008
   50MPD2    C5  780   1.979   3.251  11.193  0.1026  0.7923  1.4623
   50MPD2     H  781   1.668   3.059  11.084 -1.0511 -0.3840  4.3453
   50MPD2    H1  782   1.872   3.295  11.368 -0.1110 -0.1979  0.0421
   50MPD2    H2  783   2.055   3.209  10.993 -0.5572  0.2757 -0.3594
   50MPD2    H3  784   2.069   3.303  11.223  1.6680  0.0028 -1.8228
   50MPD2     N  785   1.640   3.207  11.308 -0.2547  0.1980 -0.0085
   50MPD2    H5  786   1.654   3.245  11.401  1.3897  0.0520 -0.1948
   50MPD2    N1  787   1.846   3.063  10.897 -0.5241  0.2720  0.2517
   50MPD2    H7  788   1.768   2.998  10.905  0.4520 -0.7267  1.7276
   51TMC2    C1  789   1.586   1.478   0.920 -0.1751 -0.3352  0.7659
   51TMC2    C2  790   1.491   1.570   0.908  0.2167  0.0654 -1.0522
   51TMC2    C3  791   1.523   1.704   0.931  0.0575 -0.8319 -0.0336
   51TMC2    C4  792   1.716   1.513   0.944  0.3552  0.5959  0.3211
   51TMC2    C5  793   1.745   1.645   0.958 -0.3501  0.3822  0.1343
   51TMC2    C6  794   1.653   1.741   0.949  0.0272 -0.5637 -0.3895
   51TMC2     C  795   1.553   1.357   0.988 -0.2061 -0.4365  0.2463
   51TMC2     O  796   1.646   1.272   0.996  0.1036 -0.1735  0.1401
   51TMC2     H  797   1.387   1.547   0.887 -0.1246  1.2642 -0.7003
   51TMC2    H1  798   1.787   1.436   0.972  0.7614  0.6402 -0.5879
   51TMC2    H2  799   1.678   1.845   0.966 -1.0992 -0.4085  0.3845
   51TMC2    C7  800   1.844   1.671   1.059  0.2317 -0.7852 -0.7298
   51TMC2    C8  801   1.409   1.791   0.919 -0.4108 -0.0917 -0.2548
   51TMC2    O1  802   1.797   1.706   1.166 -0.7192  0.2329 -0.3777
   51TMC2    O2  803   1.303   1.761   0.860  1.0482  0.5316  0.2755
   51TMC2    O5  804   1.422   1.881   1.015 -0.4277 -0.1552 -0.6305
   51TMC2    H5  805   1.511   1.900   1.050 -0.2934  2.2141 -2.2706
   52MPD2     C  806   1.348   1.155   1.405  0.3338 -0.1521 -0.4406
   52MPD2    C1  807   1.467   1.132   1.358  0.2401  0.5171 -0.0351
   52MPD2    C2  808   1.504   1.204   1.247  0.4704 -0.1603  0.6511
   52MPD2    C3  809   1.420   1.299   1.184 -0.6106 -0.6184 -0.4106
   52MPD2    C4  810   1.297   1.326   1.252 -0.4338 -0.6415  0.5537
   52MPD2    C5  811   1.258   1.244   1.348 -0.0239 -0.0604 -0.1377
   52MPD2     H  812   1.603   1.179   1.209 -0.9659 -2.3304 -1.5812
   52MPD2    H1  813   1.232   1.407   1.224 -0.0214 -0.6110 -0.3170
   52MPD2    H2  814   1.302   1.089   1.478 -0.9593 -0.1707 -1.2779
   52MPD2    H3  815   1.163   1.265   1.395  0.2268 -0.6598  0.6346
   52MPD2     N  816   1.446   1.380   1.074  0.1998 -0.2000 -0.4674
   52MPD2    H5  817   1.377   1.451   1.057 -0.7939 -0.9541  0.3910
   52MPD2    N1  818   1.558   1.039   1.418  0.2018  0.0529 -0.3530
   52MPD2    H7  819   1.654   1.035   1.386 -0.1573  2.3404 -1.7235
   53TMC2    C1  820   2.526   0.483  11.929  0.6827  0.9746 -0.3945
   53TMC2    C2  821   2.634   0.409  11.909  0.3582 -1.1059  0.2880
   53TMC2    C3  822   2.661   0.307  11.997  0.1937  0.3284  0.5264
   53TMC2    C4  823   2.435   0.443  12.021 -0.0173 -0.0553 -0.0253
   53TMC2    C5  824   2.458   0.333  12.099 -0.3208  0.1023 -0.3434
   53TMC2    C6  825   2.570   0.262  12.089  0.0150  0.1435  0.4746
   53TMC2     C  826   2.479   0.564  11.815 -0.0797 -0.6399  0.3153
   53TMC2     O  827   2.564   0.621  11.751  0.4477  0.2089  0.2286
   53TMC2     H  828   2.707   0.442  11.836  0.2539  0.8761  1.0818
   53TMC2    H1  829   2.354   0.511  12.046 -0.6586 -1.9120  2.9800
   53TMC2    H2  830   2.586   0.170  12.144  1.9794  0.4776  0.4429
   53TMC2    C7  831   2.360   0.318  12.206  0.3154 -0.2050  0.2534
   53TMC2    C8  832   2.797   0.246  11.986 -0.5996  0.0026  0.6895
   53TMC2    O1  833   2.243   0.358  12.193 -0.4924  0.3175 -0.1301
   53TMC2    O2  834   2.847   0.240  11.874 -0.3158  0.6135  0.4078
   53TMC2    O5  835   2.858   0.281  12.103  0.2547  0.0276  0.0409
   53TMC2    H5  836   2.804   0.297  12.183 -2.6144 -0.3932 -1.8223
   54MPD2     C  837   2.330   0.734  11.614  0.2152  0.1489  0.5156
   54MPD2    C1  838   2.273   0.671  11.721 -0.0329 -0.1311 -0.6609
   54MPD2    C2  839   2.133   0.677  11.736 -0.0842  0.2683 -0.2783
   54MPD2    C3  840   2.059   0.750  11.648 -0.2519  0.2150 -0.0356
   54MPD2    C4  841   2.111   0.813  11.539 -0.3922  0.2579 -0.0189
   54MPD2    C5  842   2.249   0.802  11.522  0.1139 -0.1479 -0.6036
   54MPD2     H  843   2.101   0.622  11.824  2.0638  0.5432  0.6869
   54MPD2    H1  844   2.056   0.873  11.468 -2.9651 -1.5333  0.4644
   54MPD2    H2  845   2.437   0.727  11.597 -0.0807 -0.7906 -0.9621
   54MPD2    H3  846   2.293   0.848  11.434 -0.6144 -0.4085 -1.1030
   54MPD2     N  847   1.922   0.763  11.667  0.1768  0.4407  0.8153
   54MPD2    H5  848   1.867   0.808  11.595  0.2926 -1.2502 -0.3293
   54MPD2    N1  849   2.341   0.586  11.812  0.2105 -0.1695  0.1737
   54MPD2    H7  850   2.284   0.524  11.868 -0.5183 -0.5369 -0.9862
   55TMC2    C1  851   3.187   2.237   0.289 -0.0286 -0.6955  0.2369
   55TMC2    C2  852   3.213   2.166   0.169 -0.0215  0.1503 -0.4204
   55TMC2    C3  853   3.220   2.026   0.176 -0.6314 -0.5836 -0.7680
   55TMC2    C4  854   3.179   2.178   0.411 -0.6723  0.2375  0.3937
   55TMC2    C5  855   3.182   2.042   0.413  0.0711  0.5544 -0.7396
   55TMC2    C6  856   3.200   1.968   0.297  0.4906  0.7117 -0.0829
   55TMC2     C  857   3.163   2.384   0.279  0.7469 -1.1492  0.4991
   55TMC2     O  858   3.112   2.428   0.383 -0.3712  0.3866 -0.0182
   55TMC2     H  859   3.229   2.216   0.074 -2.9134  0.6482 -0.6383
   55TMC2    H1  860   3.169   2.226   0.508 -0.0048  2.1534 -0.4906
   55TMC2    H2  861   3.204   1.860   0.292 -0.1480  0.7289 -0.8951
   55TMC2    C7  862   3.128   1.969   0.530 -0.1166  0.0681  0.3977
   55TMC2    C8  863   3.208   1.935   0.061 -0.3939 -0.3295  0.0240
   55TMC2    O1  864   3.165   1.852   0.542 -0.3176 -0.1906  0.2203
   55TMC2    O2  865   3.220   1.811   0.066  0.0694  0.0175 -0.6702
   55TMC2    O5  866   3.157   2.005  17.700  0.4606 -0.1362  0.0190
   55TMC2    H5  867   3.135   2.097  17.725 -1.0011 -0.6379  0.5514
   56MPD2     C  868   3.183   2.629  17.738 -1.1416  0.6728 -0.0977
   56MPD2    C1  869   3.142   2.574   0.115  0.0973  0.3715  0.2709
   56MPD2    C2  870   3.041   2.634   0.183  0.0188  0.6556 -0.2461
   56MPD2    C3  871   2.981   2.750   0.133  0.5393  0.4736  1.2112
   56MPD2    C4  872   3.028   2.811   0.013  0.0446 -0.2084  0.0190
   56MPD2    C5  873   3.132   2.754  17.704 -0.0344 -0.0033 -1.2091
   56MPD2     H  874   2.997   2.598   0.275  1.7222 -0.2242  0.2230
   56MPD2    H1  875   2.975   2.898  17.722  0.4054  0.4614  1.0951
   56MPD2    H2  876   3.255   2.578  17.674 -0.2706  1.2525  0.4185
   56MPD2    H3  877   3.176   2.811  17.623  1.3787  1.3211  0.5012
   56MPD2     N  878   2.872   2.803   0.210 -0.7688  0.2878  0.2402
   56MPD2    H5  879   2.859   2.753   0.297 -1.6730  1.4011  0.7319
   56MPD2    N1  880   3.187   2.444   0.155  0.4038 -0.2432 -0.8759
   56MPD2    H7  881   3.239   2.382   0.093 -2.3104 -1.0531 -2.3715
   57TMC2    C1  882   2.554   3.522  13.905 -1.2753  0.5776 -0.0628
   57TMC2    C2  883   2.613   3.629  13.973 -0.2536 -0.6617 -0.2968
   57TMC2    C3  884   2.745   3.650  13.972 -0.3893 -0.6132 -0.2195
   57TMC2    C4  885   2.637   3.431  13.834 -0.0339  0.6260  0.5070
   57TMC2    C5  886   2.774   3.455  13.840 -0.0008  0.2760 -0.4305
   57TMC2    C6  887   2.826   3.558  13.908  0.1305 -0.1133  0.0180
   57TMC2     C  888   2.408   3.502  13.924  0.5531  0.5883 -0.3462
   57TMC2     O  889   2.351   3.590  13.990  0.1210 -0.7117  0.8725
   57TMC2     H  890   2.546   3.681  14.041  0.4996  1.2530 -1.0341
   57TMC2    H1  891   2.603   3.341  13.784  0.9555 -0.4352  1.7504
   57TMC2    H2  892   2.934   3.562  13.916  0.1565 -2.6241  0.7301
   57TMC2    C7  893   2.871   3.352  13.810 -0.6856  0.4101 -0.2822
   57TMC2    C8  894   2.812   3.758  14.055 -0.0231  0.0376 -0.5067
   57TMC2    O1  895   2.970   3.355  13.880  0.6137 -0.0052  0.2182
   57TMC2    O2  896   2.931   3.787  14.046  0.0262  0.1086  0.4136
   57TMC2    O5  897   2.726   3.820  14.136  0.1996  0.4926  0.3996
   57TMC2    H5  898   2.642   3.771  14.153  0.2577  0.5974  1.0014
   58MPD2     C  899   1.962   3.280  13.798  0.1309 -0.4703  0.2407
   58MPD2    C1  900   1.993   3.390  13.878 -0.5059  0.0699  0.3399
   58MPD2    C2  901   2.121   3.443  13.889  0.5745 -0.7892  0.2236
   58MPD2    C3  902   2.224   3.368  13.828 -0.1652  0.2895  0.2551
   58MPD2    C4  903   2.197   3.254  13.755  0.0611  1.2765  0.3718
   58MPD2    C5  904   2.066   3.214  13.743  0.3721 -0.0682 -0.6805
   58MPD2     H  905   2.143   3.524  13.956 -1.2795 -0.5525  0.5389
   58MPD2    H1  906   2.273   3.186  13.718  0.6744  2.8126 -1.1997
   58MPD2    H2  907   1.862   3.253  13.769  0.6239 -0.9320 -1.0231
   58MPD2    H3  908   2.045   3.124  13.686  2.8065 -1.0104 -0.0884
   58MPD2     N  909   2.362   3.399  13.848  0.0415 -0.6731  0.0560
   58MPD2    H5  910   2.429   3.330  13.815  1.2568  0.5321 -0.0351
   58MPD2    N1  911   1.892   3.470  13.934 -0.1986 -0.3983  0.0977
   58MPD2    H7  912   1.924   3.561  13.966 -1.8916 -0.7828  2.8445
   59TMC2    C1  913   4.429   3.955  12.556 -0.1026  0.1045  0.2680
   59TMC2    C2  914   4.337   3.889  12.635 -0.6426 -0.3499 -0.2939
   59TMC2    C3  915   4.262   3.797  12.557 -0.3995  0.0138 -0.4486
   59TMC2    C4  916   4.454   3.935  12.421  0.5170 -0.2648  0.3140
   59TMC2    C5  917   4.368   3.854  12.351  0.3069  0.2329 -0.1484
   59TMC2    C6  918   4.280   3.773  12.421  0.1044  0.1583 -0.0415
   59TMC2     C  919   4.489   4.069  12.620  0.5445 -0.0626 -0.5601
   59TMC2     O  920   4.550   4.150  12.552 -0.3782 -0.0215  0.2297
   59TMC2     H  921   4.322   3.905  12.741  3.1093  0.6097  0.0637
   59TMC2    H1  922   4.513   4.006  12.363  0.3713 -1.5106 -1.3640
   59TMC2    H2  923   4.210   3.711  12.367 -0.3310  0.6249 -0.0072
   59TMC2    C7  924   4.387   3.828  12.210  1.1191 -0.2890  0.0328
   59TMC2    C8  925   4.185   3.695  12.626  0.1588 -0.3125  0.3243
   59TMC2    O1  926   4.336   3.723  12.172 -0.0732 -1.1454  0.0338
   59TMC2    O2  927   4.160   3.586  12.574  0.1852  0.2376  0.0029
   59TMC2    O5  928   4.161   3.740  12.756 -0.1115 -0.3977  0.7050
   59TMC2    H5  929   4.159   3.837  12.761 -0.9999 -0.4033  0.5701
   60MPD2     C  930   4.596   4.261  12.817  0.2191  0.3186  0.3312
   60MPD2    C1  931   4.572   4.127  12.842 -0.2738 -0.3463  0.4229
   60MPD2    C2  932   4.611   4.078  12.967 -0.2378 -0.4036  0.6290
   60MPD2    C3  933   4.653   4.161  13.065 -0.0518 -0.2027  0.1845
   60MPD2    C4  934   4.678   4.291  13.041  0.2723  0.4105 -0.0062
   60MPD2    C5  935   4.652   4.343  12.918 -0.0512 -0.6687  0.3707
   60MPD2     H  936   4.585   3.979  13.003 -4.3067  0.3198 -0.4161
   60MPD2    H1  937   4.707   4.369  13.110 -1.1205  0.2954  0.7135
   60MPD2    H2  938   4.570   4.309  12.723  1.6838 -0.1389 -0.3065
   60MPD2    H3  939   4.671   4.446  12.888 -1.1358 -0.6644 -0.2951
   60MPD2     N  940   4.677   4.110  13.193 -0.1990 -0.2730  0.1321
   60MPD2    H5  941   4.697   4.011  13.199  1.6282 -0.0235 -2.1329
   60MPD2    N1  942   4.515   4.044  12.752  0.5849 -0.6842 -1.0650
   60MPD2    H7  943   4.502   3.949  12.786  0.7045 -0.0314  0.7622
   61TMC2    C1  944   3.877   0.391  15.086 -0.2899 -0.1251  0.1293
   61TMC2    C2  945   3.865   0.302  15.191  0.1807 -0.2719  0.3352
   61TMC2    C3  946   3.836   0.350  15.313  0.4000 -0.6227  0.3665
   61TMC2    C4  947   3.871   0.527  15.106 -0.3853 -0.1634 -0.3630
   61TMC2    C5  948   3.830   0.567  15.232  0.1203 -0.0964  0.0362
   61TMC2    C6  949   3.811   0.481  15.339 -0.1818 -0.7222  0.2704
   61TMC2     C  950   3.899   0.335  14.951 -0.2814  0.4287 -0.6198
   61TMC2     O  951   3.874   0.214  14.946 -0.0033 -0.7406  0.2743
   61TMC2     H  952   3.878   0.196  15.173  1.5422  0.0967 -0.8566
   61TMC2    H1  953   3.882   0.600  15.027 -0.2061 -1.1906 -1.2892
   61TMC2    H2  954   3.790   0.519  15.438  1.8584 -1.4621  0.9828
   61TMC2    C7  955   3.883   0.695  15.270  0.2521 -0.7844  0.3931
   61TMC2    C8  956   3.818   0.257  15.424  0.3702  0.2669  0.4022
   61TMC2    O1  957   3.883   0.783  15.180 -0.1700  0.3626  0.3060
   61TMC2    O2  958   3.889   0.158  15.454 -0.3781  0.6868  0.0033
   61TMC2    O5  959   3.714   0.300  15.502  0.1773 -0.3172  0.3872
   61TMC2    H5  960   3.664   0.365  15.449  0.3451  0.0603  0.6911
   62MPD2     C  961   3.914   0.270  14.662 -0.8468  0.3693  0.8566
   62MPD2    C1  962   3.976   0.380  14.717  0.6578 -0.1895  0.0315
   62MPD2    C2  963   4.047   0.466  14.636 -0.1914 -0.0890  0.2545
   62MPD2    C3  964   4.051   0.454  14.497  0.3138  0.2677  0.0684
   62MPD2    C4  965   3.973   0.348  14.443 -0.0564 -0.2464  0.7722
   62MPD2    C5  966   3.902   0.259  14.529 -0.2036  0.2467  0.4543
   62MPD2     H  967   4.094   0.553  14.681  1.8075  0.4705 -2.9207
   62MPD2    H1  968   3.957   0.337  14.336 -1.4505 -0.6347  1.0189
   62MPD2    H2  969   3.866   0.193  14.722 -0.1924 -0.4826  0.2910
   62MPD2    H3  970   3.851   0.173  14.487 -0.5677  1.4432 -1.5932
   62MPD2     N  971   4.106   0.551  14.415 -0.0001 -0.2364 -0.0486
   62MPD2    H5  972   4.093   0.548  14.315  0.8644  2.1462 -0.2367
   62MPD2    N1  973   3.969   0.409  14.857 -0.7710  0.5307 -0.4450
   62MPD2    H7  974   4.005   0.499  14.887 -0.4164  0.4342 -0.5833
   63TMC2    C1  975   3.915   0.861   9.401  0.3845 -0.0208 -0.5723
   63TMC2    C2  976   3.984   0.837   9.292 -0.1847 -1.3155 -0.5465
   63TMC2    C3  977   3.953   0.902   9.179  0.2363  0.8037  0.6055
   63TMC2    C4  978   3.824   0.963   9.398 -0.5183 -0.0379 -0.1930
   63TMC2    C5  979   3.793   1.031   9.285 -0.1376  0.0643 -0.1562
   63TMC2    C6  980   3.852   0.993   9.163  0.6029  0.4951 -0.3330
   63TMC2     C  981   3.988   0.828   9.518  0.5321 -0.0687  0.1870
   63TMC2     O  982   4.110   0.822   9.510 -0.2219  0.5466  0.0784
   63TMC2     H  983   4.050   0.751   9.293  2.8078  1.0317  1.0289
   63TMC2    H1  984   3.771   0.992   9.488  0.2889 -1.2023  0.6606
   63TMC2    H2  985   3.830   1.034   9.065  0.4969  0.8686 -0.1524
   63TMC2    C7  986   3.684   1.126   9.286 -0.2152 -0.0640 -0.0566
   63TMC2    C8  987   4.033   0.863   9.062 -0.0197 -0.1439 -0.3858
   63TMC2    O1  988   3.621   1.136   9.389  0.1431 -0.2336  0.5337
   63TMC2    O2  989   4.068   0.744   9.041  0.2902  0.0426  0.0182
   63TMC2    O5  990   4.045   0.968   8.970  0.6581 -0.0174  0.1090
   63TMC2    H5  991   3.997   1.048   9.000  0.5742 -0.1843  0.4177
   64MPD2     C  992   4.015   0.708  10.015  0.0997  0.0503  0.0734
   64MPD2    C1  993   3.900   0.646   9.959 -0.3726 -0.2766 -0.8515
   64MPD2    C2  994   3.867   0.679   9.829 -0.8486  0.3555 -0.3128
   64MPD2    C3  995   3.941   0.768   9.752 -0.0212 -0.2511  0.7507
   64MPD2    C4  996   4.057   0.821   9.810 -0.7158 -0.3151  0.2462
   64MPD2    C5  997   4.096   0.783   9.938 -0.4063  0.1001  0.3781
   64MPD2     H  998   3.784   0.631   9.778 -0.6346  0.1798 -0.5023
   64MPD2    H1  999   4.127   0.882   9.753  0.1022 -0.9463  0.5672
   64MPD2    H2 1000   4.035   0.702  10.122 -1.9968 -0.8310  0.4234
   64MPD2    H3 1001   4.178   0.827   9.993 -1.4269 -0.0492  2.0328
   64MPD2     N 1002   3.906   0.801   9.624  0.7166 -0.1433  0.4203
   64MPD2    H5 1003   3.812   0.773   9.597 -0.1013  2.2218  0.8606
   64MPD2    N1 1004   3.811   0.555  10.022 -0.0961  0.0127  0.5900
   64MPD2    H7 1005   3.749   0.502   9.963 -1.1476 -0.6359  2.2911
   65TMC2    C1 1006   4.577   0.252  15.423  0.0402  0.2171 -1.3484
   65TMC2    C2 1007   4.627   0.238  15.296  0.0374  0.2431 -0.0105
   65TMC2    C3 1008   4.625   0.346  15.211  0.7367 -0.4501  0.6922
   65TMC2    C4 1009   4.531   0.374  15.462  0.3727 -0.2033  0.0923
   65TMC2    C5 1010   4.532   0.477  15.374 -0.9106  0.3554  0.3093
   65TMC2    C6 1011   4.587   0.469  15.248  0.6236 -0.0743 -0.7850
   65TMC2     C 1012   4.600   0.153  15.529 -0.0965 -0.2092 -0.0804
   65TMC2     O 1013   4.563   0.183  15.645 -0.4906 -0.4751  0.0032
   65TMC2     H 1014   4.655   0.143  15.251  0.8534  1.0255 -1.1546
   65TMC2    H1 1015   4.492   0.373  15.564  0.3063 -2.4998  0.0496
   65TMC2    H2 1016   4.566   0.545  15.174 -1.7088  0.4057  0.3794
   65TMC2    C7 1017   4.517   0.610  15.427 -0.3169  0.1618 -0.3499
   65TMC2    C8 1018   4.680   0.314  15.077 -0.0877 -1.1103  0.2161
   65TMC2    O1 1019   4.533   0.704  15.350  0.1746 -0.5222 -0.0830
   65TMC2    O2 1020   4.706   0.204  15.035 -0.1641  0.5833  0.2122
   65TMC2    O5 1021   4.695   0.427  15.008  0.2197 -0.3786 -0.8826
   65TMC2    H5 1022   4.717   0.501  15.069  2.5282 -1.8717  0.0985
   66MPD2     C 1023   4.705   4.683  15.710  0.3553  0.1996  0.0844
   66MPD2    C1 1024   4.684   4.660  15.580  0.3307 -0.2768  0.7464
   66MPD2    C2 1025   4.691   4.532  15.528 -0.0908 -0.0495 -0.1882
   66MPD2    C3 1026   4.724   4.432  15.623  0.2707 -0.7422  0.6399
   66MPD2    C4 1027   4.732   4.461  15.755  0.3823  0.5174  0.2583
   66MPD2    C5 1028   4.721   4.588  15.803 -0.3178  0.4153 -0.0793
   66MPD2     H 1029   4.654   4.500  15.431 -0.0841 -1.9716  0.4525
   66MPD2    H1 1030   0.002   4.382  15.828  1.8309 -3.0374 -3.6842
   66MPD2    H2 1031   4.709   0.048  15.747 -0.8404  0.3031 -0.0850
   66MPD2    H3 1032   4.727   4.617  15.907  0.6694  2.1081 -0.6096
   66MPD2     N 1033   4.722   4.292  15.595 -0.1376  0.0310 -0.3429
   66MPD2    H5 1034   4.730   4.226  15.672  0.8811  0.0970 -0.3920
   66MPD2    N1 1035   4.647   0.030  15.490  0.6086 -0.7608 -0.1167
   66MPD2    H7 1036   4.643   0.007  15.391  1.5129 -0.1618 -0.2839
   67TMC2    C1 1037   4.402   3.944  14.479  0.5154 -0.2513 -0.5976
   67TMC2    C2 1038   4.336   4.034  14.555 -0.4074 -0.3132 -0.4654
   67TMC2    C3 1039   4.411   4.101  14.649  0.0703  0.0360 -0.3223
   67TMC2    C4 1040   4.534   3.909  14.500 -0.4234 -0.2295  0.1841
   67TMC2    C5 1041   4.603   3.989  14.594 -0.1223 -0.7696 -0.0663
   67TMC2    C6 1042   4.541   4.080  14.676  0.0074  0.9623 -0.3069
   67TMC2     C 1043   4.335   3.879  14.367 -0.4415 -0.2979 -0.4973
   67TMC2     O 1044   4.395   3.797  14.303  0.2402  0.2678  0.5982
   67TMC2     H 1045   4.230   4.053  14.544 -0.4261 -0.1125  0.0372
   67TMC2    H1 1046   4.593   3.839  14.441 -1.1157 -0.0577 -0.7097
   67TMC2    H2 1047   4.587   4.153  14.742 -1.1816  2.4789 -1.1358
   67TMC2    C7 1048   0.007   3.961  14.617 -0.2368  0.0251 -0.7348
   67TMC2    C8 1049   4.324   4.138  14.764 -0.3388 -0.0312  0.0434
   67TMC2    O1 1050   0.054   3.865  14.554 -0.7595 -0.7507  0.1066
   67TMC2    O2 1051   4.206   4.164  14.751 -0.0639  0.3068 -0.3515
   67TMC2    O5 1052   4.369   4.077  14.877  0.0825 -0.4940 -0.3582
   67TMC2    H5 1053   4.466   4.069  14.891 -0.2177 -0.8908  1.5241
   68MPD2     C 1054   4.160   3.804  14.134  0.9753  0.4390  0.1056
   68MPD2    C1 1055   4.152   3.918  14.208 -0.0989  0.0427  0.6326
   68MPD2    C2 1056   4.053   4.009  14.167  0.8359  0.0314  0.1446
   68MPD2    C3 1057   3.980   3.997  14.051 -0.6024 -0.4905 -0.3199
   68MPD2    C4 1058   4.011   3.887  13.966  0.4212  0.3334  0.0527
   68MPD2    C5 1059   4.101   3.792  14.009  0.1767  0.0108  0.3037
   68MPD2     H 1060   4.043   4.100  14.225  1.3464 -1.1576  2.1206
   68MPD2    H1 1061   3.959   3.866  13.873  0.7843 -0.0927 -0.0546
   68MPD2    H2 1062   4.231   3.728  14.165 -0.4619 -0.5386  1.0412
   68MPD2    H3 1063   4.118   3.708  13.943  0.1931  0.9137 -0.8604
   68MPD2     N 1064   3.887   4.095  14.004 -0.6271 -0.2770 -0.3120
   68MPD2    H5 1065   3.855   4.082  13.909  0.1189  0.1071 -0.6094
   68MPD2    N1 1066   4.228   3.956  14.319 -0.1970 -0.5192  0.7076
   68MPD2    H7 1067   4.210   4.042  14.368  1.4834 -0.2094  0.7759
   69TMC2    C1 1068   2.129   0.655  12.536  0.5828  0.2184  0.0104
   69TMC2    C2 1069   2.042   0.761  12.535 -0.6763 -0.0260 -0.2947
   69TMC2    C3 1070   2.077   0.862  12.447 -0.4644  0.7593 -0.9401
   69TMC2    C4 1071   2.249   0.643  12.467  0.2235  0.5368 -0.3077
   69TMC2    C5 1072   2.281   0.750  12.395 -0.4967  0.1704  0.2694
   69TMC2    C6 1073   2.199   0.860  12.378 -0.6301 -0.2759  0.2697
   69TMC2     C 1074   2.086   0.546  12.617  0.1700  0.1134 -0.2164
   69TMC2     O 1075   1.975   0.565  12.668 -0.1016  0.0849  0.0149
   69TMC2     H 1076   1.946   0.764  12.585 -1.0533 -3.0355 -0.8733
   69TMC2    H1 1077   2.307   0.552  12.459  0.0389  0.2383  1.6986
   69TMC2    H2 1078   2.232   0.944  12.320 -2.5209  1.3175  1.4875
   69TMC2    C7 1079   2.400   0.736  12.319 -0.5632  0.3367 -0.2744
   69TMC2    C8 1080   2.020   0.996  12.478 -0.6334 -0.5460 -0.6763
   69TMC2    O1 1081   2.455   0.626  12.293 -0.1662  0.1649  0.1793
   69TMC2    O2 1082   1.963   1.012  12.584  0.1482 -0.3976 -0.0026
   69TMC2    O5 1083   2.078   1.097  12.415 -0.4294  0.0465  0.1783
   69TMC2    H5 1084   2.119   1.077  12.328 -0.5398  3.3148 -0.6376
   70MPD2     C 1085   2.334   0.372  12.827 -0.7298 -0.4344 -0.1321
   70MPD2    C1 1086   2.208   0.402  12.785  0.4729 -1.1048  0.2688
   70MPD2    C2 1087   2.098   0.360  12.859 -1.0115 -0.6783  0.0993
   70MPD2    C3 1088   2.121   0.300  12.982  0.0432 -0.0830  0.9707
   70MPD2    C4 1089   2.247   0.261  13.021 -0.0095 -0.4261  0.3818
   70MPD2    C5 1090   2.352   0.298  12.942  0.0699  0.4583  0.3556
   70MPD2     H 1091   1.997   0.385  12.831 -0.7004  2.6501  1.9864
   70MPD2    H1 1092   2.257   0.219  13.120  0.5017 -0.8887  0.1339
   70MPD2    H2 1093   2.421   0.379  12.764 -0.0001 -1.3389  0.7848
   70MPD2    H3 1094   2.448   0.268  12.980  0.6385  0.3856 -1.1260
   70MPD2     N 1095   2.020   0.272  13.075  0.3533  0.5490  0.3049
   70MPD2    H5 1096   2.041   0.226  13.164  1.2284 -1.1636 -0.7869
   70MPD2    N1 1097   2.198   0.479  12.669 -0.0916 -0.1307 -0.5375
   70MPD2    H7 1098   2.285   0.496  12.619  0.2804 -0.3185  0.0507
   71TMC2    C1 1099   3.716   0.920   1.687 -0.1970  0.5376 -0.2028
   71TMC2    C2 1100   3.767   1.039   1.732  0.1557  0.2918 -0.2499
   71TMC2    C3 1101   3.684   1.134   1.788  0.0417  0.5760  0.0166
   71TMC2    C4 1102   3.578   0.897   1.699  0.0385  0.1510  0.6179
   71TMC2    C5 1103   3.505   0.999   1.748  0.2134  0.1374  0.0183
   71TMC2    C6 1104   3.552   1.121   1.787  0.1266 -0.5517  0.2600
   71TMC2     C 1105   3.799   0.833   1.601 -0.3019  0.4083  0.2752
   71TMC2     O 1106   3.903   0.880   1.561 -0.1462 -0.0792 -0.3068
   71TMC2     H 1107   3.875   1.047   1.727  0.3373 -1.7373  0.4080
   71TMC2    H1 1108   3.523   0.804   1.687  0.5643  0.2999 -2.9001
   71TMC2    H2 1109   3.487   1.202   1.818  1.1933  0.3787  0.0789
   71TMC2    C7 1110   3.357   0.993   1.742 -0.2067  0.5171 -0.2829
   71TMC2    C8 1111   3.741   1.265   1.810 -0.3507  0.1082 -0.4569
   71TMC2    O1 1112   3.291   1.066   1.818 -0.3976  0.3039 -0.0220
   71TMC2    O2 1113   3.839   1.299   1.744 -0.4716  1.0597  0.4818
   71TMC2    O5 1114   3.683   1.333   1.919  0.3349 -0.2349  0.0600
   71TMC2    H5 1115   3.624   1.281   1.978  1.1928 -1.2636  0.0055
   72MPD2     C 1116   3.811   0.410   1.301  0.4757  0.1669 -0.1737
   72MPD2    C1 1117   3.881   0.526   1.290 -0.2108 -0.0604 -0.1042
   72MPD2    C2 1118   3.854   0.634   1.378  0.2067 -0.2420  0.7140
   72MPD2    C3 1119   3.762   0.612   1.486 -0.0548  0.2176 -0.7347
   72MPD2    C4 1120   3.693   0.493   1.490 -0.5985  1.2408 -0.0481
   72MPD2    C5 1121   3.709   0.400   1.392  0.4830 -0.8941 -0.2625
   72MPD2     H 1122   3.917   0.722   1.373 -0.8965  0.4495 -0.7474
   72MPD2    H1 1123   3.619   0.460   1.562 -0.8439  1.0518 -0.3853
   72MPD2    H2 1124   3.829   0.327   1.234 -1.9377  1.0162 -1.8665
   72MPD2    H3 1125   3.651   0.309   1.387  1.6656 -1.6158 -0.8454
   72MPD2     N 1126   3.742   0.711   1.587  0.2644  0.5716 -0.6840
   72MPD2    H5 1127   3.667   0.690   1.652 -1.2888  0.7432 -2.4295
   72MPD2    N1 1128   3.966   0.552   1.178 -0.2135  0.1777  0.3827
   72MPD2    H7 1129   4.015   0.641   1.176  2.0276 -1.0515  1.1284
   73TMC2    C1 1130   4.112   2.894  14.477 -0.3174  0.5905 -0.1493
   73TMC2    C2 1131   4.033   2.946  14.580  0.7516  0.0387 -0.5076
   73TMC2    C3 1132   4.032   2.881  14.697  0.7605  0.1435  0.4205
   73TMC2    C4 1133   4.194   2.785  14.501 -0.3049  0.2729  0.4341
   73TMC2    C5 1134   4.204   2.739  14.632 -0.0502 -0.5521  0.1959
   73TMC2    C6 1135   4.119   2.784  14.733  0.4012 -0.5982 -0.0768
   73TMC2     C 1136   4.170   2.993  14.387  0.3683  0.4934 -0.0176
   73TMC2     O 1137   4.288   2.974  14.346  0.4183  0.3926  0.3039
   73TMC2     H 1138   3.970   3.033  14.566 -2.1473 -1.8240  1.1864
   73TMC2    H1 1139   4.240   2.724  14.424  1.0653  0.7420  0.8807
   73TMC2    H2 1140   4.135   2.768  14.839  0.3670  0.0818  0.0302
   73TMC2    C7 1141   4.347   2.729  14.671  0.2044 -0.1772 -0.8241
   73TMC2    C8 1142   3.938   2.936  14.802 -0.4756  0.1055 -0.0763
   73TMC2    O1 1143   4.364   2.701  14.788  0.4104 -0.8885  0.2206
   73TMC2    O2 1144   3.929   3.054  14.816  0.5094 -0.3383  0.0477
   73TMC2    O5 1145   3.920   2.847  14.898 -0.0144  0.3040 -0.0257
   73TMC2    H5 1146   3.933   2.753  14.874 -1.8382 -0.5535  2.3127
   74MPD2     C 1147   4.220   3.431  14.142  0.3487  0.9778 -0.5736
   74MPD2    C1 1148   4.306   3.368  14.229  0.1016 -0.8534  0.4867
   74MPD2    C2 1149   4.256   3.262  14.300  0.1416 -0.4771 -0.1205
   74MPD2    C3 1150   4.127   3.218  14.293 -0.2792  0.3882 -0.5916
   74MPD2    C4 1151   4.039   3.292  14.222 -0.2972 -0.4796 -0.7637
   74MPD2    C5 1152   4.085   3.401  14.154 -0.0025 -0.9436 -0.6240
   74MPD2     H 1153   4.322   3.211  14.368  2.3390  0.9010 -1.2353
   74MPD2    H1 1154   3.936   3.259  14.211 -2.1306  3.9639  2.6142
   74MPD2    H2 1155   4.252   3.518  14.085  1.2735  0.3742 -0.9686
   74MPD2    H3 1156   4.015   3.456  14.092  0.2703 -0.4873 -0.5258
   74MPD2     N 1157   4.085   3.099  14.355  0.1467  0.5627 -0.4364
   74MPD2    H5 1158   3.986   3.099  14.377  1.2906 -1.4986  4.7983
   74MPD2    N1 1159   4.440   3.411  14.228 -0.9079 -0.2558 -0.0622
   74MPD2    H7 1160   4.474   3.498  14.188 -1.1409 -0.5629 -0.9304
   75TMC2    C1 1161   3.750   4.278  13.995  0.9713 -0.7658 -0.6849
   75TMC2    C2 1162   3.648   4.335  14.062 -0.6669 -0.1310  0.0214
   75TMC2    C3 1163   3.550   4.400  13.998  0.1554 -0.5039 -0.1192
   75TMC2    C4 1164   3.762   4.278  13.856 -0.4085 -0.3714  0.6899
   75TMC2    C5 1165   3.655   4.344  13.793 -0.0105  0.0254 -0.5131
   75TMC2    C6 1166   3.558   4.397  13.862  0.0559  0.3931 -0.0057
   75TMC2     C 1167   3.840   4.200  14.074 -0.2468 -0.0205  0.1724
   75TMC2     O 1168   3.849   4.224  14.197 -0.3966  0.0688 -0.4303
   75TMC2     H 1169   3.651   4.329  14.170  0.9336  2.7188  0.1199
   75TMC2    H1 1170   3.848   4.246  13.799 -1.0215 -1.5634  0.4233
   75TMC2    H2 1171   3.470   4.430  13.807 -0.2697  0.0932  0.3327
   75TMC2    C7 1172   3.676   4.389  13.659  0.6565 -0.0084 -0.0814
   75TMC2    C8 1173   3.446   4.465  14.075 -0.3553  0.3379  0.4437
   75TMC2    O1 1174   3.576   4.424  13.595 -0.0640  0.0415 -0.3269
   75TMC2    O2 1175   3.390   4.402  14.163  0.1240 -0.1359  0.0135
   75TMC2    O5 1176   3.391   4.556  13.988 -0.0608 -0.1862  0.0185
   75TMC2    H5 1177   3.463   4.607  13.944  0.3685  1.2910  2.4526
   76TMC2    C1 1178   2.968   4.395  12.083 -0.5744  0.1873  0.4709
   76TMC2    C2 1179   2.874   4.314  12.017 -0.2712  0.1127  0.4616
   76TMC2    C3 1180   2.797   4.236  12.097 -0.4590  0.1490  0.5957
   76TMC2    C4 1181   2.988   4.378  12.223  0.6377  1.0640 -0.4661
   76TMC2    C5 1182   2.904   4.286  12.288  0.4570 -0.0285 -0.1066
   76TMC2    C6 1183   2.804   4.219  12.232  0.4400  0.2384 -0.2348
   76TMC2     C 1184   3.024   4.511  12.016  0.0058 -0.6412 -0.0950
   76TMC2     O 1185   2.957   4.552  11.926  0.4712  0.1133  0.3254
   76TMC2     H 1186   2.849   4.321  11.912  0.3085  2.2996  0.4674
   76TMC2    H1 1187   3.061   4.436  12.278  1.1880 -0.1584  0.0869
   76TMC2    H2 1188   2.763   4.131  12.281  1.5430  0.0314  0.3117
   76TMC2    C7 1189   2.927   4.274  12.429 -0.1389  0.0482 -0.5075
   76TMC2    C8 1190   2.723   4.132  12.032  0.9515  0.2788 -0.0304
   76TMC2    O1 1191   2.824   4.237  12.485  0.4313  0.5892  0.5391
   76TMC2    O2 1192   2.772   4.031  11.988 -0.2715 -0.4071 -0.1908
   76TMC2    O5 1193   2.605   4.128  12.107  0.6229 -0.1127 -0.5139
   76TMC2    H5 1194   2.579   4.215  12.142 -0.7759 -0.8225  0.1857
   77MPD2     C 1195   3.346   0.166  11.974  0.0578  0.0600  0.1026
   77MPD2    C1 1196   3.212   0.158  11.946  1.1279 -0.0351  0.2487
   77MPD2    C2 1197   3.148   0.045  11.973  0.1130  0.1017 -0.0623
   77MPD2    C3 1198   3.214   4.675  12.036 -0.1839  0.0732  0.4602
   77MPD2    C4 1199   3.348   4.687  12.073 -0.1119 -0.1214  0.3337
   77MPD2    C5 1200   3.415   0.066  12.038 -0.0482  0.2483  0.0592
   77MPD2     H 1201   3.044   0.035  11.944  0.2078 -1.7509  0.2052
   77MPD2    H1 1202   3.402   4.611  12.128 -0.5520  0.0132  0.9463
   77MPD2    H2 1203   3.400   0.258  11.953 -0.8037  0.0879 -2.0215
   77MPD2    H3 1204   3.520   0.078  12.062  0.0080 -1.1169  0.5313
   77MPD2     N 1205   3.150   4.551  12.066 -0.5043 -0.1304 -0.1293
   77MPD2    H5 1206   3.203   4.487  12.124  0.3374 -0.0435 -0.7948
   77MPD2    N1 1207   3.140   0.276  11.903  0.4098 -0.3529  0.1297
   77MPD2    H7 1208   3.045   0.288  11.936  0.6378 -0.8226  0.9627
   78TMC2    C1 1209   3.944   0.508   1.779  0.6542  0.0168 -0.4664
   78TMC2    C2 1210   3.866   0.400   1.814  0.4799  0.1937 -0.6361
   78TMC2    C3 1211   3.876   0.290   1.730  0.2446  0.4502  0.7595
   78TMC2    C4 1212   4.035   0.512   1.672  0.0222 -0.2138  0.4431
   78TMC2    C5 1213   4.042   0.397   1.602  0.1173 -0.3758 -0.6312
   78TMC2    C6 1214   3.977   0.276   1.637 -0.9834 -0.3419  0.0707
   78TMC2     C 1215   3.907   0.627   1.856 -0.6943 -0.3538 -0.1726
   78TMC2     O 1216   3.783   0.623   1.879 -0.3264 -0.2792 -0.1362
   78TMC2     H 1217   3.809   0.395   1.906  1.6965  1.2442  0.1687
   78TMC2    H1 1218   4.070   0.610   1.641 -0.3638  0.2404  1.4257
   78TMC2    H2 1219   3.982   0.186   1.577  1.4301 -1.9749  2.7643
   78TMC2    C7 1220   4.137   0.397   1.495 -0.6484 -0.1845  0.1005
   78TMC2    C8 1221   3.833   0.159   1.788 -0.3641  0.7508  0.8359
   78TMC2    O1 1222   4.208   0.498   1.490  0.3055  0.2031  0.2833
   78TMC2    O2 1223   3.887   0.054   1.768  0.0032 -0.4190 -0.2466
   78TMC2    O5 1224   3.717   0.184   1.852  0.1161  0.1964  0.3700
   78TMC2    H5 1225   3.684   0.276   1.856  1.6867  0.8144 -0.7257
   79MPD1     C 1226   3.958   1.097   2.053  0.2544  0.3592 -0.0810
   79MPD1    C1 1227   3.869   1.001   2.088 -0.1142  0.0300 -0.0192
   79MPD1    C2 1228   3.880   0.878   2.026 -0.0034  0.6631 -0.0065
   79MPD1    C3 1229   3.981   0.852   1.937  0.5026  0.3272  0.2701
   79MPD1    C4 1230   4.072   0.946   1.917 -0.0203 -0.9788 -0.4379
   79MPD1    C5 1231   4.064   1.073   1.971 -0.8496  0.0734  0.7070
   79MPD1     H 1232   3.807   0.803   2.054  0.5603  0.8093  1.8073
   79MPD1    H1 1233   4.156   0.932   1.851 -1.8305  1.5176 -3.2571
   79MPD1    H2 1234   3.966   1.198   2.093  1.8158  0.8610 -1.6274
   79MPD1    H3 1235   4.145   1.141   1.946 -0.1315 -1.0092  0.0647
   79MPD1     N 1236   4.004   0.722   1.873  0.3827 -0.1167 -0.0103
   79MPD1    H5 1237   4.099   0.696   1.849  0.4623  1.1775 -1.1129
   79MPD1    N1 1238   3.760   1.025   2.166 -0.1095 -0.2236  0.4487
   79MPD1    H6 1239   3.726   0.934   2.195 -0.9740 -0.1485 -0.3240
   79MPD1    H7 1240   3.778   1.073   2.254 -1.7216  1.6313 -0.2427
   80TMC2    C1 1241   1.954   4.325  11.670 -0.0866 -0.2395 -0.6587
   80TMC2    C2 1242   1.921   4.342  11.539 -0.1579 -0.8183 -0.2468
   80TMC2    C3 1243   1.815   4.269  11.491 -0.7700 -0.2637 -0.1378
   80TMC2    C4 1244   1.889   4.232  11.748 -0.2529 -0.1028  0.3986
   80TMC2    C5 1245   1.793   4.155  11.696  0.1828  0.1943  0.5384
   80TMC2    C6 1246   1.757   4.174  11.562  0.3769 -0.0474  0.7406
   80TMC2     C 1247   2.015   4.445  11.729  0.0122 -0.0811 -0.4249
   80TMC2     O 1248   2.077   4.511  11.652 -0.3448  1.0104  0.0873
   80TMC2     H 1249   1.987   4.394  11.471 -0.6882 -0.1713 -0.2736
   80TMC2    H1 1250   1.933   4.212  11.845 -1.2019  2.4975  1.3636
   80TMC2    H2 1251   1.701   4.094  11.515 -1.4172  0.5398  1.9059
   80TMC2    C7 1252   1.767   4.025  11.749  0.1640  0.1334  0.3291
   80TMC2    C8 1253   1.832   4.228  11.356  0.4411  0.4657  0.4534
   80TMC2    O1 1254   1.688   3.952  11.683  0.3833  0.2308 -0.2926
   80TMC2    O2 1255   1.834   4.118  11.309  0.3915  0.0152 -0.2063
   80TMC2    O5 1256   1.816   4.343  11.297 -0.1688  0.2232 -0.1305
   80TMC2    H5 1257   1.784   4.418  11.350 -0.1339  1.1717 -1.4383
   81MPD2     C 1258   2.138   4.654  11.897  0.0964  0.0801  0.8853
   81MPD2    C1 1259   2.055   4.556  11.949  0.2273 -0.0270 -0.2195
   81MPD2    C2 1260   2.020   4.553  12.081  0.3221  0.1552 -0.1564
   81MPD2    C3 1261   2.057   4.665  12.159  0.1840  0.3649  0.1606
   81MPD2    C4 1262   2.139   0.028  12.112  0.2288  0.1383  0.6622
   81MPD2    C5 1263   2.176   0.016  11.976 -0.1057  0.2109 -0.7121
   81MPD2     H 1264   1.955   4.472  12.112  0.1126  0.0601 -0.8328
   81MPD2    H1 1265   2.170   0.109  12.176 -0.1932  0.8548 -0.0426
   81MPD2    H2 1266   2.168   4.658  11.793 -0.6951  3.5108  0.7778
   81MPD2    H3 1267   2.240   0.094  11.936  1.2004 -1.7842 -2.5341
   81MPD2     N 1268   2.014   4.679  12.291 -0.0803 -0.1369 -0.6498
   81MPD2    H5 1269   2.018   0.034  12.334  0.2449 -0.6442  0.3998
   81MPD2    N1 1270   1.997   4.456  11.866 -0.4394 -0.4738 -0.2844
   81MPD2    H7 1271   1.934   4.393  11.914 -0.0090  0.3802  1.3917
   82TMC2    C1 1272   0.394   3.731  11.351  0.3375  0.5800 -0.5500
   82TMC2    C2 1273   0.497   3.725  11.441  0.4173  0.8969  0.3653
   82TMC2    C3 1274   0.469   3.662  11.558  0.1876  0.0802  0.3119
   82TMC2    C4 1275   0.264   3.697  11.383 -0.3473 -0.9613  0.4933
   82TMC2    C5 1276   0.236   3.627  11.494 -0.0969  0.6596 -0.2164
   82TMC2    C6 1277   0.340   3.605  11.588  0.5165 -0.4275 -0.5979
   82TMC2     C 1278   0.400   3.819  11.237  0.1963 -0.6868 -0.1530
   82TMC2     O 1279   0.482   3.906  11.250  0.4033  0.7174 -0.5806
   82TMC2     H 1280   0.596   3.762  11.417 -0.6701  3.2177 -0.5313
   82TMC2    H1 1281   0.172   3.717  11.330  1.2649  0.4654 -1.7386
   82TMC2    H2 1282   0.319   3.542  11.673 -1.3439  0.9726 -0.0217
   82TMC2    C7 1283   0.102   3.596  11.536 -0.0646 -0.3169  0.3374
   82TMC2    C8 1284   0.582   3.630  11.638  0.2110 -0.1144  0.1909
   82TMC2    O1 1285   0.091   3.571  11.657  0.1749  0.0217 -0.8766
   82TMC2    O2 1286   0.697   3.617  11.592  0.3322  0.1031 -0.4787
   82TMC2    O5 1287   0.549   3.626  11.767  0.5628 -0.5678  0.4116
   82TMC2    H5 1288   0.458   3.655  11.789 -0.2336 -0.7194 -2.7790
   83MPD2     C 1289   0.243   3.986  10.786  0.2046 -0.2329  0.6992
   83MPD2    C1 1290   0.152   3.896  10.824 -0.3273  0.2242 -0.0408
   83MPD2    C2 1291   0.172   3.829  10.947  0.0196 -0.2937 -0.1415
   83MPD2    C3 1292   0.275   3.871  11.026 -0.3407 -0.0037 -1.1216
   83MPD2    C4 1293   0.358   3.971  10.992 -0.1953  0.4844 -0.2473
   83MPD2    C5 1294   0.343   4.026  10.867  0.0617  0.6026  0.3172
   83MPD2     H 1295   0.107   3.754  10.991 -0.3440 -0.4844 -1.0109
   83MPD2    H1 1296   0.441   3.999  11.057  0.6222 -0.9931 -0.6479
   83MPD2    H2 1297   0.246   4.043  10.694  3.9422 -1.1599  0.2412
   83MPD2    H3 1298   0.415   4.102  10.839  2.8162 -2.1399 -0.1577
   83MPD2     N 1299   0.302   3.795  11.143  1.0695 -0.8769 -0.3472
   83MPD2    H5 1300   0.248   3.709  11.153  0.5153 -0.4921 -0.0027
   83MPD2    N1 1301   0.050   3.861  10.737  0.0608 -0.2296  0.0010
   83MPD2    H7 1302   0.062   3.895  10.642  0.8035 -0.8294 -0.1136
   84TMC2    C1 1303   1.240   3.349  11.425 -0.9832 -0.4224  0.8266
   84TMC2    C2 1304   1.258   3.314  11.552 -0.2369 -0.4263  0.3457
   84TMC2    C3 1305   1.363   3.232  11.587 -0.6902  0.0189 -0.8493
   84TMC2    C4 1306   1.318   3.287  11.328  0.0210 -0.1170  0.2594
   84TMC2    C5 1307   1.416   3.209  11.367 -0.0796 -0.9068 -0.3758
   84TMC2    C6 1308   1.446   3.177  11.493  0.9323 -0.2038 -0.1402
   84TMC2     C 1309   1.141   3.442  11.381 -0.0495  0.0336 -0.0887
   84TMC2     O 1310   1.089   3.507  11.470 -0.0968 -0.0842 -0.1437
   84TMC2     H 1311   1.212   3.379  11.625  0.8541 -0.2742  0.8985
   84TMC2    H1 1312   1.300   3.304  11.223  0.1056 -1.0144  0.0995
   84TMC2    H2 1313   1.527   3.116  11.531  0.5960 -0.8771 -0.4947
   84TMC2    C7 1314   1.513   3.180  11.272 -0.2655 -0.5955  0.2103
   84TMC2    C8 1315   1.400   3.233  11.725 -0.4716  0.4827 -0.0237
   84TMC2    O1 1316   1.473   3.156  11.158 -0.3457  0.1183 -0.0939
   84TMC2    O2 1317   1.513   3.218  11.769  0.3382  0.5819 -0.1561
   84TMC2    O5 1318   1.284   3.229  11.795 -0.1290  0.4395  0.5026
   84TMC2    H5 1319   1.200   3.225  11.745 -0.1156  0.0968  0.5132
   85TMC2    C1 1320   1.914   0.843  16.058 -0.2753 -0.1211  0.6736
   85TMC2    C2 1321   1.881   0.872  15.930 -0.9762  0.3757 -0.7604
   85TMC2    C3 1322   1.962   0.960  15.863 -0.6429 -0.5733 -0.0619
   85TMC2    C4 1323   2.021   0.900  16.116 -0.0331 -0.7288 -0.0875
   85TMC2    C5 1324   2.101   0.977  16.044  0.1967  0.2090 -0.0138
   85TMC2    C6 1325   2.078   1.004  15.915  0.3837  0.2114 -0.5093
   85TMC2     C 1326   1.831   0.759  16.142 -0.5717 -0.2054  0.0044
   85TMC2     O 1327   1.841   0.754  16.265 -0.0785 -0.6214  0.0890
   85TMC2     H 1328   1.780   0.852  15.896 -1.4290  1.8638 -0.3141
   85TMC2    H1 1329   2.044   0.900  16.222 -0.4463  1.5236  0.0052
   85TMC2    H2 1330   2.145   1.062  15.853  1.1615  1.6106  1.6579
   85TMC2    C7 1331   2.222   1.042  16.105 -0.1276  0.0009 -0.3870
   85TMC2    C8 1332   1.929   0.988  15.726 -0.3002 -0.9156 -0.2503
   85TMC2    O1 1333   2.308   1.084  16.031 -0.7785  0.5138  0.3595
   85TMC2    O2 1334   1.853   0.912  15.670 -0.4144  0.2223 -0.1160
   85TMC2    O5 1335   1.945   1.122  15.722 -0.3181  0.4732 -0.0874
   85TMC2    H5 1336   1.985   1.159  15.804 -1.1450  1.0066  0.0760
   86MPD2     C 1337   1.474   0.402  16.200 -0.2514  0.0862 -0.8009
   86MPD2    C1 1338   1.528   0.389  16.074  0.9303  0.2812 -0.5712
   86MPD2    C2 1339   1.628   0.474  16.034  0.0588  0.2230 -0.4211
   86MPD2    C3 1340   1.660   0.587  16.106  0.5389  0.2167  0.2647
   86MPD2    C4 1341   1.595   0.612  16.225  0.0132  0.0917 -0.2492
   86MPD2    C5 1342   1.504   0.517  16.272  1.0105 -0.0490 -0.7723
   86MPD2     H 1343   1.678   0.451  15.941 -0.9025 -0.5324 -0.7448
   86MPD2    H1 1344   1.615   0.696  16.291  2.3189  0.1516 -1.0364
   86MPD2    H2 1345   1.414   0.328  16.252 -0.7914  1.3341  0.3721
   86MPD2    H3 1346   1.456   0.540  16.366  2.9103  0.4376  0.0811
   86MPD2     N 1347   1.758   0.676  16.054  0.0118 -0.0578  0.4109
   86MPD2    H5 1348   1.803   0.660  15.964  1.4182 -1.1901  1.3245
   86MPD2    N1 1349   1.504   0.263  16.005  0.9329  0.1002 -0.5455
   86MPD2    H7 1350   1.568   0.231  15.933  0.9805 -0.9031 -0.0640
   87TMC2    C1 1351   4.632   3.710   0.116 -0.5273 -0.3826  0.1185
   87TMC2    C2 1352   4.705   3.826   0.117  0.1628  0.0198  0.5892
   87TMC2    C3 1353   4.651   3.942   0.167  0.1446  0.8816  0.1663
   87TMC2    C4 1354   4.498   3.712   0.149  1.0519  0.2291  0.2544
   87TMC2    C5 1355   4.446   3.829   0.203 -0.5121  0.1191  0.2502
   87TMC2    C6 1356   4.521   3.943   0.220 -0.4513 -0.2991 -0.0578
   87TMC2     C 1357   4.701   3.595   0.050 -0.0878 -0.2629 -0.2984
   87TMC2     O 1358   0.074   3.616   0.000  0.0305 -0.4227 -0.4047
   87TMC2     H 1359   0.065   3.837   0.069  0.7405 -0.2542  1.6901
   87TMC2    H1 1360   4.438   3.622   0.159 -0.6789  1.4655  1.0882
   87TMC2    H2 1361   4.480   4.035   0.260  0.0404  0.8334 -2.1444
   87TMC2    C7 1362   4.311   3.836   0.254  0.0455  0.1603  0.0890
   87TMC2    C8 1363   4.692   4.052   0.086 -0.7690 -0.0434 -0.1854
   87TMC2    O1 1364   4.268   3.949   0.264 -0.1705  0.3055 -0.1879
   87TMC2    O2 1365   0.009   4.044  17.724  0.1002 -0.2302 -0.9141
   87TMC2    O5 1366   4.638   4.172   0.134  0.1524 -0.0262  0.7325
   87TMC2    H5 1367   4.594   4.167   0.221  1.1936 -4.2153  1.0123
   88MPD2     C 1368   4.084   3.563   0.359  0.2164  0.3987 -0.5607
   88MPD2    C1 1369   4.135   3.688   0.351  0.1910 -0.1695  0.7973
   88MPD2    C2 1370   4.076   3.787   0.421 -0.3013 -0.7678  0.2282
   88MPD2    C3 1371   3.958   3.758   0.496 -0.0641  0.2428 -0.4920
   88MPD2    C4 1372   3.899   3.630   0.489 -0.3949  0.1723  0.4794
   88MPD2    C5 1373   3.962   3.533   0.423 -0.0399  0.6562 -0.0393
   88MPD2     H 1374   4.116   3.887   0.414 -2.3301  0.1044  1.0167
   88MPD2    H1 1375   3.806   3.603   0.538 -0.8865  1.0791  0.0700
   88MPD2    H2 1376   4.142   3.481   0.318 -0.0800 -0.3359  0.4615
   88MPD2    H3 1377   3.910   3.438   0.427  2.3530 -0.7047 -1.2902
   88MPD2     N 1378   3.896   3.863   0.575  0.3260 -0.2723  0.3208
   88MPD2    H5 1379   3.802   3.838   0.606  0.8183 -1.3021  0.9767
   88MPD2    N1 1380   4.261   3.710   0.286  0.3892  0.4813  0.8063
   88MPD2    H7 1381   4.323   3.630   0.282 -0.8293 -0.3929 -0.3245
   89TMC2    C1 1382   0.887   2.392   1.936 -0.3052 -0.5925 -0.1307
   89TMC2    C2 1383   0.982   2.425   2.025  0.4564  0.3905  0.1822
   89TMC2    C3 1384   1.023   2.558   2.028  0.9531  0.8087  0.6389
   89TMC2    C4 1385   0.829   2.487   1.850 -0.0806  0.3174  0.8069
   89TMC2    C5 1386   0.853   2.614   1.873 -0.3167  0.1871  0.3146
   89TMC2    C6 1387   0.952   2.654   1.963  0.0250 -0.5551 -0.4547
   89TMC2     C 1388   0.866   2.248   1.922 -0.1908 -0.0388 -0.2055
   89TMC2     O 1389   0.957   2.175   1.962 -0.2430 -0.4772 -0.0434
   89TMC2     H 1390   1.027   2.352   2.091 -0.4906 -0.3774 -0.0315
   89TMC2    H1 1391   0.744   2.455   1.791  1.3870 -0.1766 -1.0451
   89TMC2    H2 1392   0.992   2.754   1.968 -0.4590 -0.4346  0.9791
   89TMC2    C7 1393   0.797   2.715   1.782 -0.6122  0.0659  0.2433
   89TMC2    C8 1394   1.134   2.609   2.118 -0.4046  0.2366  0.2259
   89TMC2    O1 1395   0.805   2.826   1.828  0.3128  0.4906 -0.3755
   89TMC2    O2 1396   1.201   2.707   2.098  0.0232 -0.1467 -0.2374
   89TMC2    O5 1397   1.118   2.545   2.233 -0.1827  0.0453 -0.0064
   89TMC2    H5 1398   1.028   2.507   2.232 -1.3699  2.8383 -1.7533
   90MPD2     C 1399   0.604   1.835   1.758 -0.2989  0.8323 -0.1942
   90MPD2    C1 1400   0.516   1.939   1.776 -0.7278  0.5018 -0.1046
   90MPD2    C2 1401   0.561   2.060   1.823 -0.1410  0.4144  0.2488
   90MPD2    C3 1402   0.694   2.086   1.853  0.2619  0.1848  0.5554
   90MPD2    C4 1403   0.781   1.980   1.838 -0.3843  0.0842  0.5524
   90MPD2    C5 1404   0.741   1.859   1.795  0.2924 -0.2322 -0.0360
   90MPD2     H 1405   0.488   2.140   1.829  1.0371  1.5514 -0.5495
   90MPD2    H1 1406   0.887   1.990   1.857 -0.5104  2.1907  0.2299
   90MPD2    H2 1407   0.569   1.734   1.738  0.4256  0.5869 -0.2465
   90MPD2    H3 1408   0.809   1.774   1.789 -0.6352 -0.8993 -1.3472
   90MPD2     N 1409   0.735   2.216   1.891  0.5028  0.0667  0.2510
   90MPD2    H5 1410   0.666   2.291   1.889 -2.2114 -2.4414  0.2319
   90MPD2    N1 1411   0.377   1.929   1.756  0.2425  0.4981  0.6798
   90MPD2    H7 1412   0.324   2.010   1.786 -3.9950 -1.4047 -1.6762
   91TMC2    C1 1413   1.868   1.423  16.371  0.2679  0.0964  0.4508
   91TMC2    C2 1414   1.892   1.386  16.498 -1.0685 -0.2106 -0.2271
   91TMC2    C3 1415   1.784   1.359  16.575 -0.1114  0.0599  0.4168
   91TMC2    C4 1416   1.744   1.456  16.323  0.3762  0.0022 -0.3801
   91TMC2    C5 1417   1.643   1.440  16.409 -0.1528  0.4133  0.4652
   91TMC2    C6 1418   1.656   1.399  16.542 -0.0129 -0.1018 -0.8339
   91TMC2     C 1419   1.974   1.428  16.273  0.3702  0.2207 -0.1714
   91TMC2     O 1420   1.942   1.402  16.156  0.2688  0.8546 -0.0169
   91TMC2     H 1421   1.983   1.333  16.527 -0.8019 -0.7485 -2.0766
   91TMC2    H1 1422   1.733   1.492  16.221  1.2721  1.1351 -0.0795
   91TMC2    H2 1423   1.565   1.381  16.599 -0.4799 -1.4532 -1.9966
   91TMC2    C7 1424   1.512   1.475  16.365 -0.2983  0.1254  1.1528
   91TMC2    C8 1425   1.823   1.319  16.708 -0.0617 -0.4350  0.6427
   91TMC2    O1 1426   1.430   1.493  16.456 -0.2156 -0.6905  0.2302
   91TMC2    O2 1427   1.893   1.225  16.721 -0.1116 -0.2550  0.4663
   91TMC2    O5 1428   1.716   1.330  16.790 -0.3250  0.7209 -0.2426
   91TMC2    H5 1429   1.676   1.419  16.793 -1.2227  0.3220 -0.1009
   92MPD2     C 1430   2.227   1.504  16.117 -0.2384  0.1693 -0.2105
   92MPD2    C1 1431   2.217   1.485  16.261  0.2113  0.2245  0.5235
   92MPD2    C2 1432   2.331   1.507  16.331  0.9208  0.0888 -0.8746
   92MPD2    C3 1433   2.449   1.544  16.272  0.8130 -0.0469  0.9035
   92MPD2    C4 1434   2.455   1.552  16.136  0.2099 -0.1538  0.5439
   92MPD2    C5 1435   2.343   1.540  16.055 -0.2196 -0.1920  0.5639
   92MPD2     H 1436   2.332   1.499  16.439  0.1629 -0.3516 -0.9013
   92MPD2    H1 1437   2.553   1.569  16.093 -0.1538 -1.8494 -0.9184
   92MPD2    H2 1438   2.139   1.510  16.054 -2.1818 -2.2201  2.2532
   92MPD2    H3 1439   2.360   1.561  15.950 -1.2648  0.2836  0.4883
   92MPD2     N 1440   2.558   1.583  16.356  0.3491 -0.0975  0.3983
   92MPD2    H5 1441   2.629   1.637  16.308 -1.4346 -0.5684 -2.8505
   92MPD2    N1 1442   2.093   1.468  16.326 -0.0186 -0.3398 -0.0282
   92MPD2    H7 1443   2.092   1.490  16.425 -1.7845 -1.4644  0.1988
   93TMC2    C1 1444   4.320   2.385  13.829 -0.1767 -1.1204 -0.3126
   93TMC2    C2 1445   4.277   2.510  13.819 -0.0048 -0.2079 -0.1098
   93TMC2    C3 1446   4.373   2.605  13.796  0.2444 -0.9848 -0.2145
   93TMC2    C4 1447   4.450   2.353  13.835 -0.3021 -0.3402 -0.2999
   93TMC2    C5 1448   4.540   2.454  13.826  0.7178  0.2673  0.9538
   93TMC2    C6 1449   4.504   2.577  13.787  0.0635 -0.1741 -0.0432
   93TMC2     C 1450   4.244   2.299  13.918 -0.6622 -0.0416 -0.4079
   93TMC2     O 1451   4.305   2.266  14.017 -0.5955  0.9301 -0.2551
   93TMC2     H 1452   4.172   2.535  13.828 -0.1292 -0.6349 -0.3824
   93TMC2    H1 1453   4.478   2.260  13.883 -2.6595 -0.5220  0.7360
   93TMC2    H2 1454   4.573   2.660  13.777  0.5835 -0.6764 -0.6267
   93TMC2    C7 1455   4.678   2.423  13.829 -0.0362  0.6975 -0.4634
   93TMC2    C8 1456   4.327   2.739  13.803 -0.2262  0.4592 -0.5942
   93TMC2    O1 1457   4.712   2.316  13.786 -0.3692 -0.4475  0.0169
   93TMC2    O2 1458   4.242   2.781  13.880  0.1937  0.1590  0.3041
   93TMC2    O5 1459   4.377   2.800  13.698  0.1334  0.0290  0.2803
   93TMC2    H5 1460   4.431   2.741  13.640  0.6019  0.3398  0.3957
   94MPD2     C 1461   4.060   2.083  14.027 -0.4221 -0.2795  0.5379
   94MPD2    C1 1462   4.030   2.165  13.921 -0.0143  0.3083  0.6066
   94MPD2    C2 1463   3.904   2.159  13.865 -0.5455 -0.0510 -0.0970
   94MPD2    C3 1464   3.810   2.072  13.911  0.6440 -0.6764  0.0009
   94MPD2    C4 1465   3.848   1.988  14.012 -0.2982 -0.4280 -0.4661
   94MPD2    C5 1466   3.971   1.988  14.071  0.4762  0.0156 -0.2872
   94MPD2     H 1467   3.878   2.233  13.790  0.4141  0.1305 -0.2519
   94MPD2    H1 1468   3.779   1.911  14.047 -0.0954 -0.5700 -0.3789
   94MPD2    H2 1469   4.161   2.089  14.064  0.2184  0.6295 -1.3483
   94MPD2    H3 1470   3.996   1.933  14.161 -0.2728  0.8378  0.4269
   94MPD2     N 1471   3.679   2.064  13.853 -0.6000  0.2225  0.1181
   94MPD2    H5 1472   3.615   1.997  13.896  0.5447  0.2770  1.9105
   94MPD2    N1 1473   4.119   2.268  13.871  0.2270 -0.6872 -0.5127
   94MPD2    H7 1474   4.088   2.321  13.790  1.0519 -0.5451 -0.7336
   95TMC2    C1 1475   4.070   3.899  16.214 -0.6034 -0.3849  0.0880
   95TMC2    C2 1476   4.010   3.806  16.286  0.3361 -0.6927 -0.5203
   95TMC2    C3 1477   3.994   3.834  16.417  0.4119  0.5241 -0.3824
   95TMC2    C4 1478   4.094   4.024  16.266 -0.3822  0.0153  0.2099
   95TMC2    C5 1479   4.064   4.050  16.395  0.3572 -0.0481 -0.6222
   95TMC2    C6 1480   4.026   3.951  16.480  0.0218  0.1233 -0.0683
   95TMC2     C 1481   4.114   3.872  16.079 -0.3227  0.0439  0.2983
   95TMC2     O 1482   4.148   3.966  16.014  0.0043 -0.3917  0.2002
   95TMC2     H 1483   3.984   3.705  16.259  0.1308 -1.0649  1.0354
   95TMC2    H1 1484   4.146   4.098  16.207 -1.5356  0.6234 -0.0567
   95TMC2    H2 1485   4.013   3.964  16.586 -0.2520 -1.9612  0.1532
   95TMC2    C7 1486   4.073   4.180  16.442 -0.2099 -0.8218 -0.3920
   95TMC2    C8 1487   3.932   3.738  16.504  0.3779  0.9344 -0.3371
   95TMC2    O1 1488   4.065   4.184  16.565  0.5826 -0.6671  0.1164
   95TMC2    O2 1489   3.963   3.615  16.483 -0.7079 -0.4358 -0.3739
   95TMC2    O5 1490   3.825   3.781  16.564  0.2296  0.2633 -0.1078
   95TMC2    H5 1491   3.808   3.876  16.549 -1.0134 -0.2236 -1.7793
   96MPD2     C 1492   4.303   3.553  15.729 -0.2880  0.6162  0.4115
   96MPD2    C1 1493   4.316   3.692  15.743 -0.6621  0.1271 -0.3102
   96MPD2    C2 1494   4.247   3.756  15.844 -0.4765  1.0345 -0.0809
   96MPD2    C3 1495   4.179   3.680  15.937  0.4058  0.4444  0.5935
   96MPD2    C4 1496   4.167   3.545  15.918 -0.0889  0.0753 -0.2346
   96MPD2    C5 1497   4.217   3.482  15.803 -0.4046  0.2010  0.4171
   96MPD2     H 1498   4.253   3.864  15.855 -0.3855  0.6924  3.4148
   96MPD2    H1 1499   4.119   3.482  15.992  1.4688  0.2755  0.9473
   96MPD2    H2 1500   4.355   3.504  15.647 -0.5000 -0.6954  1.0661
   96MPD2    H3 1501   4.207   3.375  15.790 -1.8579 -0.1748  4.5608
   96MPD2     N 1502   4.117   3.738  16.050 -0.4667 -0.2266 -0.1635
   96MPD2    H5 1503   4.064   3.669  16.103  0.4509  0.8368  2.1220
   96MPD2    N1 1504   4.411   3.749  15.653 -0.6119 -0.1307  0.1619
   96MPD2    H7 1505   4.470   3.692  15.594 -1.1843  0.1023 -0.6400
   97TMC2    C1 1506   1.551   1.219   0.028 -0.2746 -0.4033  0.0515
   97TMC2    C2 1507   1.434   1.174  17.726  0.2570  0.4237 -0.4736
   97TMC2    C3 1508   1.383   1.248  17.629 -0.7768  0.2322  0.5782
   97TMC2    C4 1509   1.629   1.317  17.719 -0.1191 -0.0465 -0.2395
   97TMC2    C5 1510   1.575   1.385  17.620 -0.1515  0.4667  1.2956
   97TMC2    C6 1511   1.451   1.355  17.580  0.4899 -0.1983  0.3835
   97TMC2     C 1512   1.592   1.145   0.148  0.7654  0.8709  0.1206
   97TMC2     O 1513   1.556   1.029   0.166 -0.1701 -0.5076 -0.3612
   97TMC2     H 1514   1.381   1.088   0.020 -0.2349  0.8032 -0.3052
   97TMC2    H1 1515   1.731   1.336   0.006 -0.1220 -0.4578  0.0163
   97TMC2    H2 1516   1.416   1.398  17.486  2.0232  1.1747  0.4472
   97TMC2    C7 1517   1.603   1.528  17.628  0.0531  0.6342  0.6799
   97TMC2    C8 1518   1.257   1.221  17.571 -0.8845 -0.1603  0.5706
   97TMC2    O1 1519   1.713   1.545  17.684 -0.8108  0.0682 -0.3150
   97TMC2    O2 1520   1.227   1.213  17.453 -0.6025 -0.0523 -0.0315
   97TMC2    O5 1521   1.167   1.213  17.672  0.2003  0.5863  0.4997
   97TMC2    H5 1522   1.199   1.190   0.017 -2.5819  2.4732  1.9612
   98MPD2     C 1523   1.753   1.214   0.646 -0.3484  0.1979  0.0813
   98MPD2    C1 1524   1.704   1.095   0.590  0.1042 -0.1834 -0.1046
   98MPD2    C2 1525   1.660   1.094   0.456  0.0380  0.0979 -0.9586
   98MPD2    C3 1526   1.667   1.212   0.379 -0.1359 -0.8286 -0.7151
   98MPD2    C4 1527   1.726   1.320   0.437 -0.4496 -0.6091 -0.0610
   98MPD2    C5 1528   1.769   1.326   0.569 -0.0210 -0.3821 -0.7033
   98MPD2     H 1529   1.621   1.011   0.397  1.4087 -2.2359  1.3878
   98MPD2    H1 1530   1.730   1.412   0.380  3.1442 -0.2672  0.7490
   98MPD2    H2 1531   1.785   1.204   0.749 -2.0991  1.1785  0.7157
   98MPD2    H3 1532   1.818   1.415   0.607 -0.2402 -1.0213  1.0691
   98MPD2     N 1533   1.635   1.239   0.242 -0.6510  0.3143  0.8126
   98MPD2    H5 1534   1.641   1.336   0.211 -1.5270 -0.2606 -1.1443
   98MPD2    N1 1535   1.679   0.982   0.680 -0.3443  0.1203 -0.7119
   98MPD2    H7 1536   1.719   0.991   0.773 -3.1484 -0.3441  0.5180
   99TMC2    C1 1537   4.711   3.622   0.874  0.2292 -0.5522  0.2617
   99TMC2    C2 1538   4.730   3.751   0.843  0.8574  0.0662  0.2492
   99TMC2    C3 1539   4.651   3.834   0.918 -0.0957  0.8362  1.3302
   99TMC2    C4 1540   4.614   3.576   0.958  0.4428 -1.4125  0.6237
   99TMC2    C5 1541   4.522   3.660   1.014  0.0061  0.4307 -0.2010
   99TMC2    C6 1542   4.544   3.796   0.992 -0.5257  0.2178 -0.1859
   99TMC2     C 1543   0.080   3.534   0.840 -0.0306  0.2088  0.1997
   99TMC2     O 1544   0.193   3.565   0.861  0.2933 -0.0065 -0.0286
   99TMC2     H 1545   0.053   3.791   0.762  0.2347 -0.8121 -0.6393
   99TMC2    H1 1546   4.615   3.471   0.986  2.0362 -0.9949  2.1462
   99TMC2    H2 1547   4.479   3.870   1.036 -1.7954  0.0800 -1.8273
   99TMC2    C7 1548   4.393   3.613   1.067 -0.3339 -0.1353  0.2807
   99TMC2    C8 1549   4.644   3.979   0.890  0.3393  0.6427 -0.5209
   99TMC2    O1 1550   4.327   3.705   1.110 -0.2409 -0.1301  0.0446
   99TMC2    O2 1551   4.537   4.041   0.885 -0.2578 -0.0971 -0.4896
   99TMC2    O5 1552   0.026   4.009   0.836 -0.4015  0.1301 -0.2906
   99TMC2    H5 1553   0.083   3.950   0.890 -1.0192  1.5557  1.9278
  100MPD2     C 1554   0.250   3.293   0.777 -0.4874  0.7386 -0.4488
  100MPD2    C1 1555   0.112   3.290   0.773  0.0543 -0.5979  0.2642
  100MPD2    C2 1556   0.057   3.166   0.753  0.9794  0.2391  0.2625
  100MPD2    C3 1557   0.131   3.047   0.740 -0.5571  0.2636 -0.0562
  100MPD2    C4 1558   0.272   3.051   0.730 -0.0368 -0.5186 -0.3338
  100MPD2    C5 1559   0.325   3.179   0.744 -0.8314 -0.0460  0.2395
  100MPD2     H 1560   4.685   3.163   0.747  0.9591 -2.0231  1.6841
  100MPD2    H1 1561   0.336   2.967   0.707 -0.5607 -1.2055  0.6811
  100MPD2    H2 1562   0.307   3.382   0.801  2.2480 -0.6628 -1.7118
  100MPD2    H3 1563   0.432   3.190   0.732 -0.8927 -0.2698 -0.5038
  100MPD2     N 1564   0.059   2.927   0.736  0.3528 -0.3929  0.6170
  100MPD2    H5 1565   4.699   2.944   0.710  0.2625  0.2516  1.3711
  100MPD2    N1 1566   0.038   3.417   0.781  0.6428 -0.5637 -0.3061
  100MPD2    H7 1567   4.673   3.410   0.775  0.6873 -1.4806 -0.0250
  101TMC2    C1 1568   0.916   4.505  13.421 -0.1180 -0.0306 -0.0624
  101TMC2    C2 1569   0.971   4.545  13.541 -0.5668  0.1026 -0.7352
  101TMC2    C3 1570   1.106   4.570  13.531  0.0159  0.5035 -0.1326
  101TMC2    C4 1571   0.977   4.504  13.299 -0.6397 -0.1746 -0.2551
  101TMC2    C5 1572   1.107   4.552  13.305  0.8172  0.3413  0.5988
  101TMC2    C6 1573   1.179   4.575  13.415  0.0445  0.5512  0.0376
  101TMC2     C 1574   0.819   4.400  13.441 -0.6661 -0.0398  1.3885
  101TMC2     O 1575   0.744   4.397  13.540 -0.4272  0.1701 -0.9387
  101TMC2     H 1576   0.918   4.529  13.634 -1.6583  2.1293 -1.0172
  101TMC2    H1 1577   0.920   4.497  13.207 -0.8225  2.1771 -0.3275
  101TMC2    H2 1578   1.280   4.613  13.427 -0.8737  2.8009  0.6892
  101TMC2    C7 1579   1.157   4.628  13.191  0.5804 -0.5629 -0.9515
  101TMC2    C8 1580   1.157   4.613  13.657 -0.7737 -0.1826 -0.1863
  101TMC2    O1 1581   1.202   4.736  13.224  0.0628 -0.1015 -0.0374
  101TMC2    O2 1582   1.277   4.618  13.667  0.3030  0.0838 -0.0727
  101TMC2    O5 1583   1.074   4.716  13.674  0.4821  0.0841  0.3530
  101TMC2    H5 1584   0.978   4.699  13.666  0.6519 -1.1301  0.8148
  102MPD2     C 1585   0.861   4.064  13.295 -0.8784  0.4202 -0.5989
  102MPD2    C1 1586   0.795   4.169  13.350  0.1963 -0.9472 -0.4612
  102MPD2    C2 1587   0.664   4.161  13.392  0.5505 -0.8684 -0.2259
  102MPD2    C3 1588   0.587   4.047  13.378 -0.1134 -0.0106 -0.2642
  102MPD2    C4 1589   0.648   3.941  13.316 -0.5836 -0.5886  0.2462
  102MPD2    C5 1590   0.782   3.954  13.273 -0.0281 -0.1794 -0.0281
  102MPD2     H 1591   0.606   4.245  13.429 -0.1051  0.2614 -3.8529
  102MPD2    H1 1592   0.594   3.851  13.291 -0.4768  0.1533 -2.7911
  102MPD2    H2 1593   0.956   4.073  13.243 -1.3231 -1.2805 -1.7130
  102MPD2    H3 1594   0.819   3.871  13.214  0.2886 -0.2774  0.3044
  102MPD2     N 1595   0.451   4.054  13.425 -0.1393 -0.3696 -0.0742
  102MPD2    H5 1596   0.415   4.140  13.466  2.4199  1.1324 -0.9988
  102MPD2    N1 1597   0.857   4.296  13.358 -0.3456  0.7133 -0.3954
  102MPD2    H7 1598   0.947   4.298  13.312  0.9630 -0.9474  2.0803
  103TMC2    C1 1599   3.617   4.518  12.816 -0.0029 -0.0167  0.3234
  103TMC2    C2 1600   3.729   4.511  12.739  0.5426 -0.6788  0.5490
  103TMC2    C3 1601   3.852   4.550  12.786 -0.8628 -0.3455  0.8835
  103TMC2    C4 1602   3.620   4.565  12.940  0.1782 -0.2896  0.3413
  103TMC2    C5 1603   3.741   4.604  12.987 -0.5152 -0.3792 -0.0790
  103TMC2    C6 1604   3.857   4.594  12.919 -0.4802  0.8527 -0.6466
  103TMC2     C 1605   3.496   4.479  12.743 -0.6766 -0.7284 -0.6693
  103TMC2     O 1606   3.502   4.458  12.627 -0.3430 -0.8434  0.3994
  103TMC2     H 1607   3.721   4.485  12.634 -1.1764  1.3098  0.1805
  103TMC2    H1 1608   3.534   4.593  13.001  0.8965 -1.5531  1.9422
  103TMC2    H2 1609   3.949   4.604  12.975 -0.1015 -0.1604 -1.0967
  103TMC2    C7 1610   3.746   4.715  13.077  0.0755 -0.9309  0.3641
  103TMC2    C8 1611   3.975   4.514  12.719  0.0978  0.1000  0.4268
  103TMC2    O1 1612   3.835   4.731  13.159  0.0413 -0.0678 -0.3454
  103TMC2    O2 1613   3.977   4.434  12.627  0.4907  0.1911 -0.2112
  103TMC2    O5 1614   4.059   4.612  12.730  0.2559  0.0998  0.1605
  103TMC2    H5 1615   4.028   4.676  12.797  0.9262  2.1778 -1.4974
  104MPD2     C 1616   3.155   4.411  12.855 -0.2087 -0.5212 -0.9952
  104MPD2    C1 1617   3.249   4.418  12.760 -0.3272 -0.6915  0.3938
  104MPD2    C2 1618   3.213   4.394  12.627 -0.8525  0.4031  0.6922
  104MPD2    C3 1619   3.079   4.343  12.608  0.4709 -1.1079  0.4151
  104MPD2    C4 1620   2.990   4.333  12.712 -0.2320 -0.2803 -0.1239
  104MPD2    C5 1621   3.025   4.373  12.838  0.2175 -0.1106 -0.5387
  104MPD2     H 1622   3.283   4.398  12.544  0.9030 -1.4800  2.0522
  104MPD2    H1 1623   2.886   4.309  12.692  0.3212 -1.4999 -1.5031
  104MPD2    H2 1624   3.193   4.427  12.955  1.0399  0.0751 -1.5732
  104MPD2    H3 1625   2.960   4.378  12.925  0.6477  2.1330 -0.3572
  104MPD2     N 1626   3.045   4.324  12.474  0.6030 -0.0686  0.5214
  104MPD2    H5 1627   3.107   4.350  12.399  1.5725  0.4830  1.5058
  104MPD2    N1 1628   3.381   4.457  12.814  0.1686 -0.1255 -0.2735
  104MPD2    H7 1629   3.382   4.455  12.915 -1.3433  1.0101 -0.2399
  105TMC2    C1 1630   0.418   3.244  17.159 -0.5061 -0.2174  0.1884
  105TMC2    C2 1631   0.362   3.142  17.092 -0.7548  0.0037  0.2780
  105TMC2    C3 1632   0.249   3.086  17.147  0.3401  0.1091 -0.6344
  105TMC2    C4 1633   0.364   3.291  17.277 -0.5262 -0.5984 -0.2621
  105TMC2    C5 1634   0.255   3.229  17.328  0.8538  0.5818 -1.0026
  105TMC2    C6 1635   0.187   3.131  17.262 -0.2382 -0.4058 -0.1574
  105TMC2     C 1636   0.537   3.305  17.107 -0.0851  0.1129 -0.0163
  105TMC2     O 1637   0.639   3.241  17.106 -0.3913 -0.3324 -0.3551
  105TMC2     H 1638   0.395   3.112  16.993 -2.3228 -1.0078  0.0605
  105TMC2    H1 1639   0.411   3.373  17.332 -0.4046 -3.1262  3.4241
  105TMC2    H2 1640   0.089   3.089  17.279 -1.4995  3.5624  2.4991
  105TMC2    C7 1641   0.205   3.273  17.457  0.0633 -0.1685  0.9953
  105TMC2    C8 1642   0.168   3.018  17.058  0.1375  0.0173 -0.1526
  105TMC2    O1 1643   0.250   3.372  17.506  0.4741  0.1199 -0.4291
  105TMC2    O2 1644   0.046   3.035  17.040 -0.2699 -0.4287 -0.5518
  105TMC2    O5 1645   0.241   2.928  16.991  0.0336  0.5909  0.2522
  105TMC2    H5 1646   0.334   2.923  17.019  0.0367 -0.0858  0.1286
  106MPD2     C 1647   0.772   3.735  16.949 -0.8973 -0.6815  0.2661
  106MPD2    C1 1648   0.643   3.760  16.941 -0.2642  0.1799  0.4836
  106MPD2    C2 1649   0.553   3.665  17.000 -0.2917  0.6726 -0.3374
  106MPD2    C3 1650   0.602   3.544  17.042  0.5731 -0.5651  0.3559
  106MPD2    C4 1651   0.739   3.516  17.033 -0.3142 -0.9530 -0.8450
  106MPD2    C5 1652   0.823   3.615  16.993 -0.0249 -0.1290 -0.0240
  106MPD2     H 1653   0.447   3.687  16.991 -0.5321 -0.7766 -1.1777
  106MPD2    H1 1654   0.785   3.432  17.084 -0.3508 -1.5296 -1.7768
  106MPD2    H2 1655   0.845   3.797  16.899 -0.3556  0.0270  1.9247
  106MPD2    H3 1656   0.929   3.594  17.003  0.2827  1.5782  0.2063
  106MPD2     N 1657   0.506   3.444  17.084  0.7467  0.5468  0.0776
  106MPD2    H5 1658   0.409   3.472  17.084  0.3851 -0.7527 -1.8008
  106MPD2    N1 1659   0.587   3.875  16.879 -0.5063 -0.2921 -0.3699
  106MPD2    H7 1660   0.486   3.886  16.880 -0.4577  0.2123 -1.7203
  107TMC2    C1 1661   0.703   3.980  11.577 -0.1332  0.0176  0.0943
  107TMC2    C2 1662   0.623   4.087  11.576 -0.6363  0.0834  0.0140
  107TMC2    C3 1663   0.614   4.153  11.460  0.2615  0.4342 -0.1042
  107TMC2    C4 1664   0.772   3.930  11.469 -0.3079 -0.7332  0.2197
  107TMC2    C5 1665   0.752   3.993  11.346  0.2237  0.5624  0.3761
  107TMC2    C6 1666   0.670   4.102  11.346 -0.7430 -0.8354 -0.1873
  107TMC2     C 1667   0.778   3.952  11.703  0.1749  0.7499  0.0159
  107TMC2     O 1668   0.895   3.917  11.698  0.6369  0.2225 -0.2561
  107TMC2     H 1669   0.569   4.125  11.662  0.0993  1.9127 -0.3222
  107TMC2    H1 1670   0.835   3.843  11.485 -0.4987 -1.2569 -1.8002
  107TMC2    H2 1671   0.650   4.143  11.248  0.0583  3.0580  1.2794
  107TMC2    C7 1672   0.800   3.930  11.223  0.1554  0.7293 -0.1263
  107TMC2    C8 1673   0.492   4.233  11.448 -0.5266 -0.0015  0.5959
  107TMC2    O1 1674   0.731   3.947  11.123 -0.2407  0.6150  0.5640
  107TMC2    O2 1675   0.449   4.280  11.552 -0.7004  0.2279  0.8377
  107TMC2    O5 1676   0.410   4.152  11.371  0.1518 -0.4722  0.4289
  107TMC2    H5 1677   0.452   4.077  11.324 -0.6461  0.2230 -1.4069
  108MPD2     C 1678   0.881   3.945  11.982 -0.3453 -0.0457 -0.6604
  108MPD2    C1 1679   0.744   3.929  11.942 -0.2498 -0.6518  0.2349
  108MPD2    C2 1680   0.652   3.888  12.040 -0.0023  0.1580  0.2914
  108MPD2    C3 1681   0.693   3.860  12.168 -0.2147 -0.2255  0.1686
  108MPD2    C4 1682   0.824   3.880  12.203 -0.0612  0.9312 -0.3750
  108MPD2    C5 1683   0.916   3.914  12.111  0.2483 -0.9903  0.0968
  108MPD2     H 1684   0.550   3.865  12.010  0.6120 -0.1287 -1.5696
  108MPD2    H1 1685   0.863   3.859  12.302  0.1583  2.6097 -0.1016
  108MPD2    H2 1686   0.958   3.982  11.916  0.2772 -0.9196 -0.4236
  108MPD2    H3 1687   1.020   3.915  12.142  0.6134  0.7833 -1.1724
  108MPD2     N 1688   0.614   3.812  12.270  0.6384  0.0521 -0.1584
  108MPD2    H5 1689   0.663   3.794  12.357 -1.0408 -1.0497  0.5632
  108MPD2    N1 1690   0.698   3.956  11.813  0.2553 -0.3246 -0.2778
  108MPD2    H7 1691   0.599   3.958  11.789 -0.2695  1.4698  2.0886
  109TMC2    C1 1692   0.913   0.705   1.676 -0.4996  0.4105  0.7850
  109TMC2    C2 1693   1.007   0.690   1.777  0.1090 -0.3754 -0.3201
  109TMC2    C3 1694   1.126   0.638   1.737  0.8197  0.2498 -0.6487
  109TMC2    C4 1695   0.937   0.678   1.543 -0.1744  0.2724 -0.3080
  109TMC2    C5 1696   1.054   0.625   1.512  0.7579  0.3239  0.1878
  109TMC2    C6 1697   1.153   0.608   1.608  0.1120 -0.3217  0.2787
  109TMC2     C 1698   0.779   0.752   1.720  1.0115 -0.3433 -0.5953
  109TMC2     O 1699   0.758   0.778   1.838  0.4843  0.2440 -0.0650
  109TMC2     H 1700   0.981   0.715   1.880 -2.0783  0.5883 -1.0971
  109TMC2    H1 1701   0.876   0.718   1.463 -1.7220 -0.6866  0.3840
  109TMC2    H2 1702   1.247   0.559   1.586 -0.1402  0.2165 -2.0165
  109TMC2    C7 1703   1.098   0.611   1.381 -0.2824 -0.6038 -0.9142
  109TMC2    C8 1704   1.236   0.607   1.826 -0.1537  0.6494  0.5002
  109TMC2    O1 1705   1.220   0.604   1.378  0.7451 -0.3116 -0.3111
  109TMC2    O2 1706   1.354   0.599   1.795 -0.0967  0.0202 -0.1931
  109TMC2    O5 1707   1.188   0.615   1.957  0.2227 -0.0363  0.3800
  109TMC2    H5 1708   1.091   0.609   1.958  0.2934 -0.5737  3.3225
  110MPD2     C 1709   0.275   0.807   1.605 -0.8518  0.4113  0.2873
  110MPD2    C1 1710   0.340   0.724   1.518 -0.4013 -0.4164 -0.1217
  110MPD2    C2 1711   0.474   0.703   1.539 -0.8689 -0.3885 -0.2229
  110MPD2    C3 1712   0.549   0.752   1.633  0.2764 -0.3228 -0.0386
  110MPD2    C4 1713   0.490   0.843   1.718  1.1291  0.0087  0.5074
  110MPD2    C5 1714   0.356   0.869   1.702 -0.8432 -0.1274 -0.3771
  110MPD2     H 1715   0.529   0.628   1.482 -1.0991 -1.2129  0.6275
  110MPD2    H1 1716   0.532   0.884   1.809  0.3626  2.2141 -0.1367
  110MPD2    H2 1717   0.172   0.840   1.595 -0.2644  1.9381 -0.7671
  110MPD2    H3 1718   0.306   0.929   1.777  0.2050 -1.4082  1.3401
  110MPD2     N 1719   0.688   0.728   1.620  0.5837 -0.4147 -0.0272
  110MPD2    H5 1720   0.713   0.654   1.555 -0.6557  0.9125 -2.0375
  110MPD2    N1 1721   0.266   0.657   1.414 -0.0017 -0.2662 -0.3391
  110MPD2    H7 1722   0.165   0.660   1.418 -0.1014 -1.9070 -1.3803
  111TMC2    C1 1723   0.985   0.875  12.013 -0.2488 -0.0161 -0.4758
  111TMC2    C2 1724   0.865   0.869  12.075 -0.1980  0.2273  0.2077
  111TMC2    C3 1725   0.863   0.864  12.213 -0.4736  0.5600 -0.6428
  111TMC2    C4 1726   1.105   0.872  12.075 -0.2816  0.9712 -0.4242
  111TMC2    C5 1727   1.097   0.879  12.213 -0.0206 -0.4087  0.0041
  111TMC2    C6 1728   0.979   0.876  12.278  0.6104 -0.2676  0.3867
  111TMC2     C 1729   0.982   0.830  11.875  0.1638 -0.3752 -0.5831
  111TMC2     O 1730   0.995   0.914  11.791  0.1013 -0.0005 -0.4426
  111TMC2     H 1731   0.777   0.895  12.019  0.0431  2.1051  0.7110
  111TMC2    H1 1732   1.196   0.871  12.017  1.0377  0.3728  1.6558
  111TMC2    H2 1733   0.982   0.889  12.386 -1.4818 -3.3417  0.7848
  111TMC2    C7 1734   1.212   0.818  12.286 -0.7531 -0.5123  0.0068
  111TMC2    C8 1735   0.734   0.883  12.283 -0.3040 -0.1670  0.2263
  111TMC2    O1 1736   1.191   0.764  12.392 -0.6235 -0.0758  0.3067
  111TMC2    O2 1737   0.719   0.894  12.403  0.2177 -0.4915  0.2178
  111TMC2    O5 1738   0.647   0.826  12.203  0.0770  0.4941  0.6988
  111TMC2    H5 1739   0.679   0.783  12.121 -0.9937  1.3554 -0.1535
  112MPD2     C 1740   1.193   0.453  11.603  0.1569 -0.7211  0.0815
  112MPD2    C1 1741   1.156   0.577  11.559  0.0911  0.1009  0.5015
  112MPD2    C2 1742   1.094   0.668  11.641  0.8273 -0.2746 -0.3747
  112MPD2    C3 1743   1.051   0.616  11.763 -0.5285  0.3002  0.0473
  112MPD2    C4 1744   1.068   0.488  11.798  0.3843 -0.4699  0.0684
  112MPD2    C5 1745   1.137   0.398  11.718 -0.4238 -0.4323 -0.2073
  112MPD2     H 1746   1.083   0.775  11.627  1.4863 -0.2642 -0.8114
  112MPD2    H1 1747   1.024   0.446  11.888  1.2984 -0.8905  0.3187
  112MPD2    H2 1748   1.251   0.376  11.554 -0.1327 -0.3775 -0.8070
  112MPD2    H3 1749   1.161   0.292  11.723  1.8230 -0.0565 -2.7110
  112MPD2     N 1750   0.986   0.694  11.865 -0.2508 -0.1626 -0.5019
  112MPD2    H5 1751   0.972   0.645  11.953 -2.2072 -0.0228 -0.7405
  112MPD2    N1 1752   1.192   0.613  11.426 -0.2513  0.1341  0.1063
  112MPD2    H7 1753   1.157   0.702  11.393 -0.0431  0.5212  0.9434
  113TMC2    C1 1754   3.538   2.807   0.575  0.2631  0.3924  0.4743
  113TMC2    C2 1755   3.427   2.837   0.642  0.2978 -0.0028  0.3650
  113TMC2    C3 1756   3.319   2.763   0.599  0.0471 -0.1853 -0.1419
  113TMC2    C4 1757   3.547   2.732   0.461 -0.1618  0.4638  0.2135
  113TMC2    C5 1758   3.441   2.658   0.426 -0.1628 -0.0479 -0.3425
  113TMC2    C6 1759   3.322   2.678   0.494 -0.1261  0.3652 -0.3102
  113TMC2     C 1760   3.658   2.884   0.621  0.5113  0.2944  0.0633
  113TMC2     O 1761   3.636   2.993   0.666  0.1779 -0.0037 -0.9129
  113TMC2     H 1762   3.409   2.909   0.721 -1.2446 -2.0319  1.8609
  113TMC2    H1 1763   3.639   2.713   0.408 -1.3756 -0.6818 -1.5011
  113TMC2    H2 1764   3.231   2.625   0.469 -0.1818  1.2015 -1.8915
  113TMC2    C7 1765   3.489   2.520   0.399 -0.3335  0.3898 -0.6300
  113TMC2    C8 1766   3.196   2.762   0.684 -0.0750 -0.1613 -0.3894
  113TMC2    O1 1767   3.554   2.495   0.300 -0.4439  0.4468 -0.3962
  113TMC2    O2 1768   3.082   2.793   0.648 -0.1642 -0.1945  0.3791
  113TMC2    O5 1769   3.241   2.774   0.806  0.5731 -0.1082  0.0664
  113TMC2    H5 1770   3.328   2.729   0.805  0.2324 -0.7341 -1.3442
  114MPD2     C 1771   4.152   2.972   0.693 -0.3591 -0.4758 -0.6902
  114MPD2    C1 1772   4.043   3.053   0.687 -0.3831 -1.0346  0.3382
  114MPD2    C2 1773   3.913   3.013   0.655  0.2124  0.4544 -0.7864
  114MPD2    C3 1774   3.903   2.878   0.631  0.1025 -0.2272 -0.0911
  114MPD2    C4 1775   4.010   2.794   0.635  0.1510 -0.3727 -0.5289
  114MPD2    C5 1776   4.137   2.843   0.662 -0.1198 -0.3650  0.4347
  114MPD2     H 1777   3.839   3.092   0.648 -0.7292 -0.3164  0.4400
  114MPD2    H1 1778   4.001   2.696   0.592  0.6969 -0.1335 -1.1886
  114MPD2    H2 1779   4.253   3.006   0.715 -0.5541 -0.5786  0.3440
  114MPD2    H3 1780   4.223   2.779   0.644  0.1663 -0.0944  0.8313
  114MPD2     N 1781   3.776   2.819   0.598 -0.3904 -0.1093  0.3403
  114MPD2    H5 1782   3.774   2.724   0.562  3.6721  0.6462 -1.7886
  114MPD2    N1 1783   4.066   3.194   0.695 -0.4068  0.2665 -0.4521
  114MPD2    H7 1784   3.980   3.247   0.684 -0.5443  0.1199 -0.1038
  115TMC2    C1 1785   4.669   0.439  17.624 -0.2956 -0.7973  0.2789
  115TMC2    C2 1786   0.062   0.400  17.600  0.6442  0.5133  0.5775
  115TMC2    C3 1787   0.161   0.498  17.582 -0.8412  0.6184 -0.1315
  115TMC2    C4 1788   4.638   0.571  17.633 -0.8083 -0.2305 -0.1204
  115TMC2    C5 1789   4.732   0.664  17.614 -0.1652  0.0358 -0.2706
  115TMC2    C6 1790   0.129   0.629  17.601  0.0132  0.2795 -0.4537
  115TMC2     C 1791   4.558   0.340  17.590  0.2236 -0.8004  0.0644
  115TMC2     O 1792   4.463   0.379  17.523  0.7687  0.5876 -0.4535
  115TMC2     H 1793   0.089   0.300  17.569  0.6151  0.5012  0.5911
  115TMC2    H1 1794   4.532   0.592  17.633 -0.1965  2.8774 -0.3388
  115TMC2    H2 1795   0.203   0.707  17.586 -0.7270  1.4832  2.1021
  115TMC2    C7 1796   4.691   0.781  17.686 -0.1595 -0.2998 -0.2701
  115TMC2    C8 1797   0.292   0.451  17.617  0.0178  0.2017  0.7056
  115TMC2    O1 1798   4.593   0.770   0.016  0.1322 -0.5951 -0.3186
  115TMC2    O2 1799   0.335   0.456  17.731 -0.4934  0.1088  0.1526
  115TMC2    O5 1800   0.315   0.362  17.524  0.5073  0.2164  0.2357
  115TMC2    H5 1801   0.270   0.378  17.438 -0.2686 -1.0615  0.4034
  116MPD2     C 1802   4.508   4.597  17.426 -0.5853  0.1298  0.8394
  116MPD2    C1 1803   4.445   4.710  17.387 -0.5863 -0.6599 -0.7761
  116MPD2    C2 1804   4.478   0.098  17.444 -0.8266  0.7126 -0.6558
  116MPD2    C3 1805   4.560   0.100  17.556 -0.2275  0.8121  0.3754
  116MPD2    C4 1806   4.618   4.716  17.596 -0.2450 -0.4807  1.2719
  116MPD2    C5 1807   4.589   4.599  17.533  0.0008 -0.3637 -0.4336
  116MPD2     H 1808   4.442   0.183  17.388  0.0333  2.2706  1.1379
  116MPD2    H1 1809   4.690   4.709  17.677  0.0746  0.5355  1.0812
  116MPD2    H2 1810   4.494   4.501  17.380 -1.3750 -0.2068  1.7733
  116MPD2    H3 1811   4.633   4.506  17.568  0.3970  0.1620  0.4629
  116MPD2     N 1812   4.605   0.216  17.618  0.2632 -0.1671 -0.2593
  116MPD2    H5 1813   4.673   0.207  17.693 -1.0411 -0.1501  0.9117
  116MPD2    N1 1814   4.371   4.702  17.266 -0.3051 -0.3757  0.3140
  116MPD2    H7 1815   4.377   4.608  17.228  3.5165 -0.2260  0.4969
  117TMC2    C1 1816   3.842   2.276  14.405  0.2650 -0.0257  0.2129
  117TMC2    C2 1817   3.928   2.254  14.510  0.0760 -0.1434 -0.7080
  117TMC2    C3 1818   3.980   2.357  14.580 -0.3045 -0.1312  0.2801
  117TMC2    C4 1819   3.790   2.401  14.374 -0.0411 -0.6684  0.4388
  117TMC2    C5 1820   3.832   2.493  14.459  0.3032  0.5415  0.1682
  117TMC2    C6 1821   3.936   2.481  14.552  1.0481 -0.1095 -0.5902
  117TMC2     C 1822   3.777   2.160  14.349 -0.7999  0.0782 -0.0207
  117TMC2     O 1823   3.809   2.048  14.384 -0.1561 -0.0988  0.1306
  117TMC2     H 1824   3.947   2.152  14.541  1.2064  0.4682  0.6330
  117TMC2    H1 1825   3.718   2.425  14.297 -0.9562  0.9267  1.8055
  117TMC2    H2 1826   3.970   2.572  14.599  1.7957 -0.7460  0.0962
  117TMC2    C7 1827   3.783   2.631  14.443  0.0303  0.3614 -0.3061
  117TMC2    C8 1828   4.028   2.336  14.714 -0.6539 -1.0036 -0.2275
  117TMC2    O1 1829   3.854   2.729  14.468 -0.8985  0.1367  0.6176
  117TMC2    O2 1830   3.958   2.310  14.811 -0.1109 -0.3507  0.0120
  117TMC2    O5 1831   4.142   2.410  14.719 -0.0298 -0.0836  0.0815
  117TMC2    H5 1832   4.185   2.413  14.631  0.8134  3.2762  0.5868
  118MPD2     C 1833   3.439   2.736  14.362 -0.1752  0.5223  0.2741
  118MPD2    C1 1834   3.575   2.754  14.382 -0.3923  0.5195 -0.7211
  118MPD2    C2 1835   3.612   2.889  14.391 -0.2470 -0.3804  0.0907
  118MPD2    C3 1836   3.533   2.999  14.354  0.8590  0.1353  0.0887
  118MPD2    C4 1837   3.397   2.972  14.328  0.7227 -0.8619 -0.1812
  118MPD2    C5 1838   3.357   2.844  14.327 -0.8820 -0.5414  0.0058
  118MPD2     H 1839   3.717   2.906  14.416 -0.1687 -1.7788  0.7325
  118MPD2    H1 1840   3.321   3.045  14.304  1.5290  0.4696  1.3194
  118MPD2    H2 1841   3.397   2.637  14.358 -0.3847  0.5958  0.6678
  118MPD2    H3 1842   3.251   2.827  14.316 -0.3884 -3.2478 -0.5604
  118MPD2     N 1843   3.579   3.130  14.361 -0.2735  0.5136 -0.0025
  118MPD2    H5 1844   3.508   3.201  14.347 -0.7759  0.1386  0.6756
  118MPD2    N1 1845   3.649   2.636  14.414 -0.3767  0.4948  0.5982
  118MPD2    H7 1846   3.604   2.545  14.405  0.3429  0.0104  1.8658
  119TMC2    C1 1847   1.491   3.384  13.588  0.4617  0.5395  0.4672
  119TMC2    C2 1848   1.547   3.272  13.628  0.2321 -0.0978  0.2845
  119TMC2    C3 1849   1.464   3.182  13.690  0.0519  0.0756 -0.5177
  119TMC2    C4 1850   1.354   3.394  13.586  0.1445  0.2447  0.1560
  119TMC2    C5 1851   1.279   3.298  13.648 -0.2249  0.1681 -1.0680
  119TMC2    C6 1852   1.332   3.192  13.713  0.1336 -0.8394 -0.4816
  119TMC2     C 1853   1.571   3.508  13.582  0.2950 -0.1628 -0.1344
  119TMC2     O 1854   1.505   3.613  13.579 -0.1661  0.3351  0.0977
  119TMC2     H 1855   1.654   3.255  13.629  0.1278 -0.6713  1.6868
  119TMC2    H1 1856   1.309   3.488  13.556  0.8156  0.7444  0.7173
  119TMC2    H2 1857   1.279   3.112  13.764 -2.5853 -0.5326 -2.7902
  119TMC2    C7 1858   1.143   3.327  13.681  0.2039  0.6650 -0.1865
  119TMC2    C8 1859   1.527   3.064  13.734  0.3892  0.0100  0.8792
  119TMC2    O1 1860   1.087   3.405  13.604 -0.2294  0.0209 -0.0501
  119TMC2    O2 1861   1.475   2.990  13.813  0.3148  0.2809  0.1582
  119TMC2    O5 1862   1.620   3.031  13.643  0.5321 -0.2291  0.2690
  119TMC2    H5 1863   1.613   3.084  13.561  0.6249  0.6508  0.8299
  120MPD2     C 1864   1.994   3.785  13.635  0.3106 -0.0979  0.3629
  120MPD2    C1 1865   1.871   3.797  13.696 -0.5556 -0.8954  0.7946
  120MPD2    C2 1866   1.773   3.699  13.665  0.6066  0.3857 -0.0568
  120MPD2    C3 1867   1.796   3.587  13.580  0.4564  0.4499  0.0671
  120MPD2    C4 1868   1.919   3.583  13.521 -0.8606 -0.1782 -0.2142
  120MPD2    C5 1869   2.015   3.681  13.543 -0.0566  0.4391  0.2554
  120MPD2     H 1870   1.672   3.708  13.703 -0.2521 -0.8136 -2.0852
  120MPD2    H1 1871   1.935   3.508  13.444 -0.2786 -0.3798  0.1041
  120MPD2    H2 1872   2.079   3.851  13.646 -1.2256  2.1093 -0.9380
  120MPD2    H3 1873   2.111   3.669  13.494  0.3488  1.1610  0.8712
  120MPD2     N 1874   1.698   3.491  13.562 -0.4389 -0.1720  0.3438
  120MPD2    H5 1875   1.732   3.403  13.524 -0.4447  0.0083 -0.0683
  120MPD2    N1 1876   1.842   3.906  13.789  0.2458  0.1760 -0.2313
  120MPD2    H7 1877   1.908   3.983  13.780  0.2529  0.0656 -1.1742
  121TMC2    C1 1878   3.332   0.803  14.127  0.8002  0.3510  0.3005
  121TMC2    C2 1879   3.453   0.788  14.191  0.0763  0.3525  0.7393
  121TMC2    C3 1880   3.460   0.673  14.262  0.4158 -0.0299  0.3415
  121TMC2    C4 1881   3.249   0.702  14.097  0.4456  0.3526 -0.6302
  121TMC2    C5 1882   3.269   0.586  14.168 -0.0485  0.0491 -0.9732
  121TMC2    C6 1883   3.375   0.567  14.246  1.1964 -0.0695 -0.5867
  121TMC2     C 1884   3.278   0.937  14.131 -0.0481 -0.1301 -0.0464
  121TMC2     O 1885   3.264   0.994  14.239  0.0851 -0.0164 -0.6815
  121TMC2     H 1886   3.508   0.880  14.209  1.1650 -0.3953  1.2638
  121TMC2    H1 1887   3.163   0.736  14.041 -0.3694  1.2295  1.1823
  121TMC2    H2 1888   3.375   0.491  14.324 -0.7758 -1.0427 -1.5369
  121TMC2    C7 1889   3.167   0.483  14.175  0.0892  0.2981 -0.2469
  121TMC2    C8 1890   3.556   0.666  14.369 -0.4201  0.1146  0.0125
  121TMC2    O1 1891   3.173   0.394  14.259  0.3800  0.2045  0.4135
  121TMC2    O2 1892   3.560   0.569  14.445  0.3773 -0.2453  0.8025
  121TMC2    O5 1893   3.670   0.736  14.329 -0.0950  0.0036 -0.2640
  121TMC2    H5 1894   3.656   0.815  14.272 -1.0253 -0.5269 -0.7712
  122MPD2     C 1895   3.217   1.223  14.073 -0.2761  0.6912  0.2293
  122MPD2    C1 1896   3.261   1.129  13.983 -0.2973 -0.4426 -0.1127
  122MPD2    C2 1897   3.269   1.164  13.852  0.2014 -0.5194 -0.0239
  122MPD2    C3 1898   3.246   1.295  13.815  0.8096 -0.3660 -0.2999
  122MPD2    C4 1899   3.222   1.388  13.905  0.9995  0.3049  0.0195
  122MPD2    C5 1900   3.198   1.349  14.033 -0.1622 -1.0474  0.5699
  122MPD2     H 1901   3.308   1.085  13.788 -2.1258 -0.9916 -0.8768
  122MPD2    H1 1902   3.202   1.491  13.879 -1.4887 -0.8160 -2.5004
  122MPD2    H2 1903   3.182   1.210  14.175 -2.0472  0.5589 -0.3828
  122MPD2    H3 1904   3.171   1.425  14.105  0.4543 -0.5823  0.3078
  122MPD2     N 1905   3.256   1.344  13.685 -0.3936 -0.2197 -0.0728
  122MPD2    H5 1906   3.230   1.442  13.676  0.3686 -0.0742 -0.6438
  122MPD2    N1 1907   3.281   0.993  14.008 -0.2684  0.3854  0.0227
  122MPD2    H7 1908   3.316   0.942  13.928 -1.8379  0.3468 -0.6291
  123TMC2    C1 1909   1.487   4.724  10.749  0.1515  0.4542  0.1688
  123TMC2    C2 1910   1.542   0.086  10.821 -0.1344  0.1106 -0.1545
  123TMC2    C3 1911   1.603   0.189  10.760  0.2998  1.1865 -0.4703
  123TMC2    C4 1912   1.501   4.721  10.613  0.5497 -0.2277 -0.0629
  123TMC2    C5 1913   1.561   0.088  10.553 -0.0374  0.2095 -0.6568
  123TMC2    C6 1914   1.624   0.192  10.628 -0.1174 -0.2099 -0.5500
  123TMC2     C 1915   1.494   4.603  10.822  0.4189 -0.6482 -0.1273
  123TMC2     O 1916   1.458   4.602  10.936  0.1366 -0.1406 -0.0024
  123TMC2     H 1917   1.567   0.074  10.926  1.5848 -1.5394 -0.7517
  123TMC2    H1 1918   1.441   4.659  10.547  1.3142 -0.0489 -0.9296
  123TMC2    H2 1919   1.685   0.270  10.582 -1.5545  1.9295  1.1854
  123TMC2    C7 1920   1.606   0.054  10.414 -0.0807  0.3143  0.1468
  123TMC2    C8 1921   1.639   0.307  10.827 -0.4058 -0.9083 -0.0346
  123TMC2    O1 1922   1.585   4.675  10.385 -0.9023 -0.2661  0.2205
  123TMC2    O2 1923   1.744   0.363  10.801  0.2660  0.6881 -0.1659
  123TMC2    O5 1924   1.553   0.311  10.936  0.0348 -0.7249 -0.8084
  123TMC2    H5 1925   1.469   0.261  10.933 -0.1625 -0.2368 -3.3803
  124MPD2     C 1926   1.433   4.110  10.736  0.1488  0.5700  0.1581
  124MPD2    C1 1927   1.501   4.160  10.628 -0.2908 -0.6825 -0.3532
  124MPD2    C2 1928   1.550   4.287  10.641  0.2675 -0.0400  0.3983
  124MPD2    C3 1929   1.511   4.372  10.743  0.2821  0.1074 -0.5569
  124MPD2    C4 1930   1.456   4.317  10.855 -0.4949 -0.0084  0.4548
  124MPD2    C5 1931   1.414   4.186  10.848  0.3906  0.1663 -0.1898
  124MPD2     H 1932   1.604   4.341  10.564  0.0236  0.3459  0.4988
  124MPD2    H1 1933   1.417   4.378  10.935 -0.8960 -0.6159  0.7150
  124MPD2    H2 1934   1.390   4.011  10.745 -1.3503  1.4772  2.9620
  124MPD2    H3 1935   1.346   4.157  10.927  0.5779 -2.1303 -0.8666
  124MPD2     N 1936   1.532   4.507  10.732  0.1057  0.2277  0.3459
  124MPD2    H5 1937   1.577   4.550  10.652  1.4882 -1.2597  0.3312
  124MPD2    N1 1938   1.520   4.077  10.509 -0.3548 -0.3462  0.3295
  124MPD2    H7 1939   1.490   3.981  10.517 -0.3195 -0.3406  0.5413
  125TMC2    C1 1940   2.688   1.788   8.849 -0.0367 -0.1639 -0.2428
  125TMC2    C2 1941   2.590   1.892   8.861 -0.0187  0.0670 -0.0803
  125TMC2    C3 1942   2.533   1.913   8.983  0.0324  0.2322 -0.7138
  125TMC2    C4 1943   2.709   1.700   8.952 -0.3514 -0.5099  0.1641
  125TMC2    C5 1944   2.639   1.726   9.071 -0.6312 -0.2034  1.0343
  125TMC2    C6 1945   2.550   1.832   9.089  0.2187  0.5131  1.1430
  125TMC2     C 1946   2.809   1.797   8.767 -0.0115  0.3998 -1.1134
  125TMC2     O 1947   2.888   1.702   8.773  0.2880 -0.6882 -0.1526
  125TMC2     H 1948   2.561   1.961   8.782 -0.0926  0.4066  0.2399
  125TMC2    H1 1949   2.752   1.603   8.932 -1.0380 -1.0894  1.4579
  125TMC2    H2 1950   2.499   1.841   9.184  1.7459  0.5192  1.9500
  125TMC2    C7 1951   2.648   1.618   9.166  0.7069  0.2877  0.0834
  125TMC2    C8 1952   2.430   2.009   9.001 -0.0029 -0.5180  0.5445
  125TMC2    O1 1953   2.572   1.627   9.261  0.0883  0.3442 -0.0635
  125TMC2    O2 1954   2.364   1.994   9.102  0.0288  0.2235  0.2593
  125TMC2    O5 1955   2.496   2.125   8.975  0.7215 -0.1401 -0.5968
  125TMC2    H5 1956   2.550   2.107   8.895  0.4130  1.1663 -1.0925
  126MPD1     C 1957   3.081   2.001   8.372 -0.0751 -0.3351  0.2536
  126MPD1    C1 1958   2.975   2.083   8.410 -0.6614 -0.1893  0.4816
  126MPD1    C2 1959   2.890   2.053   8.512 -0.8087 -0.4712 -0.3332
  126MPD1    C3 1960   2.912   1.937   8.585 -0.1562  0.4405  0.7674
  126MPD1    C4 1961   3.017   1.858   8.544  0.1011  0.0782 -0.3338
  126MPD1    C5 1962   3.100   1.887   8.436  0.7852 -0.4151  0.2083
  126MPD1     H 1963   2.810   2.121   8.538  0.3926  1.1242 -0.8146
  126MPD1    H1 1964   3.045   1.765   8.593  0.0993 -0.8322 -2.0548
  126MPD1    H2 1965   3.142   2.028   8.286 -1.9297  3.3211  0.0803
  126MPD1    H3 1966   3.180   1.822   8.401 -1.8293 -3.8686  0.5925
  126MPD1     N 1967   2.826   1.915   8.694  0.5041 -0.0476 -0.1311
  126MPD1    H5 1968   2.756   1.988   8.698 -0.6213 -1.3044  3.2805
  126MPD1    N1 1969   2.934   2.176   8.313 -0.2094  0.2996  0.6191
  126MPD1    H6 1970   2.889   2.257   8.356 -1.3626  0.1143 -0.2310
  126MPD1    H7 1971   3.010   2.205   8.252  0.4197  0.9962  1.7508
  127TMC2    C1 1972   3.692   0.118   9.523  1.5880  0.7191 -0.4257
  127TMC2    C2 1973   3.730   0.135   9.654  0.1685 -0.1491 -0.2796
  127TMC2    C3 1974   3.627   0.136   9.755 -0.5333  0.2339 -0.4679
  127TMC2    C4 1975   3.560   0.125   9.488  0.5950 -0.7660 -0.0789
  127TMC2    C5 1976   3.469   0.116   9.588  0.4767  0.0440 -0.5950
  127TMC2    C6 1977   3.496   0.109   9.726  0.0813  0.2575 -0.3660
  127TMC2     C 1978   3.782   0.094   9.411 -0.0264  0.4485 -0.1839
  127TMC2     O 1979   3.734   0.088   9.298 -0.2803  0.0334 -0.3348
  127TMC2     H 1980   3.833   0.148   9.684  0.4915 -2.2705 -0.4823
  127TMC2    H1 1981   3.530   0.113   9.384 -1.0458  3.1701 -0.0461
  127TMC2    H2 1982   3.423   0.108   9.806 -1.5742 -0.2586 -1.8676
  127TMC2    C7 1983   3.330   0.106   9.546 -0.1386  0.0004  1.2259
  127TMC2    C8 1984   3.669   0.090   9.883  0.2814  0.0253 -0.2004
  127TMC2    O1 1985   3.311   0.143   9.433  0.5112 -0.1458  0.0946
  127TMC2    O2 1986   3.592   0.017   9.946  0.2809 -0.4975  0.3312
  127TMC2    O5 1987   3.767   0.158   9.944 -0.3280 -0.2381  0.8391
  127TMC2    H5 1988   3.818   0.216   9.884  0.4768  0.1161  1.8712
  128MPD2     C 1989   4.151   0.084   9.443  0.3373  0.4786  1.1681
  128MPD2    C1 1990   4.032   0.107   9.379 -0.5357  0.2967 -0.6957
  128MPD2    C2 1991   4.032   0.161   9.250 -0.0083 -0.3582  0.1779
  128MPD2    C3 1992   4.155   0.177   9.186 -0.1975  0.8831  0.0970
  128MPD2    C4 1993   4.273   0.151   9.253  0.4629 -0.0772  0.9312
  128MPD2    C5 1994   4.270   0.110   9.384 -0.3280  0.0572 -0.1410
  128MPD2     H 1995   3.933   0.173   9.208  0.3338  0.3861 -0.4152
  128MPD2    H1 1996   4.371   0.164   9.210  0.3780 -0.8733  0.4976
  128MPD2    H2 1997   4.158   0.048   9.546  0.5708  0.2435  1.0708
  128MPD2    H3 1998   4.362   0.105   9.442  0.2574  1.9645 -0.9041
  128MPD2     N 1999   4.144   0.220   9.049 -0.0711  0.6982 -0.7228
  128MPD2    H5 2000   4.053   0.247   9.011  1.2367  1.8412 -3.0205
  128MPD2    N1 2001   3.916   0.078   9.455  0.1321 -0.2368  0.3045
  128MPD2    H7 2002   3.935   0.049   9.550  1.0884  0.2572  0.2661
  129TMC2    C1 2003   1.194   0.002   1.695 -0.6521  0.2784  0.5284
  129TMC2    C2 2004   1.164   0.078   1.587 -0.0646  0.1441  0.0069
  129TMC2    C3 2005   1.069   0.018   1.505 -0.5184 -0.0460 -0.4220
  129TMC2    C4 2006   1.145   4.610   1.710  0.0546  0.7140  0.0554
  129TMC2    C5 2007   1.058   4.557   1.617 -0.1818  0.9103  0.0188
  129TMC2    C6 2008   1.023   4.629   1.511  0.3673 -0.0188  0.4748
  129TMC2     C 2009   1.316   0.043   1.773 -0.4952 -0.4314 -0.0053
  129TMC2     O 2010   1.372   4.699   1.842  0.1409  0.1609  0.0276
  129TMC2     H 2011   1.195   0.180   1.567 -1.4665  0.5493 -0.1161
  129TMC2    H1 2012   1.166   4.562   1.805  0.8894 -0.3756 -0.6840
  129TMC2    H2 2013   0.958   4.591   1.433 -0.5281  5.3430 -1.3669
  129TMC2    C7 2014   1.002   4.429   1.637  0.0035  0.0540 -0.7617
  129TMC2    C8 2015   1.005   0.115   1.417 -0.0539  0.9888  0.1138
  129TMC2    O1 2016   0.888   4.419   1.581 -0.4071  0.0582  0.3833
  129TMC2    O2 2017   1.063   0.215   1.376 -0.4749 -0.3385  0.2333
  129TMC2    O5 2018   0.869   0.099   1.442 -1.2321  0.4439 -0.2383
  129TMC2    H5 2019   0.839   0.024   1.498 -0.8007  1.0429  0.7854
  130MPD2     C 2020   1.596   0.136   1.798  0.5459  0.1622  0.0477
  130MPD2    C1 2021   1.493   0.220   1.768 -0.4531  0.2558  0.8614
  130MPD2    C2 2022   1.520   0.351   1.736 -0.0427 -0.6512 -0.1669
  130MPD2    C3 2023   1.646   0.405   1.748 -0.0435  0.4906 -0.0973
  130MPD2    C4 2024   1.746   0.322   1.787 -0.3824 -0.1156  0.2659
  130MPD2    C5 2025   1.720   0.190   1.808  0.0934  0.6972  0.5893
  130MPD2     H 2026   1.448   0.424   1.701 -1.7988 -1.5190  1.6328
  130MPD2    H1 2027   1.847   0.358   1.802 -0.6927  0.8009  0.1732
  130MPD2    H2 2028   1.588   0.029   1.815 -1.5454  0.2692 -0.3288
  130MPD2    H3 2029   1.809   0.135   1.836  1.4014  2.1739 -0.6229
  130MPD2     N 2030   1.662   0.539   1.725 -0.6265  0.9614  0.5020
  130MPD2    H5 2031   1.574   0.588   1.719 -1.6575 -1.1288 -1.3711
  130MPD2    N1 2032   1.365   0.174   1.743 -0.4389  0.2262  0.4237
  130MPD2    H7 2033   1.298   0.232   1.692  0.7704 -0.4148 -1.9237
  131TMC2    C1 2034   1.670   0.045   9.840 -0.2899  0.8883 -0.9456
  131TMC2    C2 2035   1.658   0.121   9.951  0.4450  0.4036  0.5923
  131TMC2    C3 2036   1.668   0.259   9.945  0.0327 -0.0425 -0.5956
  131TMC2    C4 2037   1.673   0.099   9.715 -0.6376 -0.6507  0.7074
  131TMC2    C5 2038   1.676   0.238   9.709  0.2483  0.8026  0.4234
  131TMC2    C6 2039   1.676   0.322   9.822  0.2456 -0.0351  0.1807
  131TMC2     C 2040   1.708   4.648   9.863 -0.2475  0.3402 -0.3715
  131TMC2     O 2041   1.676   4.594   9.972  0.5818 -0.0210  0.5994
  131TMC2     H 2042   1.678   0.082  10.050 -1.0119  1.4663  1.3123
  131TMC2    H1 2043   1.668   0.042   9.623 -1.4830  0.5098  0.0326
  131TMC2    H2 2044   1.672   0.430   9.824  2.5966  0.0360  1.4253
  131TMC2    C7 2045   1.633   0.306   9.584  0.2375 -0.0480 -0.0372
  131TMC2    C8 2046   1.609   0.334  10.049  0.2011 -0.6334  0.3026
  131TMC2    O1 2047   1.594   0.237   9.490  0.3098  0.4190 -0.4676
  131TMC2    O2 2048   1.617   0.454  10.053  0.1975  0.4609 -0.2737
  131TMC2    O5 2049   1.500   0.268  10.096  0.3377 -0.1533 -0.2287
  131TMC2    H5 2050   1.502   0.171  10.081  0.0733 -0.3422  0.9592
  132MPD2     C 2051   1.852   4.389   9.642 -0.3997 -0.5508  0.0018
  132MPD2    C1 2052   1.793   4.443   9.753 -0.5466  0.0563  0.0546
  132MPD2    C2 2053   1.742   4.352   9.848 -0.2696 -0.1732  0.2387
  132MPD2    C3 2054   1.747   4.212   9.823 -0.2968 -0.0902  1.1460
  132MPD2    C4 2055   1.811   4.160   9.708 -0.0335  0.0996 -0.0017
  132MPD2    C5 2056   1.855   4.252   9.620 -0.3868  0.8215 -0.2620
  132MPD2     H 2057   1.694   4.379   9.941 -1.1035 -1.8927  0.3127
  132MPD2    H1 2058   1.801   4.057   9.676 -0.3008  0.6302 -1.6378
  132MPD2    H2 2059   1.870   4.459   9.561  1.5288 -0.3034  0.6456
  132MPD2    H3 2060   1.892   4.213   9.526  1.5970 -0.4336  1.0622
  132MPD2     N 2061   1.701   4.133   9.932  0.8569  0.2304  0.6841
  132MPD2    H5 2062   1.657   4.180  10.010 -1.1974  0.3957 -0.5937
  132MPD2    N1 2063   1.772   4.587   9.761  0.8578 -0.0537 -0.1368
  132MPD2    H7 2064   1.805   4.644   9.683  0.8423  0.7629  0.4623
  133TMC2    C1 2065   0.777   3.712   9.887  0.5342 -0.9474 -0.4314
  133TMC2    C2 2066   0.910   3.691   9.899 -0.3601  0.2528 -0.1432
  133TMC2    C3 2067   0.952   3.580   9.957 -0.7347 -0.7002  0.1577
  133TMC2    C4 2068   0.688   3.620   9.938 -0.5526  0.1015 -0.4978
  133TMC2    C5 2069   0.740   3.510   9.995 -0.1366 -0.2189 -0.5290
  133TMC2    C6 2070   0.873   3.481  10.011  0.0377 -0.7961  0.4185
  133TMC2     C 2071   0.744   3.825   9.809 -0.2997  0.0876  0.3715
  133TMC2     O 2072   0.826   3.916   9.805 -0.1212  0.2587  0.1340
  133TMC2     H 2073   0.983   3.752   9.847  0.7789  0.6531  1.9081
  133TMC2    H1 2074   0.581   3.636   9.931 -0.7134 -0.8171 -0.0894
  133TMC2    H2 2075   0.909   3.392  10.061 -1.4632 -0.8121  1.4341
  133TMC2    C7 2076   0.642   3.423  10.057  0.3456 -0.2819 -0.5410
  133TMC2    C8 2077   1.093   3.556   9.949 -0.1665 -0.6987 -0.3478
  133TMC2    O1 2078   0.547   3.399   9.990 -0.2417  0.2769  0.6278
  133TMC2    O2 2079   1.176   3.647   9.939 -0.1417 -0.1390 -0.0541
  133TMC2    O5 2080   1.125   3.434   9.988  0.3482 -0.3195 -0.2477
  133TMC2    H5 2081   1.055   3.370   9.964  0.0017  0.1941 -0.6013
  134MPD2     C 2082   0.441   3.853   9.584  0.0596  0.1078 -0.1712
  134MPD2    C1 2083   0.553   3.890   9.654  0.4035  0.3613  0.2658
  134MPD2    C2 2084   0.598   4.024   9.642  0.1893 -0.0408 -0.1866
  134MPD2    C3 2085   0.537   4.110   9.554  0.2783  0.3697 -0.6081
  134MPD2    C4 2086   0.438   4.066   9.466 -0.0969  0.0178 -0.3256
  134MPD2    C5 2087   0.382   3.944   9.493  0.0537  0.7371  0.4643
  134MPD2     H 2088   0.679   4.061   9.704 -0.0500  0.7512 -0.3546
  134MPD2    H1 2089   0.396   4.122   9.383 -0.2720  1.0289  0.4589
  134MPD2    H2 2090   0.391   3.757   9.597  0.0160  0.1700  0.1133
  134MPD2    H3 2091   0.287   3.921   9.447  0.4175  1.4602 -0.6642
  134MPD2     N 2092   0.591   4.243   9.535 -0.1287  0.3143  0.2921
  134MPD2    H5 2093   0.535   4.307   9.479  0.1472 -1.0753 -1.5909
  134MPD2    N1 2094   0.621   3.802   9.739  0.3341 -0.1762 -0.2784
  134MPD2    H7 2095   0.587   3.706   9.745 -1.7307  0.5822  0.2988
  135TMC2    C1 2096   2.652   1.810   9.654 -0.7038  0.0103  0.2800
  135TMC2    C2 2097   2.594   1.716   9.571  0.0704  0.2142 -0.1081
  135TMC2    C3 2098   2.539   1.605   9.630 -0.7431  0.2709  0.2063
  135TMC2    C4 2099   2.649   1.784   9.788  0.4807  0.7984  0.2524
  135TMC2    C5 2100   2.593   1.675   9.840 -0.9268  0.8977  0.2043
  135TMC2    C6 2101   2.536   1.580   9.765  0.3920  0.3706  0.5133
  135TMC2     C 2102   2.682   1.938   9.602  0.6053  0.4783  0.1677
  135TMC2     O 2103   2.707   2.030   9.680 -0.2604 -0.4091  0.0199
  135TMC2     H 2104   2.603   1.723   9.464  2.3124  0.5725  0.1094
  135TMC2    H1 2105   2.687   1.860   9.856 -1.9891  3.2304 -1.0518
  135TMC2    H2 2106   2.503   1.480   9.789 -2.1970  0.8662 -0.9568
  135TMC2    C7 2107   2.649   1.639   9.972 -0.2514  0.3390 -0.3994
  135TMC2    C8 2108   2.450   1.512   9.555  0.4830  0.8500 -0.8846
  135TMC2    O1 2109   2.738   1.713  10.014  0.0740 -0.2354  0.1649
  135TMC2    O2 2110   2.412   1.400   9.602 -0.3977 -0.1600 -0.0875
  135TMC2    O5 2111   2.365   1.603   9.510  0.5955  0.0147  0.5178
  135TMC2    H5 2112   2.415   1.676   9.467 -1.2465  0.0599 -1.5558
  136MPD2     C 2113   2.703   2.163   9.420 -0.4040  0.4852 -0.1613
  136MPD2    C1 2114   2.729   2.033   9.383 -0.9371 -0.4944  0.1507
  136MPD2    C2 2115   2.798   2.009   9.269 -0.1495  0.6280 -0.0416
  136MPD2    C3 2116   2.822   2.113   9.179  0.4350 -0.0165 -0.4858
  136MPD2    C4 2117   2.789   2.245   9.215  0.0580  0.2308  0.3685
  136MPD2    C5 2118   2.739   2.263   9.338  0.5167  0.3585  0.3021
  136MPD2     H 2119   2.825   1.909   9.239  0.3107  1.6725 -3.0671
  136MPD2    H1 2120   2.805   2.330   9.150  0.6512  0.9267  1.4119
  136MPD2    H2 2121   2.661   2.181   9.518  2.2846  1.4005  0.8488
  136MPD2    H3 2122   2.728   2.363   9.379  0.5209  1.1052 -1.4861
  136MPD2     N 2123   2.901   2.095   9.057 -0.3071 -0.2255 -0.0339
  136MPD2    H5 2124   2.896   2.176   8.996  1.2577 -0.1198 -0.0087
  136MPD2    N1 2125   2.708   1.926   9.473 -0.3994 -0.3417  0.2184
  136MPD2    H7 2126   2.719   1.836   9.427 -0.0413 -0.2983  0.2192
  137TMC2    C1 2127   2.647   1.065   8.997 -0.1544 -0.0074  0.3740
  137TMC2    C2 2128   2.694   1.054   8.870 -0.3716  0.5294  0.2270
  137TMC2    C3 2129   2.663   1.159   8.791  0.6371 -0.2237  0.0506
  137TMC2    C4 2130   2.582   1.174   9.042 -0.0864  0.5776 -0.2863
  137TMC2    C5 2131   2.549   1.274   8.955  0.1111 -0.0489  0.0797
  137TMC2    C6 2132   2.585   1.270   8.822  0.0676 -0.5258  0.0087
  137TMC2     C 2133   2.644   0.947   9.081 -0.0111 -0.0650 -0.0936
  137TMC2     O 2134   2.566   0.952   9.176  0.4677  0.7833  0.6782
  137TMC2     H 2135   2.747   0.976   8.817 -0.9149 -1.4401  2.5582
  137TMC2    H1 2136   2.557   1.169   9.148 -1.9547  0.1027 -0.7497
  137TMC2    H2 2137   2.549   1.339   8.747 -2.1585  0.2884  1.8193
  137TMC2    C7 2138   2.456   1.382   8.998  0.3710 -0.3326  0.0790
  137TMC2    C8 2139   2.686   1.125   8.649 -0.3946  0.1901 -0.1369
  137TMC2    O1 2140   2.448   1.484   8.927  0.2979  0.0314 -0.2639
  137TMC2    O2 2141   2.669   1.015   8.598 -0.3310  0.5660  0.1781
  137TMC2    O5 2142   2.699   1.244   8.585 -0.0360  0.2837 -0.2922
  137TMC2    H5 2143   2.735   1.309   8.649 -0.1742  0.5966 -0.5290
  138MPD2     C 2144   2.822   0.635   9.034  0.5959 -0.6508 -0.0854
  138MPD2    C1 2145   2.745   0.725   9.102 -0.1692  0.2678  0.0233
  138MPD2    C2 2146   2.703   0.701   9.229 -0.1766 -0.2910  0.2694
  138MPD2    C3 2147   2.727   0.583   9.289 -0.4272 -0.0418 -0.0639
  138MPD2    C4 2148   2.787   0.478   9.214  0.7188  0.5326 -0.4587
  138MPD2    C5 2149   2.826   0.507   9.090  0.4141 -0.4577  0.3478
  138MPD2     H 2150   2.647   0.774   9.287  0.9367  0.0176  0.9463
  138MPD2    H1 2151   2.792   0.380   9.259 -0.2372  0.4243 -0.5778
  138MPD2    H2 2152   2.860   0.664   8.937  0.3538  1.1021  0.3533
  138MPD2    H3 2153   2.863   0.427   9.027 -1.5453 -1.1865  0.1416
  138MPD2     N 2154   2.686   0.567   9.427 -0.2144  0.1773 -0.0913
  138MPD2    H5 2155   2.654   0.653   9.470  0.9765 -0.0847  1.3269
  138MPD2    N1 2156   2.729   0.854   9.041  0.0083  0.6456  0.1594
  138MPD2    H7 2157   2.782   0.873   8.957  1.4373  1.1754  1.1952
  139TMC2    C1 2158   3.330   3.776  13.234 -0.0760 -0.3833  0.1011
  139TMC2    C2 2159   3.446   3.832  13.209 -0.8180 -0.4876  0.1908
  139TMC2    C3 2160   3.477   3.942  13.286 -0.1072  0.3099  0.4373
  139TMC2    C4 2161   3.248   3.811  13.340  0.1318 -0.5843  0.9346
  139TMC2    C5 2162   3.282   3.927  13.405 -0.7028  0.3449  0.0353
  139TMC2    C6 2163   3.396   3.997  13.386 -0.4097  0.7836  0.4918
  139TMC2     C 2164   3.323   3.633  13.195 -0.1607  0.0221  0.0561
  139TMC2     O 2165   3.370   3.591  13.089 -0.1863 -0.5692 -0.6110
  139TMC2     H 2166   3.515   3.798  13.133 -0.4149  0.0248  0.3193
  139TMC2    H1 2167   3.148   3.769  13.347 -0.0419 -0.2990  0.2093
  139TMC2    H2 2168   3.418   4.092  13.434 -1.2480  0.4919  1.4544
  139TMC2    C7 2169   3.186   3.978  13.503 -0.4005  0.0519 -0.2143
  139TMC2    C8 2170   3.618   3.957  13.312 -0.4371 -0.1965  0.3628
  139TMC2    O1 2171   3.073   3.935  13.492 -0.2077  0.0794  0.5260
  139TMC2    O2 2172   3.692   3.858  13.316 -0.0335 -0.2465  0.1222
  139TMC2    O5 2173   3.651   4.085  13.363  0.5077  0.0681  0.7193
  139TMC2    H5 2174   3.594   4.157  13.328  0.4828  0.4758  1.5956
  140MPD2     C 2175   3.261   3.392  13.457  0.6307 -0.2153  0.2615
  140MPD2    C1 2176   3.296   3.429  13.330  0.6104  0.3057  0.1073
  140MPD2    C2 2177   3.355   3.337  13.246  0.0464  0.1391  0.1814
  140MPD2    C3 2178   3.376   3.206  13.294 -0.0404 -0.2375  0.0776
  140MPD2    C4 2179   3.338   3.170  13.419  0.1623 -0.5008  0.7283
  140MPD2    C5 2180   3.285   3.272  13.506 -0.3151 -0.4510  0.3661
  140MPD2     H 2181   3.386   3.365  13.146  1.8188 -1.5352  0.2664
  140MPD2    H1 2182   3.354   3.070  13.458 -0.1267 -0.5171  0.8044
  140MPD2    H2 2183   3.208   3.458  13.525 -0.5918  1.2224 -2.1083
  140MPD2    H3 2184   3.255   3.243  13.606 -1.9578  0.5494  0.1503
  140MPD2     N 2185   3.442   3.117  13.205  0.1450 -0.0417 -0.5846
  140MPD2    H5 2186   3.463   3.154  13.112 -2.6284  3.1809  0.0960
  140MPD2    N1 2187   3.270   3.564  13.296  0.1654 -0.0493  0.7013
  140MPD2    H7 2188   3.224   3.617  13.370  2.4638  0.8016  1.5237
  141TMC2    C1 2189   3.568   0.169  14.614 -0.5869 -0.3124 -0.1658
  141TMC2    C2 2190   3.608   0.070  14.699  0.1817 -0.7330  0.1596
  141TMC2    C3 2191   3.590   0.083  14.830  0.7986  0.3396  0.2702
  141TMC2    C4 2192   3.535   0.295  14.662 -0.4092 -0.4549 -0.0950
  141TMC2    C5 2193   3.527   0.309  14.801 -0.4289  0.1717 -0.8579
  141TMC2    C6 2194   3.553   0.204  14.886 -0.1699  0.0468 -0.7061
  141TMC2     C 2195   3.577   0.150  14.473  0.2844  0.1785 -0.4590
  141TMC2     O 2196   3.546   0.247  14.410 -0.1577 -0.6603  0.1839
  141TMC2     H 2197   3.634   4.713  14.653 -0.7988 -0.0265 -1.8302
  141TMC2    H1 2198   3.516   0.372  14.588 -1.6303 -0.1485  0.5401
  141TMC2    H2 2199   3.552   0.222  14.993  0.5533 -2.8677 -0.2105
  141TMC2    C7 2200   3.579   0.435  14.858  0.0264  0.4841 -0.8645
  141TMC2    C8 2201   3.639   4.725  14.935  0.2696  0.4743  0.1634
  141TMC2    O1 2202   3.585   0.456  14.977  0.3738  0.1014  0.0286
  141TMC2    O2 2203   3.619   4.731  15.057  0.6173  0.1192 -0.5415
  141TMC2    O5 2204   3.682   4.616  14.868  0.0616  0.3634 -0.4366
  141TMC2    H5 2205   3.725   4.623  14.779 -1.1296 -0.5814 -1.0955
  142TMC2    C1 2206   2.022   4.092  10.114  0.1792 -0.1663 -0.3105
  142TMC2    C2 2207   2.087   4.086   9.993  0.5000  0.4953 -0.0938
  142TMC2    C3 2208   2.113   4.207   9.933  0.2114  1.0086  0.1537
  142TMC2    C4 2209   1.983   4.212  10.159  0.0698  0.5388  0.8157
  142TMC2    C5 2210   2.011   4.330  10.100  0.0339  0.2519 -0.5464
  142TMC2    C6 2211   2.076   4.331   9.977  0.2089 -0.0066  0.2460
  142TMC2     C 2212   2.015   3.977  10.194 -0.2942  0.1358  0.2228
  142TMC2     O 2213   2.061   3.887  10.130  0.4496 -0.0052 -0.4800
  142TMC2     H 2214   2.147   4.000   9.966 -1.6093 -0.6517 -1.0592
  142TMC2    H1 2215   1.938   4.226  10.256  1.8265  1.0369  1.5529
  142TMC2    H2 2216   2.096   4.420   9.917  1.1676  0.2945  1.0158
  142TMC2    C7 2217   1.935   4.447  10.152 -0.2241 -1.0173  0.8400
  142TMC2    C8 2218   2.183   4.204   9.811 -0.2685 -0.7715  0.0705
  142TMC2    O1 2219   1.844   4.418  10.226 -0.0394  0.1779 -0.4851
  142TMC2    O2 2220   2.237   4.305   9.755 -0.2050 -0.3597 -0.1216
  142TMC2    O5 2221   2.150   4.090   9.744 -0.4490 -0.0960 -0.4441
  142TMC2    H5 2222   2.084   4.032   9.787  0.8939 -1.4738 -0.2461
  143MPD2     C 2223   1.920   3.673  10.588  0.1305  0.5675  0.1870
  143MPD2    C1 2224   1.909   3.655  10.449 -0.0325 -0.2652 -0.0763
  143MPD2    C2 2225   1.925   3.768  10.363  0.4178 -0.5107  0.0691
  143MPD2    C3 2226   1.952   3.892  10.417  0.7193 -0.2329 -0.2444
  143MPD2    C4 2227   1.963   3.907  10.551 -0.0389 -0.3804  0.4416
  143MPD2    C5 2228   1.948   3.801  10.633  0.3219 -0.8065  0.4220
  143MPD2     H 2229   1.919   3.754  10.255 -0.3524  1.0585 -0.0973
  143MPD2    H1 2230   1.989   4.000  10.599 -0.3311 -0.8534  1.5145
  143MPD2    H2 2231   1.899   3.599  10.664  0.8600 -0.8376 -0.9759
  143MPD2    H3 2232   1.948   3.812  10.740  1.0407  0.5244  0.2812
  143MPD2     N 2233   1.984   3.998  10.326  0.2311 -0.0621  0.6495
  143MPD2    H5 2234   1.989   4.092  10.365  0.0431  1.6229 -3.3632
  143MPD2    N1 2235   1.867   3.532  10.402 -0.7034 -1.0271  0.5254
  143MPD2    H7 2236   1.855   3.459  10.472 -1.7030  0.6643  2.1141
  144TMC2    C1 2237   4.059   1.742   1.335 -0.5956 -0.3870  0.1318
  144TMC2    C2 2238   4.051   1.662   1.447  0.2334 -0.6573 -0.2818
  144TMC2    C3 2239   4.149   1.684   1.541 -0.3064  0.2333  0.0073
  144TMC2    C4 2240   4.150   1.842   1.314  0.0828 -0.5967  0.0370
  144TMC2    C5 2241   4.241   1.864   1.419  0.2168 -0.3564 -0.3857
  144TMC2    C6 2242   4.244   1.786   1.532 -0.1153  0.1661  0.4707
  144TMC2     C 2243   3.957   1.713   1.234  0.1923  0.0834  0.0949
  144TMC2     O 2244   3.932   1.595   1.217 -0.6844 -0.4750 -0.5201
  144TMC2     H 2245   3.976   1.583   1.449 -0.7144  0.2677  0.9072
  144TMC2    H1 2246   4.149   1.896   1.219 -0.5220 -1.0141 -0.1919
  144TMC2    H2 2247   4.305   1.806   1.620 -0.1553 -1.7793  0.9337
  144TMC2    C7 2248   4.311   1.988   1.438  0.5167  0.1589 -0.0022
  144TMC2    C8 2249   4.127   1.646   1.677 -0.2695 -0.3259 -0.0634
  144TMC2    O1 2250   4.406   1.991   1.515  0.4475  0.3784  0.4023
  144TMC2    O2 2251   4.018   1.600   1.707 -0.0148  0.8860 -0.7949
  144TMC2    O5 2252   4.253   1.618   1.728  0.4409  0.2793  0.3738
  144TMC2    H5 2253   4.321   1.645   1.662 -1.0277  1.8434 -0.4946
  145MPD2     C 2254   3.700   1.880   0.830 -0.3506  0.1135  0.0398
  145MPD2    C1 2255   3.748   1.755   0.845 -0.4545  0.3691  1.2702
  145MPD2    C2 2256   3.808   1.726   0.966  0.1343  0.3451 -0.0469
  145MPD2    C3 2257   3.829   1.829   1.058  0.3087  0.1660 -0.2858
  145MPD2    C4 2258   3.766   1.948   1.041  0.3996 -0.2092 -0.1475
  145MPD2    C5 2259   3.707   1.977   0.924  0.2364  0.1534  0.2111
  145MPD2     H 2260   3.848   1.629   0.994 -1.4586 -0.0724  0.8106
  145MPD2    H1 2261   3.780   2.026   1.115 -0.6806 -0.4364  0.2845
  145MPD2    H2 2262   3.644   1.919   0.746  0.9729  0.0510 -0.8732
  145MPD2    H3 2263   3.670   2.077   0.906  1.6037  0.3664 -1.3964
  145MPD2     N 2264   3.911   1.825   1.171  0.2108 -0.2248 -0.5200
  145MPD2    H5 2265   3.917   1.912   1.222  2.7436  0.2912 -1.7205
  145MPD2    N1 2266   3.728   1.651   0.751  0.3640 -0.3229 -0.0654
  145MPD2    H7 2267   3.750   1.554   0.774  0.9304  0.0213  0.8551
  146TMC2    C1 2268   4.715   1.050  12.834 -0.0348 -0.5389 -0.1428
  146TMC2    C2 2269   4.604   1.111  12.786 -0.4855 -0.6396 -0.1918
  146TMC2    C3 2270   4.529   1.041  12.695 -0.2955 -0.1710 -0.3322
  146TMC2    C4 2271   0.008   0.922  12.810  0.4723  0.6923  0.2102
  146TMC2    C5 2272   4.669   0.846  12.725 -0.0712  0.0052  0.0098
  146TMC2    C6 2273   4.558   0.909  12.665 -0.3532  0.0686 -0.4489
  146TMC2     C 2274   0.074   1.129  12.910  0.1537 -0.5298  0.3656
  146TMC2     O 2275   0.029   1.226  12.978  0.5200  0.4074 -0.0575
  146TMC2     H 2276   4.575   1.211  12.816  1.2049  0.5352 -2.4905
  146TMC2    H1 2277   0.085   0.869  12.864 -0.3622 -1.6015 -0.8446
  146TMC2    H2 2278   4.497   0.863  12.588 -0.4126 -0.4753 -0.0820
  146TMC2    C7 2279   4.679   0.700  12.713  0.5112 -0.2005  0.9287
  146TMC2    C8 2280   4.449   1.114  12.597  0.1090  0.5628 -0.0934
  146TMC2    O1 2281   4.585   0.641  12.659  0.2928 -0.1110 -0.2171
  146TMC2    O2 2282   4.481   1.123  12.480 -0.3527  0.3452 -0.1882
  146TMC2    O5 2283   4.366   1.201  12.657 -0.2284 -0.3512  0.0444
  146TMC2    H5 2284   4.335   1.173  12.746  0.4382  1.5922  0.9080
  147MPD2     C 2285   0.214   0.268  12.732 -0.4537  0.6405 -0.5450
  147MPD2    C1 2286   0.306   0.373  12.745  0.1196  0.4899 -0.0710
  147MPD2    C2 2287   0.256   0.502  12.751  0.4340 -0.3642 -0.5599
  147MPD2    C3 2288   0.119   0.529  12.739  0.1244 -0.2687 -0.3638
  147MPD2    C4 2289   0.030   0.424  12.733 -0.0540 -0.5463  0.3414
  147MPD2    C5 2290   0.083   0.295  12.724 -0.2370 -0.0311 -0.4804
  147MPD2     H 2291   0.323   0.587  12.745 -1.3694  1.0851 -0.0543
  147MPD2    H1 2292   4.661   0.445  12.726  0.0088 -0.0874  0.8541
  147MPD2    H2 2293   0.223   0.161  12.718 -1.6130  0.1686  2.2803
  147MPD2    H3 2294   0.028   0.203  12.705  0.2017 -0.0247 -1.7394
  147MPD2     N 2295   0.072   0.660  12.750  0.0851 -0.6338  0.5779
  147MPD2    H5 2296   0.141   0.734  12.760  0.4100 -0.7549 -0.7993
  147MPD2    N1 2297   0.436   0.335  12.752  0.5755 -0.3534 -0.3798
  147MPD2    H7 2298   0.462   0.237  12.746 -0.6711 -0.7549  0.7189
  148TMC2    C1 2299   1.104   4.572  10.768 -0.5671 -0.2275 -0.2390
  148TMC2    C2 2300   1.129   4.598  10.902 -0.1860 -0.5201  0.8099
  148TMC2    C3 2301   1.130   4.501  10.998 -0.8593  0.1853  0.2189
  148TMC2    C4 2302   1.051   4.453  10.726  0.1480  0.0788 -0.5001
  148TMC2    C5 2303   1.065   4.351  10.820 -0.4660  0.1098 -0.5517
  148TMC2    C6 2304   1.091   4.373  10.957  0.2827 -0.2322 -0.4163
  148TMC2     C 2305   1.093   4.697  10.688 -0.3994  0.0907  0.1294
  148TMC2     O 2306   1.154   0.058  10.736  0.7550 -0.3106  0.9748
  148TMC2     H 2307   1.168   4.695  10.933  0.9296 -0.1989 -1.5266
  148TMC2    H1 2308   1.041   4.426  10.622 -0.7886  0.3153 -0.4783
  148TMC2    H2 2309   1.105   4.308  11.042  0.9654 -1.5852 -1.5623
  148TMC2    C7 2310   1.055   4.209  10.765  0.4051 -0.4188  0.1510
  148TMC2    C8 2311   1.197   4.522  11.118  0.5617 -0.0822  0.2952
  148TMC2    O1 2312   1.020   4.211  10.647  0.7901  0.1957 -0.6356
  148TMC2    O2 2313   1.231   4.432  11.193  0.4462 -0.0003  0.5495
  148TMC2    O5 2314   1.132   4.633  11.159  0.3206  0.2022  0.4018
  148TMC2    H5 2315   1.085   4.679  11.086  1.4500 -0.8087 -0.9624
  149MPD2     C 2316   0.982   0.198  10.551 -0.5120 -0.6325 -0.5841
  149MPD2    C1 2317   0.920   0.073  10.541 -0.2707 -0.7401 -0.2929
  149MPD2    C2 2318   0.819   0.050  10.437 -0.1961  0.9848  0.6204
  149MPD2    C3 2319   0.764   0.158  10.374  0.2535 -0.2978 -0.2468
  149MPD2    C4 2320   0.815   0.282  10.396  0.5839 -0.0610  0.0010
  149MPD2    C5 2321   0.928   0.300  10.483 -0.2251  0.9054  0.0816
  149MPD2     H 2322   0.790   4.683  10.419  0.9903  0.6930  0.4009
  149MPD2    H1 2323   0.774   0.371  10.350 -1.1160 -0.5868  0.5271
  149MPD2    H2 2324   1.062   0.222  10.619 -0.5431 -0.3248 -0.6552
  149MPD2    H3 2325   0.970   0.399  10.493  0.8049  0.5704 -0.9060
  149MPD2     N 2326   0.658   0.150  10.284  0.1555  0.0016 -0.3591
  149MPD2    H5 2327   0.626   0.232  10.233  1.9471 -0.0302 -1.5834
  149MPD2    N1 2328   0.973   4.702  10.616  0.2484  0.4422 -0.4112
  149MPD2    H7 2329   0.919   4.616  10.613  0.2326  0.4279  0.3099
  150TMC2    C1 2330   2.310   3.829  12.819 -0.2071  0.4187  0.1202
  150TMC2    C2 2331   2.259   3.820  12.948 -0.1272 -0.5006  0.2617
  150TMC2    C3 2332   2.339   3.870  13.052  0.9074  0.2707  0.4813
  150TMC2    C4 2333   2.433   3.891  12.802 -0.5028  0.8388  0.4886
  150TMC2    C5 2334   2.503   3.923  12.913 -0.6460  0.1935 -0.1714
  150TMC2    C6 2335   2.464   3.914  13.041 -0.3571 -0.4433  0.7786
  150TMC2     C 2336   2.236   3.773  12.705  0.4866 -0.2860  1.0414
  150TMC2     O 2337   2.155   3.685  12.738 -0.3016  0.4112  0.2891
  150TMC2     H 2338   2.165   3.771  12.970 -0.5191  0.3011  0.3559
  150TMC2    H1 2339   2.481   3.890  12.705  1.8788  1.0191  1.6559
  150TMC2    H2 2340   2.514   3.963  13.125 -2.1222  1.4976  0.6861
  150TMC2    C7 2341   2.632   3.978  12.888  0.1373 -0.0594 -0.5643
  150TMC2    C8 2342   2.294   3.842  13.185  0.3689 -0.4106  0.2755
  150TMC2    O1 2343   2.668   4.087  12.932 -0.8634 -0.1215 -0.1771
  150TMC2    O2 2344   2.260   3.729  13.216  0.1539  0.0708 -0.4514
  150TMC2    O5 2345   2.264   3.959  13.236  0.1873  0.2217 -0.2938
  150TMC2    H5 2346   2.287   4.039  13.183  0.2404 -0.6163 -1.5394
  151MPD2     C 2347   2.169   3.706  12.209  0.7844  0.0813  0.0556
  151MPD2    C1 2348   2.205   3.836  12.231 -0.7902 -0.4364  0.4355
  151MPD2    C2 2349   2.240   3.878  12.357  0.0174  0.0461  0.1327
  151MPD2    C3 2350   2.224   3.789  12.462  0.5064  0.3721 -0.1348
  151MPD2    C4 2351   2.188   3.653  12.441  0.2330  0.1632 -0.6586
  151MPD2    C5 2352   2.167   3.610  12.310 -0.3732  0.0248  0.0774
  151MPD2     H 2353   2.266   3.981  12.380 -0.5007 -0.0506  1.1348
  151MPD2    H1 2354   2.180   3.572  12.512  1.9253  0.8539  0.2977
  151MPD2    H2 2355   2.134   3.677  12.110 -0.3229 -1.0400  0.7772
  151MPD2    H3 2356   2.130   3.509  12.302  0.2172 -0.1995  0.1600
  151MPD2     N 2357   2.247   3.847  12.591  0.3053  0.2958  0.0463
  151MPD2    H5 2358   2.295   3.934  12.611 -1.3156  1.1190  0.3776
  151MPD2    N1 2359   2.211   3.915  12.120 -0.1927  0.4884  0.0524
  151MPD2    H7 2360   2.183   3.872  12.033 -0.7841  2.0179 -0.5061
  152TMC2    C1 2361   2.654   3.471  12.979  0.1696  0.4086  0.5156
  152TMC2    C2 2362   2.755   3.377  12.979 -0.2249 -0.4409  0.0785
  152TMC2    C3 2363   2.870   3.402  13.038 -0.7297 -0.3622 -0.0092
  152TMC2    C4 2364   2.690   3.600  13.020  0.1263 -0.2446  0.3765
  152TMC2    C5 2365   2.816   3.628  13.058  0.3258 -0.9986  0.1127
  152TMC2    C6 2366   2.902   3.524  13.079 -1.1046 -0.2893  0.5614
  152TMC2     C 2367   2.514   3.454  12.924 -0.1728 -0.5497 -0.0687
  152TMC2     O 2368   2.457   3.558  12.896 -0.7806 -0.2840 -0.0475
  152TMC2     H 2369   2.737   3.279  12.936 -0.3941 -1.8789  3.4877
  152TMC2    H1 2370   2.617   3.679  13.010  0.8987  0.2404 -1.3262
  152TMC2    H2 2371   3.005   3.545  13.107 -1.4331  0.8376  0.9497
  152TMC2    C7 2372   2.858   3.760  13.103  0.5508  0.9102 -0.8119
  152TMC2    C8 2373   2.969   3.300  13.026  0.1333 -0.0232  0.0946
  152TMC2    O1 2374   2.764   3.827  13.139  0.0807  0.2006  0.0973
  152TMC2    O2 2375   2.976   3.221  12.938 -0.4148 -0.3237  0.7133
  152TMC2    O5 2376   2.966   3.270  13.157 -0.3334  0.2639 -0.1698
  152TMC2    H5 2377   2.963   3.348  13.217 -1.5023 -0.0247  0.1514
  153MPD2     C 2378   2.278   3.175  12.950 -0.4435 -0.4693  0.3541
  153MPD2    C1 2379   2.331   3.296  12.911 -0.3319  0.0832 -0.6443
  153MPD2    C2 2380   2.244   3.382  12.838  0.0111 -0.2284  0.0710
  153MPD2    C3 2381   2.124   3.334  12.795  0.0826  0.4560  0.4114
  153MPD2    C4 2382   2.076   3.206  12.824 -0.1255 -0.2939 -0.4681
  153MPD2    C5 2383   2.151   3.130  12.906 -0.2017 -0.4423 -0.0885
  153MPD2     H 2384   2.267   3.484  12.811 -1.0785 -0.8376 -3.1412
  153MPD2    H1 2385   1.990   3.164  12.774 -0.4918 -0.2467  0.1230
  153MPD2    H2 2386   2.327   3.115  13.026  1.9028  1.5859  0.4430
  153MPD2    H3 2387   2.108   3.032  12.922  0.3223 -0.8312 -1.1150
  153MPD2     N 2388   2.047   3.422  12.720 -0.3074  0.1442 -0.4004
  153MPD2    H5 2389   2.076   3.518  12.739  2.2143 -0.7337  0.1790
  153MPD2    N1 2390   2.462   3.330  12.947 -0.2534 -0.1783 -0.4114
  153MPD2    H7 2391   2.508   3.271  13.016 -2.0244 -0.1240  0.8173
  154TMC2    C1 2392   3.872   3.117   0.258 -0.3131 -0.0939  0.2814
  154TMC2    C2 2393   3.992   3.127   0.331  0.1319  0.5613  0.1836
  154TMC2    C3 2394   4.098   3.066   0.278 -0.2511  1.0523  0.1520
  154TMC2    C4 2395   3.863   3.045   0.143  0.4203  0.7430  0.1836
  154TMC2    C5 2396   3.984   3.002   0.085 -0.3999  0.2542 -0.6324
  154TMC2    C6 2397   4.103   3.007   0.157  0.2247 -0.1158 -0.5125
  154TMC2     C 2398   3.748   3.134   0.337 -0.8923 -0.4938  0.1112
  154TMC2     O 2399   3.737   3.236   0.401  0.1477 -0.1804 -0.0705
  154TMC2     H 2400   3.992   3.173   0.430  2.5674 -0.1848  0.5331
  154TMC2    H1 2401   3.772   3.032   0.085  0.5145  2.5919 -0.3581
  154TMC2    H2 2402   4.198   2.978   0.113  1.4380  0.1043  1.9429
  154TMC2    C7 2403   3.977   2.913  17.720 -0.8791 -0.0613  0.1745
  154TMC2    C8 2404   4.224   3.110   0.328  0.0446 -0.2069  0.6168
  154TMC2    O1 2405   4.036   2.804  17.724 -0.2703  0.1554  0.2646
  154TMC2    O2 2406   4.253   3.227   0.349 -0.4602 -0.2245  0.5429
  154TMC2    O5 2407   4.320   3.010   0.308  0.0784 -0.2345 -1.0263
  154TMC2    H5 2408   4.282   2.920   0.318 -1.3119  0.1382 -2.9502
  155MPD2     C 2409   3.439   2.950   0.244  0.2966  0.5746 -0.0652
  155MPD2    C1 2410   3.522   3.043   0.313  0.0936  1.1526 -0.8894
  155MPD2    C2 2411   3.463   3.124   0.405 -0.5072  0.3078  0.0024
  155MPD2    C3 2412   3.329   3.119   0.429  0.4124  0.0926 -0.2480
  155MPD2    C4 2413   3.247   3.040   0.350 -0.1516 -0.1473 -0.6095
  155MPD2    C5 2414   3.301   2.957   0.256 -0.2616  0.4202 -0.3184
  155MPD2     H 2415   3.516   3.211   0.444 -0.6520 -0.4994  2.0103
  155MPD2    H1 2416   3.140   3.029   0.359 -0.3201  0.7894 -1.5227
  155MPD2    H2 2417   3.486   2.873   0.184 -0.2336 -0.6222  1.0625
  155MPD2    H3 2418   3.232   2.892   0.203  0.8687 -0.3953 -0.7748
  155MPD2     N 2419   3.276   3.204   0.525 -0.5651  0.0793 -0.5581
  155MPD2    H5 2420   3.345   3.244   0.588 -0.9158 -0.5086  0.1986
  155MPD2    N1 2421   3.661   3.038   0.291 -0.0027  0.9654  0.5692
  155MPD2    H7 2422   3.700   2.962   0.236  0.6183  0.8306  1.1894
  156TMC2    C1 2423   3.082   1.665  11.309 -0.0803 -0.0129 -0.2713
  156TMC2    C2 2424   3.110   1.551  11.239  0.1058  0.3832  0.7389
  156TMC2    C3 2425   3.143   1.568  11.106  0.1750  0.6522 -0.1996
  156TMC2    C4 2426   3.103   1.786  11.257 -0.0429  0.1825 -0.4586
  156TMC2    C5 2427   3.140   1.801  11.127  0.4772 -0.5203  0.8397
  156TMC2    C6 2428   3.172   1.692  11.048  0.8190 -0.4705  0.1203
  156TMC2     C 2429   3.067   1.663  11.453  0.3313 -0.0106  0.2224
  156TMC2     O 2430   3.077   1.769  11.510 -0.3905 -0.0246  0.2800
  156TMC2     H 2431   3.083   1.452  11.274  0.9406  0.0272  0.3785
  156TMC2    H1 2432   3.078   1.877  11.311 -1.8409  0.1093 -1.1385
  156TMC2    H2 2433   3.177   1.694  10.939  0.7439  1.4601  0.1596
  156TMC2    C7 2434   3.152   1.936  11.073 -0.0776  0.4670  0.3678
  156TMC2    C8 2435   3.150   1.447  11.021 -0.8840 -0.3383 -0.1070
  156TMC2    O1 2436   3.089   2.029  11.123 -0.3127  0.0043  0.3529
  156TMC2    O2 2437   3.160   1.458  10.899  0.0938 -0.4630 -0.0962
  156TMC2    O5 2438   3.187   1.338  11.090 -0.4553  0.1611 -0.4603
  156TMC2    H5 2439   3.222   1.357  11.179 -1.0097 -4.2396  0.7011
  157MPD2     C 2440   2.978   1.394  11.694  0.7457 -0.2152  0.6222
  157MPD2    C1 2441   3.009   1.518  11.650  0.2533 -0.2267 -0.0506
  157MPD2    C2 2442   3.014   1.616  11.747 -0.8721  0.1275  0.1317
  157MPD2    C3 2443   2.983   1.600  11.877 -0.8341 -0.0576 -0.1563
  157MPD2    C4 2444   2.957   1.472  11.921 -0.0514  0.2574  0.2854
  157MPD2    C5 2445   2.961   1.370  11.826  0.2646  0.3219 -0.5368
  157MPD2     H 2446   3.053   1.714  11.723  0.9994 -0.4050  0.9527
  157MPD2    H1 2447   2.920   1.441  12.018  1.2496  2.4045  1.4739
  157MPD2    H2 2448   2.997   1.311  11.628  2.3640  0.1234  0.6572
  157MPD2    H3 2449   2.943   1.268  11.856  2.7063  0.6641  2.1303
  157MPD2     N 2450   2.988   1.712  11.955 -0.3655  0.6082 -0.3371
  157MPD2    H5 2451   2.996   1.805  11.916 -1.3766 -0.1635 -2.3443
  157MPD2    N1 2452   3.051   1.539  11.513  0.3061 -0.0682  0.1763
  157MPD2    H7 2453   3.061   1.455  11.457 -1.3437 -1.0401  1.3637
  158TMC2    C1 2454   3.198   0.259  13.454 -0.0216  1.5018 -0.1175
  158TMC2    C2 2455   3.247   0.320  13.346  0.2340 -0.8190 -0.6342
  158TMC2    C3 2456   3.167   0.324  13.237 -0.0479 -0.1972  0.1382
  158TMC2    C4 2457   3.078   0.198  13.452  0.3109  0.1393  0.0041
  158TMC2    C5 2458   3.004   0.199  13.341  0.3305  0.3998 -0.1608
  158TMC2    C6 2459   3.044   0.261  13.227  0.1522  0.2613  0.2264
  158TMC2     C 2460   3.264   0.302  13.584  0.7257 -0.5104  0.1927
  158TMC2     O 2461   3.323   0.407  13.577 -0.5940  0.0915  0.7832
  158TMC2     H 2462   3.333   0.385  13.343 -0.2870 -0.2085 -2.5220
  158TMC2    H1 2463   3.039   0.169  13.549  2.2440 -3.2178 -0.2306
  158TMC2    H2 2464   2.988   0.258  13.134  0.4125  1.9058  0.0116
  158TMC2    C7 2465   2.856   0.181  13.344  0.3720  0.5337 -0.6549
  158TMC2    C8 2466   3.208   0.391  13.118  0.1574  0.6310  0.2122
  158TMC2    O1 2467   2.795   0.259  13.268 -0.4450 -0.0850  0.0162
  158TMC2    O2 2468   3.149   0.369  13.016  0.0065 -0.6459  0.4014
  158TMC2    O5 2469   3.264   0.511  13.149 -0.3661 -0.6638 -0.1463
  158TMC2    H5 2470   3.276   0.520  13.246  1.1292 -0.2689 -0.3632
  159MPD2     C 2471   3.395   0.239  14.076  0.2863  0.2567  0.2077
  159MPD2    C1 2472   3.304   0.135  14.040 -0.1765  0.0120 -0.2704
  159MPD2    C2 2473   3.252   0.127  13.915  0.2163 -0.2658 -0.1865
  159MPD2    C3 2474   3.295   0.217  13.819  0.2698  0.5112  0.0669
  159MPD2    C4 2475   3.380   0.326  13.850 -0.2895  0.6912 -0.2219
  159MPD2    C5 2476   3.426   0.332  13.980 -0.2133 -0.1135  0.0166
  159MPD2     H 2477   3.186   0.046  13.885  0.5066 -1.1670  1.6069
  159MPD2    H1 2478   3.427   0.392  13.778  1.8651  0.3653  0.8798
  159MPD2    H2 2479   3.447   0.254  14.169  1.0235  1.5281 -0.4168
  159MPD2    H3 2480   3.497   0.412  13.999  0.9869 -1.3053  0.5693
  159MPD2     N 2481   3.241   0.210  13.692 -1.0178  0.2416 -0.2071
  159MPD2    H5 2482   3.179   0.132  13.674  1.5575 -1.7974 -0.2325
  159MPD2    N1 2483   3.261   0.059  14.155  0.6234  0.1188 -0.4401
  159MPD2    H7 2484   3.303   0.080  14.246 -0.6998 -1.1724  0.4712
  160TMC2    C1 2485   2.105   2.235   1.500  0.1409  0.0078 -0.4777
  160TMC2    C2 2486   2.010   2.140   1.472  0.2245 -0.4772  0.1530
  160TMC2    C3 2487   2.034   2.040   1.383  0.5508 -0.0845  0.1792
  160TMC2    C4 2488   2.231   2.216   1.449 -0.2023  0.1787  0.5770
  160TMC2    C5 2489   2.252   2.115   1.366 -0.0906  0.1539 -0.4982
  160TMC2    C6 2490   2.159   2.034   1.325  0.2078  0.5390 -0.5128
  160TMC2     C 2491   2.083   2.339   1.595 -0.4742  1.2834 -0.0942
  160TMC2     O 2492   2.166   2.361   1.680 -0.2217  0.1555 -0.0905
  160TMC2     H 2493   1.913   2.157   1.517  0.2985  1.0429 -0.2424
  160TMC2    H1 2494   2.309   2.276   1.494  1.1123 -1.3207  0.3024
  160TMC2    H2 2495   2.180   1.966   1.243  0.2466 -1.1265  0.8675
  160TMC2    C7 2496   2.382   2.094   1.313 -0.2715 -0.9049  0.3127
  160TMC2    C8 2497   1.944   2.028   1.269  0.1251  0.1242 -0.7286
  160TMC2    O1 2498   2.422   1.977   1.285  0.2501 -0.0872 -0.2707
  160TMC2    O2 2499   1.965   2.076   1.162 -0.3600 -0.4612 -0.2626
  160TMC2    O5 2500   1.828   2.014   1.329 -0.1807  0.2033  0.0967
  160TMC2    H5 2501   1.830   1.994   1.425 -0.0653  0.7559  0.2116
  161MPD2     C 2502   1.992   2.592   1.723 -0.4388  0.1615  0.9415
  161MPD2    C1 2503   1.943   2.544   1.602  0.5188  0.2868  0.3548
  161MPD2    C2 2504   1.842   2.618   1.542 -0.0139  0.6884 -0.4293
  161MPD2    C3 2505   1.802   2.736   1.606 -0.2339  0.3218 -0.3778
  161MPD2    C4 2506   1.863   2.786   1.721  0.1581  0.0807  0.3521
  161MPD2    C5 2507   1.962   2.710   1.779  0.0816 -0.0030  0.3231
  161MPD2     H 2508   1.797   2.594   1.446  0.9046  0.0040 -0.6889
  161MPD2    H1 2509   1.834   2.877   1.771  1.7823  0.9886 -0.3486
  161MPD2    H2 2510   2.058   2.534   1.786 -0.4547 -0.9247 -0.0376
  161MPD2    H3 2511   2.003   2.743   1.873 -0.0210  1.9624 -0.3329
  161MPD2     N 2512   1.691   2.819   1.567 -0.7581 -1.0505 -0.1302
  161MPD2    H5 2513   1.693   2.913   1.606  0.1494 -0.3891 -1.7897
  161MPD2    N1 2514   1.979   2.418   1.546 -0.6077  0.5599 -0.1683
  161MPD2    H7 2515   1.930   2.389   1.463 -0.2076 -0.1250 -0.1691
  162TMC2    C1 2516   0.078   4.458   0.747  0.4947 -0.6044 -0.3494
  162TMC2    C2 2517   4.688   4.458   0.695 -0.7830 -0.0707 -0.4987
  162TMC2    C3 2518   4.581   4.417   0.765 -0.0937 -0.5354  0.6772
  162TMC2    C4 2519   0.098   4.408   0.871  0.1118  0.1769  0.3967
  162TMC2    C5 2520   4.725   4.370   0.937 -0.0566 -0.0839 -0.3731
  162TMC2    C6 2521   4.596   4.364   0.890 -0.4392  0.8272  0.2458
  162TMC2     C 2522   0.188   4.467   0.653 -0.0192  0.4452 -0.3672
  162TMC2     O 2523   0.163   4.489   0.535  0.0721 -0.4161 -0.5987
  162TMC2     H 2524   4.668   4.478   0.590  0.0692 -0.3125 -0.7063
  162TMC2    H1 2525   0.193   4.430   0.917 -1.5922  2.3918  2.8447
  162TMC2    H2 2526   4.524   4.306   0.947 -0.6530 -0.3833 -1.2666
  162TMC2    C7 2527   0.006   4.326   1.072  0.2249 -0.2694  0.0627
  162TMC2    C8 2528   4.473   4.367   0.682 -0.4820 -0.1934  0.0762
  162TMC2    O1 2529   4.639   4.314   1.137  0.4915  0.3479  0.2705
  162TMC2    O2 2530   4.436   4.421   0.576  0.0106 -0.5013  0.8094
  162TMC2    O5 2531   4.481   4.231   0.694 -0.3227  0.1169 -0.3014
  162TMC2    H5 2532   4.517   4.191   0.777 -0.1500 -3.1429 -1.9509
  163MPD2     C 2533   0.648   4.542   0.447  0.0231 -0.3064  0.2439
  163MPD2    C1 2534   0.534   4.509   0.390 -0.4321  0.2996  0.4462
  163MPD2    C2 2535   0.428   4.481   0.467  0.0914  0.0791 -0.0840
  163MPD2    C3 2536   0.425   4.505   0.610  0.7626 -0.9265  0.3838
  163MPD2    C4 2537   0.545   4.539   0.663  0.2498  0.2726  0.2900
  163MPD2    C5 2538   0.652   4.549   0.584 -0.9456  0.0954  0.2602
  163MPD2     H 2539   0.339   4.438   0.421  1.6971 -0.5696 -2.5964
  163MPD2    H1 2540   0.554   4.543   0.771 -0.7401 -0.2874  0.3887
  163MPD2    H2 2541   0.733   4.566   0.384  0.6769  1.6436  1.8704
  163MPD2    H3 2542   0.743   4.566   0.640 -0.7202 -0.0242 -0.0679
  163MPD2     N 2543   0.311   4.486   0.699 -0.1903  0.0006 -0.3244
  163MPD2    H5 2544   0.318   4.496   0.800 -0.3972 -2.4662 -0.0571
  163MPD2    N1 2545   0.539   4.487   0.252  1.1517 -1.0050 -0.4915
  163MPD2    H7 2546   0.627   4.491   0.202  0.6608 -0.3893 -1.2932
  164TMC2    C1 2547   1.369   4.637  11.462  0.7812  0.3006  0.7143
  164TMC2    C2 2548   1.452   4.687  11.368  0.1622  0.2568  0.5877
  164TMC2    C3 2549   1.438   0.080  11.335  0.5509 -0.0886  0.0449
  164TMC2    C4 2550   1.264   4.708  11.513 -0.7651 -0.1862 -0.2771
  164TMC2    C5 2551   1.239   0.089  11.453 -0.3960 -0.3284 -0.3654
  164TMC2    C6 2552   1.325   0.151  11.367 -0.3496  0.0283 -0.0207
  164TMC2     C 2553   1.387   4.507  11.517  0.3359  0.1477 -0.6921
  164TMC2     O 2554   1.362   4.494  11.637  0.5895 -0.1846 -0.3680
  164TMC2     H 2555   1.548   4.638  11.351 -0.9812 -1.3258 -1.1874
  164TMC2    H1 2556   1.207   4.652  11.586  0.4342 -0.3307  0.5580
  164TMC2    H2 2557   1.284   0.224  11.299  1.9602  2.6276  1.3935
  164TMC2    C7 2558   1.099   0.116  11.436  0.6895  0.3246 -0.0420
  164TMC2    C8 2559   1.532   0.147  11.244 -0.8019 -0.5503 -0.0503
  164TMC2    O1 2560   1.062   0.195  11.344  0.9449 -0.3237 -0.2883
  164TMC2    O2 2561   1.624   0.089  11.189  0.1901  0.4422 -0.5895
  164TMC2    O5 2562   1.534   0.273  11.289 -0.1403 -0.5079 -0.3081
  164TMC2    H5 2563   1.454   0.310  11.330 -0.2349  0.8852 -1.7453
  165TMC2    C1 2564   2.204   1.795   1.645  0.6339 -0.0442  0.2225
  165TMC2    C2 2565   2.135   1.886   1.715  0.2304 -0.1593 -0.4718
  165TMC2    C3 2566   2.207   1.976   1.790 -0.4470 -0.7550 -0.2393
  165TMC2    C4 2567   2.346   1.801   1.636  0.3122 -0.2918  0.5956
  165TMC2    C5 2568   2.411   1.903   1.698  0.6661  0.7713  0.2371
  165TMC2    C6 2569   2.339   1.987   1.779 -0.2763  0.2917  0.2212
  165TMC2     C 2570   2.140   1.726   1.532 -0.0667  0.3063  0.3900
  165TMC2     O 2571   2.021   1.701   1.542  0.0737 -0.1386 -0.3750
  165TMC2     H 2572   2.027   1.881   1.723  0.3262  0.0596  0.9562
  165TMC2    H1 2573   2.397   1.714   1.596  1.3964  1.9769 -3.0109
  165TMC2    H2 2574   2.400   2.056   1.836  0.0138 -0.0665  0.3430
  165TMC2    C7 2575   2.538   1.937   1.637 -0.2075  0.0386 -0.3113
  165TMC2    C8 2576   2.130   2.062   1.877 -0.9944 -0.4666 -0.2300
  165TMC2    O1 2577   2.588   1.844   1.578 -0.5072  0.5411 -0.1667
  165TMC2    O2 2578   2.006   2.079   1.866  0.2660 -0.7184  0.0573
  165TMC2    O5 2579   2.206   2.080   1.988 -0.3119  0.0265 -0.2786
  165TMC2    H5 2580   2.275   2.012   2.000  0.7990  1.1467 -0.3130
  166MPD2     C 2581   2.205   1.578   1.036 -0.6434  0.1752 -0.5270
  166MPD2    C1 2582   2.088   1.612   1.101 -0.2991  0.1662  0.2639
  166MPD2    C2 2583   2.091   1.666   1.231  0.1887 -0.3786 -0.6148
  166MPD2    C3 2584   2.215   1.680   1.297 -0.6285 -0.1817 -0.1067
  166MPD2    C4 2585   2.328   1.641   1.231  0.5231 -0.9481  0.3153
  166MPD2    C5 2586   2.328   1.598   1.102  1.1609  0.0683 -0.0113
  166MPD2     H 2587   1.999   1.697   1.279  1.5630  2.4654  0.1715
  166MPD2    H1 2588   2.426   1.649   1.276  0.1465  1.6110  0.6828
  166MPD2    H2 2589   2.218   1.528   0.941  2.2289 -0.8756  0.4053
  166MPD2    H3 2590   2.415   1.564   1.047  1.1310 -1.1825  0.7068
  166MPD2     N 2591   2.231   1.727   1.425 -0.7983 -0.0766 -0.0762
  166MPD2    H5 2592   2.318   1.776   1.444  0.3790 -1.0099 -3.1778
  166MPD2    N1 2593   1.964   1.613   1.022  0.2261 -0.1047 -0.2363
  166MPD2    H7 2594   1.971   1.570   0.931  1.6186  1.1290 -0.7069
  167TMC2    C1 2595   1.203   3.383  12.974  0.5643  0.2857  0.9511
  167TMC2    C2 2596   1.141   3.265  13.025 -0.6755  0.4885  0.7250
  167TMC2    C3 2597   1.208   3.155  12.996 -0.6998 -0.0917  0.7715
  167TMC2    C4 2598   1.330   3.388  12.919  0.2703  0.5290 -0.3422
  167TMC2    C5 2599   1.383   3.266  12.885 -0.0230 -0.2338 -0.2261
  167TMC2    C6 2600   1.330   3.153  12.935 -0.1792 -0.0995  0.8268
  167TMC2     C 2601   1.124   3.496  12.959  0.7249 -0.1966 -0.4711
  167TMC2     O 2602   1.171   3.576  12.877 -0.3750 -0.3788 -0.4777
  167TMC2     H 2603   1.040   3.262  13.064 -1.3683  2.9127 -0.9118
  167TMC2    H1 2604   1.380   3.479  12.889  1.1126 -0.7052 -2.7491
  167TMC2    H2 2605   1.388   3.069  12.900  1.2927  0.0433  2.9325
  167TMC2    C7 2606   1.489   3.261  12.782 -0.4555 -0.2068 -0.0220
  167TMC2    C8 2607   1.135   3.026  13.024  0.0213 -0.7306 -0.1345
  167TMC2    O1 2608   1.569   3.175  12.799 -0.2696  0.2145 -0.5067
  167TMC2    O2 2609   1.015   3.035  13.043 -0.5744 -0.2452  0.0731
  167TMC2    O5 2610   1.229   2.954  13.095  0.7492 -0.1948 -0.4551
  167TMC2    H5 2611   1.318   2.991  13.080  2.1836 -3.8181 -0.6550
  168MPD2     C 2612   0.789   3.566  13.108 -0.7847  0.4548  0.1031
  168MPD2    C1 2613   0.893   3.579  13.020  0.0041 -1.1074  0.0523
  168MPD2    C2 2614   0.881   3.664  12.911 -0.1694  0.2022  0.0649
  168MPD2    C3 2615   0.770   3.741  12.897  0.4329 -0.5019  0.1700
  168MPD2    C4 2616   0.677   3.734  12.998 -0.3601 -0.4140  0.8075
  168MPD2    C5 2617   0.682   3.646  13.100 -0.4503 -0.3827  0.2636
  168MPD2     H 2618   0.964   3.680  12.843  0.1186 -1.7132 -0.0465
  168MPD2    H1 2619   0.588   3.796  12.992  1.7289  2.6706  1.8678
  168MPD2    H2 2620   0.807   3.494  13.188  1.4363  2.1679  1.1446
  168MPD2    H3 2621   0.606   3.633  13.176 -0.2621 -2.6780  0.0599
  168MPD2     N 2622   0.768   3.830  12.789 -0.5410 -0.1200 -0.4468
  168MPD2    H5 2623   0.846   3.823  12.724 -0.7674 -0.7520 -0.6522
  168MPD2    N1 2624   1.011   3.508  13.046 -0.3269  0.1972 -0.1804
  168MPD2    H7 2625   1.011   3.452  13.131  2.3513  1.0135  0.3744
  169MPD1     C 2626   2.810   0.297   8.736  0.5755 -0.2164  0.7499
  169MPD1    C1 2627   2.940   0.263   8.765  0.0010 -0.8484  0.2348
  169MPD1    C2 2628   2.970   0.189   8.879 -0.0363  0.6323 -1.0668
  169MPD1    C3 2629   2.864   0.151   8.968  0.0922 -0.3460  0.2724
  169MPD1    C4 2630   2.732   0.195   8.941 -0.7635 -0.7596 -0.0661
  169MPD1    C5 2631   2.712   0.259   8.820  0.2893  1.0966 -0.5892
  169MPD1     H 2632   3.067   0.143   8.892 -1.5909 -2.2357  0.5924
  169MPD1    H1 2633   2.647   0.173   9.004  0.2982  1.8163  2.2885
  169MPD1    H2 2634   2.787   0.352   8.646 -0.0497  0.9004  1.5937
  169MPD1    H3 2635   2.612   0.290   8.794  0.1909  0.1938 -1.2697
  169MPD1     N 2636   2.901   0.079   9.088  0.2095  0.4039 -0.2626
  169MPD1    H5 2637   2.998   0.052   9.102  0.6646  2.5238  0.5183
  169MPD1    N1 2638   3.043   0.294   8.681  0.2997  0.2858 -0.6449
  169MPD1    H6 2639   3.129   0.285   8.735  1.1719 -0.6140 -2.1621
  169MPD1    H7 2640   3.027   0.383   8.634 -0.7889  1.0087  1.0898
  170MPD1     C 2641   1.658   1.300  12.821 -0.7383 -0.0480  0.5659
  170MPD1    C1 2642   1.632   1.220  12.928  0.3288 -0.2665  0.2985
  170MPD1    C2 2643   1.629   1.273  13.055  0.3728  0.6067  0.2853
  170MPD1    C3 2644   1.668   1.402  13.076 -0.3867  0.2882  0.0304
  170MPD1    C4 2645   1.697   1.485  12.970 -0.7230 -0.2576 -0.4400
  170MPD1    C5 2646   1.688   1.433  12.842  0.3649  0.4740  0.1276
  170MPD1     H 2647   1.589   1.221  13.142  2.5036 -0.6141  0.5202
  170MPD1    H1 2648   1.743   1.583  12.975  2.1236 -1.7289  2.0761
  170MPD1    H2 2649   1.670   1.266  12.719 -1.3100  1.1623  0.0859
  170MPD1    H3 2650   1.723   1.496  12.761  1.5620  0.6869  0.7949
  170MPD1     N 2651   1.677   1.447  13.208 -0.2412  0.2562  0.1041
  170MPD1    H5 2652   1.635   1.394  13.283  0.9801  2.1709  2.1317
  170MPD1    N1 2653   1.569   1.097  12.904 -0.1954 -0.8068  0.2614
  170MPD1    H6 2654   1.624   1.051  12.832 -1.0099  0.4678 -1.1550
  170MPD1    H7 2655   1.586   1.034  12.982  0.0159  2.5138  2.8980
  171MPD1     C 2656   0.507   3.421  15.374 -0.3605 -0.3553  0.0660
  171MPD1    C1 2657   0.566   3.373  15.493 -0.2344  0.5653 -0.0827
  171MPD1    C2 2658   0.554   3.240  15.528  0.6630  0.6090  0.1061
  171MPD1    C3 2659   0.464   3.153  15.463 -0.4166 -0.3980 -0.1308
  171MPD1    C4 2660   0.399   3.206  15.358  0.2875  0.0292  0.1306
  171MPD1    C5 2661   0.423   3.334  15.318  0.7203  0.0734  0.3640
  171MPD1     H 2662   0.610   3.196  15.610  2.2221  1.0772 -0.7068
  171MPD1    H1 2663   0.330   3.150  15.296 -0.8903  1.9351 -0.3130
  171MPD1    H2 2664   0.516   3.524  15.342  1.7374 -0.7691 -0.6900
  171MPD1    H3 2665   0.363   3.368  15.233 -1.1074  0.3069  1.7388
  171MPD1     N 2666   0.430   3.017  15.496 -0.3984 -0.7751 -0.4752
  171MPD1    H5 2667   0.353   2.977  15.442 -0.5632  0.6378 -1.3088
  171MPD1    N1 2668   0.663   3.457  15.555  0.1910 -0.1900 -0.1466
  171MPD1    H6 2669   0.645   3.555  15.533 -0.5533 -0.4182 -0.5544
  171MPD1    H7 2670   0.666   3.444  15.656 -0.3194 -1.2120 -0.2624
  172MPD1     C 2671   4.394   1.194   0.481 -0.0880 -0.1242 -0.1886
  172MPD1    C1 2672   4.289   1.270   0.448 -0.1285  0.1403  0.5433
  172MPD1    C2 2673   4.252   1.368   0.536 -0.9084 -0.2340 -0.5328
  172MPD1    C3 2674   4.308   1.362   0.667  0.2707 -0.1287 -0.9505
  172MPD1    C4 2675   4.412   1.278   0.699  0.5114 -1.2379 -0.3419
  172MPD1    C5 2676   4.459   1.192   0.608  0.4462 -0.3033 -0.1003
  172MPD1     H 2677   4.168   1.434   0.521 -1.0883  0.0057  1.4726
  172MPD1    H1 2678   4.442   1.276   0.803  0.3973  0.3014 -0.2868
  172MPD1    H2 2679   4.429   1.112   0.419 -1.9671 -2.1766  1.4230
  172MPD1    H3 2680   4.541   1.124   0.628  2.0827  1.8007  0.4544
  172MPD1     N 2681   4.258   1.434   0.775 -0.8338 -0.0803  0.1403
  172MPD1    H5 2682   4.291   1.410   0.868  0.6527 -0.3317 -0.4438
  172MPD1    N1 2683   4.227   1.244   0.324 -0.5183 -0.2512  0.1645
  172MPD1    H6 2684   4.143   1.299   0.309 -0.9727 -0.5780  1.5487
  172MPD1    H7 2685   4.206   1.149   0.295  0.7722 -0.4397 -0.1838
  173MPD1     C 2686   0.910   2.594  13.649 -0.0666 -0.4226 -0.0443
  173MPD1    C1 2687   0.817   2.590  13.748 -0.5370  0.1826  0.7134
  173MPD1    C2 2688   0.838   2.500  13.849 -0.2523  0.2846 -0.1610
  173MPD1    C3 2689   0.926   2.402  13.843  0.1909  0.8002  0.4001
  173MPD1    C4 2690   1.025   2.404  13.744  0.6205  0.2643  0.4074
  173MPD1    C5 2691   1.012   2.502  13.643  1.2698 -0.0591 -0.1214
  173MPD1     H 2692   0.773   2.503  13.936 -2.4164  3.0245 -1.9145
  173MPD1    H1 2693   1.107   2.334  13.734 -0.7626 -1.3187 -0.0131
  173MPD1    H2 2694   0.912   2.671  13.573 -0.8373  1.6100  1.9983
  173MPD1    H3 2695   1.092   2.507  13.569  1.3167 -2.8631 -0.2627
  173MPD1     N 2696   0.936   2.312  13.954 -0.0574  0.1071  0.2413
  173MPD1    H5 2697   0.859   2.315  14.020 -0.3994 -1.4249 -0.0673
  173MPD1    N1 2698   0.721   2.696  13.756  0.1587 -0.4300 -1.1453
  173MPD1    H6 2699   0.670   2.721  13.672 -0.2558 -1.6970 -1.2694
  173MPD1    H7 2700   0.647   2.678  13.823  0.7649  1.6614  0.0914
  174MPD1     C 2701   1.694   1.641  14.184 -0.5702 -1.0490  0.3159
  174MPD1    C1 2702   1.607   1.650  14.294 -0.6930  0.3375  0.8341
  174MPD1    C2 2703   1.485   1.716  14.288 -0.3337 -0.0138 -1.7487
  174MPD1    C3 2704   1.440   1.773  14.168  0.1178 -0.4658  0.7281
  174MPD1    C4 2705   1.535   1.780  14.072  0.4208 -0.4037 -0.1983
  174MPD1    C5 2706   1.656   1.722  14.077  0.1721 -0.3888 -0.0748
  174MPD1     H 2707   1.415   1.699  14.369  1.8668 -1.0862 -0.0625
  174MPD1    H1 2708   1.516   1.837  13.982  0.6457 -2.2523 -1.4177
  174MPD1    H2 2709   1.778   1.573  14.178  0.8684  0.8577 -1.0986
  174MPD1    H3 2710   1.717   1.734  13.988 -0.0814 -1.3366 -0.3789
  174MPD1     N 2711   1.316   1.849  14.147  0.0511 -0.1998  0.4438
  174MPD1    H5 2712   1.301   1.895  14.058  0.0064  0.2144  0.6651
  174MPD1    N1 2713   1.630   1.555  14.397 -0.0358  0.2700  0.4272
  174MPD1    H6 2714   1.618   1.596  14.489  1.6847  2.2248 -0.2256
  174MPD1    H7 2715   1.729   1.534  14.383 -0.3955 -0.5879 -0.9123
  175MPD1     C 2716   4.065   2.950  15.933  0.2292 -0.6024 -0.6486
  175MPD1    C1 2717   3.983   2.847  15.980 -0.9316  0.1707 -0.8361
  175MPD1    C2 2718   3.979   2.814  16.115  0.3250 -0.1461 -0.1132
  175MPD1    C3 2719   4.086   2.853  16.193 -0.0735 -0.1115  0.2378
  175MPD1    C4 2720   4.180   2.938  16.138  0.3435  0.5385 -0.2715
  175MPD1    C5 2721   4.158   2.996  16.017 -0.1409  0.0344  0.1397
  175MPD1     H 2722   3.901   2.752  16.156  1.1412 -1.3175 -0.2993
  175MPD1    H1 2723   4.258   2.981  16.199 -0.1331  0.7223  0.2048
  175MPD1    H2 2724   4.057   2.988  15.832  0.5957  2.0358  0.3322
  175MPD1    H3 2725   4.212   3.082  15.979  1.3998 -1.2077 -0.4851
  175MPD1     N 2726   4.105   2.825  16.330 -0.9660 -0.0542  0.6630
  175MPD1    H5 2727   4.186   2.871  16.371  0.2529  0.3833 -2.1955
  175MPD1    N1 2728   3.881   2.804  15.891 -0.3051 -0.0441 -0.3820
  175MPD1    H6 2729   3.851   2.711  15.922 -0.3143 -0.5929 -2.0728
  175MPD1    H7 2730   3.906   2.804  15.793 -0.2846  1.1445 -0.3682
  176MPD1     C 2731   0.796   4.220  17.002 -0.0087 -0.3299 -0.0601
  176MPD1    C1 2732   0.733   4.269  17.109  0.3613 -0.5528  0.3249
  176MPD1    C2 2733   0.725   4.407  17.122 -0.3768 -1.1953  0.6333
  176MPD1    C3 2734   0.785   4.489  17.031  0.1859 -0.2406 -0.4329
  176MPD1    C4 2735   0.858   4.438  16.924  0.0769  0.7606  0.5342
  176MPD1    C5 2736   0.849   4.303  16.906 -0.8353  0.4809 -0.4694
  176MPD1     H 2737   0.661   4.453  17.198  0.5814  0.9351  0.1563
  176MPD1    H1 2738   0.908   4.500  16.850  1.1286 -0.8287 -0.0959
  176MPD1    H2 2739   0.813   4.114  16.985 -1.9295 -0.5446 -0.7105
  176MPD1    H3 2740   0.892   4.255  16.819  0.1182 -0.2153  0.3851
  176MPD1     N 2741   0.778   4.633  17.047  0.4750  0.3121 -0.0948
  176MPD1    H5 2742   0.730   4.660  17.131 -0.9028 -0.1181 -0.7397
  176MPD1    N1 2743   0.696   4.177  17.215  0.1682  0.3532  0.2243
  176MPD1    H6 2744   0.689   4.079  17.189  1.5505  0.1193  0.7630
  176MPD1    H7 2745   0.605   4.207  17.251  0.1751  0.3950  0.2063
  177MPD1     C 2746   4.220   4.736   8.005 -0.8217 -0.3328 -0.1707
  177MPD1    C1 2747   4.111   0.085   8.026 -0.5156  1.2213  0.4659
  177MPD1    C2 2748   4.094   0.138   8.152 -0.9720 -0.4097  0.5135
  177MPD1    C3 2749   4.200   0.130   8.246 -0.0562 -0.6370  0.3745
  177MPD1    C4 2750   4.312   0.055   8.218  0.1082 -0.3393  0.0344
  177MPD1    C5 2751   4.320   4.731   8.097  0.0153 -0.1055  0.6467
  177MPD1     H 2752   3.997   0.181   8.174 -0.9374  0.6768 -1.4883
  177MPD1    H1 2753   4.405   0.063   8.272 -1.6673  1.9788  2.7508
  177MPD1    H2 2754   4.240   4.683   7.913 -2.8071 -0.8706 -0.2870
  177MPD1    H3 2755   4.412   4.675   8.083 -0.4271 -1.0131  1.2961
  177MPD1     N 2756   4.183   0.185   8.380 -0.4695  0.4286  1.1642
  177MPD1    H5 2757   4.105   0.248   8.395  0.4244  1.2048  2.5464
  177MPD1    N1 2758   4.000   0.093   7.938  0.2498 -0.2436 -0.0434
  177MPD1    H6 2759   3.942   0.175   7.948 -1.2411 -1.3081  0.0464
  177MPD1    H7 2760   4.025   0.093   7.839  0.0340  1.8981 -0.0865
  178MPD1     C 2761   1.656   1.557  17.157 -0.9282 -0.4453  0.0085
  178MPD1    C1 2762   1.556   1.480  17.212 -0.0396  0.4650 -0.2383
  178MPD1    C2 2763   1.567   1.348  17.212 -0.6854  0.1151 -0.1785
  178MPD1    C3 2764   1.680   1.288  17.164 -0.5596  0.4702 -0.3994
  178MPD1    C4 2765   1.786   1.363  17.109 -0.3843  0.3365  0.1276
  178MPD1    C5 2766   1.771   1.498  17.105  0.0004  0.2814  0.5613
  178MPD1     H 2767   1.492   1.289  17.265 -0.9017 -0.8226 -1.5378
  178MPD1    H1 2768   1.879   1.318  17.076  0.0796  1.0025  0.5348
  178MPD1    H2 2769   1.642   1.664  17.146  2.2195  0.0424  0.8095
  178MPD1    H3 2770   1.849   1.566  17.072  0.0717 -0.5634 -1.0432
  178MPD1     N 2771   1.685   1.149  17.156  0.0065  0.9228 -0.3903
  178MPD1    H5 2772   1.776   1.108  17.139 -0.9124 -0.3149 -2.2705
  178MPD1    N1 2773   1.443   1.548  17.259  0.8291  0.1736  0.1858
  178MPD1    H6 2774   1.362   1.507  17.212  1.0015  0.8690 -0.7187
  178MPD1    H7 2775   1.444   1.643  17.222  1.2310 -0.4580 -1.4507
  179MPD1     C 2776   1.696   3.671  15.265  0.5187 -0.2366  0.2090
  179MPD1    C1 2777   1.724   3.556  15.334 -1.1331  0.2980  0.0525
  179MPD1    C2 2778   1.658   3.541  15.453 -0.5846  0.4290  0.7281
  179MPD1    C3 2779   1.585   3.648  15.507  0.1158  0.5320  0.3600
  179MPD1    C4 2780   1.572   3.770  15.435  0.1878  0.5377 -0.0471
  179MPD1    C5 2781   1.626   3.781  15.308  0.2488 -0.3233  0.4702
  179MPD1     H 2782   1.651   3.443  15.499 -1.9838  0.6588  1.0228
  179MPD1    H1 2783   1.513   3.847  15.483 -1.7339  0.6972 -2.7180
  179MPD1    H2 2784   1.746   3.687  15.170  1.1658 -0.5320  0.4986
  179MPD1    H3 2785   1.630   3.878  15.261 -1.0676 -1.8488 -2.7705
  179MPD1     N 2786   1.518   3.646  15.629  0.3755  0.3755 -0.1950
  179MPD1    H5 2787   1.484   3.735  15.665 -0.7142  0.0225 -0.3352
  179MPD1    N1 2788   1.786   3.451  15.272  0.3859 -1.0864 -0.6288
  179MPD1    H6 2789   1.862   3.486  15.214  0.2398 -1.5657 -1.1166
  179MPD1    H7 2790   1.812   3.380  15.340  0.0755 -0.9865 -0.4065
  180MPD1     C 2791   0.448   1.292  14.047  0.4679 -0.0274  0.5169
  180MPD1    C1 2792   0.547   1.298  14.142 -0.2972 -0.3554  0.0887
  180MPD1    C2 2793   0.578   1.183  14.214  0.8636 -0.6466 -0.3747
  180MPD1    C3 2794   0.511   1.064  14.187 -0.1372 -0.0419  0.3652
  180MPD1    C4 2795   0.414   1.062  14.086  0.4308 -0.1045 -0.3611
  180MPD1    C5 2796   0.385   1.175  14.017  0.4146 -0.5963  0.3061
  180MPD1     H 2797   0.650   1.182  14.294  1.5635 -0.0519 -1.0012
  180MPD1    H1 2798   0.372   0.967  14.054 -1.0923 -0.5162  2.7731
  180MPD1    H2 2799   0.412   1.380  13.996  0.2756  1.1087  2.6366
  180MPD1    H3 2800   0.322   1.180  13.928  1.7206  1.0762 -0.5383
  180MPD1     N 2801   0.530   0.954  14.274  0.4340 -0.2316  0.1740
  180MPD1    H5 2802   0.599   0.979  14.344  2.3620 -1.7079 -1.2386
  180MPD1    N1 2803   0.596   1.419  14.193 -0.2197  0.4692  0.3308
  180MPD1    H6 2804   0.688   1.394  14.229  0.1619  0.8268 -0.3761
  180MPD1    H7 2805   0.593   1.503  14.134 -0.7155  0.1645 -0.0789
  181MPD1     C 2806   2.555   3.538   9.986 -0.4847  1.0218  0.1818
  181MPD1    C1 2807   2.643   3.620  10.057 -0.1898  0.5275 -0.8120
  181MPD1    C2 2808   2.763   3.573  10.097  0.0027 -1.0350  0.1364
  181MPD1    C3 2809   2.797   3.439  10.078  0.3362  0.4957  0.5829
  181MPD1    C4 2810   2.703   3.353  10.023 -0.2731  0.1214 -0.2158
  181MPD1    C5 2811   2.584   3.399   9.981 -0.0576 -0.4182 -0.0586
  181MPD1     H 2812   2.837   3.640  10.139 -1.5128  1.0384 -0.5026
  181MPD1    H1 2813   2.729   3.251  10.000  2.6932  0.4958  1.4800
  181MPD1    H2 2814   2.465   3.580   9.944 -0.6926 -0.2831 -0.6977
  181MPD1    H3 2815   2.510   3.336   9.933  0.5104 -1.3883  0.3363
  181MPD1     N 2816   2.921   3.384  10.120 -0.2950 -0.1980 -0.4267
  181MPD1    H5 2817   2.942   3.286  10.101 -2.2601 -0.7127  0.0091
  181MPD1    N1 2818   2.615   3.758  10.059 -0.2745 -0.0998 -0.4112
  181MPD1    H6 2819   2.514   3.771  10.059 -0.2550  0.0238 -0.9607
  181MPD1    H7 2820   2.655   3.811  10.137  0.0412  1.5193 -1.6756
  182MPD1     C 2821   3.301   1.821   2.051 -0.2341 -0.0536 -0.1314
  182MPD1    C1 2822   3.275   1.880   1.931  0.2615 -0.1689 -0.4432
  182MPD1    C2 2823   3.255   1.812   1.819  1.0117 -0.0643  0.1514
  182MPD1    C3 2824   3.246   1.677   1.831  0.1199 -0.0338  0.8933
  182MPD1    C4 2825   3.250   1.613   1.953  0.4781 -0.6373  0.0385
  182MPD1    C5 2826   3.284   1.690   2.063  0.2737 -0.1842  0.4324
  182MPD1     H 2827   3.246   1.856   1.721 -0.4758 -1.6767 -0.4242
  182MPD1    H1 2828   3.239   1.507   1.972 -0.6725 -0.7760 -1.4239
  182MPD1    H2 2829   3.334   1.870   2.142  0.4423 -1.2065  0.2361
  182MPD1    H3 2830   3.308   1.643   2.158  2.7122 -0.5919 -0.3864
  182MPD1     N 2831   3.220   1.593   1.718 -0.5020  0.4895  0.7541
  182MPD1    H5 2832   3.239   1.496   1.741  0.4890  0.6140  0.4480
  182MPD1    N1 2833   3.289   2.019   1.915 -0.4064 -0.1497 -0.5848
  182MPD1    H6 2834   3.250   2.050   1.826 -0.2078  1.2052 -0.1975
  182MPD1    H7 2835   3.269   2.078   1.995  0.4036 -0.7915  0.0867
  183MPD1     C 2836   4.245   1.618   9.271  0.1168 -0.2842  0.4682
  183MPD1    C1 2837   4.147   1.711   9.277  0.3316  0.0585  0.1984
  183MPD1    C2 2838   4.092   1.745   9.401  0.2159 -0.5639  0.5247
  183MPD1    C3 2839   4.144   1.696   9.517 -0.4578  0.8767 -0.2777
  183MPD1    C4 2840   4.261   1.627   9.508  0.5358  0.5426  0.2579
  183MPD1    C5 2841   4.302   1.577   9.384  0.1910 -0.4800  0.2785
  183MPD1     H 2842   4.006   1.811   9.401  1.1314  0.6412 -0.4172
  183MPD1    H1 2843   4.300   1.581   9.598  2.9511 -1.0476 -1.6160
  183MPD1    H2 2844   4.275   1.576   9.176  1.1484  1.5888 -0.0342
  183MPD1    H3 2845   4.372   1.494   9.378  1.1541  0.3151  0.5787
  183MPD1     N 2846   4.096   1.746   9.643 -0.1634  0.1447  0.1685
  183MPD1    H5 2847   4.023   1.816   9.647  0.4152  0.6900  1.1551
  183MPD1    N1 2848   4.073   1.743   9.163 -0.2744 -0.3855 -0.0220
  183MPD1    H6 2849   4.128   1.755   9.078 -3.1878  0.8783 -1.7097
  183MPD1    H7 2850   4.032   1.833   9.186 -2.4067 -0.7830 -2.3216
  184MPD1     C 2851   3.371   0.731  10.183  0.3292 -0.4619 -0.0111
  184MPD1    C1 2852   3.280   0.645  10.138 -0.1155 -0.1267  0.5948
  184MPD1    C2 2853   3.280   0.602  10.007  0.0023  0.2621 -0.2623
  184MPD1    C3 2854   3.376   0.650   9.918 -0.3739  0.0498 -0.0880
  184MPD1    C4 2855   3.477   0.729   9.972  0.0354  0.5516 -0.6266
  184MPD1    C5 2856   3.470   0.769  10.099  0.3304  0.0849 -0.4218
  184MPD1     H 2857   3.195   0.543   9.975  0.3016  1.0038 -2.4161
  184MPD1    H1 2858   3.562   0.762   9.913 -0.7714  0.9658 -1.5712
  184MPD1    H2 2859   3.366   0.776  10.281 -1.2003  2.7141 -1.5415
  184MPD1    H3 2860   3.547   0.837  10.135  0.2561 -0.1955  0.2576
  184MPD1     N 2861   3.384   0.617   9.779 -0.0532  0.5792  0.5471
  184MPD1    H5 2862   3.461   0.645   9.720  1.3309  1.7751  2.9101
  184MPD1    N1 2863   3.164   0.612  10.219  0.7206 -0.6949 -0.8268
  184MPD1    H6 2864   3.189   0.627  10.316  0.1851  1.4707 -1.0041
  184MPD1    H7 2865   3.128   0.518  10.203 -0.5251 -0.5933  1.4607
  185MPD1     C 2866   3.140   0.815   8.793  0.5475 -0.0087 -0.1014
  185MPD1    C1 2867   3.082   0.848   8.909 -0.2308 -0.1876  0.2680
  185MPD1    C2 2868   3.102   0.767   9.025 -0.1721 -0.8084  0.3176
  185MPD1    C3 2869   3.191   0.665   9.020 -0.7276  0.7426 -0.4164
  185MPD1    C4 2870   3.258   0.639   8.901  0.0751  0.1749  0.4035
  185MPD1    C5 2871   3.223   0.708   8.789  0.1599  0.2930 -0.1995
  185MPD1     H 2872   3.040   0.787   9.111 -2.1373 -0.8718 -1.0656
  185MPD1    H1 2873   3.334   0.563   8.889 -1.8921 -1.9568  1.6342
  185MPD1    H2 2874   3.121   0.868   8.700 -3.1488  0.2188  0.7905
  185MPD1    H3 2875   3.269   0.678   8.696  0.8445 -0.6187  0.4420
  185MPD1     N 2876   3.226   0.576   9.124 -0.2934 -0.2595  0.4463
  185MPD1    H5 2877   3.290   0.504   9.093 -0.6699 -0.6438  0.5602
  185MPD1    N1 2878   2.992   0.958   8.914 -0.0170  0.1222  0.3527
  185MPD1    H6 2879   2.970   1.000   9.004 -1.2356  1.3857 -0.5245
  185MPD1    H7 2880   3.021   1.030   8.848 -1.0925  0.4976  0.2844
  186MPD1     C 2881   1.892   3.267  15.891 -0.0964  0.3459  0.5408
  186MPD1    C1 2882   1.912   3.374  15.803 -0.2224 -0.2679 -0.0575
  186MPD1    C2 2883   1.863   3.499  15.838  0.1012  0.5186  0.6951
  186MPD1    C3 2884   1.804   3.520  15.961  0.2233 -0.1368  0.2872
  186MPD1    C4 2885   1.793   3.416  16.054  0.4669 -0.0418 -0.3206
  186MPD1    C5 2886   1.840   3.292  16.016  0.2505  0.6405 -0.1233
  186MPD1     H 2887   1.868   3.572  15.758 -2.1226  0.9771  0.9732
  186MPD1    H1 2888   1.749   3.424  16.153 -0.6963  1.9322 -0.9844
  186MPD1    H2 2889   1.925   3.166  15.868 -0.7200  0.5096 -1.1004
  186MPD1    H3 2890   1.825   3.208  16.082 -0.3039  2.5476  2.1791
  186MPD1     N 2891   1.762   3.651  15.999 -0.2587  0.0339 -0.5145
  186MPD1    H5 2892   1.709   3.662  16.084  0.2061  1.8711 -0.4460
  186MPD1    N1 2893   1.956   3.346  15.672  0.2163  0.0521 -0.2330
  186MPD1    H6 2894   2.006   3.433  15.649 -0.5322  0.9214  1.4715
  186MPD1    H7 2895   2.019   3.266  15.672  2.3273  1.6896  0.5883
  187MPD1     C 2896   1.407   0.710  17.552 -0.4118 -1.0290  0.2411
  187MPD1    C1 2897   1.284   0.656  17.540  0.0077 -0.5591  1.1182
  187MPD1    C2 2898   1.180   0.736  17.503  0.0743  0.4374 -1.1455
  187MPD1    C3 2899   1.195   0.865  17.468  0.1163 -1.2182  0.3727
  187MPD1    C4 2900   1.321   0.912  17.478  0.6376 -0.5537  0.5754
  187MPD1    C5 2901   1.426   0.843  17.529 -0.0688  0.4246 -0.0493
  187MPD1     H 2902   1.079   0.700  17.513  0.0297  0.7171 -0.5952
  187MPD1    H1 2903   1.338   1.016  17.451 -3.8209 -0.1138 -0.5403
  187MPD1    H2 2904   1.488   0.651  17.593  1.3849  1.8571  0.8027
  187MPD1    H3 2905   1.521   0.892  17.545  0.7380 -0.6893 -1.5167
  187MPD1     N 2906   1.088   0.953  17.418  0.3475  0.1586 -0.3077
  187MPD1    H5 2907   1.111   1.050  17.398 -0.8510  0.4004 -0.5225
  187MPD1    N1 2908   1.266   0.521  17.583  0.2835 -0.0342  0.2669
  187MPD1    H6 2909   1.346   0.463  17.609 -1.6620 -2.4374  0.9566
  187MPD1    H7 2910   1.193   0.462  17.544 -1.1445  1.2574  1.0264
  188MPD1     C 2911   1.398   1.701  10.940  0.1954  0.4098  0.2610
  188MPD1    C1 2912   1.380   1.722  10.804  0.2184 -0.0745  0.0463
  188MPD1    C2 2913   1.368   1.610  10.715  0.3932 -0.3336 -0.0876
  188MPD1    C3 2914   1.351   1.483  10.773 -0.1344 -0.2240  1.0181
  188MPD1    C4 2915   1.344   1.472  10.908  0.2069  0.7246 -0.7244
  188MPD1    C5 2916   1.370   1.577  10.994  0.4915 -0.1901 -0.0968
  188MPD1     H 2917   1.375   1.620  10.607 -2.5633  1.6521 -0.0742
  188MPD1    H1 2918   1.340   1.372  10.950  0.7457 -0.3368 -3.1687
  188MPD1    H2 2919   1.424   1.784  11.006  0.0862  0.8465 -0.2508
  188MPD1    H3 2920   1.379   1.566  11.102  2.2020  0.5705 -0.1625
  188MPD1     N 2921   1.353   1.359  10.702  0.3164  0.2423 -0.2054
  188MPD1    H5 2922   1.340   1.273  10.754  1.6754 -0.0667 -0.3667
  188MPD1    N1 2923   1.434   1.844  10.751  0.5100  0.2655  1.1836
  188MPD1    H6 2924   1.421   1.867  10.653  3.0578  1.8591  1.2371
  188MPD1    H7 2925   1.425   1.920  10.817  0.8023 -0.0994  1.6499
  189MPD1     C 2926   2.462   1.867   0.471 -0.5608  0.1171  0.1697
  189MPD1    C1 2927   2.397   1.851   0.347 -0.4482  0.0145  0.1657
  189MPD1    C2 2928   2.286   1.930   0.326  0.3993 -0.2960  0.7568
  189MPD1    C3 2929   2.220   1.990   0.429 -0.2566 -0.0202  0.7847
  189MPD1    C4 2930   2.284   2.001   0.550  0.6088  0.3954  0.1994
  189MPD1    C5 2931   2.393   1.932   0.572 -0.4231  0.1157 -0.0744
  189MPD1     H 2932   2.235   1.944   0.232  1.3899  0.6336  0.3562
  189MPD1    H1 2933   2.249   2.051   0.639 -1.1444 -1.9952  0.8523
  189MPD1    H2 2934   2.555   1.817   0.497 -0.0259  1.3642  0.6578
  189MPD1    H3 2935   2.439   1.937   0.670  2.0499 -1.5464 -1.1283
  189MPD1     N 2936   2.102   2.066   0.392 -0.2427  0.2925  0.4115
  189MPD1    H5 2937   2.066   2.063   0.298  1.6135 -1.7466 -0.2207
  189MPD1    N1 2938   2.471   1.786   0.246 -0.3806 -0.2274 -0.2216
  189MPD1    H6 2939   2.420   1.738   0.172  1.6573 -0.8458 -1.2285
  189MPD1    H7 2940   2.533   1.716   0.288 -0.5254 -1.3146 -1.8022
  190MPD1     C 2941   1.421   4.431  15.079  0.9007 -0.3596  0.0717
  190MPD1    C1 2942   1.550   4.444  15.119 -0.3015  0.5937 -0.7053
  190MPD1    C2 2943   1.576   4.551  15.204 -0.0580 -0.5239 -0.0052
  190MPD1    C3 2944   1.492   4.654  15.226 -0.7549  0.1227  0.3245
  190MPD1    C4 2945   1.364   4.632  15.182  0.0138  0.8597  0.2443
  190MPD1    C5 2946   1.330   4.532  15.105 -0.2994 -0.9157  0.0497
  190MPD1     H 2947   1.665   4.543  15.264 -0.0704  0.5901  0.1575
  190MPD1    H1 2948   1.282   4.702  15.197 -0.1051  1.3845 -2.9248
  190MPD1    H2 2949   1.388   4.347  15.019  0.6163  1.4721 -2.3776
  190MPD1    H3 2950   1.227   4.533  15.070 -0.5058 -1.7011  0.6247
  190MPD1     N 2951   1.543   0.015  15.305  0.2070 -0.0184 -0.3644
  190MPD1    H5 2952   1.642   0.013  15.328 -0.1066  1.0362  1.0733
  190MPD1    N1 2953   1.628   4.335  15.112  0.5562 -0.8329  0.1847
  190MPD1    H6 2954   1.729   4.348  15.124  0.0327  1.8269  1.5344
  190MPD1    H7 2955   1.620   4.291  15.020  2.0198  2.0257 -1.3335
  191MPD1     C 2956   0.054   2.949  13.132 -0.0298 -0.2681  0.9518
  191MPD1    C1 2957   0.053   3.054  13.042 -0.3938 -0.0313  0.0875
  191MPD1    C2 2958   0.166   3.071  12.958  0.0494  0.7162 -0.1325
  191MPD1    C3 2959   0.268   2.984  12.959  0.6626  0.8103  0.2022
  191MPD1    C4 2960   0.264   2.881  13.046 -1.0543 -1.0022 -0.1185
  191MPD1    C5 2961   0.156   2.859  13.126 -0.3302 -0.1113 -0.6167
  191MPD1     H 2962   0.178   3.152  12.888  2.5430  0.0745 -0.4776
  191MPD1    H1 2963   0.350   2.815  13.051 -0.8750 -0.6847  0.9130
  191MPD1    H2 2964   4.705   2.916  13.190  0.2895 -0.0162  1.5613
  191MPD1    H3 2965   0.154   2.766  13.182  0.8133  0.6905  0.7463
  191MPD1     N 2966   0.380   3.015  12.877 -0.8295  0.5829 -0.1739
  191MPD1    H5 2967   0.366   3.092  12.812 -1.5958  1.1834  0.7055
  191MPD1    N1 2968   4.693   3.156  13.045 -0.1868 -0.7849  0.8353
  191MPD1    H6 2969   4.689   3.211  12.960  0.7425  0.7609  1.7786
  191MPD1    H7 2970   4.602   3.124  13.077  0.4319 -3.1404  0.2511
  192MPD1     C 2971   0.206   3.478  12.233 -0.7461  0.4063 -0.3465
  192MPD1    C1 2972   0.312   3.405  12.176  0.4647 -0.6205 -0.0922
  192MPD1    C2 2973   0.368   3.301  12.246  0.4513  0.2536 -0.1477
  192MPD1    C3 2974   0.337   3.272  12.373 -0.3839 -0.3041  0.1178
  192MPD1    C4 2975   0.238   3.351  12.430  0.2680  0.3247 -0.2629
  192MPD1    C5 2976   0.179   3.452  12.366  0.0963  0.3694  0.2933
  192MPD1     H 2977   0.449   3.244  12.202  0.5940 -1.3978  2.2190
  192MPD1    H1 2978   0.202   3.337  12.532  0.7691  1.7877  0.1050
  192MPD1    H2 2979   0.169   3.564  12.178  0.8395  1.1189 -0.3025
  192MPD1    H3 2980   0.102   3.508  12.417 -0.0559  1.2273 -0.8773
  192MPD1     N 2981   0.401   3.180  12.454  0.7132  1.2673 -0.0756
  192MPD1    H5 2982   0.389   3.190  12.554 -0.1609 -0.8274  0.0453
  192MPD1    N1 2983   0.342   3.418  12.042 -0.1504 -0.0853  0.6112
  192MPD1    H6 2984   0.341   3.516  12.014  2.5963 -0.0601  0.6068
  192MPD1    H7 2985   0.438   3.388  12.028 -0.6563 -0.7766 -1.3331
  193MPD1     C 2986   0.069   2.431  16.021  0.2163 -0.1754  0.4948
  193MPD1    C1 2987   0.082   2.539  16.110 -0.3872 -0.4397 -0.0169
  193MPD1    C2 2988   0.122   2.507  16.238 -0.6145  0.1307  0.4431
  193MPD1    C3 2989   0.186   2.385  16.262 -0.0544  0.2053  0.3232
  193MPD1    C4 2990   0.180   2.287  16.166 -0.4448 -0.0641 -0.0243
  193MPD1    C5 2991   0.115   2.308  16.048 -0.1350  0.8381  0.7916
  193MPD1     H 2992   0.120   2.587  16.312  0.1549  0.4251  0.1460
  193MPD1    H1 2993   0.216   2.185  16.178  1.0691  0.5626  0.8800
  193MPD1    H2 2994   0.025   2.449  15.924 -0.0145 -2.5396  0.1573
  193MPD1    H3 2995   0.114   2.227  15.977  1.0849  1.9499 -0.4797
  193MPD1     N 2996   0.255   2.347  16.379  0.7005 -0.0603 -0.8869
  193MPD1    H5 2997   0.314   2.264  16.374 -0.2739 -0.7283 -1.2076
  193MPD1    N1 2998   0.007   2.656  16.084  0.6888 -0.7075  0.4171
  193MPD1    H6 2999   0.046   2.737  16.131  1.9027 -0.8219 -0.3892
  193MPD1    H7 3000   0.007   2.680  15.985  0.5880 -1.4391  0.2376
  194MPD1     C 3001   2.709   3.945  16.123 -0.4212  0.1985 -0.1731
  194MPD1    C1 3002   2.700   3.804  16.117  0.0775 -0.3876 -0.6685
  194MPD1    C2 3003   2.725   3.728  16.233  0.8159  0.1792  0.0092
  194MPD1    C3 3004   2.722   3.788  16.362  0.3592 -0.3334  0.1159
  194MPD1    C4 3005   2.719   3.924  16.362  0.6030  0.6849  0.4536
  194MPD1    C5 3006   2.718   4.001  16.246  0.7012  0.2219 -0.2993
  194MPD1     H 3007   2.728   3.621  16.216  2.1261  0.0799  0.9251
  194MPD1    H1 3008   2.713   3.978  16.455 -0.2055  0.4666  0.5329
  194MPD1    H2 3009   2.696   4.002  16.031  2.4583 -1.1042 -1.4042
  194MPD1    H3 3010   2.727   4.108  16.255  1.2163  0.1610 -0.1127
  194MPD1     N 3011   2.718   3.711  16.480  0.0902 -0.5165  0.7628
  194MPD1    H5 3012   2.699   3.767  16.563 -0.1609 -1.2496  1.1946
  194MPD1    N1 3013   2.699   3.735  15.993  0.2763 -0.0418 -0.5274
  194MPD1    H6 3014   2.688   3.634  16.000 -0.1564  0.1008  0.7653
  194MPD1    H7 3015   2.632   3.765  15.922 -0.9809 -1.6576 -0.0111
  195MPD1     C 3016   0.487   1.729   0.151  0.3064 -0.8782 -0.5971
  195MPD1    C1 3017   0.365   1.677   0.193 -0.1725 -0.1164 -0.0749
  195MPD1    C2 3018   0.353   1.536   0.199  0.8936  0.8037  0.2445
  195MPD1    C3 3019   0.452   1.458   0.140 -0.5294  0.3724  0.0182
  195MPD1    C4 3020   0.569   1.521   0.090  0.0831 -0.7728  0.1541
  195MPD1    C5 3021   0.586   1.656   0.108  0.3343 -0.1097  0.0915
  195MPD1     H 3022   0.259   1.484   0.218  0.9602  1.8126  3.3587
  195MPD1    H1 3023   0.653   1.461   0.058 -0.3609 -0.4473 -1.6412
  195MPD1    H2 3024   0.504   1.835   0.160 -1.4474 -0.6636  0.2162
  195MPD1    H3 3025   0.679   1.701   0.076 -0.7522 -0.2413 -3.2921
  195MPD1     N 3026   0.448   1.315   0.132  0.1446  0.1062  0.4084
  195MPD1    H5 3027   0.511   1.254   0.079  0.2437  0.0260  0.6183
  195MPD1    N1 3028   0.278   1.765   0.257 -0.1946 -0.3549 -0.2081
  195MPD1    H6 3029   0.283   1.861   0.222  3.6517 -0.7149 -0.6677
  195MPD1    H7 3030   0.183   1.732   0.272  0.1844 -0.8564  1.1680
  196MPD1     C 3031   4.047   0.233   0.209  0.5446  0.0764  0.2789
  196MPD1    C1 3032   4.146   0.320   0.237  0.3986  0.1460 -0.3567
  196MPD1    C2 3033   4.164   0.365   0.365 -0.2882 -0.1170 -0.3430
  196MPD1    C3 3034   4.091   0.314   0.474 -0.4984 -0.3952  0.2224
  196MPD1    C4 3035   3.989   0.229   0.451  0.4274 -0.4856 -0.2648
  196MPD1    C5 3036   3.969   0.191   0.315  0.8129  0.1954  0.2155
  196MPD1     H 3037   4.250   0.428   0.382 -2.0679  1.8275  1.3675
  196MPD1    H1 3038   3.935   0.181   0.532  0.0492  2.7383  1.4086
  196MPD1    H2 3039   4.026   0.187   0.113  1.5465 -0.9775  0.5628
  196MPD1    H3 3040   3.897   0.113   0.294  1.6015 -0.6186  0.5157
  196MPD1     N 3041   4.109   0.338   0.613 -0.0028 -0.9470 -0.2117
  196MPD1    H5 3042   4.048   0.287   0.676  1.3639  0.0950  1.9461
  196MPD1    N1 3043   4.241   0.351   0.141  0.1788  0.3594 -0.1082
  196MPD1    H6 3044   4.270   0.445   0.166  0.0069  0.7976 -1.5149
  196MPD1    H7 3045   4.194   0.357   0.050  0.5330  1.8501 -0.1884
  197MPD1     C 3046   3.888   3.557  17.708  1.0569 -0.2105  0.2553
  197MPD1    C1 3047   3.897   3.690  17.708  0.1782  0.1861  0.1839
  197MPD1    C2 3048   3.944   3.753  17.594 -0.2066  0.5122  0.8365
  197MPD1    C3 3049   3.991   3.687  17.482 -0.1152  0.6413 -0.0187
  197MPD1    C4 3050   3.969   3.552  17.484 -0.3051 -0.1443  0.0245
  197MPD1    C5 3051   3.908   3.492  17.589  0.3904  0.8339 -0.2739
  197MPD1     H 3052   3.949   3.861  17.606  1.2626  0.3702  1.5383
  197MPD1    H1 3053   3.985   3.503  17.388 -0.9815 -0.5324  0.1088
  197MPD1    H2 3054   3.840   3.502   0.043  0.1076  0.3943  0.0996
  197MPD1    H3 3055   3.894   3.385  17.580 -0.3351  0.9598 -0.6145
  197MPD1     N 3056   4.049   3.747  17.371  0.6561  0.2122 -0.3160
  197MPD1    H5 3057   4.091   3.681  17.306 -1.6804 -1.6422  0.0607
  197MPD1    N1 3058   3.838   3.749   0.069 -0.1907  0.1182 -0.4670
  197MPD1    H6 3059   3.861   3.701   0.156  0.4923 -0.1242 -0.7849
  197MPD1    H7 3060   3.861   3.847   0.084 -0.6947  0.4690 -2.0184
  198MPD1     C 3061   1.013   1.034  15.053 -0.5405  0.4346 -1.0306
  198MPD1    C1 3062   0.930   1.134  15.091  0.2320  0.4381  0.0979
  198MPD1    C2 3063   0.985   1.247  15.147  0.0641  0.0437 -0.1424
  198MPD1    C3 3064   1.118   1.252  15.180  0.9699  0.2523 -0.1142
  198MPD1    C4 3065   1.196   1.148  15.131  0.1569  0.1225  0.1321
  198MPD1    C5 3066   1.145   1.035  15.075 -0.4433 -0.6885 -0.5716
  198MPD1     H 3067   0.922   1.332  15.171 -1.1267 -1.1452  0.9973
  198MPD1    H1 3068   1.302   1.166  15.141 -0.0131  0.4284  1.4218
  198MPD1    H2 3069   0.971   0.943  15.010 -0.5309  0.0032 -0.1268
  198MPD1    H3 3070   1.209   0.958  15.033 -0.5421 -0.5628 -0.9573
  198MPD1     N 3071   1.172   1.367  15.242  0.0451  0.3616  0.3992
  198MPD1    H5 3072   1.109   1.437  15.281 -1.9428  0.6030 -3.2543
  198MPD1    N1 3073   0.794   1.121  15.088 -0.1948 -0.2954 -0.3558
  198MPD1    H6 3074   0.770   1.058  15.012  3.7884 -4.4053  1.7729
  198MPD1    H7 3075   0.745   1.209  15.073 -0.9573 -0.5291  0.7675
  199MPD1     C 3076   3.588   3.497  10.248 -0.6664  0.2793  0.1750
  199MPD1    C1 3077   3.553   3.413  10.144  0.1536  0.2876 -0.5921
  199MPD1    C2 3078   3.436   3.433  10.070  0.0443  0.5109 -0.0952
  199MPD1    C3 3079   3.356   3.543  10.102 -0.4843  0.4405  0.1625
  199MPD1    C4 3080   3.401   3.631  10.200  0.3843  0.4055  0.4344
  199MPD1    C5 3081   3.511   3.604  10.274 -0.3170  0.4892 -0.6129
  199MPD1     H 3082   3.424   3.377   9.977 -0.4838  0.4878 -0.0139
  199MPD1    H1 3083   3.333   3.709  10.230  0.7797  0.4463  1.2092
  199MPD1    H2 3084   3.684   3.495  10.299 -0.9989 -1.6557  0.7430
  199MPD1    H3 3085   3.535   3.668  10.358 -0.2207 -0.8976  0.4291
  199MPD1     N 3086   3.245   3.577  10.026  0.0759 -0.4068 -0.2470
  199MPD1    H5 3087   3.196   3.664  10.044 -0.3569 -0.2676 -2.0553
  199MPD1    N1 3088   3.653   3.318  10.106 -0.2710  0.5025 -0.8257
  199MPD1    H6 3089   3.616   3.237  10.058  0.1005 -0.2388  0.1464
  199MPD1    H7 3090   3.709   3.295  10.187 -1.6214  0.8824  0.2073
  200MPD1     C 3091   1.781   2.456  15.191  0.3041  0.0706 -0.1424
  200MPD1    C1 3092   1.783   2.324  15.157  0.1029  0.7931  0.2993
  200MPD1    C2 3093   1.804   2.296  15.022  0.0219  0.4971 -0.3781
  200MPD1    C3 3094   1.793   2.393  14.925  0.7127 -0.2323  0.2427
  200MPD1    C4 3095   1.771   2.525  14.961  0.1281  0.2655  0.5069
  200MPD1    C5 3096   1.766   2.557  15.101 -0.3991 -0.3269 -0.2676
  200MPD1     H 3097   1.830   2.195  14.994 -0.0460 -0.0010  1.3474
  200MPD1    H1 3098   1.769   2.610  14.894  2.2798 -0.3276 -0.3227
  200MPD1    H2 3099   1.774   2.482  15.296  1.1644 -0.8728  0.1511
  200MPD1    H3 3100   1.765   2.656  15.145 -1.7035 -0.5458  0.2027
  200MPD1     N 3101   1.810   2.358  14.791 -0.9550 -0.4110 -0.1097
  200MPD1    H5 3102   1.836   2.261  14.772 -0.2499 -0.3143  0.3321
  200MPD1    N1 3103   1.787   2.228  15.263 -1.0275 -0.1870 -0.0065
  200MPD1    H6 3104   1.764   2.257  15.357 -0.1774 -0.8490  0.4064
  200MPD1    H7 3105   1.748   2.138  15.236 -1.8492 -0.2084  1.2452
  201MPD1     C 3106   4.401   2.207  13.515 -0.6000  0.5449 -0.0928
  201MPD1    C1 3107   4.324   2.095  13.494 -0.4176  0.2240 -0.1443
  201MPD1    C2 3108   4.381   1.988  13.429  0.3401  0.0454  0.5109
  201MPD1    C3 3109   4.513   1.988  13.383 -0.0256  0.3656 -0.3904
  201MPD1    C4 3110   4.595   2.096  13.410  0.1478 -0.0302  0.6057
  201MPD1    C5 3111   4.533   2.206  13.468  0.5604  0.3248  0.5833
  201MPD1     H 3112   4.318   1.901  13.414  0.1499  0.1995  0.4217
  201MPD1    H1 3113   4.694   2.110  13.368  0.5778 -0.3002  1.5109
  201MPD1    H2 3114   4.364   2.292  13.571 -1.7724 -0.4579  0.6466
  201MPD1    H3 3115   4.600   2.288  13.491 -0.6018  1.5114 -0.2181
  201MPD1     N 3116   4.547   1.876  13.306 -0.3653  0.2362 -0.3655
  201MPD1    H5 3117   4.499   1.788  13.315 -0.6815  0.3490 -0.9581
  201MPD1    N1 3118   4.200   2.074  13.553 -0.4907 -0.5865  0.5417
  201MPD1    H6 3119   4.164   2.168  13.569 -1.7152 -0.7208 -1.3782
  201MPD1    H7 3120   4.134   2.041  13.482 -2.3646 -2.2760  3.1047
  202MPD1     C 3121   0.202   1.750  11.168  0.1575 -0.3910 -0.7750
  202MPD1    C1 3122   0.070   1.701  11.175  0.0460  0.1923 -0.1344
  202MPD1    C2 3123   0.019   1.629  11.068  0.7157 -0.9788 -0.8065
  202MPD1    C3 3124   0.109   1.561  10.987  0.0175  0.1021 -0.7726
  202MPD1    C4 3125   0.243   1.569  11.014 -0.4053  0.2194 -0.3295
  202MPD1    C5 3126   0.291   1.663  11.104 -0.1134  0.2524  0.2611
  202MPD1     H 3127   4.649   1.611  11.066  0.9217 -2.2064 -0.3867
  202MPD1    H1 3128   0.319   1.525  10.951 -1.0257 -1.1489 -0.1035
  202MPD1    H2 3129   0.251   1.829  11.224 -4.1194 -0.3798  2.9807
  202MPD1    H3 3130   0.399   1.670  11.108 -0.1679  0.7541  0.8290
  202MPD1     N 3131   0.079   1.492  10.866  0.0666  0.6767 -0.0791
  202MPD1    H5 3132   0.147   1.431  10.823 -0.7877 -0.5971  0.3728
  202MPD1    N1 3133   4.716   1.786  11.246  0.9480  0.2935  0.0598
  202MPD1    H6 3134   0.016   1.819  11.335 -1.9516 -0.2311  1.4404
  202MPD1    H7 3135   4.635   1.731  11.272  1.6380 -0.2463  1.0665
  203MPD1     C 3136   3.390   2.613  12.103  0.1896  0.4190 -0.0113
  203MPD1    C1 3137   3.485   2.531  12.046  0.4636  0.0223 -0.4241
  203MPD1    C2 3138   3.550   2.443  12.130  0.4923  0.5448 -0.1119
  203MPD1    C3 3139   3.520   2.427  12.266 -0.9194  0.0163  0.1444
  203MPD1    C4 3140   3.423   2.507  12.319  0.9126  0.0634  0.1600
  203MPD1    C5 3141   3.368   2.599  12.237  0.8051  0.0818 -0.0240
  203MPD1     H 3142   3.619   2.368  12.092  1.1199  1.1896 -0.2413
  203MPD1    H1 3143   3.387   2.494  12.419 -1.9149  1.0320 -0.7416
  203MPD1    H2 3144   3.322   2.675  12.045  0.3489  1.5564  1.0134
  203MPD1    H3 3145   3.287   2.658  12.277  0.2018 -0.7394 -0.0373
  203MPD1     N 3146   3.598   2.328  12.329 -0.3687  0.3751  0.2109
  203MPD1    H5 3147   3.663   2.278  12.269 -0.6607  2.9169 -2.2504
  203MPD1    N1 3148   3.498   2.520  11.908  0.4800 -0.2711  0.2959
  203MPD1    H6 3149   3.589   2.491  11.874  1.1102  3.3224 -1.0316
  203MPD1    H7 3150   3.481   2.608  11.859 -0.1424  0.5574  1.9614
  204MPD1     C 3151   2.423   3.151  17.533  0.7431  0.2335  0.3110
  204MPD1    C1 3152   2.538   3.148  17.454  1.0294 -0.4466 -0.5624
  204MPD1    C2 3153   2.606   3.033  17.453 -0.0986  0.4614 -0.2243
  204MPD1    C3 3154   2.577   2.929  17.546 -0.7281 -0.4425  0.5723
  204MPD1    C4 3155   2.461   2.941  17.626  0.1129  0.6856  0.2988
  204MPD1    C5 3156   2.386   3.056  17.617 -0.2772 -0.4451  0.3472
  204MPD1     H 3157   2.689   3.014  17.385  0.3915 -0.6081  0.6820
  204MPD1    H1 3158   2.426   2.863  17.691  1.0465 -0.3008 -0.3835
  204MPD1    H2 3159   2.357   3.236  17.516 -1.1547 -1.1419  0.8166
  204MPD1    H3 3160   2.290   3.048  17.666 -0.3067  0.9694  0.5197
  204MPD1     N 3161   2.661   2.811  17.551  0.0764 -0.0453 -0.6061
  204MPD1    H5 3162   2.741   2.807  17.490 -0.9438  0.8441 -2.0149
  204MPD1    N1 3163   2.563   3.260  17.385 -0.2697 -0.4958  0.2425
  204MPD1    H6 3164   2.480   3.311  17.355  1.9620  3.0662  0.0901
  204MPD1    H7 3165   2.623   3.237  17.306  0.4068  1.5439  0.1586
  205MPD1     C 3166   2.727   1.371  17.007 -0.2779 -0.1749 -0.5584
  205MPD1    C1 3167   2.802   1.282  17.081 -0.6837  0.0714 -0.3633
  205MPD1    C2 3168   2.825   1.313  17.216  0.2019  0.3817 -0.3671
  205MPD1    C3 3169   2.797   1.438  17.270  0.5601  0.1042  0.4189
  205MPD1    C4 3170   2.725   1.531  17.191  0.5170  0.9928 -0.5891
  205MPD1    C5 3171   2.692   1.492  17.062 -0.4044  0.1001  0.3485
  205MPD1     H 3172   2.863   1.235  17.280  0.7287  1.3275  0.4719
  205MPD1    H1 3173   2.678   1.620  17.230 -0.2004  0.0565  0.6740
  205MPD1    H2 3174   2.704   1.352  16.903 -2.0181 -0.4064 -0.1365
  205MPD1    H3 3175   2.627   1.558  17.006 -0.7539 -0.2236  0.3675
  205MPD1     N 3176   2.815   1.473  17.405  0.0607  0.4927 -0.3576
  205MPD1    H5 3177   2.754   1.546  17.442  0.4125  1.0802 -0.9355
  205MPD1    N1 3178   2.842   1.155  17.032  0.3549  0.3098 -0.6873
  205MPD1    H6 3179   2.856   1.160  16.931  1.0236 -1.2825 -0.6792
  205MPD1    H7 3180   2.925   1.118  17.078 -1.0863 -1.5518  0.4236
  206MPD1     C 3181   3.458   4.624  17.048  0.5743 -0.9391 -0.5224
  206MPD1    C1 3182   3.387   0.003  17.047  0.7001  0.4424 -0.0221
  206MPD1    C2 3183   3.311   0.023  16.936  0.1405 -0.0385 -0.2641
  206MPD1    C3 3184   3.315   4.679  16.821 -0.5377  0.1485  0.0309
  206MPD1    C4 3185   3.395   4.579  16.830 -0.0655 -0.1473  0.2032
  206MPD1    C5 3186   3.460   4.540  16.945  0.1151 -0.6640  0.2610
  206MPD1     H 3187   3.236   0.100  16.944 -0.6894 -1.0474  1.4384
  206MPD1    H1 3188   3.411   4.512  16.746 -0.2510  0.3894 -0.2591
  206MPD1    H2 3189   3.524   4.594  17.129  0.6543  0.0096 -0.2337
  206MPD1    H3 3190   3.525   4.454  16.955  1.0195 -0.2262 -1.9801
  206MPD1     N 3191   3.248   4.713  16.700 -0.3418  0.4244  0.5883
  206MPD1    H5 3192   3.258   4.658  16.615  1.8849  0.1232  1.0590
  206MPD1    N1 3193   3.371   0.076  17.163  0.2904 -0.4424  0.2962
  206MPD1    H6 3194   3.450   0.088  17.226  0.9748  0.1864 -0.6979
  206MPD1    H7 3195   3.330   0.165  17.135  3.3233  0.6929 -0.5036
  207MPD1     C 3196   1.986   2.725   9.674  0.1873 -0.1910 -0.1470
  207MPD1    C1 3197   1.992   2.859   9.655 -0.0434  0.3444 -0.0898
  207MPD1    C2 3198   1.988   2.945   9.762 -0.6680  0.3738  0.4663
  207MPD1    C3 3199   1.984   2.895   9.890  0.2354  0.4499 -0.2232
  207MPD1    C4 3200   1.997   2.766   9.915 -0.5060 -0.3547  0.5123
  207MPD1    C5 3201   1.992   2.687   9.803  0.6340 -0.2793  1.0121
  207MPD1     H 3202   1.963   3.050   9.748  0.2902  0.6049  0.5154
  207MPD1    H1 3203   1.984   2.737  10.019 -2.7044 -0.5129  0.1952
  207MPD1    H2 3204   1.964   2.654   9.595  0.5930 -0.6516  0.1545
  207MPD1    H3 3205   1.982   2.583   9.829 -0.2176 -0.1150  1.3252
  207MPD1     N 3206   1.947   2.973  10.004  0.3019 -0.4963  0.0018
  207MPD1    H5 3207   1.939   2.925  10.092  0.8158  0.8101  0.7641
  207MPD1    N1 3208   1.966   2.912   9.531  0.0392  0.0946 -0.4281
  207MPD1    H6 3209   2.014   3.001   9.524  2.0897 -0.9419  0.3358
  207MPD1    H7 3210   2.001   2.848   9.459  0.7090 -0.9069  0.7846
  208MPD1     C 3211   3.912   1.111   0.485  0.5946  0.1159  0.4149
  208MPD1    C1 3212   3.913   1.075   0.614  0.8038 -0.2838 -0.6578
  208MPD1    C2 3213   3.804   0.999   0.663 -0.0891 -0.0306  0.4744
  208MPD1    C3 3214   3.698   0.970   0.578  0.3541  0.2118 -0.0660
  208MPD1    C4 3215   3.701   1.016   0.451 -0.4174  0.6677 -0.7397
  208MPD1    C5 3216   3.812   1.085   0.404  0.4375 -0.1509  0.2294
  208MPD1     H 3217   3.804   0.957   0.763 -3.1964  0.0771  0.5447
  208MPD1    H1 3218   3.633   0.985   0.373  0.3137  0.7706 -1.4283
  208MPD1    H2 3219   3.995   1.167   0.444 -1.3410  0.1503 -3.4247
  208MPD1    H3 3220   3.816   1.098   0.297 -3.1286  0.7249  0.1870
  208MPD1     N 3221   3.587   0.903   0.631  0.5008 -0.5728  0.5827
  208MPD1    H5 3222   3.593   0.898   0.732 -0.2460  1.5348  0.7312
  208MPD1    N1 3223   4.006   1.129   0.708  0.5971  0.4179 -0.2170
  208MPD1    H6 3224   4.100   1.146   0.673  0.9695 -2.6053 -0.6702
  208MPD1    H7 3225   4.005   1.072   0.793  1.7837 -0.2263 -0.6328
  209MPD1     C 3226   1.192   1.996  10.995  0.0985  0.6194  0.2889
  209MPD1    C1 3227   1.164   2.081  10.898  0.3694  0.3668  0.4233
  209MPD1    C2 3228   1.217   2.207  10.900 -0.2869 -0.6505  0.0921
  209MPD1    C3 3229   1.296   2.239  11.008 -0.1835 -0.2680 -0.3451
  209MPD1    C4 3230   1.326   2.146  11.103 -1.0323 -0.3597  0.4705
  209MPD1    C5 3231   1.273   2.024  11.098  0.2783 -0.5637 -0.4714
  209MPD1     H 3232   1.192   2.283  10.826  0.6718 -0.7919 -0.3822
  209MPD1    H1 3233   1.387   2.167  11.190  1.2349  1.4753 -1.5835
  209MPD1    H2 3234   1.168   1.891  10.984  1.8575  0.1356  1.0397
  209MPD1    H3 3235   1.299   1.946  11.169  0.7915 -0.3447 -0.4170
  209MPD1     N 3236   1.333   2.369  11.022  0.1906  0.0508  0.1603
  209MPD1    H5 3237   1.313   2.422  10.938  0.4223 -0.8136 -0.4523
  209MPD1    N1 3238   1.096   2.029  10.789  0.3774 -0.1962  0.4318
  209MPD1    H6 3239   1.029   2.093  10.748 -0.5256 -0.4929  1.4388
  209MPD1    H7 3240   1.048   1.941  10.810  0.0264  0.4230  2.2747
  210MPD1     C 3241   1.154   2.955  11.780  0.2092  0.5860  0.2763
  210MPD1    C1 3242   1.115   3.011  11.661  0.0479 -0.1827  0.2575
  210MPD1    C2 3243   1.188   2.968  11.552 -0.5605  1.0689  0.1230
  210MPD1    C3 3244   1.272   2.860  11.557  0.0951  0.8046  0.0061
  210MPD1    C4 3245   1.297   2.800  11.679  0.2754 -0.6443  0.1794
  210MPD1    C5 3246   1.243   2.853  11.791  0.5604 -0.4234  0.2174
  210MPD1     H 3247   1.176   3.029  11.463 -0.2097 -1.1866 -1.4830
  210MPD1    H1 3248   1.361   2.714  11.692  1.8444  0.4450 -0.2691
  210MPD1    H2 3249   1.107   2.987  11.873 -2.7612 -0.5004 -0.8740
  210MPD1    H3 3250   1.264   2.814  11.890  3.0192  1.3710  0.4156
  210MPD1     N 3251   1.336   2.808  11.445  0.5347  0.0094  0.0696
  210MPD1    H5 3252   1.401   2.731  11.456 -0.0544 -0.5747 -0.5647
  210MPD1    N1 3253   1.037   3.128  11.654  0.1183 -0.0837  0.6974
  210MPD1    H6 3254   0.953   3.127  11.713 -0.3719  1.7234  0.0328
  210MPD1    H7 3255   0.996   3.139  11.562  0.6349 -0.7978  0.3857
  211MPD1     C 3256   3.282   1.902  16.016 -0.5174  0.2750  0.9196
  211MPD1    C1 3257   3.147   1.901  15.989  0.4026  0.3544  0.2444
  211MPD1    C2 3258   3.065   1.852  16.090  0.0941 -0.3741  0.3966
  211MPD1    C3 3259   3.116   1.772  16.196  0.5652  0.0519  0.2283
  211MPD1    C4 3260   3.253   1.774  16.219  0.4712  0.2178  0.0927
  211MPD1    C5 3261   3.335   1.839  16.129  0.3961  0.5784 -1.0306
  211MPD1     H 3262   2.957   1.845  16.079 -0.0997 -0.5550  2.4011
  211MPD1    H1 3263   3.301   1.735  16.308 -0.7148  3.7153  2.3019
  211MPD1    H2 3264   3.354   1.945  15.947 -0.2642  0.1864  1.1308
  211MPD1    H3 3265   3.441   1.849  16.151  0.0938  1.4431  0.0098
  211MPD1     N 3266   3.021   1.713  16.286 -0.1441 -0.4139  0.1737
  211MPD1    H5 3267   2.923   1.729  16.267 -0.3177 -0.5327  0.9513
  211MPD1    N1 3268   3.096   1.964  15.872 -0.1498  0.7213 -0.3739
  211MPD1    H6 3269   3.154   1.959  15.788  0.3478  0.0877  0.0071
  211MPD1    H7 3270   3.004   1.942  15.834  0.4025  0.0879 -1.3444
  212MPD1     C 3271   2.420   0.167  16.106  0.1845 -0.3716  0.6304
  212MPD1    C1 3272   2.312   0.225  16.166 -0.2998 -0.0025 -0.1090
  212MPD1    C2 3273   2.255   0.153  16.273 -0.1764 -0.2366  1.1207
  212MPD1    C3 3274   2.317   0.036  16.326  0.2512 -0.5988  0.4060
  212MPD1    C4 3275   2.434   4.731  16.272  0.6334  0.5187 -0.4568
  212MPD1    C5 3276   2.480   0.051  16.153  0.1975  0.0437 -0.4298
  212MPD1     H 3277   2.153   0.177  16.300  0.2304 -0.5944  2.9790
  212MPD1    H1 3278   2.483   4.640  16.305 -0.2219  0.1994 -0.0697
  212MPD1    H2 3279   2.459   0.208  16.014  1.0488 -0.6931  0.8515
  212MPD1    H3 3280   2.569   0.013  16.104 -0.4125 -2.5267  0.4222
  212MPD1     N 3281   2.254   4.690  16.429 -0.3844 -0.1763 -0.1515
  212MPD1    H5 3282   2.299   4.605  16.461 -1.6105 -0.6045  0.4398
  212MPD1    N1 3283   2.242   0.329  16.109 -0.5809  0.3060 -0.2004
  212MPD1    H6 3284   2.307   0.401  16.078  1.4709 -0.5488  2.0827
  212MPD1    H7 3285   2.176   0.370  16.175  0.6278  0.1020  1.1378
  213MPD1     C 3286   0.685   0.477  15.662 -0.3267  0.2284  0.5580
  213MPD1    C1 3287   0.552   0.441  15.641 -0.0081 -0.4165  0.1467
  213MPD1    C2 3288   0.488   0.506  15.543 -0.4728 -0.1757 -0.7244
  213MPD1    C3 3289   0.547   0.601  15.455 -0.2915 -0.2936  0.2987
  213MPD1    C4 3290   0.682   0.631  15.477 -0.4454 -0.2479  0.5394
  213MPD1    C5 3291   0.751   0.567  15.581 -0.1762 -0.5257  0.4696
  213MPD1     H 3292   0.385   0.488  15.516 -0.1654 -2.2840 -0.4447
  213MPD1    H1 3293   0.729   0.718  15.432  1.3737 -0.9320  1.1212
  213MPD1    H2 3294   0.731   0.430  15.748  0.4120  0.4609  0.2866
  213MPD1    H3 3295   0.857   0.591  15.591 -0.1111 -0.9093  0.6951
  213MPD1     N 3296   0.461   0.677  15.365  0.4992  0.0936 -0.1955
  213MPD1    H5 3297   0.363   0.652  15.357  0.5250 -0.8431  2.3903
  213MPD1    N1 3298   0.479   0.393  15.753 -0.0250 -0.2093  0.3177
  213MPD1    H6 3299   0.397   0.346  15.715  1.1065 -3.1873  1.5623
  213MPD1    H7 3300   0.529   0.326  15.811  1.0174 -1.9934 -2.6558
  214MPD1     C 3301   4.424   0.927  14.780  0.3956 -0.5866 -0.1673
  214MPD1    C1 3302   4.425   0.883  14.909 -0.1582 -0.5690  0.0571
  214MPD1    C2 3303   4.542   0.850  14.977 -0.2983 -0.0997 -0.0080
  214MPD1    C3 3304   4.661   0.882  14.918 -0.6563 -0.0309 -1.0199
  214MPD1    C4 3305   4.666   0.928  14.786  0.4870  0.4639 -0.0115
  214MPD1    C5 3306   4.547   0.955  14.721  0.1726 -0.2188 -0.4418
  214MPD1     H 3307   4.551   0.797  15.072 -1.4041  2.1983  1.3692
  214MPD1    H1 3308   0.020   0.958  14.735  0.0310 -0.1413 -1.1711
  214MPD1    H2 3309   4.332   0.943  14.726  0.2685  0.1141  0.2544
  214MPD1    H3 3310   4.545   0.991  14.618 -2.0329 -0.1278 -0.3639
  214MPD1     N 3311   0.048   0.869  14.976 -0.2498 -0.2708 -0.7351
  214MPD1    H5 3312   0.116   0.936  14.942 -0.7962  1.3340  1.3833
  214MPD1    N1 3313   4.300   0.836  14.957  0.4038 -0.4008 -0.3006
  214MPD1    H6 3314   4.220   0.877  14.910 -0.3251 -0.0251  1.2907
  214MPD1    H7 3315   4.290   0.827  15.058  0.7589  2.6238  0.0113
  215MPD1     C 3316   0.663   1.703  11.003  0.6873  0.2144 -1.1477
  215MPD1    C1 3317   0.622   1.836  10.994 -0.3018 -0.5267  0.3974
  215MPD1    C2 3318   0.708   1.940  11.030 -0.2126  0.0945 -0.1198
  215MPD1    C3 3319   0.822   1.916  11.097 -1.0883 -0.8858 -1.2533
  215MPD1    C4 3320   0.865   1.787  11.104  0.2307 -0.5743  0.7603
  215MPD1    C5 3321   0.791   1.681  11.058  0.2179 -0.3681 -0.3846
  215MPD1     H 3322   0.671   2.040  11.009 -1.5452 -0.5807 -1.0528
  215MPD1    H1 3323   0.960   1.762  11.149  0.0903  0.1904  1.4653
  215MPD1    H2 3324   0.614   1.619  10.957  0.8618 -0.1258 -0.7089
  215MPD1    H3 3325   0.823   1.578  11.061  1.6876  0.0866 -0.5685
  215MPD1     N 3326   0.889   2.027  11.156  0.4878  0.6287 -0.4121
  215MPD1    H5 3327   0.844   2.116  11.136  3.0285  2.3566  1.5904
  215MPD1    N1 3328   0.512   1.860  10.911 -0.2216 -0.7406 -0.1865
  215MPD1    H6 3329   0.474   1.954  10.912  1.2198 -0.1494 -1.2347
  215MPD1    H7 3330   0.436   1.793  10.924 -1.8367  1.1754  0.2813
  216MPD1     C 3331   2.397   4.690  16.761  0.6564 -0.4076 -0.2434
  216MPD1    C1 3332   2.431   4.556  16.745 -0.2907 -0.5033 -0.1743
  216MPD1    C2 3333   2.392   4.472  16.848  0.1843  0.0687 -0.1962
  216MPD1    C3 3334   2.308   4.502  16.949  0.9546  0.7664  0.4026
  216MPD1    C4 3335   2.286   4.638  16.965 -0.3536  0.1846  0.0107
  216MPD1    C5 3336   2.338   4.732  16.878 -0.3381 -0.4443  0.0153
  216MPD1     H 3337   2.402   4.368  16.819  1.1668 -0.3997  1.8615
  216MPD1    H1 3338   2.221   4.673  17.045  0.4730 -1.7265  1.5434
  216MPD1    H2 3339   2.415   0.014  16.673 -3.2323 -0.3480 -1.0192
  216MPD1    H3 3340   2.304   0.097  16.894 -0.8556 -0.6542  0.2495
  216MPD1     N 3341   2.261   4.401  17.030 -0.0286  0.4999  0.4228
  216MPD1    H5 3342   2.296   4.307  17.018 -0.4002  0.2594  1.2843
  216MPD1    N1 3343   2.480   4.505  16.620 -0.3226  0.5372  0.0082
  216MPD1    H6 3344   2.515   4.409  16.625  1.8880  1.2562 -1.6267
  216MPD1    H7 3345   2.553   4.564  16.581  0.8990  0.0431  1.5452
  217MPD1     C 3346   3.004   2.680   8.464 -0.0287  0.1308  0.0793
  217MPD1    C1 3347   3.068   2.575   8.405 -0.1589 -0.4486  0.1928
  217MPD1    C2 3348   3.113   2.474   8.490 -0.3836 -0.3200 -0.4349
  217MPD1    C3 3349   3.074   2.469   8.625 -0.0496  0.8044 -0.1698
  217MPD1    C4 3350   2.997   2.572   8.681 -0.4929  0.2548 -0.3186
  217MPD1    C5 3351   2.973   2.680   8.597  0.6169 -0.1251 -0.2457
  217MPD1     H 3352   3.177   2.394   8.454 -2.3209 -1.6675 -0.8997
  217MPD1    H1 3353   2.961   2.566   8.783 -0.7426 -0.1336 -0.4302
  217MPD1    H2 3354   2.972   2.767   8.407  0.6590  0.6157  0.4250
  217MPD1    H3 3355   2.911   2.756   8.643 -0.5129  0.4354 -2.7318
  217MPD1     N 3356   3.111   2.368   8.718 -0.3284 -0.0744 -1.5519
  217MPD1    H5 3357   3.063   2.374   8.807  0.0197  1.6255 -1.4835
  217MPD1    N1 3358   3.126   2.583   8.276 -0.0013  0.0782  0.4590
  217MPD1    H6 3359   3.136   2.491   8.232  0.1699  0.4034 -0.1825
  217MPD1    H7 3360   3.080   2.647   8.212 -2.6138 -1.6746  0.5755
  218MPD1     C 3361   3.797   2.272  13.406  0.1085 -0.4043  0.5808
  218MPD1    C1 3362   3.873   2.378  13.363  0.2262 -0.6088 -0.2955
  218MPD1    C2 3363   3.993   2.360  13.301 -0.1210  0.4224  0.4681
  218MPD1    C3 3364   4.039   2.229  13.277  0.1306  0.2392  0.8264
  218MPD1    C4 3365   3.958   2.116  13.303 -0.5311  0.8632  0.2762
  218MPD1    C5 3366   3.845   2.148  13.380  0.1065 -0.5314  0.4616
  218MPD1     H 3367   4.051   2.450  13.283 -0.3110  0.5304  0.3912
  218MPD1    H1 3368   4.000   2.017  13.292 -2.1774  0.0440  1.3470
  218MPD1    H2 3369   3.702   2.272  13.458  1.3011  0.1438  2.7352
  218MPD1    H3 3370   3.784   2.065  13.414 -0.3275 -1.2562 -2.0619
  218MPD1     N 3371   4.165   2.222  13.216 -0.2688  0.8234  0.1128
  218MPD1    H5 3372   4.213   2.311  13.209 -0.3188  0.6744 -1.9846
  218MPD1    N1 3373   3.834   2.505  13.400  0.0084  0.1259 -0.1305
  218MPD1    H6 3374   3.741   2.518  13.361 -0.9426 -0.8182  1.8110
  218MPD1    H7 3375   3.888   2.579  13.356  2.4797 -1.3564  0.3622
  219MPD1     C 3376   0.417   2.387  13.228  0.3253 -0.2937 -0.4040
  219MPD1    C1 3377   0.311   2.476  13.219 -0.8613  0.3902  0.2122
  219MPD1    C2 3378   0.188   2.434  13.174 -0.2126  0.1654 -0.2426
  219MPD1    C3 3379   0.166   2.297  13.165 -0.3857 -0.4159  0.4943
  219MPD1    C4 3380   0.271   2.208  13.189 -0.2062 -0.5989  0.0886
  219MPD1    C5 3381   0.394   2.256  13.214 -0.9265 -0.7914 -0.5626
  219MPD1     H 3382   0.110   2.505  13.148  0.5025  1.8776  2.3351
  219MPD1    H1 3383   0.267   2.100  13.186 -1.7821 -0.5480  0.4769
  219MPD1    H2 3384   0.515   2.429  13.248  0.2040  0.2832 -0.9871
  219MPD1    H3 3385   0.473   2.186  13.238  1.8826  1.8002 -2.2079
  219MPD1     N 3386   0.035   2.245  13.144 -0.1663 -0.4684 -0.1199
  219MPD1    H5 3387   0.040   2.143  13.138  0.0610 -0.5158  0.9399
  219MPD1    N1 3388   0.343   2.609  13.225  0.4618  0.0907 -0.2330
  219MPD1    H6 3389   0.421   2.627  13.287 -0.5525 -0.8938  1.3230
  219MPD1    H7 3390   0.271   2.660  13.275 -0.8747 -0.4751 -1.5924
  220MPD1     C 3391   0.672   2.162  10.047 -0.2469 -0.5433 -0.0236
  220MPD1    C1 3392   0.542   2.198  10.071 -0.0371  0.5812  0.1767
  220MPD1    C2 3393   0.516   2.309  10.144  0.7103 -0.2354 -0.6954
  220MPD1    C3 3394   0.616   2.375  10.218  0.5478 -0.3392 -0.1506
  220MPD1    C4 3395   0.745   2.326  10.208  0.9204  0.6385 -0.2648
  220MPD1    C5 3396   0.773   2.223  10.119  0.1620  0.0676 -0.1525
  220MPD1     H 3397   0.414   2.347  10.145 -0.1060 -2.4950  2.5793
  220MPD1    H1 3398   0.837   2.365  10.251  0.6364 -0.8138  1.6402
  220MPD1    H2 3399   0.698   2.076   9.987  0.6702 -0.1333 -0.2014
  220MPD1    H3 3400   0.874   2.187  10.104 -0.2322 -0.8172 -0.7320
  220MPD1     N 3401   0.572   2.491  10.283 -0.3185  0.2563 -0.1471
  220MPD1    H5 3402   0.473   2.516  10.278 -0.4098  0.0388  0.5757
  220MPD1    N1 3403   0.439   2.144   9.989  0.2226 -0.3785  0.0068
  220MPD1    H6 3404   0.455   2.050   9.953 -0.6405 -0.8627  0.8909
  220MPD1    H7 3405   0.350   2.136  10.038 -0.8553 -0.7492 -2.0469
  221MPD1     C 3406   3.119   0.827   0.097  0.3667 -0.7808 -0.1038
  221MPD1    C1 3407   3.196   0.726   0.044  0.3043 -0.6004 -0.0893
  221MPD1    C2 3408   3.249   0.747  17.663  0.3136 -0.1526 -0.6173
  221MPD1    C3 3409   3.216   0.850  17.578  0.4384 -0.4648  0.4878
  221MPD1    C4 3410   3.122   0.942  17.627  0.4968  0.3902  0.3852
  221MPD1    C5 3411   3.071   0.924   0.010 -0.4019  0.1254 -0.3193
  221MPD1     H 3412   3.317   0.670  17.630 -0.8736 -1.5303  0.1584
  221MPD1    H1 3413   3.099   1.026  17.563 -1.7724  1.4093  2.5340
  221MPD1    H2 3414   3.103   0.832   0.205  0.8253  2.0849 -0.1621
  221MPD1    H3 3415   3.019   1.010   0.051  1.1578  0.2009  1.4947
  221MPD1     N 3416   3.276   0.877  17.457  0.1414 -0.7314 -0.1565
  221MPD1    H5 3417   3.244   0.965  17.418  1.5246 -0.2419 -0.1952
  221MPD1    N1 3418   3.230   0.618   0.133  0.2420  0.0627  0.5540
  221MPD1    H6 3419   3.244   0.635   0.232  0.1397 -0.8580  0.7278
  221MPD1    H7 3420   3.316   0.571   0.108  1.4266  1.7441  1.4326
  222MPD1     C 3421   1.816   4.525  17.380 -0.2025  0.1851 -0.1429
  222MPD1    C1 3422   1.747   4.450  17.472  0.1749  0.2919 -0.3522
  222MPD1    C2 3423   1.722   4.504  17.599  0.4415  0.4579 -0.1765
  222MPD1    C3 3424   1.765   4.627  17.638 -0.5232 -0.1825  0.2088
  222MPD1    C4 3425   1.833   4.698  17.544 -0.9386  0.8864  0.0770
  222MPD1    C5 3426   1.853   4.651  17.416 -0.5305 -0.7683  0.2745
  222MPD1     H 3427   1.676   4.442  17.675  1.7104  0.5004  0.6272
  222MPD1    H1 3428   1.851   0.064  17.574 -0.5487  1.2329 -1.3071
  222MPD1    H2 3429   1.848   4.491  17.282 -1.4265 -0.6115 -0.2659
  222MPD1    H3 3430   1.914   4.707  17.346 -1.6299 -0.5567 -0.5027
  222MPD1     N 3431   1.746   4.680   0.018  0.3482  0.0067  0.2474
  222MPD1    H5 3432   1.790   0.032   0.041 -1.2322  0.5646  1.0902
  222MPD1    N1 3433   1.717   4.315  17.453  0.3165  0.2797  0.1881
  222MPD1    H6 3434   1.726   4.306  17.352 -2.0111 -1.1079  0.0978
  222MPD1    H7 3435   1.634   4.265  17.484  0.0239  0.4252 -0.3708
  223MPD1     C 3436   1.332   4.517   0.934 -0.1754  0.6417 -0.3892
  223MPD1    C1 3437   1.304   4.449   0.815  0.0370 -0.5408 -0.2298
  223MPD1    C2 3438   1.382   4.465   0.706 -0.1758  0.5678 -0.0036
  223MPD1    C3 3439   1.501   4.537   0.716  0.2671  0.3382  0.6060
  223MPD1    C4 3440   1.530   4.602   0.837 -0.1340  0.2653  0.5400
  223MPD1    C5 3441   1.447   4.578   0.945 -0.1950 -0.1254 -0.2292
  223MPD1     H 3442   1.352   4.433   0.607 -1.5125 -1.0951  0.9273
  223MPD1    H1 3443   1.626   4.645   0.861  1.5904 -2.2474 -1.9915
  223MPD1    H2 3444   1.273   4.518   1.025 -0.2924  1.3729 -0.4753
  223MPD1    H3 3445   1.466   4.619   1.043  1.5930 -2.0768  0.2397
  223MPD1     N 3446   1.577   4.568   0.600  0.7300 -0.0414  0.2522
  223MPD1    H5 3447   1.527   4.564   0.511 -2.2368  2.5802  1.7937
  223MPD1    N1 3448   1.176   4.388   0.810  0.3550  0.0487 -0.7265
  223MPD1    H6 3449   1.174   4.313   0.741 -3.8713 -1.6578  1.2389
  223MPD1    H7 3450   1.144   4.358   0.902  0.7851  1.9915  0.0634
  224MPD1     C 3451   3.298   2.574   8.912  0.2132  0.3715  0.5935
  224MPD1    C1 3452   3.243   2.650   9.012 -0.7809  0.0762  1.0445
  224MPD1    C2 3453   3.272   2.623   9.147  0.1509  0.1049 -0.0255
  224MPD1    C3 3454   3.348   2.516   9.184 -0.1070 -0.3316  0.5601
  224MPD1    C4 3455   3.389   2.430   9.083 -0.1308  0.4009 -0.7657
  224MPD1    C5 3456   3.372   2.462   8.952  0.7325  0.6552 -0.3129
  224MPD1     H 3457   3.225   2.679   9.227 -2.2914 -1.6809 -0.2026
  224MPD1    H1 3458   3.450   2.342   9.103  2.4398  2.1208 -1.0701
  224MPD1    H2 3459   3.295   2.594   8.806  0.6931  1.8540  0.8560
  224MPD1    H3 3460   3.422   2.406   8.874  0.4365  1.0335 -0.7775
  224MPD1     N 3461   3.394   2.490   9.317 -0.2639  0.1861  0.2120
  224MPD1    H5 3462   3.443   2.402   9.329  1.5925  1.0942 -0.6422
  224MPD1    N1 3463   3.147   2.741   8.981  0.5087  0.3161  0.3009
  224MPD1    H6 3464   3.133   2.771   8.885 -0.0190 -2.1012 -0.3898
  224MPD1    H7 3465   3.118   2.809   9.051 -2.3390 -0.8418  0.2793
  225MPD1     C 3466   4.397   3.606  13.214 -0.0331 -0.0740  0.3034
  225MPD1    C1 3467   4.477   3.518  13.140 -0.3694 -0.7755  0.8627
  225MPD1    C2 3468   4.424   3.447  13.033 -0.0617 -0.1792 -0.1104
  225MPD1    C3 3469   4.286   3.443  13.017  0.5936 -0.5676  0.1982
  225MPD1    C4 3470   4.216   3.534  13.085  0.0026 -0.6496 -0.3738
  225MPD1    C5 3471   4.273   3.620  13.175  0.1462  0.5556  0.0682
  225MPD1     H 3472   4.491   3.392  12.968  0.9686  2.1679 -1.0335
  225MPD1    H1 3473   4.109   3.533  13.067 -0.3662 -0.2824  1.7863
  225MPD1    H2 3474   4.423   3.671  13.296  3.4293  0.1838 -0.9874
  225MPD1    H3 3475   4.202   3.682  13.229 -0.0663  2.4863 -2.4384
  225MPD1     N 3476   4.234   3.363  12.912  0.3116 -0.2133  0.2437
  225MPD1    H5 3477   4.140   3.390  12.883  0.0611 -1.0762  0.2659
  225MPD1    N1 3478   4.610   3.520  13.170  0.0708  0.3351  0.2949
  225MPD1    H6 3479   4.658   3.439  13.131  0.9991 -0.0155  2.1861
  225MPD1    H7 3480   4.623   3.527  13.271  2.7002  1.1441 -0.1081
  226MPD1     C 3481   3.739   2.438   9.141  0.0117 -0.6948  0.5549
  226MPD1    C1 3482   3.817   2.404   9.250  0.3672 -0.2810  0.8283
  226MPD1    C2 3483   3.845   2.495   9.343 -0.1972  0.1563 -0.3485
  226MPD1    C3 3484   3.802   2.626   9.330 -0.0254 -0.3746  0.1857
  226MPD1    C4 3485   3.740   2.665   9.215 -0.5637 -0.7490 -0.6799
  226MPD1    C5 3486   3.707   2.568   9.121 -0.1341 -0.1137  0.3191
  226MPD1     H 3487   3.873   2.467   9.444 -1.4585  1.4719  0.3736
  226MPD1    H1 3488   3.705   2.765   9.191  0.3382  0.3440  2.5955
  226MPD1    H2 3489   3.715   2.362   9.068 -2.1680 -0.6553  1.2394
  226MPD1    H3 3490   3.663   2.599   9.027  0.3982  1.8726  0.7335
  226MPD1     N 3491   3.815   2.698   9.446  0.2357 -0.0587 -0.6965
  226MPD1    H5 3492   3.847   2.653   9.531 -2.0960 -1.7645 -0.7387
  226MPD1    N1 3493   3.830   2.265   9.283  0.3711  0.6649  0.4591
  226MPD1    H6 3494   3.908   2.252   9.346 -0.8271  0.3317  1.8744
  226MPD1    H7 3495   3.829   2.203   9.202  1.2990  2.1902 -0.7265
  227MPD1     C 3496   4.329   3.322  10.085  0.2193 -0.0543 -0.2303
  227MPD1    C1 3497   4.207   3.316  10.154 -0.2663 -0.0207 -0.0395
  227MPD1    C2 3498   4.100   3.267  10.082  0.5591  0.0569  0.4261
  227MPD1    C3 3499   4.097   3.235   9.948 -0.1858 -0.2931 -0.0622
  227MPD1    C4 3500   4.216   3.259   9.875 -0.0833 -0.7166 -1.0765
  227MPD1    C5 3501   4.331   3.294   9.950  0.3455 -0.0057 -0.2923
  227MPD1     H 3502   4.004   3.253  10.130  0.0213  0.8115 -0.4331
  227MPD1    H1 3503   4.206   3.275   9.769 -0.2241 -0.2184 -0.9910
  227MPD1    H2 3504   4.412   3.368  10.136 -0.5163  0.9603  0.0547
  227MPD1    H3 3505   4.419   3.316   9.890  3.0681 -2.2907  2.8816
  227MPD1     N 3506   3.975   3.180   9.895 -0.1578 -0.5750 -0.6379
  227MPD1    H5 3507   3.896   3.177   9.959  0.1794  0.1467 -0.1910
  227MPD1    N1 3508   4.201   3.328  10.294  0.2108 -0.4211  0.4566
  227MPD1    H6 3509   4.283   3.379  10.327 -1.7957  0.3797  4.2050
  227MPD1    H7 3510   4.124   3.386  10.327  0.1726 -0.2642  0.0862
  228MPD1     C 3511   1.396   0.659  13.119 -0.5341 -0.3953  0.1371
  228MPD1    C1 3512   1.394   0.522  13.115  0.4175 -0.2475  0.6317
  228MPD1    C2 3513   1.315   0.465  13.022 -0.7538 -0.2098 -0.0973
  228MPD1    C3 3514   1.201   0.535  12.976 -1.1115  0.0910 -0.0246
  228MPD1    C4 3515   1.193   0.671  13.006 -0.7788  0.1960 -0.1152
  228MPD1    C5 3516   1.297   0.732  13.063  0.6207  0.2042 -0.8733
  228MPD1     H 3517   1.326   0.363  12.986  2.5747 -0.0696  0.5076
  228MPD1    H1 3518   1.122   0.737  12.958 -0.5475  0.4135 -0.1571
  228MPD1    H2 3519   1.477   0.712  13.167 -0.5663  1.2204 -1.6150
  228MPD1    H3 3520   1.299   0.839  13.077 -0.4138  0.0507  0.4329
  228MPD1     N 3521   1.101   0.468  12.901 -0.5089  0.1439 -0.2855
  228MPD1    H5 3522   1.118   0.368  12.896  0.9041  0.2904  1.4762
  228MPD1    N1 3523   1.505   0.451  13.163 -0.1956  0.4916  0.0983
  228MPD1    H6 3524   1.558   0.503  13.232 -0.5717 -0.5739  1.1954
  228MPD1    H7 3525   1.473   0.362  13.201 -2.3977  1.7828  1.3130
  229MPD1     C 3526   2.254   4.229  14.461  0.5232  0.2520  0.4538
  229MPD1    C1 3527   2.120   4.230  14.427 -0.1429  0.3248 -0.3635
  229MPD1    C2 3528   2.043   4.119  14.464  0.6282  0.1776  0.0406
  229MPD1    C3 3529   2.084   4.016  14.543 -0.0230 -0.2168  0.2692
  229MPD1    C4 3530   2.216   4.027  14.589  0.3442  0.6979 -0.1290
  229MPD1    C5 3531   2.298   4.133  14.542 -0.7647 -0.0862  0.1400
  229MPD1     H 3532   1.940   4.118  14.431 -0.0856 -0.7378  2.2473
  229MPD1    H1 3533   2.270   3.956  14.650  3.3168  1.2930 -2.0378
  229MPD1    H2 3534   2.318   4.301  14.411  3.2093 -2.7306 -0.3992
  229MPD1    H3 3535   2.403   4.138  14.570 -0.2919 -1.2686 -1.4002
  229MPD1     N 3536   1.995   3.920  14.589  0.2525 -0.3121  0.1754
  229MPD1    H5 3537   1.902   3.928  14.549 -0.7371 -1.1332  2.3449
  229MPD1    N1 3538   2.075   4.322  14.331 -0.6200  0.3984  0.0608
  229MPD1    H6 3539   1.973   4.329  14.332 -0.7021 -0.5046 -1.8967
  229MPD1    H7 3540   2.117   4.415  14.337 -0.4116  0.2985  0.1544
  230MPD1     C 3541   1.157   3.996  14.591 -0.0130  0.3980 -1.0149
  230MPD1    C1 3542   1.270   4.073  14.545  1.0821  0.1701  0.2660
  230MPD1    C2 3543   1.389   4.011  14.555  0.0704 -0.5830 -0.0065
  230MPD1    C3 3544   1.402   3.888  14.611 -0.5441  0.1258  0.8271
  230MPD1    C4 3545   1.295   3.820  14.663 -0.4839  0.5605  0.3750
  230MPD1    C5 3546   1.168   3.876  14.652  0.0450 -0.7343  0.2217
  230MPD1     H 3547   1.480   4.056  14.518 -1.3960  0.8605 -1.8636
  230MPD1    H1 3548   1.286   3.726  14.717  1.1844 -0.8445 -1.7613
  230MPD1    H2 3549   1.057   4.038  14.584 -0.6150 -1.4537 -3.1281
  230MPD1    H3 3550   1.082   3.832  14.701  1.4147 -1.6207  1.8490
  230MPD1     N 3551   1.536   3.831  14.612 -0.4350 -0.0391  0.3902
  230MPD1    H5 3552   1.623   3.879  14.589 -1.1807  0.6776 -0.9912
  230MPD1    N1 3553   1.253   4.207  14.512 -0.2519 -0.3423  0.7588
  230MPD1    H6 3554   1.175   4.233  14.453  0.0772  0.4169  0.6595
  230MPD1    H7 3555   1.336   4.233  14.458 -2.5156  3.1146 -0.9908
  231MPD1     C 3556   4.537   1.089  15.275 -0.2043  0.5344 -0.0840
  231MPD1    C1 3557   4.473   1.141  15.163  0.5065  0.0911 -0.1282
  231MPD1    C2 3558   4.537   1.239  15.082 -0.0559  0.4510 -1.0270
  231MPD1    C3 3559   4.656   1.288  15.135  0.3021 -0.7314 -0.0520
  231MPD1    C4 3560   4.712   1.242  15.256 -0.1766  0.3663  0.0250
  231MPD1    C5 3561   4.649   1.145  15.330  0.5224  0.0429  0.3628
  231MPD1     H 3562   4.490   1.266  14.989  0.9310  2.1521 -1.0274
  231MPD1    H1 3563   0.069   1.284  15.291  0.2965 -0.6301 -0.0619
  231MPD1    H2 3564   4.482   1.018  15.336 -1.3256  0.5240 -1.0960
  231MPD1    H3 3565   4.689   1.104  15.422 -0.7538  4.1535  2.7267
  231MPD1     N 3566   4.726   1.378  15.050 -0.1041 -0.7391 -0.2823
  231MPD1    H5 3567   4.685   1.415  14.965 -0.6738  0.6739  0.6123
  231MPD1    N1 3568   4.341   1.106  15.143 -0.1369  0.3082  0.1231
  231MPD1    H6 3569   4.323   1.011  15.174 -0.5928  0.2475 -0.3233
  231MPD1    H7 3570   4.310   1.124  15.047  1.9808 -0.2939 -0.6713
  232MPD1     C 3571   1.374   2.373   0.669 -0.4400  0.0062 -0.5084
  232MPD1    C1 3572   1.263   2.443   0.706  0.4591  0.2372 -0.1240
  232MPD1    C2 3573   1.205   2.530   0.620  0.4258 -0.1976 -0.3986
  232MPD1    C3 3574   1.270   2.571   0.505 -0.2380  0.8409 -0.9486
  232MPD1    C4 3575   1.395   2.517   0.485  0.4340 -0.2306  0.3221
  232MPD1    C5 3576   1.441   2.412   0.559 -1.0352 -0.0977  0.0376
  232MPD1     H 3577   1.106   2.568   0.640  0.2003 -1.3427  0.6716
  232MPD1    H1 3578   1.455   2.545   0.399  0.3617  1.6725  0.8989
  232MPD1    H2 3579   1.414   2.289   0.724 -1.9433 -0.7262 -0.5227
  232MPD1    H3 3580   1.531   2.356   0.537 -0.8985  0.5106 -0.9372
  232MPD1     N 3581   1.205   2.673   0.422 -0.4063 -0.2085  0.4300
  232MPD1    H5 3582   1.120   2.718   0.454 -1.0992 -0.7413 -0.6569
  232MPD1    N1 3583   1.200   2.408   0.832 -0.3831 -0.2390 -0.5856
  232MPD1    H6 3584   1.152   2.486   0.877 -0.8054 -1.0726  0.4157
  232MPD1    H7 3585   1.269   2.366   0.893 -0.0108 -0.5047 -1.1919
  233MPD1     C 3586   2.430   1.560  17.556 -0.5936 -0.4152 -0.4473
  233MPD1    C1 3587   2.520   1.624  17.638 -0.0939 -0.3080  0.0816
  233MPD1    C2 3588   2.540   1.573   0.022  0.3851 -1.0001 -0.1720
  233MPD1    C3 3589   2.456   1.476   0.076 -0.4173  0.0949 -0.0077
  233MPD1    C4 3590   2.356   1.428  17.740  0.1626  0.3322 -0.1623
  233MPD1    C5 3591   2.343   1.465  17.607  0.6871  0.4879  0.6511
  233MPD1     H 3592   2.620   1.619   0.079 -2.5165  2.5400  1.0531
  233MPD1    H1 3593   2.283   1.356   0.028  0.1682  0.9068  1.0630
  233MPD1    H2 3594   2.416   1.595  17.454 -0.1862 -1.0376 -0.7153
  233MPD1    H3 3595   2.268   1.414  17.548  0.7629  0.3519  0.6732
  233MPD1     N 3596   2.478   1.417   0.208  0.0318 -0.6137 -0.6234
  233MPD1    H5 3597   2.412   1.343   0.231  0.0632 -0.3377  0.3353
  233MPD1    N1 3598   2.608   1.709  17.580  0.3858  0.2170  0.7478
  233MPD1    H6 3599   2.641   1.783  17.642 -0.6644  0.1836  1.3468
  233MPD1    H7 3600   2.571   1.759  17.499  0.3644  1.5945  1.6093
  234MPD1     C 3601   4.453   1.097   9.598  0.4267  0.1826 -0.4269
  234MPD1    C1 3602   4.440   1.204   9.681  0.7676 -0.1463 -0.0184
  234MPD1    C2 3603   4.325   1.281   9.673  0.5100  0.3229  0.1133
  234MPD1    C3 3604   4.226   1.247   9.586 -0.2240 -0.0783  0.2456
  234MPD1    C4 3605   4.240   1.129   9.507 -0.1073 -0.4444 -0.1993
  234MPD1    C5 3606   4.360   1.056   9.509 -0.1738 -0.0296  0.4115
  234MPD1     H 3607   4.311   1.375   9.725 -0.8038 -0.0975  0.5256
  234MPD1    H1 3608   4.157   1.095   9.446 -1.1357  0.8785  0.4746
  234MPD1    H2 3609   4.550   1.048   9.600  0.5729  0.5585  1.1706
  234MPD1    H3 3610   4.372   0.971   9.442  0.1688  1.6896 -1.7205
  234MPD1     N 3611   4.112   1.327   9.570 -0.1635 -0.0366 -0.1303
  234MPD1    H5 3612   4.088   1.406   9.629 -1.5654 -0.0896 -0.6337
  234MPD1    N1 3613   4.540   1.260   9.749 -0.7337 -0.3044 -0.7767
  234MPD1    H6 3614   4.509   1.313   9.830  1.2992  2.7648 -2.0298
  234MPD1    H7 3615   4.605   1.188   9.779 -0.9142  0.1260  0.6510
  235MPD1     C 3616   1.441   3.143  10.089  0.2060 -0.0773  0.2217
  235MPD1    C1 3617   1.530   3.205  10.011 -0.5150 -0.2700  0.0336
  235MPD1    C2 3618   1.548   3.343  10.029  0.7041 -0.0309 -0.8874
  235MPD1    C3 3619   1.493   3.415  10.132  0.3059 -0.1810 -0.2487
  235MPD1    C4 3620   1.421   3.340  10.226  0.3197 -0.2738  0.0395
  235MPD1    C5 3621   1.384   3.213  10.194  0.1471 -0.3630  0.4166
  235MPD1     H 3622   1.602   3.393   9.950  1.0371  2.0723  0.6832
  235MPD1    H1 3623   1.369   3.387  10.309 -0.0658 -0.1508 -0.2710
  235MPD1    H2 3624   1.409   3.040  10.082 -0.9506  0.5212 -2.9954
  235MPD1    H3 3625   1.323   3.159  10.266 -1.8330 -2.5039 -2.8831
  235MPD1     N 3626   1.540   3.547  10.140 -0.3334  0.4306  0.2615
  235MPD1    H5 3627   1.609   3.572  10.070 -1.0425 -1.0992 -0.9950
  235MPD1    N1 3628   1.578   3.124   9.902 -0.0493 -0.6732  0.4740
  235MPD1    H6 3629   1.586   3.025   9.924 -0.0872 -0.6642  0.5285
  235MPD1    H7 3630   1.666   3.156   9.862 -0.1681 -3.0102 -1.6763
  236MPD1     C 3631   4.490   0.344  10.494 -0.4962 -0.1047  0.7979
  236MPD1    C1 3632   4.605   0.426  10.494 -0.0228 -0.7677 -0.1122
  236MPD1    C2 3633   4.710   0.393  10.406 -0.0168 -0.1930  0.3812
  236MPD1    C3 3634   4.700   0.277  10.327  0.8201 -0.6564 -0.1046
  236MPD1    C4 3635   4.593   0.194  10.347 -0.4930 -0.4535 -1.3030
  236MPD1    C5 3636   4.488   0.226  10.425  0.1854  1.0875  0.3676
  236MPD1     H 3637   0.057   0.462  10.398 -0.6125  0.2498 -1.9631
  236MPD1    H1 3638   4.592   0.106  10.284  0.7332 -1.9391  0.7796
  236MPD1    H2 3639   4.404   0.367  10.556 -1.4391 -2.7908  0.4793
  236MPD1    H3 3640   4.401   0.163  10.431 -0.5588  1.9291 -1.6137
  236MPD1     N 3641   0.061   0.233  10.239  0.4333 -0.0918  0.5545
  236MPD1    H5 3642   0.063   0.140  10.198 -1.2962 -0.6851  1.8262
  236MPD1    N1 3643   4.610   0.527  10.594 -0.3203 -0.4597 -0.0815
  236MPD1    H6 3644   4.526   0.584  10.598  1.2859  1.8683  0.4159
  236MPD1    H7 3645   4.677   0.598  10.564 -2.0015  1.3621  0.4874
  237MPD1     C 3646   0.310   2.053  15.652 -0.1288 -0.2768 -0.0690
  237MPD1    C1 3647   0.245   2.022  15.768  0.3085 -0.7389  0.2114
  237MPD1    C2 3648   0.116   2.077  15.789  0.0886 -0.1152 -0.4395
  237MPD1    C3 3649   0.054   2.162  15.697 -0.1657  0.6971  0.2050
  237MPD1    C4 3650   0.132   2.198  15.588 -0.1635  0.1874  0.4692
  237MPD1    C5 3651   0.256   2.141  15.569  0.4266  0.2739  0.0834
  237MPD1     H 3652   0.057   2.045  15.874 -0.6325  3.6434  0.4420
  237MPD1    H1 3653   0.099   2.265  15.509  1.1821 -0.0005 -0.2468
  237MPD1    H2 3654   0.411   2.020  15.631 -0.2524 -0.9474  0.4035
  237MPD1    H3 3655   0.320   2.169  15.487  0.8207 -0.1586  0.2451
  237MPD1     N 3656   4.673   2.228  15.717 -0.5055 -0.4029 -0.2308
  237MPD1    H5 3657   4.652   2.304  15.653 -3.2405 -0.6999  0.3184
  237MPD1    N1 3658   0.316   1.948  15.863  0.0141  0.2736  0.1744
  237MPD1    H6 3659   0.391   1.901  15.813 -0.7404 -1.3011  0.5239
  237MPD1    H7 3660   0.374   2.013  15.916 -1.6198  0.8650  1.2358
  238MPD1     C 3661   1.912   0.900  14.926 -0.0687  0.0874 -0.2130
  238MPD1    C1 3662   1.800   0.824  14.968 -0.3270  0.6323 -0.0253
  238MPD1    C2 3663   1.672   0.841  14.909 -0.0571  0.0928  0.5291
  238MPD1    C3 3664   1.650   0.951  14.830  0.1176  0.5801  0.2788
  238MPD1    C4 3665   1.753   1.029  14.797 -0.5499  0.1786 -0.2727
  238MPD1    C5 3666   1.878   1.003  14.844  0.2325  0.2674  0.6070
  238MPD1     H 3667   1.589   0.775  14.933  0.2354 -0.9757 -1.3324
  238MPD1    H1 3668   1.751   1.113  14.729  1.6596 -2.6763 -3.8628
  238MPD1    H2 3669   2.010   0.863  14.952 -0.8301 -1.2315  0.8200
  238MPD1    H3 3670   1.955   1.075  14.817  0.9214  0.0240  1.9334
  238MPD1     N 3671   1.531   0.976  14.763  0.2311 -0.8831  0.1008
  238MPD1    H5 3672   1.524   1.044  14.689  0.6383  0.3934  1.2432
  238MPD1    N1 3673   1.824   0.715  15.046  0.5849  0.8047  0.1018
  238MPD1    H6 3674   1.894   0.725  15.119  0.0751  1.2377  0.5405
  238MPD1    H7 3675   1.741   0.685  15.098  0.3424  0.4642 -0.4870
  239MPD1     C 3676   2.094   1.691  14.928  0.0098 -0.2263 -0.1918
  239MPD1    C1 3677   1.999   1.792  14.961  0.5962 -0.0788 -0.1167
  239MPD1    C2 3678   1.945   1.859  14.851  0.5818 -0.4669  0.2704
  239MPD1    C3 3679   1.989   1.843  14.719 -0.4464 -0.3687  0.2760
  239MPD1    C4 3680   2.082   1.747  14.692  0.1662  0.5205 -0.4494
  239MPD1    C5 3681   2.137   1.675  14.796 -0.8829  0.2335  0.6826
  239MPD1     H 3682   1.876   1.941  14.869  0.6063 -0.7073  1.4604
  239MPD1    H1 3683   2.120   1.724  14.593 -2.7392  0.0647 -1.4725
  239MPD1    H2 3684   2.120   1.615  15.001 -2.6968 -2.3730 -1.4790
  239MPD1    H3 3685   2.213   1.603  14.769 -1.5221 -0.3819  0.5201
  239MPD1     N 3686   1.936   1.907  14.603 -0.0200  1.0071 -0.3177
  239MPD1    H5 3687   1.957   1.861  14.515 -1.0610 -0.4510  0.2054
  239MPD1    N1 3688   1.927   1.780  15.085 -0.5298 -0.0028  0.4263
  239MPD1    H6 3689   1.988   1.767  15.166  0.5108  3.3889  0.2037
  239MPD1    H7 3690   1.855   1.852  15.094  2.5366  3.3176 -1.4580
  240MPD1     C 3691   1.048   1.989  13.527  0.0273  1.2154  0.0459
  240MPD1    C1 3692   1.057   1.869  13.459  0.0635 -0.0431  0.2360
  240MPD1    C2 3693   1.027   1.751  13.526  0.0002  0.2433 -1.1824
  240MPD1    C3 3694   1.017   1.749  13.667 -0.6641  0.5062 -0.0104
  240MPD1    C4 3695   0.997   1.870  13.731 -0.2938  0.6774  0.4160
  240MPD1    C5 3696   1.020   1.988  13.664 -0.2766 -0.1771  0.9464
  240MPD1     H 3697   1.036   1.653  13.481  2.1167  0.0262 -0.2867
  240MPD1    H1 3698   0.965   1.873  13.834 -3.0507 -0.7521 -0.3784
  240MPD1    H2 3699   1.062   2.086  13.481  1.7049  1.1923  0.5054
  240MPD1    H3 3700   0.986   2.078  13.714 -0.2552 -0.6186  1.7594
  240MPD1     N 3701   1.012   1.627  13.736 -0.1091 -0.4956 -0.0085
  240MPD1    H5 3702   1.015   1.543  13.679  0.3344  0.3028 -1.1797
  240MPD1    N1 3703   1.065   1.878  13.320 -0.3159  0.5035 -0.5060
  240MPD1    H6 3704   1.112   1.793  13.289 -3.4736 -1.0161 -1.1052
  240MPD1    H7 3705   1.120   1.960  13.296 -2.4225  1.9328 -0.4883
  241MPD1     C 3706   1.189   1.393  14.704  0.0972 -0.3394 -0.4122
  241MPD1    C1 3707   1.055   1.364  14.682  0.0704  0.2843 -0.6245
  241MPD1    C2 3708   1.011   1.367  14.554  0.1922  0.1389 -0.2020
  241MPD1    C3 3709   1.098   1.402  14.450  0.2034 -0.5322  0.2289
  241MPD1    C4 3710   1.227   1.452  14.473 -0.1787  0.3781  0.6167
  241MPD1    C5 3711   1.266   1.448  14.605  1.1387 -0.2650  0.5494
  241MPD1     H 3712   0.907   1.342  14.539 -0.3602  1.4499  1.5040
  241MPD1    H1 3713   1.303   1.472  14.399  0.6391 -1.2029  1.0106
  241MPD1    H2 3714   1.234   1.366  14.799  1.1743 -1.0962 -1.1255
  241MPD1    H3 3715   1.371   1.465  14.621  0.9292  0.6096  0.9742
  241MPD1     N 3716   1.068   1.405  14.314 -0.0087 -0.2064 -0.3088
  241MPD1    H5 3717   1.144   1.413  14.248 -0.2030  0.8986 -0.4023
  241MPD1    N1 3718   0.974   1.309  14.783 -0.0595 -0.0674 -0.1096
  241MPD1    H6 3719   1.019   1.331  14.872  0.8480 -0.3334 -0.5105
  241MPD1    H7 3720   0.878   1.339  14.768  1.1772  3.7254 -0.4656
  242MPD1     C 3721   1.071   0.672  15.356 -0.4945 -0.5384  0.6556
  242MPD1    C1 3722   1.105   0.591  15.461 -0.0301 -0.4300 -0.3056
  242MPD1    C2 3723   1.099   0.454  15.435 -0.8262  0.1204  0.3110
  242MPD1    C3 3724   1.043   0.401  15.318 -0.0790 -0.3379  0.9848
  242MPD1    C4 3725   0.986   0.489  15.229 -0.1665 -0.0260 -0.0559
  242MPD1    C5 3726   1.004   0.621  15.248 -0.6945 -0.1314 -0.3254
  242MPD1     H 3727   1.147   0.388  15.507  1.2502  0.6633 -0.5911
  242MPD1    H1 3728   0.922   0.460  15.146  0.3559 -0.7565 -0.2023
  242MPD1    H2 3729   1.091   0.779  15.353 -0.7712 -0.4683  1.3799
  242MPD1    H3 3730   0.976   0.689  15.168 -2.5633  1.1733  1.4308
  242MPD1     N 3731   1.042   0.262  15.292  0.7231 -0.3979 -0.1826
  242MPD1    H5 3732   1.009   0.236  15.200  0.0054 -2.3284  0.6148
  242MPD1    N1 3733   1.173   0.644  15.570  0.3052 -0.3450  0.0790
  242MPD1    H6 3734   1.155   0.738  15.607  1.5906 -0.3840  0.8142
  242MPD1    H7 3735   1.192   0.582  15.648  2.2659  1.5822  1.1607
  243MPD1     C 3736   1.540   2.884  17.623 -0.4026 -0.7185  0.0753
  243MPD1    C1 3737   1.595   2.771  17.693 -0.4863  0.5553 -0.2437
  243MPD1    C2 3738   1.721   2.729  17.661  0.0555  0.2783  0.3058
  243MPD1    C3 3739   1.797   2.812  17.580 -0.6251  0.6565 -0.8584
  243MPD1    C4 3740   1.749   2.926  17.525 -0.6760  0.1475  0.7500
  243MPD1    C5 3741   1.621   2.964  17.552 -0.1531  0.3099 -0.3510
  243MPD1     H 3742   1.759   2.636  17.702  0.5206  1.1417  1.8216
  243MPD1    H1 3743   1.806   2.996  17.465 -0.9678  1.2373  1.7513
  243MPD1    H2 3744   1.436   2.910  17.639 -0.4069  0.3188 -1.7125
  243MPD1    H3 3745   1.576   3.046  17.496 -1.8264  1.0204  2.0543
  243MPD1     N 3746   1.931   2.772  17.565 -0.9164  0.7999  0.2758
  243MPD1    H5 3747   1.955   2.677  17.591 -1.6439  0.4446 -0.3834
  243MPD1    N1 3748   1.504   2.683   0.011  0.0892  0.4137  0.3279
  243MPD1    H6 3749   1.440   2.732   0.072 -2.0618 -0.7763 -0.9977
  243MPD1    H7 3750   1.559   2.626   0.075  2.6443  1.0117 -1.2876
  244MPD1     C 3751   2.581   2.050  17.742  0.8392  0.3753  0.4684
  244MPD1    C1 3752   2.619   2.090  17.617  0.1979  0.8745 -0.0940
  244MPD1    C2 3753   2.552   2.198  17.560 -1.2163  0.1640 -0.5868
  244MPD1    C3 3754   2.461   2.272  17.635  0.7527  0.2070 -0.5790
  244MPD1    C4 3755   2.423   2.234   0.018  0.3197 -0.7856 -0.4809
  244MPD1    C5 3756   2.481   2.117   0.067  0.5757 -0.5641 -0.3130
  244MPD1     H 3757   2.573   2.228  17.458 -0.5016  1.8530  0.0684
  244MPD1    H1 3758   2.355   2.287   0.084  2.2551  1.0222  0.0364
  244MPD1    H2 3759   2.606   1.954   0.041  0.8081  1.3301  2.5658
  244MPD1    H3 3760   2.457   2.082   0.167 -0.7498 -0.1566 -0.4886
  244MPD1     N 3761   2.408   2.395  17.583  0.2481  0.2141 -0.0447
  244MPD1    H5 3762   2.433   2.415  17.486  0.2247 -0.0943 -0.1135
  244MPD1    N1 3763   2.708   2.010  17.541 -0.2930 -0.2175  0.1151
  244MPD1    H6 3764   2.771   2.069  17.487 -0.1098 -1.2257 -0.7838
  244MPD1    H7 3765   2.766   1.954  17.604 -0.0417  0.5645  0.5679
  245MPD1     C 3766   3.694   3.701  12.860  0.3374 -0.9754 -1.1531
  245MPD1    C1 3767   3.728   3.693  12.998 -0.3428 -0.0071  0.2178
  245MPD1    C2 3768   3.839   3.756  13.054  0.2454  0.0012  0.0392
  245MPD1    C3 3769   3.919   3.837  12.974 -0.2130  1.2444 -0.0029
  245MPD1    C4 3770   3.879   3.850  12.843 -0.3622  0.2917 -1.4620
  245MPD1    C5 3771   3.774   3.785  12.782  0.6303  0.7315  0.1253
  245MPD1     H 3772   3.875   3.729  13.153 -0.1342 -0.9042 -0.0661
  245MPD1    H1 3773   3.913   3.925  12.772  0.4792 -0.0299 -1.3959
  245MPD1    H2 3774   3.605   3.650  12.824 -0.2795 -0.0714 -0.9172
  245MPD1    H3 3775   3.745   3.811  12.681  0.2090 -1.2761 -0.2676
  245MPD1     N 3776   4.016   3.922  13.027  0.0987  0.1814  1.0167
  245MPD1    H5 3777   4.016   3.927  13.128  0.6049  0.1426  1.0146
  245MPD1    N1 3778   3.662   3.599  13.084 -0.3657 -0.4578 -0.7215
  245MPD1    H6 3779   3.563   3.603  13.062 -0.2439 -0.5043 -1.2883
  245MPD1    H7 3780   3.675   3.638  13.177  0.0712 -1.6965 -0.2643
  246MPD1     C 3781   0.426   3.168  10.447 -0.5690 -0.6534 -0.0472
  246MPD1    C1 3782   0.559   3.193  10.486 -0.1829 -0.8208 -0.1358
  246MPD1    C2 3783   0.644   3.270  10.400  0.4261 -0.2212 -0.1798
  246MPD1    C3 3784   0.594   3.322  10.280  0.4886 -0.3132  0.1649
  246MPD1    C4 3785   0.469   3.274  10.240  0.2561 -0.8243 -0.4533
  246MPD1    C5 3786   0.394   3.199  10.319 -0.2726  0.3402  0.0848
  246MPD1     H 3787   0.744   3.286  10.439 -0.1280 -0.7598  1.4695
  246MPD1    H1 3788   0.421   3.296  10.145 -0.5030  2.0396  0.5954
  246MPD1    H2 3789   0.357   3.121  10.515 -0.2585  1.1946  1.5379
  246MPD1    H3 3790   0.288   3.181  10.299 -0.6079 -0.6274  2.6917
  246MPD1     N 3791   0.674   3.395  10.189 -0.0394 -0.3607 -0.2017
  246MPD1    H5 3792   0.766   3.423  10.223 -0.0584 -0.3563 -0.1530
  246MPD1    N1 3793   0.601   3.166  10.618  0.3256 -1.0995  0.2772
  246MPD1    H6 3794   0.701   3.148  10.625  0.9936  2.0610 -1.0271
  246MPD1    H7 3795   0.562   3.080  10.657  0.5282 -0.1680  2.5112
  247MPD1     C 3796   3.979   4.694  16.396  0.4735 -0.0591  0.6441
  247MPD1    C1 3797   4.024   4.645  16.275 -0.0865 -0.1328 -0.7616
  247MPD1    C2 3798   4.032   4.512  16.262  0.1971 -0.3560 -0.6244
  247MPD1    C3 3799   4.036   4.417  16.363 -0.8675 -0.3857  0.0513
  247MPD1    C4 3800   4.028   4.472  16.492  0.2023  0.8215 -0.8988
  247MPD1    C5 3801   3.994   4.606  16.505  0.6623  0.0264 -0.4155
  247MPD1     H 3802   4.046   4.472  16.162  3.9454 -0.9627  0.1405
  247MPD1    H1 3803   4.028   4.415  16.584 -0.0180 -2.5851 -3.0454
  247MPD1    H2 3804   3.960   0.063  16.402 -1.3053 -0.2799 -1.3800
  247MPD1    H3 3805   3.956   4.645  16.598 -0.1732  0.0750 -0.7768
  247MPD1     N 3806   4.056   4.284  16.344 -0.2612  0.4367  0.0175
  247MPD1    H5 3807   4.073   4.262  16.247 -1.1529 -0.2633  0.0173
  247MPD1    N1 3808   4.030   4.729  16.163 -0.5474  0.1968  1.2688
  247MPD1    H6 3809   4.056   0.087  16.189 -0.4589 -0.4133  3.4070
  247MPD1    H7 3810   4.077   4.682  16.086 -0.2168 -0.7146  2.0262
  248MPD1     C 3811   3.763   2.772  17.281  0.6217 -0.4878 -0.6496
  248MPD1    C1 3812   3.722   2.898  17.305  0.3186  0.2262  0.2255
  248MPD1    C2 3813   3.767   2.958  17.421  0.0881  0.5896  0.1636
  248MPD1    C3 3814   3.856   2.898  17.508  0.0704 -0.0423 -0.4432
  248MPD1    C4 3815   3.906   2.771  17.475  0.1497 -0.6900 -0.1514
  248MPD1    C5 3816   3.850   2.708  17.366 -0.2954  0.2332  0.2445
  248MPD1     H 3817   3.742   3.062  17.439 -0.6438  0.6260 -1.0492
  248MPD1    H1 3818   3.973   2.712  17.537  0.9571 -0.9964 -1.3314
  248MPD1    H2 3819   3.743   2.721  17.188  0.5353 -0.1280 -0.8274
  248MPD1    H3 3820   3.900   2.614  17.348  0.6290  0.7532  0.0864
  248MPD1     N 3821   3.906   2.969  17.616  0.6988 -0.2374 -0.0918
  248MPD1    H5 3822   3.858   3.056  17.637 -1.6121 -0.9472 -2.4401
  248MPD1    N1 3823   3.652   2.969  17.206  0.5284 -0.6875 -0.0503
  248MPD1    H6 3824   3.603   3.047  17.250  2.7845  0.2154  0.9039
  248MPD1    H7 3825   3.574   2.920  17.164 -1.3483  0.7364  1.7613
  249MPD1     C 3826   1.702   2.246  10.999  0.1401 -0.8617 -0.1577
  249MPD1    C1 3827   1.779   2.348  11.053 -0.1162  0.0286 -0.2852
  249MPD1    C2 3828   1.796   2.459  10.974  0.3171  0.4240 -0.8295
  249MPD1    C3 3829   1.755   2.470  10.843 -0.1392  0.0988  0.4133
  249MPD1    C4 3830   1.682   2.372  10.793 -0.1036  0.5324 -0.0989
  249MPD1    C5 3831   1.660   2.261  10.868  0.1138 -0.0675 -0.2439
  249MPD1     H 3832   1.842   2.543  11.025  1.0993  0.2238 -1.2070
  249MPD1    H1 3833   1.643   2.377  10.692 -0.0571  0.2485 -0.1311
  249MPD1    H2 3834   1.673   2.163  11.062  1.2904 -2.0548 -1.1954
  249MPD1    H3 3835   1.605   2.175  10.834  1.3671 -0.9091 -0.1591
  249MPD1     N 3836   1.784   2.591  10.779  0.0617 -0.1284  0.7246
  249MPD1    H5 3837   1.843   2.656  10.831 -0.8062  1.0024  0.2966
  249MPD1    N1 3838   1.801   2.358  11.194  0.4588 -0.4019 -0.0782
  249MPD1    H6 3839   1.872   2.428  11.211  1.2835 -1.5792  1.2435
  249MPD1    H7 3840   1.819   2.267  11.237 -2.0029 -0.3563  1.0824
  250MPD2     C 3841   2.858   2.444  12.651 -0.0063  0.6177 -0.0799
  250MPD2    C1 3842   2.774   2.545  12.692  0.0587 -0.5178  0.2394
  250MPD2    C2 3843   2.657   2.581  12.634  0.2086 -0.2145  0.4228
  250MPD2    C3 3844   2.612   2.486  12.539 -0.0120 -0.8042 -0.1979
  250MPD2    C4 3845   2.687   2.375  12.499 -0.5635  0.3976 -1.1243
  250MPD2    C5 3846   2.811   2.364  12.549 -0.2564 -0.2575 -0.0641
  250MPD2     H 3847   2.599   2.666  12.668  1.0782  0.8019 -0.6523
  250MPD2    H1 3848   2.662   2.306  12.419 -3.2924  1.2751 -1.0413
  250MPD2    H2 3849   2.950   2.435  12.707 -0.0830 -0.7901 -0.1665
  250MPD2    H3 3850   2.870   2.277  12.522  1.2758  0.0975  2.1967
  250MPD2     N 3851   2.487   2.504  12.476  0.4413  0.2233  0.2527
  250MPD2    H5 3852   2.456   2.423  12.423  1.9480  0.3516 -0.8146
  250MPD2    N1 3853   2.838   2.626  12.788 -0.2337 -0.1429  1.0439
  250MPD2    H7 3854   2.930   2.602  12.824  0.2788  0.4679  0.1164
  251TMC3    C1 3855   2.874   2.797  12.937 -0.1125  0.5197  0.6394
  251TMC3    C2 3856   2.813   2.867  13.045  0.1408 -0.1657 -0.0481
  251TMC3    C3 3857   2.900   2.937  13.125 -0.8659  0.5713  0.7505
  251TMC3    C4 3858   3.009   2.810  12.905 -0.7430 -0.0198 -0.1939
  251TMC3    C5 3859   3.079   2.892  12.982  0.2499 -0.3724 -0.7748
  251TMC3    C6 3860   3.032   2.960  13.088  0.4089  0.5326  0.8325
  251TMC3     C 3861   2.781   2.733  12.852  0.6514  0.1998 -0.6255
  251TMC3     O 3862   2.666   2.777  12.846 -0.0426  0.6611 -0.1989
  251TMC3     H 3863   2.712   2.852  13.079  0.7291  0.3218  1.9376
  251TMC3    H1 3864   3.054   2.756  12.822 -0.1868  0.5524 -0.2609
  251TMC3    H2 3865   3.094   3.024  13.149 -0.9993  1.8539  0.8769
  251TMC3    C7 3866   3.209   2.936  12.930  0.0058 -0.1109  0.5444
  251TMC3    C8 3867   2.864   2.972  13.266 -0.3107  0.2280  0.3921
  251TMC3    O1 3868   3.295   2.854  12.917  0.4504  0.2708 -0.2877
  251TMC3    O2 3869   2.747   2.997  13.293  0.6449 -0.1816 -0.3448
  252TMC3    C1 3870   2.866   4.669   9.272  0.1137  0.4407  0.5148
  252TMC3    C2 3871   3.004   4.649   9.272 -0.1830 -0.2170  0.7578
  252TMC3    C3 3872   3.060   4.552   9.359 -0.3672 -0.6389  0.1689
  252TMC3    C4 3873   2.786   4.598   9.353  0.2704  0.1750  0.7922
  252TMC3    C5 3874   2.841   4.505   9.435  0.6617 -0.5139 -0.3274
  252TMC3    C6 3875   2.979   4.483   9.445  0.3385  0.9020 -0.7019
  252TMC3     C 3876   2.806   0.027   9.178  0.4239  0.2804  0.0125
  252TMC3     O 3877   2.687   0.054   9.187 -0.1704 -0.3996 -0.1691
  252TMC3     H 3878   3.072   4.716   9.219 -1.6872  1.5981  1.1497
  252TMC3    H1 3879   2.678   4.602   9.346  0.2528 -0.6572  0.5815
  252TMC3    H2 3880   3.013   4.389   9.487  0.3124  1.5024  0.6808
  252TMC3    C7 3881   2.754   4.425   9.513 -0.7835  0.2897 -0.1868
  252TMC3    C8 3882   3.209   4.528   9.349 -0.7913 -0.4932  0.6202
  252TMC3    O1 3883   2.640   4.465   9.521 -0.1952  0.0739 -0.7959
  252TMC3    O2 3884   3.276   4.575   9.257  0.2981 -0.2730 -0.3639
  253MPD2     C 3885   4.287   2.740  15.625  0.9314 -0.7845 -0.3165
  253MPD2    C1 3886   4.151   2.700  15.616 -0.3677  0.4046  0.3545
  253MPD2    C2 3887   4.090   2.625  15.720 -0.6948  0.0174  0.2808
  253MPD2    C3 3888   4.164   2.594  15.836  0.2390 -0.0279 -0.0823
  253MPD2    C4 3889   4.293   2.640  15.840  0.2087  0.2963  0.6818
  253MPD2    C5 3890   4.355   2.719  15.743 -1.0179 -0.1729  1.0718
  253MPD2     H 3891   3.989   2.590  15.698 -0.2241  0.1809 -2.1450
  253MPD2    H1 3892   4.345   2.618  15.932  0.3494 -1.5658  0.1629
  253MPD2    H2 3893   4.339   2.769  15.535  1.4381 -0.5297  0.0593
  253MPD2    H3 3894   4.460   2.743  15.751 -1.0235 -0.2069  1.2487
  253MPD2     N 3895   4.108   2.523  15.948 -0.0096  0.6834 -0.2307
  253MPD2    H5 3896   4.171   2.506  16.026  1.2567  1.8985 -0.9890
  253MPD2    N1 3897   4.066   2.726  15.505 -0.3343 -0.1514 -0.0095
  253MPD2    H7 3898   3.977   2.679  15.499 -0.9403  0.7264  1.9884
  254TMC3    C1 3899   3.936   2.419  16.080  0.3861  0.8577 -0.4996
  254TMC3    C2 3900   3.844   2.316  16.062 -0.2691  0.3304 -0.1695
  254TMC3    C3 3901   3.834   2.225  16.160  0.9418  0.6045 -0.3334
  254TMC3    C4 3902   4.007   2.433  16.193  0.5276  0.0567 -1.0931
  254TMC3    C5 3903   3.996   2.335  16.287  0.1783  0.0775 -0.0036
  254TMC3    C6 3904   3.904   2.233  16.274 -0.7238  0.2689 -1.0194
  254TMC3     C 3905   3.971   2.481  15.959  0.0221 -0.0096 -0.1528
  254TMC3     O 3906   3.875   2.494  15.888  0.1821  0.9859  0.1278
  254TMC3     H 3907   3.782   2.307  15.974 -0.7770  0.7765  0.1415
  254TMC3    H1 3908   4.082   2.510  16.209  0.9970 -0.4861 -0.6705
  254TMC3    H2 3909   3.892   2.158  16.351  0.0171  1.1677 -0.0226
  254TMC3    C7 3910   4.065   2.345  16.420 -0.2423  0.1119 -0.3643
  254TMC3    C8 3911   3.703   2.161  16.172 -0.3654  0.2596  0.3519
  254TMC3    O1 3912   4.022   2.279  16.515 -0.5260  0.1857  0.8733
  254TMC3    O2 3913   3.687   2.072  16.247  1.1386 -0.0653  0.0711
  255MPD2     C 3914   2.294   0.471  10.372 -0.0102  0.6089 -0.0618
  255MPD2    C1 3915   2.348   0.589  10.314  0.1441 -0.5075  1.1566
  255MPD2    C2 3916   2.433   0.579  10.203  0.3095  0.2941  0.7221
  255MPD2    C3 3917   2.457   0.464  10.139  0.3490  0.8926 -0.4306
  255MPD2    C4 3918   2.388   0.357  10.189 -0.1967 -0.7582  0.6228
  255MPD2    C5 3919   2.311   0.362  10.299 -0.2965  0.1339  0.1509
  255MPD2     H 3920   2.479   0.672  10.172  2.3830 -1.0705 -0.2903
  255MPD2    H1 3921   2.395   0.259  10.142  0.4069 -0.0630 -0.7182
  255MPD2    H2 3922   2.242   0.458  10.467  1.1792 -0.6759  0.4171
  255MPD2    H3 3923   2.257   0.274  10.331 -0.5350  0.6919  1.2866
  255MPD2     N 3924   2.542   0.462  10.022 -0.4512  0.0230 -0.0444
  255MPD2    H5 3925   2.586   0.550   9.998 -1.3707  0.3433 -0.5596
  255MPD2    N1 3926   2.325   0.714  10.370 -0.4278 -0.6443  0.3979
  255MPD2    H7 3927   2.383   0.789  10.335 -0.2770 -0.7059  0.5142
  256TMC3    C1 3928   2.221   0.884  10.481  0.7285  0.4560 -0.3992
  256TMC3    C2 3929   2.343   0.938  10.519 -0.3758 -0.0964  0.6376
  256TMC3    C3 3930   2.349   1.072  10.502 -0.1987 -0.5774  0.1010
  256TMC3    C4 3931   2.109   0.961  10.452  0.1791  0.0870  0.6693
  256TMC3    C5 3932   2.118   1.099  10.454 -0.2416 -0.3399 -0.3756
  256TMC3    C6 3933   2.243   1.155  10.482 -0.1897 -0.0820  0.4192
  256TMC3     C 3934   2.212   0.743  10.442  0.6243  0.3250  0.6633
  256TMC3     O 3935   2.109   0.680  10.453 -0.3147  0.1309  0.1432
  256TMC3     H 3936   2.426   0.874  10.550 -1.0075 -2.5442 -2.6701
  256TMC3    H1 3937   2.014   0.912  10.437  0.3645 -0.1822  0.3812
  256TMC3    H2 3938   2.258   1.262  10.482  2.6875 -0.4909 -2.1374
  256TMC3    C7 3939   2.049   1.173  10.351  0.2172  0.6623  0.1093
  256TMC3    C8 3940   2.479   1.128  10.475  0.6824  1.2943 -0.1610
  256TMC3    O1 3941   2.005   1.102  10.263 -0.4405  0.4105  0.4056
  256TMC3    O2 3942   2.578   1.086  10.535  0.3090  0.1760 -0.7708
  257MPD2     C 3943   1.410   2.294  13.476 -0.4116  0.4038 -0.0686
  257MPD2    C1 3944   1.502   2.267  13.379 -0.8564 -0.8638  0.0906
  257MPD2    C2 3945   1.572   2.146  13.386 -0.2169 -0.5000  0.3155
  257MPD2    C3 3946   1.579   2.076  13.507 -0.2159  0.0161  0.0731
  257MPD2    C4 3947   1.505   2.118  13.613  0.0059 -0.1622 -0.4201
  257MPD2    C5 3948   1.415   2.219  13.597 -0.1968  1.0615 -1.3297
  257MPD2     H 3949   1.638   2.110  13.307  1.4023  2.0701  0.4664
  257MPD2    H1 3950   1.508   2.071  13.711 -1.7172  0.1300 -0.2415
  257MPD2    H2 3951   1.340   2.377  13.467 -2.1835 -0.8711  1.9656
  257MPD2    H3 3952   1.346   2.245  13.676  1.1756  0.5460  0.0560
  257MPD2     N 3953   1.655   1.957  13.501 -0.4575  0.4221  0.3779
  257MPD2    H5 3954   1.710   1.946  13.417 -1.4053  2.7786 -0.5285
  257MPD2    N1 3955   1.516   2.360  13.273  0.1771  0.3309  0.4636
  257MPD2    H7 3956   1.469   2.449  13.283  0.6692  0.6445 -0.0516
  258TMC3    C1 3957   1.752   1.746  13.561  0.6296  0.2998 -0.0762
  258TMC3    C2 3958   1.756   1.709  13.430 -1.0332  0.1669  0.1075
  258TMC3    C3 3959   1.755   1.577  13.398 -0.2713  0.3955 -0.6557
  258TMC3    C4 3960   1.752   1.647  13.658  1.0794 -0.3319  0.1057
  258TMC3    C5 3961   1.755   1.515  13.619  0.1916 -0.3281  0.2100
  258TMC3    C6 3962   1.756   1.468  13.488 -0.2529 -0.1291  0.1784
  258TMC3     C 3963   1.664   1.858  13.598  0.6374 -0.3179 -0.2297
  258TMC3     O 3964   1.628   1.870  13.714 -0.0402  0.2111  0.3183
  258TMC3     H 3965   1.748   1.773  13.343  0.9204  1.1743  0.6693
  258TMC3    H1 3966   1.742   1.671  13.763 -1.9552 -0.5719 -0.1222
  258TMC3    H2 3967   1.757   1.362  13.463 -1.9641 -0.5620  1.8999
  258TMC3    C7 3968   1.800   1.421  13.724  0.3237 -0.7734 -0.3334
  258TMC3    C8 3969   1.754   1.556  13.252 -0.2723 -0.1856 -0.4274
  258TMC3    O1 3970   1.782   1.308  13.689  0.4447  0.4893 -0.2927
  258TMC3    O2 3971   1.810   1.645  13.186  0.2594  0.0206 -0.0393
  259MPD2     C 3972   0.483   3.726  17.553 -0.1696  0.2858 -0.1218
  259MPD2    C1 3973   0.579   3.702  17.654 -0.4018 -0.3541  0.0569
  259MPD2    C2 3974   0.713   3.741  17.631  0.1417  0.1105 -0.4412
  259MPD2    C3 3975   0.761   3.774  17.506 -0.0602 -0.4129 -0.2513
  259MPD2    C4 3976   0.669   3.792  17.405 -0.1171 -0.3104 -0.9417
  259MPD2    C5 3977   0.535   3.781  17.431 -0.5815  0.1772 -0.5421
  259MPD2     H 3978   0.793   3.734  17.705 -0.0589  1.0625 -0.1349
  259MPD2    H1 3979   0.701   3.820  17.306 -1.7283  0.5752 -1.2024
  259MPD2    H2 3980   0.379   3.708  17.578 -0.4032  1.2442 -0.3964
  259MPD2    H3 3981   0.467   3.803  17.350  0.8300 -1.8475 -2.2895
  259MPD2     N 3982   0.894   3.817  17.490 -0.8234 -0.1179 -0.5382
  259MPD2    H5 3983   0.956   3.820  17.570  1.9909 -1.2173 -2.6548
  259MPD2    N1 3984   0.533   3.650   0.030  0.4115 -0.1610  0.0249
  259MPD2    H7 3985   0.440   3.611   0.025  0.6630 -0.8977  1.1878
  260TMC3    C1 3986   1.108   3.809  17.376  0.3144  0.1292 -0.4259
  260TMC3    C2 3987   1.158   3.735  17.275 -0.4513  0.1014  0.1400
  260TMC3    C3 3988   1.266   3.667  17.306 -1.2449 -0.2315 -0.4628
  260TMC3    C4 3989   1.173   3.826  17.493 -0.4416  0.1877 -0.3093
  260TMC3    C5 3990   1.288   3.758  17.520 -0.1843 -0.2891 -0.0727
  260TMC3    C6 3991   1.339   3.670  17.425 -0.3553 -0.1888  0.1711
  260TMC3     C 3992   0.963   3.830  17.367 -0.1953  0.0371 -0.0715
  260TMC3     O 3993   0.926   3.826  17.253 -0.2723  0.1800  0.7635
  260TMC3     H 3994   1.112   3.727  17.177 -0.3689  1.6383 -0.0112
  260TMC3    H1 3995   1.140   3.882  17.580 -1.8294 -0.4419 -0.4216
  260TMC3    H2 3996   1.425   3.605  17.435 -1.3059 -1.3966  0.4234
  260TMC3    C7 3997   1.260   3.677  17.631 -0.4643  0.5871  0.1343
  260TMC3    C8 3998   1.249   3.531  17.261  0.0120  0.1544  0.3618
  260TMC3    O1 3999   1.355   3.639  17.702 -0.4924  0.0253 -0.0599
  260TMC3    O2 4000   1.231   3.523  17.141  0.0466 -0.1584  0.3302
  261MPD2     C 4001   2.358   2.556  11.732 -0.0419  0.4207 -0.0726
  261MPD2    C1 4002   2.364   2.662  11.817  0.2549  1.0126 -0.0509
  261MPD2    C2 4003   2.402   2.786  11.770  0.2545 -0.6797 -0.3397
  261MPD2    C3 4004   2.448   2.792  11.639 -0.2681 -0.2805  0.2806
  261MPD2    C4 4005   2.425   2.686  11.557  0.0852 -0.2667  0.0380
  261MPD2    C5 4006   2.381   2.574  11.605  0.7995  0.0501  0.3745
  261MPD2     H 4007   2.411   2.869  11.839 -1.3495 -1.2466  0.5364
  261MPD2    H1 4008   2.435   2.681  11.449  0.7746  0.7667  0.0558
  261MPD2    H2 4009   2.324   2.458  11.764  1.3831 -0.3297 -0.8511
  261MPD2    H3 4010   2.355   2.489  11.542 -0.6980  0.1758  0.8210
  261MPD2     N 4011   2.484   2.914  11.583  0.5265 -0.2483  0.2839
  261MPD2    H5 4012   2.478   2.990  11.651 -0.2705 -0.3585  0.3426
  261MPD2    N1 4013   2.337   2.655  11.958  0.1384  0.1023  0.3532
  261MPD2    H7 4014   2.361   2.737  12.012  3.7687 -1.2911  0.8541
  262TMC3    C1 4015   2.565   3.075  11.438  0.1808  0.1462  0.6612
  262TMC3    C2 4016   2.484   3.168  11.500 -0.3772  0.4565  0.4343
  262TMC3    C3 4017   2.506   3.300  11.469 -1.0168 -0.4626 -0.4603
  262TMC3    C4 4018   2.679   3.110  11.380  0.1882 -0.1229  0.2724
  262TMC3    C5 4019   2.702   3.246  11.359  0.5573  0.1873 -0.3447
  262TMC3    C6 4020   2.612   3.343  11.396  0.3143 -0.8202  0.4440
  262TMC3     C 4021   2.534   2.933  11.451 -0.1110 -0.1326  0.3294
  262TMC3     O 4022   2.579   2.857  11.370  0.4247 -0.2619 -0.0327
  262TMC3     H 4023   2.394   3.148  11.557 -1.7340  0.2832 -1.7844
  262TMC3    H1 4024   2.746   3.039  11.333  1.2442  0.2089  1.2809
  262TMC3    H2 4025   2.638   3.447  11.384  2.0159 -1.5858 -2.4109
  262TMC3    C7 4026   2.843   3.290  11.358 -0.1471 -0.0794  0.0620
  262TMC3    C8 4027   2.431   3.405  11.516 -0.2453 -0.2334  0.0672
  262TMC3    O1 4028   2.929   3.212  11.318 -0.0777 -0.8717  0.4530
  262TMC3    O2 4029   2.480   3.515  11.532 -0.0534 -0.2130 -0.5250
  263MPD2     C 4030   3.622   2.079  11.736  0.2663  0.6630 -0.4339
  263MPD2    C1 4031   3.659   2.028  11.617  0.3155 -0.3110 -0.2604
  263MPD2    C2 4032   3.635   2.100  11.503 -0.5168 -0.0316 -0.0622
  263MPD2    C3 4033   3.580   2.225  11.510 -0.1665  0.3006 -0.6834
  263MPD2    C4 4034   3.525   2.266  11.628  0.1373 -0.4567 -0.5962
  263MPD2    C5 4035   3.553   2.198  11.743  0.2947  0.4964  0.2332
  263MPD2     H 4036   3.648   2.047  11.409 -1.2169  0.5186 -0.4668
  263MPD2    H1 4037   3.474   2.360  11.639  0.3095 -0.2722 -1.3650
  263MPD2    H2 4038   3.627   2.032  11.833  0.2771 -0.2031 -0.8557
  263MPD2    H3 4039   3.516   2.234  11.838  1.9740 -1.3370  1.5795
  263MPD2     N 4040   3.582   2.296  11.390  0.1740 -0.4308 -0.6006
  263MPD2    H5 4041   3.606   2.247  11.304  0.8307  0.3242 -0.8413
  263MPD2    N1 4042   3.699   1.894  11.616  0.5119  0.6353  0.9640
  263MPD2    H7 4043   3.719   1.853  11.706 -1.1434 -1.0706  0.5514
  264TMC3    C1 4044   3.526   2.482  11.261  0.3554 -0.4843 -0.0366
  264TMC3    C2 4045   3.434   2.579  11.260 -0.0307  0.4360 -0.3435
  264TMC3    C3 4046   3.366   2.596  11.135  0.1148 -0.7765  0.8798
  264TMC3    C4 4047   3.576   2.415  11.153 -0.3866  0.6323 -0.7908
  264TMC3    C5 4048   3.509   2.436  11.028 -0.2707  0.7457  0.1759
  264TMC3    C6 4049   3.407   2.534  11.023  0.1986 -0.4126 -0.1401
  264TMC3     C 4050   3.540   2.423  11.388  0.2622 -0.2322 -0.1386
  264TMC3     O 4051   3.538   2.507  11.480 -0.2135 -0.4692  0.1873
  264TMC3     H 4052   3.426   2.641  11.349 -2.0416  0.7336 -0.7242
  264TMC3    H1 4053   3.672   2.366  11.165 -1.0970 -0.8999 -1.3727
  264TMC3    H2 4054   3.331   2.531  10.946  1.6570  0.8893 -1.6403
  264TMC3    C7 4055   3.588   2.427  10.906 -0.1788 -0.0256 -0.2668
  264TMC3    C8 4056   3.312   2.730  11.107  0.9501 -0.1128 -0.4186
  264TMC3    O1 4057   3.660   2.330  10.879 -0.8020 -0.6452  0.0289
  264TMC3    O2 4058   3.327   2.770  10.992 -0.2793 -0.1450 -0.3563
  265MPD2     C 4059   0.239   2.281  15.235  0.2680 -0.1069 -0.0925
  265MPD2    C1 4060   0.360   2.330  15.272 -0.0536 -0.1777  0.1815
  265MPD2    C2 4061   0.468   2.251  15.230  0.5695  0.4636 -0.5730
  265MPD2    C3 4062   0.448   2.127  15.161  0.3736 -0.1719 -0.5143
  265MPD2    C4 4063   0.325   2.084  15.135  0.4041 -0.7656 -0.0475
  265MPD2    C5 4064   0.225   2.162  15.174 -0.2338  0.6162  0.2205
  265MPD2     H 4065   0.571   2.279  15.247  0.8652 -1.3618  0.6554
  265MPD2    H1 4066   0.320   2.000  15.067  0.6123 -0.9715  0.1894
  265MPD2    H2 4067   0.150   2.341  15.250 -0.4556 -1.5878  1.6264
  265MPD2    H3 4068   0.125   2.125  15.152 -0.8052  0.8075  2.5065
  265MPD2     N 4069   0.558   2.053  15.107  0.1146 -0.5800  0.3262
  265MPD2    H5 4070   0.532   1.965  15.062 -1.9145  1.1587 -1.9021
  265MPD2    N1 4071   0.387   2.445  15.348 -0.2195 -0.0747  0.1459
  265MPD2    H7 4072   0.474   2.448  15.399  0.1268  1.4087 -0.5384
  266TMC3    C1 4073   0.337   2.610  15.500  0.1377  0.1135 -0.2393
  266TMC3    C2 4074   0.355   2.532  15.611 -0.3069 -0.5926  0.3962
  266TMC3    C3 4075   0.402   2.601  15.721 -0.3199 -0.6854  0.3211
  266TMC3    C4 4076   0.363   2.750  15.494 -0.2339  0.1327  0.0571
  266TMC3    C5 4077   0.426   2.807  15.604  0.2545 -0.4062 -0.0916
  266TMC3    C6 4078   0.439   2.734  15.722  0.0402 -0.4196 -0.4693
  266TMC3     C 4079   0.288   2.539  15.382  0.0052  0.4241 -0.2348
  266TMC3     O 4080   0.186   2.575  15.319  0.1570 -0.2447 -0.4906
  266TMC3     H 4081   0.328   2.427  15.617  1.3555 -1.1198 -1.4757
  266TMC3    H1 4082   0.362   2.798  15.396 -0.3467  0.2050  0.0938
  266TMC3    H2 4083   0.480   2.785  15.809 -1.1511 -1.4587  0.6894
  266TMC3    C7 4084   0.483   2.941  15.596 -0.2059  0.3997  0.1956
  266TMC3    C8 4085   0.419   2.533  15.848  0.3797  0.2632  0.0048
  266TMC3    O1 4086   0.556   2.977  15.688  0.4353 -0.3097  0.6543
  266TMC3    O2 4087   0.452   2.415  15.843  0.1085  0.2357  0.1439
  267MPD2     C 4088   2.252   3.839   0.204 -0.4517  0.0078 -0.3092
  267MPD2    C1 4089   2.279   3.765   0.092  0.5902  0.4577  0.3535
  267MPD2    C2 4090   2.265   3.824  17.717  0.3590 -0.7916  0.1353
  267MPD2    C3 4091   2.217   3.956  17.701  0.1314  0.0892  0.2355
  267MPD2    C4 4092   2.187   4.030   0.074 -0.2512 -0.1973 -0.2082
  267MPD2    C5 4093   2.206   3.965   0.193 -0.0977  0.1232  0.3340
  267MPD2     H 4094   2.298   3.773  17.627  2.8094  0.6415  0.2141
  267MPD2    H1 4095   2.147   4.130   0.071  1.0118  0.2829 -1.0284
  267MPD2    H2 4096   2.264   3.787   0.299  0.9359 -0.2546 -0.6266
  267MPD2    H3 4097   2.174   4.019   0.282  1.2002 -1.1366  1.5662
  267MPD2     N 4098   2.197   4.001  17.570 -0.3783  0.0847  0.1851
  267MPD2    H5 4099   2.229   3.930  17.505 -1.8901  0.7676 -1.3056
  267MPD2    N1 4100   2.323   3.635   0.106 -0.3151 -0.3857 -0.2645
  267MPD2    H7 4101   2.353   3.608   0.199 -3.5437 -0.8482  0.6695
  268TMC3    C1 4102   2.410   3.428   0.043 -0.7218 -0.2884  0.6090
  268TMC3    C2 4103   2.515   3.437  17.699 -0.0843  0.3374  0.2959
  268TMC3    C3 4104   2.642   3.426   0.010 -0.8000  0.4645  0.0688
  268TMC3    C4 4105   2.434   3.406   0.172  0.3225  0.4537  0.5540
  268TMC3    C5 4106   2.554   3.384   0.220 -0.2917  0.5451 -0.4791
  268TMC3    C6 4107   2.661   3.398   0.145  0.5882  0.8044 -0.0263
  268TMC3     C 4108   2.322   3.538   0.007  0.2208 -0.0325 -0.0515
  268TMC3     O 4109   2.284   3.547  17.634 -0.8315 -0.6590 -0.4466
  268TMC3     H 4110   2.498   3.468  17.596  2.2951 -0.1255 -0.2577
  268TMC3    H1 4111   2.349   3.387   0.237  0.6331 -0.8869  0.5837
  268TMC3    H2 4112   2.763   3.404   0.183  0.5597  1.2354 -0.0167
  268TMC3    C7 4113   2.583   3.329   0.347  0.6083 -0.1272  0.3778
  268TMC3    C8 4114   2.748   3.491  17.687  0.0687 -0.1398  0.5641
  268TMC3    O1 4115   2.695   3.294   0.373  0.3192  0.7077  0.0918
  268TMC3    O2 4116   2.825   3.562   0.003  0.4787 -0.2693 -0.0878
  269MPD2     C 4117   3.545   2.775  15.501  0.9141 -0.2448  0.0823
  269MPD2    C1 4118   3.405   2.793  15.497 -0.0690 -0.6259 -0.0235
  269MPD2    C2 4119   3.350   2.918  15.486 -0.6747 -0.3513  0.0455
  269MPD2    C3 4120   3.430   3.031  15.479 -0.3048 -0.7241 -0.4926
  269MPD2    C4 4121   3.567   3.012  15.475  0.2939  0.1815  0.6708
  269MPD2    C5 4122   3.623   2.888  15.499 -0.0209  0.6575  0.5982
  269MPD2     H 4123   3.243   2.933  15.477 -0.6577  0.4603  1.2509
  269MPD2    H1 4124   3.637   3.095  15.474 -0.1515  0.5480 -0.4530
  269MPD2    H2 4125   3.585   2.675  15.513 -0.9930 -0.9064  0.9050
  269MPD2    H3 4126   3.732   2.884  15.498 -0.1171 -1.4495 -2.2865
  269MPD2     N 4127   3.370   3.157  15.471 -0.1100 -0.4736  0.0048
  269MPD2    H5 4128   3.269   3.169  15.477  0.0489  0.9408 -0.1135
  269MPD2    N1 4129   3.333   2.667  15.495 -0.2728 -0.6659 -0.2763
  269MPD2    H7 4130   3.389   2.582  15.494  0.4789 -0.1859  1.0857
  270TMC3    C1 4131   3.161   2.506  15.475 -0.2050 -0.2897 -1.7845
  270TMC3    C2 4132   3.028   2.482  15.487  0.6390 -0.1265  0.6275
  270TMC3    C3 4133   2.980   2.351  15.468 -0.1210 -0.8051 -0.8235
  270TMC3    C4 4134   3.248   2.408  15.434 -0.5958  0.1578 -0.3899
  270TMC3    C5 4135   3.195   2.289  15.399  0.2426 -0.0938  0.1328
  270TMC3    C6 4136   3.065   2.256  15.418  0.1062  0.3625 -0.6783
  270TMC3     C 4137   3.199   2.650  15.486 -0.1041  0.0480 -0.0451
  270TMC3     O 4138   3.113   2.734  15.485  0.5016  0.0460  0.6206
  270TMC3     H 4139   2.957   2.558  15.516  0.3454 -0.6065  1.1526
  270TMC3    H1 4140   3.354   2.416  15.410  0.4092 -2.4623  3.1244
  270TMC3    H2 4141   3.034   2.153  15.409 -0.6911  0.5477 -0.0285
  270TMC3    C7 4142   3.288   2.177  15.366 -0.5061  0.5678  0.2562
  270TMC3    C8 4143   2.836   2.335  15.428 -1.2539  0.5243  0.3991
  270TMC3    O1 4144   3.396   2.169  15.422 -0.4084  0.2095 -0.8202
  270TMC3    O2 4145   2.764   2.431  15.454  0.7184 -0.2442  0.1159
  271MPD2     C 4146   2.137   2.434  13.753 -0.5449  0.3398 -0.3910
  271MPD2    C1 4147   2.089   2.359  13.860  0.0007 -0.0592  0.5616
  271MPD2    C2 4148   1.956   2.384  13.890  0.1115 -0.6895 -0.3196
  271MPD2    C3 4149   1.876   2.476  13.827 -0.0096  0.2521 -0.6378
  271MPD2    C4 4150   1.928   2.548  13.719  0.2298 -1.1639 -0.1305
  271MPD2    C5 4151   2.060   2.525  13.690  0.4192 -0.2332 -0.8812
  271MPD2     H 4152   1.917   2.316  13.966  0.0324  2.0690  2.1316
  271MPD2    H1 4153   1.865   2.614  13.660  1.1915  0.0167  0.1736
  271MPD2    H2 4154   2.239   2.427  13.717 -1.1427 -1.6818 -1.7339
  271MPD2    H3 4155   2.096   2.571  13.598  3.1744  3.2439  1.9343
  271MPD2     N 4156   1.736   2.493  13.863 -0.4881 -0.7951 -0.3044
  271MPD2    H5 4157   1.678   2.557  13.809  0.4270  0.3978  0.1123
  271MPD2    N1 4158   2.163   2.268  13.935 -0.4885  0.3807  0.1208
  271MPD2    H7 4159   2.115   2.220  14.011  1.0592 -0.3834  0.6244
  272TMC3    C1 4160   2.353   2.169  14.032 -0.2540  0.7657  0.6320
  272TMC3    C2 4161   2.484   2.151  14.035  0.4838 -0.8074  0.1584
  272TMC3    C3 4162   2.541   2.096  14.143  0.0465 -0.1286 -0.2871
  272TMC3    C4 4163   2.275   2.131  14.137 -0.3165 -0.7404  0.0100
  272TMC3    C5 4164   2.337   2.096  14.253  0.2452  0.1234  0.3535
  272TMC3    C6 4165   2.467   2.064  14.253  1.2167 -0.4479 -0.3667
  272TMC3     C 4166   2.296   2.237  13.919 -0.3573  0.1083  0.2938
  272TMC3     O 4167   2.373   2.284  13.838 -0.4607  0.1972 -0.0424
  272TMC3     H 4168   2.545   2.174  13.948 -0.2717  1.1581  0.1351
  272TMC3    H1 4169   2.167   2.145  14.139  0.0078  1.7765 -0.5014
  272TMC3    H2 4170   2.514   2.033  14.346 -0.1183 -1.4536 -0.0262
  272TMC3    C7 4171   2.262   2.117  14.377 -0.2830 -0.5285 -0.3148
  272TMC3    C8 4172   2.688   2.113  14.150 -0.3441 -0.2437 -0.0182
  272TMC3    O1 4173   2.139   2.121  14.362 -0.1456 -0.6712 -0.1252
  272TMC3    O2 4174   2.735   2.212  14.097 -0.2290 -0.2946 -0.4873
  273MPD2     C 4175   3.505   0.684  11.156 -0.3201  1.4919  0.1114
  273MPD2    C1 4176   3.634   0.701  11.198 -0.0785  0.2549  0.2823
  273MPD2    C2 4177   3.729   0.732  11.107  0.2024  0.1059 -0.0346
  273MPD2    C3 4178   3.705   0.758  10.978  0.5341 -0.6900  0.2932
  273MPD2    C4 4179   3.574   0.747  10.937  0.8716 -0.2209  0.1889
  273MPD2    C5 4180   3.475   0.708  11.021 -0.0673 -0.8081 -0.0934
  273MPD2     H 4181   3.831   0.741  11.142  1.5940  0.1790 -4.1910
  273MPD2    H1 4182   3.541   0.762  10.835 -0.5906 -1.3543  0.4910
  273MPD2    H2 4183   3.431   0.644  11.223 -1.0138 -1.2232 -2.2698
  273MPD2    H3 4184   3.375   0.702  10.979 -0.1777  1.0560 -0.1009
  273MPD2     N 4185   3.803   0.803  10.881 -0.3219  0.0634  0.3026
  273MPD2    H5 4186   3.763   0.830  10.792 -0.2405 -0.5505  0.0787
  273MPD2    N1 4187   3.660   0.689  11.337  0.3646 -0.1386  0.3804
  273MPD2    H7 4188   3.583   0.669  11.400 -0.9201  0.2823 -1.0552
  274TMC3    C1 4189   4.000   0.913  10.808  0.5967 -0.5054  0.0521
  274TMC3    C2 4190   3.953   0.917  10.681  0.0206 -0.5797 -0.0810
  274TMC3    C3 4191   4.010   1.017  10.604  0.7424 -0.4813  0.2580
  274TMC3    C4 4192   4.114   0.981  10.855 -0.0550  0.2293  0.0488
  274TMC3    C5 4193   4.174   1.066  10.767 -0.5394 -0.4326  0.1319
  274TMC3    C6 4194   4.128   1.082  10.640 -0.2981 -0.6003  0.8858
  274TMC3     C 4195   3.937   0.824  10.906  0.0844 -0.2067  0.4757
  274TMC3     O 4196   4.005   0.785  10.997  0.2322 -0.5127  0.0444
  274TMC3     H 4197   3.866   0.866  10.640  0.5221 -1.5999  0.1363
  274TMC3    H1 4198   4.158   0.967  10.952  1.1235  1.3430 -0.3308
  274TMC3    H2 4199   4.157   1.171  10.586 -2.0358 -0.8442 -0.4609
  274TMC3    C7 4200   4.228   1.181  10.830 -0.1744 -0.0228  0.3291
  274TMC3    C8 4201   3.930   1.081  10.511  0.4396 -0.1619  0.4867
  274TMC3    O1 4202   4.312   1.237  10.763 -1.0365  0.1192 -0.0258
  274TMC3    O2 4203   3.810   1.065  10.525  0.6293 -0.2556  0.5473
  275MPD2     C 4204   3.637   3.220  14.786  0.7391 -0.4494 -0.3224
  275MPD2    C1 4205   3.554   3.326  14.758  0.1611 -0.1728 -0.2202
  275MPD2    C2 4206   3.430   3.296  14.707  0.2519 -0.1437 -0.3890
  275MPD2    C3 4207   3.393   3.163  14.679  0.3645 -0.9766 -0.5838
  275MPD2    C4 4208   3.476   3.061  14.718  0.1089 -0.0848 -0.0455
  275MPD2    C5 4209   3.596   3.092  14.775 -0.3133 -0.5291 -0.9566
  275MPD2     H 4210   3.357   3.376  14.697 -1.9462 -1.9999  1.0164
  275MPD2    H1 4211   3.447   2.957  14.709  0.9541 -0.2462 -0.8585
  275MPD2    H2 4212   3.735   3.244  14.827  0.8109 -0.5481 -0.4386
  275MPD2    H3 4213   3.667   3.017  14.809 -1.6774 -1.3409  0.1055
  275MPD2     N 4214   3.265   3.125  14.634 -0.3940  0.4711 -0.2507
  275MPD2    H5 4215   3.233   3.028  14.634 -0.9415  0.6465  1.2246
  275MPD2    N1 4216   3.590   3.466  14.773 -0.2330  0.1078 -0.0112
  275MPD2    H7 4217   3.513   3.531  14.774 -0.2888  0.0681 -1.4445
  276TMC3    C1 4218   3.726   3.649  14.862  0.6658  0.2131 -0.1204
  276TMC3    C2 4219   3.619   3.683  14.943  0.2191  0.0432 -0.3660
  276TMC3    C3 4220   3.644   3.765  15.051 -0.1374 -0.1659  0.4599
  276TMC3    C4 4221   3.846   3.707  14.878  0.2427  0.1866 -0.1307
  276TMC3    C5 4222   3.870   3.788  14.984 -0.1967  0.7359 -0.2577
  276TMC3    C6 4223   3.773   3.813  15.079 -0.1127 -0.4447 -0.1330
  276TMC3     C 4224   3.719   3.512  14.815 -0.1443 -0.2429 -0.2012
  276TMC3     O 4225   3.826   3.451  14.814  0.1429 -0.3013 -0.2437
  276TMC3     H 4226   3.523   3.632  14.948  0.9489 -1.2172  0.7199
  276TMC3    H1 4227   3.917   3.685  14.799  1.1845  0.5469  0.6129
  276TMC3    H2 4228   3.783   3.887  15.158 -0.7576  0.4356 -0.8811
  276TMC3    C7 4229   4.009   3.806  15.038 -0.2875 -0.3352 -0.0120
  276TMC3    C8 4230   3.565   3.710  15.165 -1.1170  0.1706 -0.4677
  276TMC3    O1 4231   4.020   3.798  15.161 -0.5191 -0.2855 -0.2400
  276TMC3    O2 4232   3.447   3.735  15.175  0.0505  0.0684 -0.3566
  277MPD2     C 4233   0.765   2.690  13.199  0.6039 -0.4993  0.2247
  277MPD2    C1 4234   0.672   2.717  13.305  0.1527  0.5443  0.3603
  277MPD2    C2 4235   0.648   2.626  13.403 -0.2786  0.2299  0.7944
  277MPD2    C3 4236   0.702   2.501  13.392 -0.7374  0.6439 -0.0346
  277MPD2    C4 4237   0.786   2.474  13.286 -0.3737 -0.1925 -0.6381
  277MPD2    C5 4238   0.828   2.569  13.192  0.5139  0.6192  0.0048
  277MPD2     H 4239   0.584   2.648  13.488 -1.6080 -1.6511  0.2943
  277MPD2    H1 4240   0.827   2.374  13.275 -3.5530 -1.5041 -0.7170
  277MPD2    H2 4241   0.784   2.761  13.120 -1.5610  0.0642  0.2016
  277MPD2    H3 4242   0.900   2.545  13.115 -0.4985 -0.0217 -0.7567
  277MPD2     N 4243   0.671   2.404  13.485  0.1910  0.3234 -0.1145
  277MPD2    H5 4244   0.601   2.431  13.553 -0.1140 -2.0877  0.5507
  277MPD2    N1 4245   0.613   2.846  13.306 -0.3055 -0.0450 -0.9851
  277MPD2    H7 4246   0.624   2.908  13.227  1.7241  0.0433 -0.6323
  278TMC3    C1 4247   0.670   2.201  13.608 -0.1577  0.9684 -0.0548
  278TMC3    C2 4248   0.698   2.066  13.611 -0.4165 -0.0063 -0.1770
  278TMC3    C3 4249   0.696   2.002  13.729  0.0282 -0.6530  0.0775
  278TMC3    C4 4250   0.640   2.270  13.717 -0.0805 -0.9635 -0.5831
  278TMC3    C5 4251   0.635   2.198  13.834  0.3943 -0.0161  0.1903
  278TMC3    C6 4252   0.669   2.066  13.853  0.6502  0.0938  0.6814
  278TMC3     C 4253   0.719   2.275  13.488  0.0131  0.7208  0.0515
  278TMC3     O 4254   0.790   2.210  13.412 -0.3662 -0.0343  0.0207
  278TMC3     H 4255   0.723   2.009  13.522  1.7271 -1.5764  1.4409
  278TMC3    H1 4256   0.632   2.378  13.721  3.4642 -0.7636  0.9079
  278TMC3    H2 4257   0.661   2.014  13.947 -1.9753  0.4872  0.6714
  278TMC3    C7 4258   0.568   2.267  13.941 -0.4557  0.3704 -0.4043
  278TMC3    C8 4259   0.663   1.861  13.724 -0.4508  0.0025 -0.4355
  278TMC3    O1 4260   0.626   2.265  14.051  0.1358  0.0283 -0.3375
  278TMC3    O2 4261   0.688   1.796  13.827  0.0405 -0.0171 -0.4378
  279MPD2     C 4262   4.729   1.901   0.684 -0.0319 -0.7983 -0.2938
  279MPD2    C1 4263   4.622   1.973   0.732  0.2805  0.2308 -0.2410
  279MPD2    C2 4264   4.591   2.094   0.677  0.0950  0.6747 -0.6115
  279MPD2    C3 4265   4.656   2.142   0.569 -0.1055 -0.9011 -0.5862
  279MPD2    C4 4266   0.016   2.065   0.512  0.1301 -0.0614 -0.2042
  279MPD2    C5 4267   0.051   1.941   0.567 -0.3247 -0.4962 -0.4197
  279MPD2     H 4268   4.510   2.152   0.719 -0.0038  0.0182  0.1192
  279MPD2    H1 4269   0.068   2.096   0.422  0.3475  2.0303  0.6291
  279MPD2    H2 4270   0.023   1.809   0.733 -1.7655 -0.4160  1.5413
  279MPD2    H3 4271   0.140   1.888   0.532  0.8402  0.6859  0.7885
  279MPD2     N 4272   4.632   2.265   0.501  0.3687 -0.6582 -0.2701
  279MPD2    H5 4273   4.694   2.284   0.423 -0.2118  2.5897  0.0434
  279MPD2    N1 4274   4.535   1.922   0.835  0.0193  0.6663 -0.4135
  279MPD2    H7 4275   4.459   1.984   0.860 -0.9932 -0.0709 -1.6649
  280TMC3    C1 4276   4.409   1.759   0.941 -0.5223 -0.0794 -0.1028
  280TMC3    C2 4277   4.350   1.647   0.883  0.1204  0.7189  0.1055
  280TMC3    C3 4278   4.217   1.646   0.856 -0.4936  0.3370  0.2806
  280TMC3    C4 4279   4.333   1.866   0.981  0.8186  0.3664  0.3378
  280TMC3    C5 4280   4.205   1.863   0.935  0.3650 -0.2859 -0.4284
  280TMC3    C6 4281   4.144   1.756   0.872  0.2222 -0.0215  0.7235
  280TMC3     C 4282   4.531   1.784   0.874  0.3239  0.3758 -0.3684
  280TMC3     O 4283   4.593   1.693   0.823  0.0990 -0.2381  0.0143
  280TMC3     H 4284   4.419   1.566   0.861 -0.2946 -0.3217  2.5595
  280TMC3    H1 4285   4.376   1.948   1.037  0.2152 -1.0659  2.9060
  280TMC3    H2 4286   4.043   1.758   0.832  0.0185 -1.1414  1.1820
  280TMC3    C7 4287   4.123   1.988   0.939 -0.3340 -0.0516  0.0958
  280TMC3    C8 4288   4.181   1.547   0.763  0.5749  0.7089  0.6389
  280TMC3    O1 4289   4.119   2.051   1.044 -0.8522  0.0089  1.0919
  280TMC3    O2 4290   4.094   1.581   0.683  0.2938  0.1033  0.1336
  281TMC3    C1 4291   3.549   2.926  13.118  1.0603 -0.5168  0.1243
  281TMC3    C2 4292   3.617   3.004  13.027  0.4450  0.2548 -0.2188
  281TMC3    C3 4293   3.671   2.938  12.920 -0.6594 -0.0543 -0.6603
  281TMC3    C4 4294   3.542   2.785  13.108  0.5610 -0.0534 -0.0431
  281TMC3    C5 4295   3.596   2.728  12.992  0.7591  0.0828 -0.5411
  281TMC3    C6 4296   3.670   2.801  12.905 -0.1177 -0.7532  0.0634
  281TMC3     C 4297   3.472   2.982  13.225 -0.3219 -0.2264 -0.1027
  281TMC3     O 4298   3.407   2.911  13.293  0.3594  0.0200  0.3892
  281TMC3     H 4299   3.624   3.112  13.035 -1.0519  0.3312  0.0933
  281TMC3    H1 4300   3.482   2.729  13.178 -0.5547 -0.4778 -1.3400
  281TMC3    H2 4301   3.712   2.752  12.818 -0.4360 -1.7559  0.4760
  281TMC3    C7 4302   3.543   2.594  12.955  1.0388  0.0148  0.1390
  281TMC3    C8 4303   3.720   3.007  12.803 -0.6360  0.3713 -0.3089
  281TMC3    O1 4304   3.589   2.543  12.850  0.0589 -0.2071  0.1555
  281TMC3    O2 4305   3.832   2.967  12.772 -0.6394 -0.2232  0.0702
  282MPD2     C 4306   0.476   4.018  14.830  0.3085  0.2112 -0.5494
  282MPD2    C1 4307   0.383   4.074  14.907  0.5067 -0.4184  0.0560
  282MPD2    C2 4308   0.252   4.071  14.866 -0.3967  0.4523  0.8142
  282MPD2    C3 4309   0.208   4.011  14.755 -0.3365  0.6832  0.5671
  282MPD2    C4 4310   0.307   3.949  14.678 -0.4635  0.2220  0.1975
  282MPD2    C5 4311   0.435   3.955  14.715 -0.7972  0.2708  0.3306
  282MPD2     H 4312   0.171   4.106  14.928  0.6156  2.3557  1.0555
  282MPD2    H1 4313   0.291   3.891  14.588 -0.1317 -1.5115  1.2551
  282MPD2    H2 4314   0.583   4.023  14.849  0.3132  0.2215 -0.5773
  282MPD2    H3 4315   0.509   3.907  14.652  0.1014  2.5387 -0.3540
  282MPD2     N 4316   0.066   4.016  14.728 -0.2193  0.0406  0.4013
  282MPD2    H5 4317   0.012   4.076  14.790 -3.9052 -1.0321 -1.7706
  282MPD2    N1 4318   0.413   4.139  15.028  0.3310  0.1773  0.3100
  282MPD2    H7 4319   0.335   4.184  15.073 -0.8327 -2.8266  1.2970
  283TMC3    C1 4320   0.516   4.229  15.205 -1.0038  0.7798  0.2730
  283TMC3    C2 4321   0.599   4.332  15.242  0.1949 -0.0754  0.1429
  283TMC3    C3 4322   0.585   4.387  15.368 -0.1147 -0.0080  0.1765
  283TMC3    C4 4323   0.446   4.173  15.308 -0.3125 -0.5371 -0.1036
  283TMC3    C5 4324   0.445   4.225  15.436 -0.3290 -0.1084 -0.0560
  283TMC3    C6 4325   0.519   4.332  15.471 -0.0515  0.5812 -0.4395
  283TMC3     C 4326   0.539   4.168  15.076  0.0258 -0.0969 -0.1211
  283TMC3     O 4327   0.655   4.145  15.036 -0.3422 -0.0729  0.0349
  283TMC3     H 4328   0.672   4.375  15.174 -2.1421  0.0998 -2.2533
  283TMC3    H1 4329   0.397   4.082  15.275 -1.1557 -0.2422  0.3337
  283TMC3    H2 4330   0.513   4.368  15.573  1.4166 -0.4555  0.0183
  283TMC3    C7 4331   0.392   4.146  15.541 -0.7407  0.0971  0.2014
  283TMC3    C8 4332   0.626   4.531  15.384  0.2527  0.2513  0.6318
  283TMC3    O1 4333   0.358   4.202  15.646 -0.0405  0.4673 -0.1903
  283TMC3    O2 4334   0.667   4.553  15.496  0.0342  0.8388 -0.1043
  284MPD2     C 4335   3.379   3.551  11.800  0.0465  0.4159 -0.2566
  284MPD2    C1 4336   3.472   3.571  11.697 -0.6077  0.1391  0.2797
  284MPD2    C2 4337   3.511   3.466  11.617 -0.3137  0.2857  0.1605
  284MPD2    C3 4338   3.453   3.339  11.640  0.2405 -0.2491  0.2227
  284MPD2    C4 4339   3.358   3.321  11.739  0.0518 -0.2288  0.2183
  284MPD2    C5 4340   3.325   3.427  11.813  0.1141  0.1638  0.6162
  284MPD2     H 4341   3.581   3.484  11.537 -2.0512  0.1661 -1.3920
  284MPD2    H1 4342   3.312   3.224  11.757 -2.1106  0.9405  0.9440
  284MPD2    H2 4343   3.349   3.638  11.857 -0.4591 -1.0476  1.6833
  284MPD2    H3 4344   3.253   3.416  11.893  0.7357  2.0775  1.4638
  284MPD2     N 4345   3.512   3.223  11.583 -0.2884 -0.3652  0.3557
  284MPD2    H5 4346   3.482   3.131  11.615 -1.6550 -0.5429 -1.4236
  284MPD2    N1 4347   3.535   3.703  11.681  0.8556 -0.7859 -0.1566
  284MPD2    H7 4348   3.614   3.698  11.617  1.6253  1.1412  0.6679
  285TMC3    C1 4349   3.646   3.903  11.751 -0.2539  0.1654 -0.3069
  285TMC3    C2 4350   3.762   3.842  11.699 -0.4785 -0.2623  0.1847
  285TMC3    C3 4351   3.847   3.921  11.632  1.2455 -0.7644 -0.4609
  285TMC3    C4 4352   3.624   4.037  11.755  0.3228  0.3465 -0.3680
  285TMC3    C5 4353   3.719   4.111  11.684  0.4436 -0.2124 -0.5435
  285TMC3    C6 4354   3.828   4.058  11.625 -0.0670 -0.2883 -0.2008
  285TMC3     C 4355   3.528   3.814  11.765 -0.8051  0.6354 -0.2359
  285TMC3     O 4356   3.432   3.850  11.827  0.1585 -0.0728  0.6297
  285TMC3     H 4357   3.777   3.735  11.707  1.2633  0.0296  0.8841
  285TMC3    H1 4358   3.541   4.083  11.808 -0.3668 -0.9785 -0.3021
  285TMC3    H2 4359   3.893   4.120  11.565  0.9833 -1.4727 -0.2848
  285TMC3    C7 4360   3.705   4.256  11.651  0.0047 -0.3172  0.2660
  285TMC3    C8 4361   3.881   3.857  11.502  0.3483 -0.8301  0.2398
  285TMC3    O1 4362   3.799   4.317  11.601 -0.2641 -0.0191  0.2328
  285TMC3    O2 4363   3.852   3.740  11.480 -0.2670 -0.6561  0.6117
  286MPD2     C 4364   3.517   1.777   1.570 -0.9169 -0.3045  1.0964
  286MPD2    C1 4365   3.516   1.732   1.445  0.7085 -0.4001 -0.0997
  286MPD2    C2 4366   3.588   1.612   1.412 -1.0987  0.1561  0.0477
  286MPD2    C3 4367   3.661   1.543   1.513  0.0432  0.4089 -0.6544
  286MPD2    C4 4368   3.671   1.598   1.637 -0.6161 -0.5878 -0.0631
  286MPD2    C5 4369   3.607   1.721   1.666  0.1648  0.6885  0.2017
  286MPD2     H 4370   3.593   1.580   1.308 -3.1133 -1.4476  0.4611
  286MPD2    H1 4371   3.731   1.562   1.719  1.6966  1.7551 -0.6936
  286MPD2    H2 4372   3.463   1.866   1.602 -2.7101 -0.8396 -0.4030
  286MPD2    H3 4373   3.611   1.759   1.767 -0.5252 -0.5842  0.7108
  286MPD2     N 4374   3.742   1.428   1.501  0.2099 -0.5329 -0.0039
  286MPD2    H5 4375   3.795   1.404   1.584 -2.8931 -0.1376  2.0739
  286MPD2    N1 4376   3.426   1.794   1.353 -0.1702 -0.6990  0.4956
  286MPD2    H7 4377   3.378   1.876   1.389  0.9603  1.4047 -2.7489
  287TMC3    C1 4378   3.867   1.264   1.373  0.1643 -0.2696 -1.1938
  287TMC3    C2 4379   3.879   1.194   1.257  0.1010 -0.4139 -0.3531
  287TMC3    C3 4380   3.992   1.130   1.222 -0.1500 -0.3063  0.1844
  287TMC3    C4 4381   3.979   1.293   1.448  0.6123  0.5687 -0.5080
  287TMC3    C5 4382   4.098   1.235   1.406 -0.4993 -0.8767 -0.2903
  287TMC3    C6 4383   4.106   1.146   1.298 -0.0012  0.2148 -0.1838
  287TMC3     C 4384   3.752   1.355   1.380  0.4641  0.3777 -0.6691
  287TMC3     O 4385   3.670   1.350   1.290 -0.4149 -0.2788 -0.2250
  287TMC3     H 4386   3.791   1.180   1.196 -1.0925 -1.0167  1.5258
  287TMC3    H1 4387   3.982   1.363   1.531  4.5150  1.2359 -1.2508
  287TMC3    H2 4388   4.195   1.086   1.288 -0.0930  0.0763 -0.1605
  287TMC3    C7 4389   4.223   1.270   1.479  0.7612  0.4185  0.0148
  287TMC3    C8 4390   3.983   1.068   1.094  0.1578 -0.3832 -0.3429
  287TMC3    O1 4391   4.216   1.386   1.524  0.5609 -0.0734 -0.0659
  287TMC3    O2 4392   3.873   1.038   1.049 -0.2488 -0.5545 -0.3727
  288TMC3    C1 4393   1.100   1.941  14.192 -1.0495  0.2175 -0.0867
  288TMC3    C2 4394   0.997   1.953  14.282  0.4314  0.5208  0.7896
  288TMC3    C3 4395   0.913   2.059  14.271 -0.7239  0.7100  0.3597
  288TMC3    C4 4396   1.115   2.026  14.089 -0.8174 -0.0012  0.0074
  288TMC3    C5 4397   1.024   2.130  14.079 -0.0475 -0.4114  0.6330
  288TMC3    C6 4398   0.929   2.151  14.172 -0.5214 -0.1605  0.3229
  288TMC3     C 4399   1.217   1.866  14.240 -0.5695 -0.6777 -0.0368
  288TMC3     O 4400   1.224   1.835  14.358 -0.6230 -1.1385 -0.1799
  288TMC3     H 4401   0.995   1.869  14.350  0.3708  0.5391  0.8101
  288TMC3    H1 4402   1.178   1.992  14.007  0.3871 -0.3883  1.0914
  288TMC3    H2 4403   0.872   2.242  14.186  1.2762  1.2021 -1.2243
  288TMC3    C7 4404   1.045   2.225  13.972  0.0336 -0.0898  0.1880
  288TMC3    C8 4405   0.825   2.094  14.383  0.2725  0.2213  0.1850
  288TMC3    O1 4406   1.155   2.222  13.923  0.6009  0.9019 -1.0516
  288TMC3    O2 4407   0.751   2.189  14.360  0.2968 -0.1386 -0.0783
  289MPD2     C 4408   0.705   0.850  13.939 -0.3262 -0.2212  0.4891
  289MPD2    C1 4409   0.681   0.975  13.883 -0.3675 -0.0357  0.2804
  289MPD2    C2 4410   0.562   0.993  13.816 -0.3000  0.0934 -0.6798
  289MPD2    C3 4411   0.465   0.888  13.803  0.1743 -0.3574  0.7886
  289MPD2    C4 4412   0.484   0.767  13.864 -0.1066  0.0797  0.0031
  289MPD2    C5 4413   0.610   0.749  13.928 -0.5136  0.1655 -0.5885
  289MPD2     H 4414   0.547   1.089  13.767 -1.6789 -1.0199 -2.4934
  289MPD2    H1 4415   0.411   0.688  13.853  0.7123 -0.5775 -0.6483
  289MPD2    H2 4416   0.801   0.835  13.986  0.4366 -1.5130 -1.4435
  289MPD2    H3 4417   0.625   0.649  13.967 -0.8940  0.7379  1.0369
  289MPD2     N 4418   0.337   0.901  13.748  0.3417  0.3909 -0.2286
  289MPD2    H5 4419   0.276   0.822  13.769  0.1815  0.7057  0.4721
  289MPD2    N1 4420   0.763   1.082  13.911 -0.2536 -0.1525  0.0971
  289MPD2    H7 4421   0.825   1.065  13.990  1.4173  0.7335 -0.9956
  290TMC3    C1 4422   0.162   1.013  13.631 -0.8215 -0.1406  0.2894
  290TMC3    C2 4423   0.121   1.134  13.582 -0.1169 -0.3164 -0.4343
  290TMC3    C3 4424   4.725   1.144  13.552  0.4428  0.0912  0.7594
  290TMC3    C4 4425   0.070   0.911  13.662  0.3317 -0.1127  0.6312
  290TMC3    C5 4426   4.681   0.925  13.619  0.1385  0.4515 -0.3171
  290TMC3    C6 4427   4.640   1.044  13.560 -0.5285 -0.1024 -0.3417
  290TMC3     C 4428   0.300   1.006  13.666  0.3076 -0.3626 -0.3907
  290TMC3     O 4429   0.375   1.093  13.621 -0.6673 -0.2259 -0.1056
  290TMC3     H 4430   0.195   1.206  13.551 -0.0080  0.0377  0.6576
  290TMC3    H1 4431   0.099   0.808  13.681 -0.9541 -0.6106 -0.1324
  290TMC3    H2 4432   4.534   1.060  13.543 -0.8734  0.7894  2.7354
  290TMC3    C7 4433   4.624   0.810  13.552  0.6553 -0.1113 -0.5744
  290TMC3    C8 4434   4.673   1.275  13.582 -0.8372 -0.0877 -0.5745
  290TMC3    O1 4435   4.589   0.824  13.437 -0.2991  0.0997  0.0173
  290TMC3    O2 4436   4.552   1.286  13.574 -0.1484 -0.4688 -0.0466
  291MPD2     C 4437   4.497   0.704   0.497 -0.7124 -0.2058 -0.3965
  291MPD2    C1 4438   4.563   0.622   0.413  0.0534 -1.2560  1.1966
  291MPD2    C2 4439   4.665   0.682   0.334 -0.0432  0.5281  0.3973
  291MPD2    C3 4440   4.708   0.808   0.349  0.0155 -0.1069  0.0752
  291MPD2    C4 4441   4.639   0.887   0.437 -0.0508  0.9880  0.2501
  291MPD2    C5 4442   4.537   0.833   0.510  0.5847 -0.6931  0.5406
  291MPD2     H 4443   4.715   0.630   0.253  3.0144  0.7880  2.1256
  291MPD2    H1 4444   4.654   0.994   0.448  0.9685  0.8747  0.0089
  291MPD2    H2 4445   4.412   0.668   0.553 -0.5902 -0.0090 -0.0862
  291MPD2    H3 4446   4.489   0.907   0.574  0.1170 -1.8907  1.5763
  291MPD2     N 4447   0.083   0.866   0.285 -0.3825  0.2692 -0.0073
  291MPD2    H5 4448   0.099   0.966   0.294 -3.7341  0.6618  1.8133
  291MPD2    N1 4449   4.521   0.484   0.408 -0.2040 -0.1258 -0.6915
  291MPD2    H7 4450   4.461   0.446   0.481 -2.1425  2.1070 -1.1313
  292TMC3    C1 4451   4.536   0.258   0.363  0.3578  0.0179  0.1963
  292TMC3    C2 4452   4.514   0.223   0.498  0.6999  0.0550  0.2950
  292TMC3    C3 4453   4.428   0.117   0.530  0.3153 -1.1156 -0.4710
  292TMC3    C4 4454   4.483   0.179   0.262 -0.4659 -0.5419  0.5298
  292TMC3    C5 4455   4.413   0.064   0.301  0.0320 -0.2656  0.1467
  292TMC3    C6 4456   4.386   0.036   0.430 -0.0142 -0.3314 -0.1166
  292TMC3     C 4457   4.566   0.393   0.320  1.3968  0.1074 -0.0295
  292TMC3     O 4458   4.609   0.411   0.206  0.0012  0.3186 -0.0344
  292TMC3     H 4459   4.554   0.287   0.575  0.9033  0.6533 -0.3031
  292TMC3    H1 4460   4.490   0.201   0.156  1.0182 -0.9337  0.5475
  292TMC3    H2 4461   4.325   4.684   0.441  1.1781 -1.2311 -0.7259
  292TMC3    C7 4462   4.374   4.706   0.200  0.4019  0.0224 -0.6281
  292TMC3    C8 4463   4.425   0.058   0.659 -0.0517  0.1641  0.1907
  292TMC3    O1 4464   4.451   4.691   0.108 -0.2755  0.5462 -0.3690
  292TMC3    O2 4465   4.515   0.094   0.734  0.1089  0.0241 -0.6142
  293MPD2     C 4466   1.720   2.407  12.612  0.0157 -0.0451  0.6507
  293MPD2    C1 4467   1.648   2.358  12.716  0.2747 -0.7236 -0.3394
  293MPD2    C2 4468   1.715   2.298  12.827  0.3266 -0.0788 -0.0160
  293MPD2    C3 4469   1.850   2.295  12.825  0.5928  0.1238 -0.7597
  293MPD2    C4 4470   1.921   2.335  12.711 -0.3321 -0.5117  0.2145
  293MPD2    C5 4471   1.861   2.391  12.607 -0.5659 -0.0905 -0.1825
  293MPD2     H 4472   1.655   2.255  12.907 -0.8381  1.4296 -0.0792
  293MPD2    H1 4473   2.029   2.338  12.717 -0.4725  2.7141  1.4136
  293MPD2    H2 4474   1.674   2.459  12.529  1.0002 -0.0730  0.0802
  293MPD2    H3 4475   1.914   2.418  12.516 -0.6923  2.7724  0.6018
  293MPD2     N 4476   1.910   2.250  12.947 -0.5416  0.5788  0.2193
  293MPD2    H5 4477   1.843   2.244  13.023 -2.4708  1.0533 -1.4512
  293MPD2    N1 4478   1.507   2.347  12.696  0.5215  0.4499 -0.0388
  293MPD2    H7 4479   1.478   2.393  12.611 -1.2489 -0.4718  0.0798
  294TMC3    C1 4480   1.274   2.304  12.723 -0.6770 -0.8078  0.0205
  294TMC3    C2 4481   1.187   2.199  12.747  0.7034 -0.5281 -0.9223
  294TMC3    C3 4482   1.058   2.215  12.707 -0.3061 -0.5994  0.0633
  294TMC3    C4 4483   1.233   2.426  12.673  0.8172 -0.2046 -0.4585
  294TMC3    C5 4484   1.107   2.438  12.628  0.4489 -0.0549  0.4642
  294TMC3    C6 4485   1.018   2.331  12.647 -0.2668 -0.1909  0.8861
  294TMC3     C 4486   1.408   2.295  12.780 -0.5502  0.1019 -0.4236
  294TMC3     O 4487   1.428   2.236  12.881  0.3346 -0.1386  0.4009
  294TMC3     H 4488   1.226   2.102  12.774 -1.9714 -1.2822  0.2553
  294TMC3    H1 4489   1.299   2.512  12.678  0.0436  0.3166  0.9191
  294TMC3    H2 4490   0.918   2.330  12.605 -0.0445 -0.3349  0.3624
  294TMC3    C7 4491   1.053   2.544  12.544  0.4176 -0.3788 -0.0887
  294TMC3    C8 4492   0.974   2.101  12.665 -0.8722 -0.0308 -0.6484
  294TMC3    O1 4493   0.935   2.564  12.561  0.1440 -0.7722  0.5224
  294TMC3    O2 4494   0.855   2.123  12.647  0.3715  0.7122  0.3466
  295MPD2     C 4495   2.304   1.030   1.107 -1.0589 -0.4494 -0.4445
  295MPD2    C1 4496   2.178   0.964   1.075 -0.0592  0.1257  0.0711
  295MPD2    C2 4497   2.086   0.936   1.171  0.0116 -0.2329 -0.1664
  295MPD2    C3 4498   2.107   0.972   1.300 -0.0678 -0.4030 -0.3417
  295MPD2    C4 4499   2.231   1.019   1.331  0.0667  0.1478 -0.3662
  295MPD2    C5 4500   2.325   1.064   1.236  0.1404  0.1695 -0.6418
  295MPD2     H 4501   1.991   0.889   1.149  0.1768  0.3122 -2.0009
  295MPD2    H1 4502   2.241   1.044   1.436  0.0427  0.5511 -0.4607
  295MPD2    H2 4503   2.376   1.063   1.033 -0.7522  0.9297  0.4546
  295MPD2    H3 4504   2.416   1.119   1.256 -0.3972  0.1192  2.0623
  295MPD2     N 4505   2.005   0.951   1.399  0.0449  0.3622 -0.6019
  295MPD2    H5 4506   1.913   0.968   1.359 -0.5462 -1.3362  0.0607
  295MPD2    N1 4507   2.136   0.939   0.939  0.3778  0.0848  0.4939
  295MPD2    H7 4508   2.065   0.869   0.924 -0.4967  1.0134  0.2920
  296TMC3    C1 4509   1.895   0.920   1.602 -0.3904 -0.0251 -0.3114
  296TMC3    C2 4510   1.779   0.966   1.537  0.7899  0.2504 -0.1192
  296TMC3    C3 4511   1.660   0.910   1.582 -1.0690 -0.0102  1.1442
  296TMC3    C4 4512   1.890   0.815   1.685  1.1810 -0.1547 -0.1940
  296TMC3    C5 4513   1.770   0.755   1.714 -0.3403  0.3489  0.7664
  296TMC3    C6 4514   1.650   0.800   1.664  0.0339 -0.1484  0.3115
  296TMC3     C 4515   2.020   0.939   1.529 -0.1366  0.6476  0.9797
  296TMC3     O 4516   2.122   0.940   1.599  0.5691 -0.0353  0.6647
  296TMC3     H 4517   1.781   1.057   1.478  1.7607 -0.0482 -0.5457
  296TMC3    H1 4518   1.979   0.779   1.734  2.0783  1.8235 -0.3664
  296TMC3    H2 4519   1.555   0.760   1.697 -0.5418  1.5643  0.7418
  296TMC3    C7 4520   1.779   0.607   1.740  0.2081  0.3081 -0.1966
  296TMC3    C8 4521   1.536   0.951   1.523 -0.3842  0.3423  0.3263
  296TMC3    O1 4522   1.894   0.564   1.741 -0.6224 -0.3849 -0.5260
  296TMC3    O2 4523   1.431   0.898   1.562  0.3223 -0.2907  0.0394
  297MPD2     C 4524   4.302   3.182  16.937  0.4561  0.2437 -0.5466
  297MPD2    C1 4525   4.324   3.136  16.809 -0.4031  0.2623  0.0196
  297MPD2    C2 4526   4.419   3.189  16.721 -0.5322 -0.0860 -0.3181
  297MPD2    C3 4527   4.503   3.292  16.762  0.3224  0.0942  0.9054
  297MPD2    C4 4528   4.489   3.330  16.898  0.2600 -0.2240 -0.0059
  297MPD2    C5 4529   4.392   3.278  16.978 -0.1129 -0.6279  0.1065
  297MPD2     H 4530   4.438   3.142  16.625 -3.0520 -0.2437 -0.7288
  297MPD2    H1 4531   4.546   3.411  16.943  1.1853 -1.4705  1.0635
  297MPD2    H2 4532   4.227   3.155  17.011 -0.0174 -0.7560 -1.4091
  297MPD2    H3 4533   4.397   3.328  17.074  1.5670 -0.6473  0.0175
  297MPD2     N 4534   4.597   3.352  16.675 -0.8201  0.0431  0.2378
  297MPD2    H5 4535   4.600   3.312  16.582 -1.8624 -0.1278  0.2744
  297MPD2    N1 4536   4.242   3.026  16.755  0.3482 -0.0074  0.3364
  297MPD2    H7 4537   4.251   3.002  16.656 -0.7253  1.6633 -0.1606
  298TMC3    C1 4538   4.075   2.855  16.749  0.1181 -0.7376  0.2833
  298TMC3    C2 4539   4.087   2.858  16.609 -0.5509 -0.0287  0.0157
  298TMC3    C3 4540   4.054   2.744  16.543  0.1906  1.3286  0.4315
  298TMC3    C4 4541   4.023   2.744  16.814  0.4896  0.3030 -0.4508
  298TMC3    C5 4542   4.003   2.633  16.739  0.8859 -0.0753 -0.5162
  298TMC3    C6 4543   4.017   2.624  16.603 -0.4835  0.2262 -0.1512
  298TMC3     C 4544   4.146   2.954  16.828 -0.6020 -0.2090  0.2552
  298TMC3     O 4545   4.129   2.947  16.951  0.4382  0.1976  0.0033
  298TMC3     H 4546   4.107   2.950  16.555  1.2438 -1.5891 -1.9733
  298TMC3    H1 4547   3.992   2.743  16.917  2.1807  2.7835  0.0906
  298TMC3    H2 4548   3.985   2.541  16.541 -0.3118 -1.2994  1.8252
  298TMC3    C7 4549   3.898   2.543  16.792  0.1170  0.7557  0.4701
  298TMC3    C8 4550   4.013   2.753  16.402  0.0747 -0.4105 -0.1878
  298TMC3    O1 4551   3.837   2.584  16.889  0.1891 -0.1928  0.0684
  298TMC3    O2 4552   3.943   2.665  16.357 -0.4055 -0.2099  0.1655
  299MPD2     C 4553   4.572   3.044  10.950  0.0429  0.1104 -0.4617
  299MPD2    C1 4554   4.664   3.042  10.851  0.0210  0.8780  0.6505
  299MPD2    C2 4555   4.623   3.006  10.725  0.2143  1.0551  0.9811
  299MPD2    C3 4556   4.492   2.975  10.693 -0.0878  0.1738 -0.3655
  299MPD2    C4 4557   4.397   2.979  10.796  0.0890 -0.1104  1.3425
  299MPD2    C5 4558   4.436   3.008  10.923  0.3344  0.0301  0.0153
  299MPD2     H 4559   4.689   3.008  10.639  0.9139  0.6020  1.5006
  299MPD2    H1 4560   4.297   2.941  10.781  0.2594 -0.2539  0.5726
  299MPD2    H2 4561   4.601   3.079  11.049  0.7415  0.9276 -0.9650
  299MPD2    H3 4562   4.364   3.005  11.003 -1.4121 -0.9300 -1.6018
  299MPD2     N 4563   4.449   2.959  10.566  0.0007  0.7866 -0.3518
  299MPD2    H5 4564   4.349   2.956  10.546 -0.2148  0.2343  0.8514
  299MPD2    N1 4565   0.062   3.069  10.887  0.0134  0.0335  0.1163
  299MPD2    H7 4566   0.087   3.073  10.985  0.0007  1.2982  0.0744
  300TMC3    C1 4567   4.442   2.937  10.333  0.1226 -0.1016 -0.0507
  300TMC3    C2 4568   4.516   2.954  10.218  0.3196 -0.4468 -0.0194
  300TMC3    C3 4569   4.449   2.942  10.097  0.1566  0.4178  0.4709
  300TMC3    C4 4570   4.308   2.931  10.337  0.4609 -0.3688 -0.0775
  300TMC3    C5 4571   4.248   2.912  10.218  0.4115  0.8633  0.2350
  300TMC3    C6 4572   4.312   2.917  10.097  0.8252 -0.0465 -0.0470
  300TMC3     C 4573   4.522   2.930  10.455  0.1012  0.3455  0.8800
  300TMC3     O 4574   4.641   2.936  10.438  0.4749  0.1911  0.4396
  300TMC3     H 4575   4.623   2.967  10.210  0.4280 -1.8070 -0.7570
  300TMC3    H1 4576   4.257   2.907  10.430  2.5730 -3.2450  0.3159
  300TMC3    H2 4577   4.261   2.901  10.003  1.3785 -1.1124 -0.1639
  300TMC3    C7 4578   4.108   2.940  10.204  0.2141  0.3094 -0.3157
  300TMC3    C8 4579   4.512   2.992   9.972  0.3203  0.1407  0.3503
  300TMC3    O1 4580   4.049   2.921  10.099  0.4383 -0.1699  0.1399
  300TMC3    O2 4581   4.458   2.950   9.873 -0.1793  0.1302  0.4659
  301MPD2     C 4582   1.599   3.664   1.680  0.4820  0.7643  0.2177
  301MPD2    C1 4583   1.510   3.650   1.578  0.6558  0.1403  0.2091
  301MPD2    C2 4584   1.484   3.525   1.517 -0.3560  0.6597 -0.0922
  301MPD2    C3 4585   1.549   3.418   1.562  0.3858 -0.5597 -0.3689
  301MPD2    C4 4586   1.642   3.438   1.662 -0.3570 -0.8955  0.5681
  301MPD2    C5 4587   1.665   3.558   1.720  0.1825 -0.2513  0.1195
  301MPD2     H 4588   1.408   3.519   1.441 -1.1239  2.3368  0.5480
  301MPD2    H1 4589   1.700   3.358   1.707  1.4039  0.6858  1.1067
  301MPD2    H2 4590   1.629   3.757   1.727  0.8291 -0.7337  2.9284
  301MPD2    H3 4591   1.743   3.587   1.790 -0.5615 -0.2075  0.9208
  301MPD2     N 4592   1.523   3.285   1.524  0.0486 -0.6537 -0.2235
  301MPD2    H5 4593   1.574   3.212   1.574  3.0491  1.0716 -0.7658
  301MPD2    N1 4594   1.443   3.756   1.514 -0.2041  0.6748 -0.0856
  301MPD2    H7 4595   1.378   3.734   1.439 -0.7352 -0.7399  0.8069
  302TMC3    C1 4596   1.419   3.103   1.420 -0.0443 -0.1685 -0.0206
  302TMC3    C2 4597   1.516   3.015   1.472 -0.1802  0.2145 -0.4978
  302TMC3    C3 4598   1.508   2.883   1.426 -0.2927  0.0509  0.3267
  302TMC3    C4 4599   1.335   3.070   1.315 -0.3031 -0.6478  0.0023
  302TMC3    C5 4600   1.332   2.942   1.272  0.1163 -0.6998  0.1769
  302TMC3    C6 4601   1.418   2.851   1.328  0.7394 -0.3735  0.0229
  302TMC3     C 4602   1.433   3.246   1.427  0.5642  0.8712  0.1283
  302TMC3     O 4603   1.376   3.318   1.351  0.2594 -0.0384  0.2423
  302TMC3     H 4604   1.589   3.044   1.546 -0.5358 -1.5694  0.5560
  302TMC3    H1 4605   1.270   3.145   1.270  0.1708  0.0442  0.4743
  302TMC3    H2 4606   1.412   2.747   1.299 -1.7014 -0.4449  0.7596
  302TMC3    C7 4607   1.300   2.912   1.134 -0.2093 -0.0452 -0.1798
  302TMC3    C8 4608   1.608   2.787   1.463 -0.8655 -0.3994  0.0866
  302TMC3    O1 4609   1.353   2.809   1.098 -0.7058  0.1238 -0.3161
  302TMC3    O2 4610   1.592   2.678   1.406  0.6197 -0.1605  0.2394
  303MPD2     C 4611   2.564   2.901  10.497 -0.7417 -0.0293 -0.3975
  303MPD2    C1 4612   2.618   2.774  10.500 -0.1405  0.3499  0.6930
  303MPD2    C2 4613   2.654   2.711  10.382 -1.1887 -0.3811  0.0902
  303MPD2    C3 4614   2.645   2.778  10.255 -0.2990  0.6166  0.1171
  303MPD2    C4 4615   2.579   2.902  10.259  0.2594  0.6721 -0.2564
  303MPD2    C5 4616   2.540   2.962  10.377 -0.6216  0.4564  1.2389
  303MPD2     H 4617   2.671   2.604  10.392 -0.6492 -0.3897 -0.9848
  303MPD2    H1 4618   2.578   2.961  10.168  1.0114 -1.6117 -1.7487
  303MPD2    H2 4619   2.532   2.956  10.585 -0.9734 -1.5482  0.4748
  303MPD2    H3 4620   2.499   3.062  10.373 -0.6111  0.5423  3.3296
  303MPD2     N 4621   2.672   2.725  10.124 -0.0977  0.0777 -0.2505
  303MPD2    H5 4622   2.648   2.784  10.045  2.2265 -0.3681 -1.3165
  303MPD2    N1 4623   2.631   2.722  10.634  0.3219  0.4395 -0.2736
  303MPD2    H7 4624   2.598   2.787  10.706  1.8308  0.8471  0.0440
  304TMC3    C1 4625   2.628   2.573  10.806 -0.5069 -0.0061 -0.6265
  304TMC3    C2 4626   2.509   2.635  10.834  0.4869  0.4841 -0.7007
  304TMC3    C3 4627   2.422   2.572  10.909 -0.0152  0.0238 -1.1153
  304TMC3    C4 4628   2.675   2.459  10.866 -0.2178 -0.6088  0.1035
  304TMC3    C5 4629   2.592   2.403  10.956 -0.0893  0.1206 -0.1384
  304TMC3    C6 4630   2.464   2.462  10.973 -0.7717 -0.4301  0.0310
  304TMC3     C 4631   2.657   2.590  10.671 -0.4094  0.5811 -0.5462
  304TMC3     O 4632   2.687   2.491  10.604  0.7502 -0.0294  0.5924
  304TMC3     H 4633   2.450   2.694  10.765  0.1781  2.1364  0.9662
  304TMC3    H1 4634   2.757   2.405  10.819 -0.1966  0.6226 -1.2394
  304TMC3    H2 4635   2.390   2.421  11.042 -0.7303  2.2347  1.6538
  304TMC3    C7 4636   2.574   2.263  10.924 -0.1710  0.3021 -0.4172
  304TMC3    C8 4637   2.297   2.551  10.846 -0.0534 -0.2982 -0.1367
  304TMC3    O1 4638   2.461   2.230  10.891  0.3541  0.2939 -0.8576
  304TMC3    O2 4639   2.227   2.650  10.825 -0.3049 -0.7674  0.3064
  305MPD2     C 4640   0.097   4.552  14.128  0.5685 -0.4948 -0.5225
  305MPD2    C1 4641   0.110   4.419  14.128  0.4502  0.1022 -0.5615
  305MPD2    C2 4642   0.105   4.342  14.007  0.4629 -0.0160 -0.2405
  305MPD2    C3 4643   0.101   4.412  13.889 -0.1343 -0.1202 -0.6505
  305MPD2    C4 4644   0.090   4.554  13.892 -0.7434 -0.1078  0.4108
  305MPD2    C5 4645   0.097   4.623  14.015 -0.6699 -0.9646 -0.9529
  305MPD2     H 4646   0.127   4.236  14.010 -1.1994 -0.3735 -0.8700
  305MPD2    H1 4647   0.103   4.619  13.806  1.4601 -0.2348  0.6320
  305MPD2    H2 4648   0.093   4.602  14.224  2.4353 -1.0518 -0.1527
  305MPD2    H3 4649   0.081   4.730  14.021  0.5438 -0.7557 -1.4888
  305MPD2     N 4650   0.115   4.347  13.763  0.0100  0.1411 -0.2402
  305MPD2    H5 4651   0.100   4.409  13.684 -0.0601 -0.3322 -0.5997
  305MPD2    N1 4652   0.141   4.354  14.252  0.0616  0.0769  0.2754
  305MPD2    H7 4653   0.158   4.414  14.332  0.9420  0.9287 -0.5327
  306TMC3    C1 4654   0.247   4.196  14.395  0.0093 -0.2461  0.1757
  306TMC3    C2 4655   0.347   4.103  14.377  0.3718 -1.3175 -0.0275
  306TMC3    C3 4656   0.467   4.117  14.448 -0.4289  0.0384  0.0469
  306TMC3    C4 4657   0.267   4.298  14.485  0.3631 -0.1951 -0.3147
  306TMC3    C5 4658   0.379   4.308  14.559  0.2491 -0.0637  0.5656
  306TMC3    C6 4659   0.483   4.218  14.536  0.2724  0.0067  0.1337
  306TMC3     C 4660   0.158   4.220  14.279 -0.4242  0.1224 -0.2503
  306TMC3     O 4661   0.140   4.117  14.211 -0.1724  0.4074  0.1642
  306TMC3     H 4662   0.341   4.030  14.298  1.5257 -0.3666 -1.0006
  306TMC3    H1 4663   0.194   4.376  14.496  1.4242  1.1683 -2.9170
  306TMC3    H2 4664   0.569   4.214  14.601  0.3605 -1.3469 -0.0579
  306TMC3    C7 4665   0.387   4.431  14.632  0.2257 -0.6378  0.7803
  306TMC3    C8 4666   0.587   4.063  14.402  0.2096 -0.3568 -0.1510
  306TMC3    O1 4667   0.294   4.506  14.635  0.2412 -0.4378 -0.1226
  306TMC3    O2 4668   0.613   3.951  14.366 -0.1327 -0.5095  0.2906
  307MPD2     C 4669   3.021   1.890   0.786 -0.6336 -0.1698 -0.1932
  307MPD2    C1 4670   2.964   1.984   0.707 -0.0689  0.2058 -0.4110
  307MPD2    C2 4671   2.838   2.035   0.732 -0.1171 -0.3372  0.4931
  307MPD2    C3 4672   2.772   1.979   0.834 -0.3299  0.1658  0.2056
  307MPD2    C4 4673   2.829   1.894   0.926 -0.2182  0.2476 -0.2292
  307MPD2    C5 4674   2.952   1.847   0.901 -0.0137  0.2391  0.6856
  307MPD2     H 4675   2.796   2.110   0.666  1.0779 -0.1681 -0.0765
  307MPD2    H1 4676   2.790   1.856   1.020  1.1131  0.2831  0.3426
  307MPD2    H2 4677   3.124   1.856   0.793 -1.1333 -1.7662 -0.5321
  307MPD2    H3 4678   2.992   1.776   0.972  3.0697  0.7939 -0.5183
  307MPD2     N 4679   2.640   2.020   0.859 -0.4359 -0.2219  0.9361
  307MPD2    H5 4680   2.591   2.085   0.798  2.9502 -1.3227 -3.0382
  307MPD2    N1 4681   3.034   2.041   0.598  0.0176 -0.1243 -0.6180
  307MPD2    H7 4682   2.994   2.126   0.560  0.2580  0.8175  1.2225
  308TMC3    C1 4683   2.183   1.952   0.916  0.3467  0.3471  0.2733
  308TMC3    C2 4684   2.157   2.080   0.897  0.7950  0.4515 -0.6839
  308TMC3    C3 4685   2.263   2.169   0.898  0.6834 -0.3587  0.3225
  308TMC3    C4 4686   2.313   1.911   0.929 -0.7869  0.4473 -0.4876
  308TMC3    C5 4687   2.417   2.002   0.942 -0.2550 -0.1445  0.2812
  308TMC3    C6 4688   2.395   2.134   0.942 -0.6474  0.5964  0.2778
  308TMC3     C 4689   2.104   1.869   0.829 -0.3881  0.1507 -0.0907
  308TMC3     O 4690   2.164   1.768   0.794  0.6378 -0.4905  0.6038
  308TMC3     H 4691   2.057   2.116   0.878  0.3887 -1.4695 -2.1889
  308TMC3    H1 4692   2.340   1.807   0.920 -2.0840 -0.1585  2.6020
  308TMC3    H2 4693   2.472   2.210   0.950 -0.0535  0.2210 -1.9696
  308TMC3    C7 4694   2.551   1.947   0.936  0.0231  0.2491  0.2956
  308TMC3    C8 4695   2.220   2.309   0.904 -0.2282  0.5920 -0.0368
  308TMC3    O1 4696   2.552   1.827   0.967  0.0115  0.6118  0.0546
  308TMC3    O2 4697   2.124   2.347   0.968 -0.2139 -0.1632  0.4574
  309MPD2     C 4698   1.984   2.376  17.427  0.5358 -0.6206  0.2215
  309MPD2    C1 4699   1.971   2.475  17.331  0.2270 -0.6196  0.3670
  309MPD2    C2 4700   1.849   2.529  17.316  0.0976  0.1501 -0.4618
  309MPD2    C3 4701   1.741   2.504  17.397 -0.0373  0.1026 -0.5287
  309MPD2    C4 4702   1.754   2.412  17.497  0.2921  0.0826 -0.0609
  309MPD2    C5 4703   1.880   2.349  17.512 -0.8270 -0.4100  0.2155
  309MPD2     H 4704   1.845   2.592  17.228 -2.9295 -2.0670 -1.8919
  309MPD2    H1 4705   1.677   2.387  17.569  1.8263 -1.3415  1.0966
  309MPD2    H2 4706   2.078   2.331  17.457  0.8178 -0.4074 -0.3536
  309MPD2    H3 4707   1.880   2.258  17.571  1.2764 -0.1825  0.5852
  309MPD2     N 4708   1.615   2.567  17.386  0.1189 -0.5984 -0.1654
  309MPD2    H5 4709   1.547   2.550  17.459  0.3819  0.8915  0.4267
  309MPD2    N1 4710   2.075   2.500  17.234  0.1788  0.2822  0.4263
  309MPD2    H7 4711   2.052   2.562  17.157  1.7796  0.0217 -0.2738
  310TMC3    C1 4712   2.265   2.459  17.100 -0.6219 -0.2723 -0.5027
  310TMC3    C2 4713   2.212   2.522  16.988 -0.0658  0.1207  0.6747
  310TMC3    C3 4714   2.287   2.524  16.877  0.5380 -0.1798  0.7550
  310TMC3    C4 4715   2.379   2.383  17.089  0.1717 -0.4296  0.7473
  310TMC3    C5 4716   2.442   2.370  16.968  0.2382 -0.1499  0.0934
  310TMC3    C6 4717   2.394   2.438  16.858  0.6551 -0.2773  0.3605
  310TMC3     C 4718   2.192   2.442  17.228 -0.8658 -0.0868 -0.0014
  310TMC3     O 4719   2.252   2.381  17.319  0.6387 -0.0001  0.4482
  310TMC3     H 4720   2.122   2.583  16.995  0.2866  0.6024  0.9595
  310TMC3    H1 4721   2.421   2.334  17.176  0.4469 -3.3242 -1.0252
  310TMC3    H2 4722   2.444   2.427  16.762  1.6841 -0.6528  0.9451
  310TMC3    C7 4723   2.532   2.257  16.941 -0.1163 -0.3995  0.6370
  310TMC3    C8 4724   2.236   2.600  16.759 -0.3705 -0.4899 -0.3220
  310TMC3    O1 4725   2.550   2.227  16.822 -0.4782  0.0283 -0.3642
  310TMC3    O2 4726   2.123   2.640  16.755  0.0591  0.7557 -0.1648
  311MPD2     C 4727   4.149   4.138  12.227  0.6145  0.0273 -0.5612
  311MPD2    C1 4728   4.189   4.199  12.346 -0.2217  0.5467  0.5445
  311MPD2    C2 4729   4.108   4.194  12.458  0.8207  0.7370  0.0095
  311MPD2    C3 4730   3.991   4.123  12.458  0.5607 -1.0244  0.6000
  311MPD2    C4 4731   3.965   4.037  12.352  0.3830 -0.1818 -0.1011
  311MPD2    C5 4732   4.049   4.042  12.240 -0.6146  0.3749  0.8385
  311MPD2     H 4733   4.122   4.255  12.547 -1.1347  1.3277 -0.0793
  311MPD2    H1 4734   3.879   3.972  12.343  0.7965 -0.7873  0.3494
  311MPD2    H2 4735   4.215   4.141  12.140  1.4279  0.7309  0.0854
  311MPD2    H3 4736   4.034   3.976  12.156 -0.2443 -0.0268  1.0927
  311MPD2     N 4737   3.909   4.143  12.571 -0.5229 -0.1504 -0.4207
  311MPD2    H5 4738   3.944   4.206  12.643 -1.8951  0.5366 -0.3609
  311MPD2    N1 4739   4.303   4.282  12.350  0.2781  0.7811 -0.0352
  311MPD2    H7 4740   4.321   4.337  12.434 -0.8429  0.2554  0.5514
  312TMC3    C1 4741   3.716   4.134  12.708 -0.4020 -0.1095 -0.3921
  312TMC3    C2 4742   3.587   4.093  12.736 -0.1439  0.0799 -0.5338
  312TMC3    C3 4743   3.550   4.100  12.862 -0.3159 -0.6273 -0.4801
  312TMC3    C4 4744   3.792   4.194  12.804  0.1099 -0.0913 -0.8278
  312TMC3    C5 4745   3.747   4.199  12.939 -1.0936 -0.6461  0.1784
  312TMC3    C6 4746   3.625   4.144  12.972  0.1740 -0.0294 -0.8336
  312TMC3     C 4747   3.781   4.098  12.581 -0.3698 -0.2088 -0.4366
  312TMC3     O 4748   3.721   4.014  12.517 -0.5699  0.3092  0.1087
  312TMC3     H 4749   3.522   4.041  12.666 -0.8938 -0.4906  0.5990
  312TMC3    H1 4750   3.894   4.230  12.799  1.0038 -2.4057  0.7282
  312TMC3    H2 4751   3.579   4.166  13.068  1.1655 -1.4973 -0.0356
  312TMC3    C7 4752   3.835   4.267  13.038 -0.2214  0.4639 -0.0009
  312TMC3    C8 4753   3.416   4.038  12.895  0.7150  0.5869 -0.6094
  312TMC3    O1 4754   3.941   4.291  12.989  0.5935 -0.5424 -0.3578
  312TMC3    O2 4755   3.375   3.944  12.827 -0.0532  0.0923  0.3341
  313MPD2     C 4756   3.051   4.537  11.551  0.1493 -0.6148  0.7495
  313MPD2    C1 4757   3.156   4.472  11.487  0.5020  0.8427  0.0708
  313MPD2    C2 4758   3.151   4.331  11.477  0.4994 -0.6219  0.3662
  313MPD2    C3 4759   3.047   4.260  11.523 -0.6534  0.2669  0.4565
  313MPD2    C4 4760   2.953   4.320  11.601  0.0503  0.2322 -0.3303
  313MPD2    C5 4761   2.957   4.460  11.610  1.1779  0.8696 -0.0306
  313MPD2     H 4762   3.233   4.283  11.424 -0.2922  0.4655 -1.8324
  313MPD2    H1 4763   2.876   4.267  11.656 -0.1238  0.8076 -0.0143
  313MPD2    H2 4764   3.063   4.642  11.573  0.8001 -0.8360  1.4926
  313MPD2    H3 4765   2.891   4.515  11.677  1.0639  0.2550  0.3601
  313MPD2     N 4766   3.044   4.123  11.478 -0.6931 -0.3342 -0.0231
  313MPD2    H5 4767   3.111   4.104  11.404 -2.0579 -1.3642 -0.9933
  313MPD2    N1 4768   3.261   4.557  11.439 -0.1486 -0.2013 -0.1945
  313MPD2    H7 4769   3.245   4.657  11.447  0.1507 -0.2509  1.0079
  314TMC3    C1 4770   3.446   4.623  11.305  0.0439 -0.1559 -0.8296
  314TMC3    C2 4771   3.577   4.590  11.284  0.1825 -0.1829  0.3576
  314TMC3    C3 4772   3.646   4.645  11.179  0.8708  0.1946 -0.2029
  314TMC3    C4 4773   3.376   4.683  11.207  0.3296  0.1861  0.0218
  314TMC3    C5 4774   3.444   4.717  11.093 -0.2396 -0.3174 -0.2112
  314TMC3    C6 4775   3.581   4.714  11.084  0.0574 -0.3056  0.6308
  314TMC3     C 4776   3.380   4.511  11.374  0.0743  0.2418  0.0487
  314TMC3     O 4777   3.425   4.397  11.351 -0.1938  0.2687  0.1927
  314TMC3     H 4778   3.614   4.518  11.357 -1.3090  0.8105  2.0902
  314TMC3    H1 4779   3.268   4.682  11.212  0.3475 -0.9582  0.1853
  314TMC3    H2 4780   3.637   0.037  11.013  1.3839 -0.8918  1.1942
  314TMC3    C7 4781   3.373   0.018  10.978  0.5454  0.8339  0.2763
  314TMC3    C8 4782   3.765   4.574  11.129  0.8013 -0.4182  1.0014
  314TMC3    O1 4783   3.279   0.097  10.991 -0.1111 -0.7117  0.0258
  314TMC3    O2 4784   3.781   4.582  11.006 -0.8408 -0.4467  0.1275
  315MPD2     C 4785   3.534   1.803   0.017  0.0381  0.0527  0.1123
  315MPD2    C1 4786   3.603   1.809   0.136  0.2120 -0.0729 -0.6785
  315MPD2    C2 4787   3.689   1.915   0.149 -0.1685  0.1097  0.4791
  315MPD2    C3 4788   3.673   2.026   0.063 -0.0014  0.2569  0.0152
  315MPD2    C4 4789   3.588   2.015  17.702 -0.5859 -0.2183 -0.0448
  315MPD2    C5 4790   3.525   1.901  17.676  0.1706 -0.2477 -0.9000
  315MPD2     H 4791   3.740   1.923   0.244  1.1084  1.4631 -0.3101
  315MPD2    H1 4792   3.587   2.083  17.618  0.9427  0.5688  0.5772
  315MPD2    H2 4793   3.468   1.719  17.745  1.5185 -1.1715  0.4539
  315MPD2    H3 4794   3.457   1.897  17.592 -0.6305  1.2420 -0.3325
  315MPD2     N 4795   3.759   2.140   0.083 -0.0074  0.4644 -0.0953
  315MPD2    H5 4796   3.828   2.123   0.156  0.7476 -0.2843 -0.9941
  315MPD2    N1 4797   3.594   1.706   0.231 -0.1319 -0.5648 -0.6165
  315MPD2    H7 4798   3.641   1.728   0.318 -0.5378 -0.3074 -0.4627
  316TMC3    C1 4799   3.825   2.368   0.070  0.1310 -0.4360 -0.1744
  316TMC3    C2 4800   3.868   2.350   0.199  0.1703 -0.3278 -0.0810
  316TMC3    C3 4801   3.858   2.460   0.284  0.4825  0.1020  0.2595
  316TMC3    C4 4802   3.796   2.491   0.019 -0.1316  0.1767  0.4737
  316TMC3    C5 4803   3.802   2.596   0.100 -0.1668 -0.4297  0.7088
  316TMC3    C6 4804   3.835   2.587   0.232 -0.4269 -0.8979 -0.5650
  316TMC3     C 4805   3.764   2.254   0.005 -0.6363  1.0221  0.4859
  316TMC3     O 4806   3.708   2.281  17.645 -0.4249  0.1764  0.4380
  316TMC3     H 4807   3.912   2.258   0.237 -1.0611 -1.5129 -1.5328
  316TMC3    H1 4808   3.789   2.509  17.658 -1.8055 -2.1285  0.1841
  316TMC3    H2 4809   3.831   2.677   0.293 -0.7537 -1.6703  0.5642
  316TMC3    C7 4810   3.709   2.706   0.060  0.6280  0.3661 -0.1688
  316TMC3    C8 4811   3.857   2.454   0.434 -0.0158  0.0663  0.1676
  316TMC3    O1 4812   3.701   2.804   0.133 -0.4786  0.1094  0.5177
  316TMC3    O2 4813   3.821   2.553   0.493 -0.0838 -0.2251  0.4064
  317MPD2     C 4814   0.278   1.176  13.127  0.1321 -0.0602  0.3628
  317MPD2    C1 4815   0.291   1.085  13.027  0.2551  0.2979 -0.0894
  317MPD2    C2 4816   0.411   1.026  13.012 -0.0754 -0.2427 -1.3934
  317MPD2    C3 4817   0.520   1.054  13.095  0.3386 -0.4440  0.4060
  317MPD2    C4 4818   0.508   1.147  13.190  0.1340 -0.1938  0.1596
  317MPD2    C5 4819   0.385   1.208  13.205 -0.4502 -0.7484  1.5900
  317MPD2     H 4820   0.422   0.964  12.924  0.1361 -2.1662 -0.0100
  317MPD2    H1 4821   0.587   1.178  13.258  1.4584 -0.4297 -1.2708
  317MPD2    H2 4822   0.191   1.234  13.157  1.1429  0.5428  2.1442
  317MPD2    H3 4823   0.377   1.283  13.282 -1.3370  1.2632 -0.4793
  317MPD2     N 4824   0.639   0.974  13.080  0.2071 -0.5354 -0.1657
  317MPD2    H5 4825   0.624   0.900  13.011 -0.5218 -1.6473  1.1874
  317MPD2    N1 4826   0.192   1.058  12.926  0.4471 -0.1857 -0.0688
  317MPD2    H7 4827   0.222   0.997  12.850  2.0463  1.4693 -0.7553
  318TMC3    C1 4828   0.848   0.877  13.124  0.2374 -0.1251 -0.8835
  318TMC3    C2 4829   0.796   0.753  13.131  0.7124 -0.5813  0.3891
  318TMC3    C3 4830   0.847   0.652  13.213 -0.3899  0.5248  0.2408
  318TMC3    C4 4831   0.972   0.898  13.190 -0.2485 -0.9937 -0.1752
  318TMC3    C5 4832   1.026   0.796  13.263  0.1172 -0.4469  0.0775
  318TMC3    C6 4833   0.967   0.674  13.275  0.0556  0.2524  0.6674
  318TMC3     C 4834   0.757   0.988  13.143 -0.3233  0.2741  0.5996
  318TMC3     O 4835   0.798   1.073  13.216  0.7238 -0.7027  0.6950
  318TMC3     H 4836   0.695   0.737  13.096  0.4255  0.5357  0.7080
  318TMC3    H1 4837   1.011   0.999  13.190  2.0278 -1.8634 -2.6274
  318TMC3    H2 4838   1.000   0.590  13.334  1.0816  0.8380  0.9291
  318TMC3    C7 4839   1.133   0.843  13.353  0.1898 -0.5562 -0.4834
  318TMC3    C8 4840   0.788   0.524  13.218  0.3449  0.5329 -0.3351
  318TMC3    O1 4841   1.175   0.957  13.343  0.0943  0.1580 -0.0448
  318TMC3    O2 4842   0.850   0.423  13.243  0.0894  0.6929  0.3779
  319MPD2     C 4843   1.960   1.741  16.194  0.6599 -0.4404 -0.1235
  319MPD2    C1 4844   1.933   1.828  16.298 -0.3482 -0.1316  0.2632
  319MPD2    C2 4845   1.802   1.872  16.305  0.2560  0.0903 -0.3746
  319MPD2    C3 4846   1.710   1.836  16.211  0.5971  0.3199 -0.5090
  319MPD2    C4 4847   1.742   1.750  16.117 -0.3054 -0.1631  0.3622
  319MPD2    C5 4848   1.866   1.703  16.103 -0.3098 -0.3419 -0.1768
  319MPD2     H 4849   1.769   1.943  16.379 -3.5994 -1.6668 -0.4098
  319MPD2    H1 4850   1.671   1.708  16.047  0.4944  1.1627 -1.2742
  319MPD2    H2 4851   2.058   1.696  16.179  1.6558  1.3160  1.1472
  319MPD2    H3 4852   1.889   1.632  16.024 -1.0745  2.7306 -3.1507
  319MPD2     N 4853   1.577   1.892  16.207  0.1089 -0.6048  0.0301
  319MPD2    H5 4854   1.524   1.878  16.121 -1.7674 -0.3923  1.1366
  319MPD2    N1 4855   2.026   1.872  16.396 -0.7317  0.1125  0.9476
  319MPD2    H7 4856   1.988   1.907  16.483 -1.8416  4.1226 -1.1683
  320TMC3    C1 4857   1.376   1.990  16.278 -0.6697  0.1599  0.5067
  320TMC3    C2 4858   1.344   2.073  16.175  0.1036 -0.2444  0.3451
  320TMC3    C3 4859   1.218   2.097  16.158  1.0597  0.4100  0.0278
  320TMC3    C4 4860   1.293   1.921  16.356  0.2066 -0.5432  0.2315
  320TMC3    C5 4861   1.162   1.959  16.346 -0.0997 -0.2578 -0.0181
  320TMC3    C6 4862   1.125   2.043  16.243 -0.7054 -0.1228  0.0152
  320TMC3     C 4863   1.517   1.965  16.306  0.1202 -0.0250 -0.0189
  320TMC3     O 4864   1.552   1.967  16.426  0.4034  0.3624  0.0838
  320TMC3     H 4865   1.421   2.118  16.114 -0.2520 -1.6703 -1.1512
  320TMC3    H1 4866   1.336   1.842  16.416 -1.9669 -1.7876  0.1357
  320TMC3    H2 4867   1.024   2.072  16.218 -0.3576  0.0118 -1.2358
  320TMC3    C7 4868   1.058   1.880  16.413  0.0283  0.1874  0.7300
  320TMC3    C8 4869   1.175   2.216  16.089  0.0232  0.2506  0.4794
  320TMC3    O1 4870   0.943   1.880  16.361  0.0102  0.4159  0.3582
  320TMC3    O2 4871   1.258   2.305  16.063 -0.8618 -0.3636  0.2381
  321TMC3    C1 4872   2.238   1.911  16.493 -0.5947 -0.1620 -0.0157
  321TMC3    C2 4873   2.317   1.816  16.559  0.1554  0.1799 -0.4141
  321TMC3    C3 4874   2.382   1.854  16.675 -0.7278 -0.4384 -0.4017
  321TMC3    C4 4875   2.222   2.039  16.540 -0.0139 -0.2010  0.3669
  321TMC3    C5 4876   2.291   2.079  16.653  0.5050 -0.1344  0.1309
  321TMC3    C6 4877   2.373   1.982  16.712 -0.6772  0.3803 -0.2456
  321TMC3     C 4878   2.165   1.854  16.386  0.5841  0.6549  0.4351
  321TMC3     O 4879   2.235   1.820  16.293  0.3848  0.0674  0.1644
  321TMC3     H 4880   2.327   1.714  16.524 -2.2104 -0.4405  0.6399
  321TMC3    H1 4881   2.159   2.112  16.490 -0.9532 -0.5318  1.0913
  321TMC3    H2 4882   2.434   2.023  16.791 -1.0217 -1.3431  0.9242
  321TMC3    C7 4883   2.201   2.156  16.739  0.9746  0.3915  0.1855
  321TMC3    C8 4884   2.360   1.777  16.798  0.3759  0.4474 -0.4409
  321TMC3    O1 4885   2.157   2.254  16.682  0.3088  0.2941  0.1766
  321TMC3    O2 4886   2.353   1.848  16.900  0.2858 -0.0190  0.4728
  322MPD2     C 4887   0.460   3.931  13.839  0.5349 -0.0241  0.3519
  322MPD2    C1 4888   0.413   3.830  13.928 -0.0273 -0.4159 -0.8074
  322MPD2    C2 4889   0.425   3.693  13.883  0.4501  1.0133  1.2256
  322MPD2    C3 4890   0.483   3.665  13.763  0.1460  0.1180 -0.0176
  322MPD2    C4 4891   0.523   3.760  13.675  0.4261 -0.7018  0.1206
  322MPD2    C5 4892   0.515   3.890  13.714  0.1739 -0.0013 -0.6668
  322MPD2     H 4893   0.391   3.612  13.947  1.0161 -0.0493  0.1774
  322MPD2    H1 4894   0.574   3.756  13.579 -0.9676  0.9041 -0.6966
  322MPD2    H2 4895   0.440   4.034  13.866 -1.3523 -0.4935  0.7377
  322MPD2    H3 4896   0.558   3.963  13.647  0.2374  0.7252  0.1616
  322MPD2     N 4897   0.496   3.530  13.736  0.2735  0.8965  0.4884
  322MPD2    H5 4898   0.450   3.468  13.802  1.0819 -0.8007 -0.5543
  322MPD2    N1 4899   0.361   3.859  14.049  0.5016 -0.1972 -0.0758
  322MPD2    H7 4900   0.331   3.953  14.073 -0.7580 -0.3981 -0.9134
  323TMC3    C1 4901   0.477   3.695  14.179  0.3570 -0.3822  0.7123
  323TMC3    C2 4902   0.602   3.741  14.136 -0.3099  0.4699 -0.1582
  323TMC3    C3 4903   0.716   3.673  14.176 -0.6869 -0.5010  0.1668
  323TMC3    C4 4904   0.464   3.593  14.265 -0.3622  0.2159  0.4621
  323TMC3    C5 4905   0.582   3.553  14.324  0.1365 -0.2454  0.0150
  323TMC3    C6 4906   0.708   3.576  14.269 -0.0007 -0.9163 -0.5184
  323TMC3     C 4907   0.353   3.772  14.153  0.2339 -0.0155  0.0219
  323TMC3     O 4908   0.263   3.778  14.240  0.0282  0.8077  0.1097
  323TMC3     H 4909   0.600   3.838  14.086 -0.5832  2.0441  2.9208
  323TMC3    H1 4910   0.370   3.568  14.312  0.1130 -3.5604 -0.6063
  323TMC3    H2 4911   0.801   3.539  14.310  1.2987  3.3420  0.3618
  323TMC3    C7 4912   0.577   3.471  14.448  0.6817 -0.6092  0.3854
  323TMC3    C8 4913   0.846   3.700  14.113  0.0078 -0.7671 -0.1187
  323TMC3    O1 4914   0.490   3.389  14.466 -0.1343  0.0449  0.4089
  323TMC3    O2 4915   0.943   3.636  14.154 -0.0659 -0.4359 -0.0487
  324MPD2     C 4916   2.082   4.436  14.728  0.6494 -0.0007  0.7194
  324MPD2    C1 4917   2.108   4.539  14.636 -0.2503 -0.0890 -0.2787
  324MPD2    C2 4918   2.001   4.606  14.579 -0.1223  0.1769 -0.6448
  324MPD2    C3 4919   1.871   4.575  14.626 -0.7984 -0.0145 -0.4825
  324MPD2    C4 4920   1.848   4.469  14.702  0.0436 -0.4751 -0.0246
  324MPD2    C5 4921   1.952   4.400  14.755  0.0853 -0.0796  0.2641
  324MPD2     H 4922   2.019   4.678  14.500  3.5603  0.0768  0.1135
  324MPD2    H1 4923   1.746   4.439  14.722  0.2106 -1.2415 -0.3341
  324MPD2    H2 4924   2.163   4.370  14.757 -0.4055 -0.8152  1.7958
  324MPD2    H3 4925   1.932   4.321  14.825  1.8016 -0.7526  0.0059
  324MPD2     N 4926   1.755   4.642  14.584 -0.0954 -0.0517 -0.3264
  324MPD2    H5 4927   1.669   4.589  14.590 -0.8986  1.0528 -1.9376
  324MPD2    N1 4928   2.240   4.563  14.590  0.3652 -0.4786  0.1515
  324MPD2    H7 4929   2.251   4.637  14.521 -1.6237  0.8623  1.2778
  325TMC3    C1 4930   1.616   0.056  14.471  0.2854  0.1668  0.6603
  325TMC3    C2 4931   1.526   4.686  14.448 -0.1255  0.9393  0.7379
  325TMC3    C3 4932   1.406   4.717  14.384  0.0384  0.7988  0.3342
  325TMC3    C4 4933   1.586   0.182  14.436 -0.0416  0.3795 -0.1358
  325TMC3    C5 4934   1.462   0.210  14.376  0.9331  0.4987  0.2547
  325TMC3    C6 4935   1.369   0.108  14.342 -0.0637  0.2902 -0.0168
  325TMC3     C 4936   1.755   0.020  14.505 -0.2538 -0.0929 -0.2510
  325TMC3     O 4937   1.848   0.101  14.483  0.6631  0.6947  0.7820
  325TMC3     H 4938   1.547   4.582  14.469 -1.4777  0.2673 -1.2401
  325TMC3    H1 4939   1.649   0.268  14.457 -0.3483  0.4499  0.5099
  325TMC3    H2 4940   1.277   0.136  14.292 -0.5548 -0.6629  0.3657
  325TMC3    C7 4941   1.430   0.345  14.330  0.3031 -0.0298 -0.4468
  325TMC3    C8 4942   1.333   4.605  14.329 -1.2165 -0.8452  0.2437
  325TMC3    O1 4943   1.531   0.401  14.290 -0.2103  0.6610 -0.1325
  325TMC3    O2 4944   1.399   4.506  14.306 -0.2436 -0.4157 -0.4400
  326MPD2     C 4945   3.646   1.730  10.972 -0.3067 -0.4633 -0.9537
  326MPD2    C1 4946   3.695   1.714  10.846 -0.1002  0.2714  0.8200
  326MPD2    C2 4947   3.832   1.712  10.827 -0.4417 -0.7167 -0.2499
  326MPD2    C3 4948   3.922   1.720  10.932  0.7008 -0.6305 -0.6917
  326MPD2    C4 4949   3.872   1.726  11.062 -0.4419  0.0231  0.4802
  326MPD2    C5 4950   3.735   1.742  11.074  0.1791 -0.2527 -0.2970
  326MPD2     H 4951   3.866   1.702  10.725  1.3184  0.5548  0.2153
  326MPD2    H1 4952   3.940   1.717  11.146 -0.8064  0.7698  0.8446
  326MPD2    H2 4953   3.541   1.729  10.998 -0.3859 -2.1960 -1.2805
  326MPD2    H3 4954   3.697   1.745  11.175  1.4009 -0.9366  0.1768
  326MPD2     N 4955   4.060   1.700  10.912  0.0191 -0.0871  0.3036
  326MPD2    H5 4956   4.118   1.695  10.995 -1.4302  2.7009  1.5167
  326MPD2    N1 4957   3.613   1.701  10.735 -0.2620  0.1814  0.2794
  326MPD2    H7 4958   3.656   1.688  10.644 -2.1121 -1.9500 -0.2954
  327TMC3    C1 4959   3.417   1.687  10.605  0.2273 -0.3379 -0.5506
  327TMC3    C2 4960   3.309   1.768  10.575  0.2154  0.1115 -0.3324
  327TMC3    C3 4961   3.282   1.776  10.439  0.7540  0.2257 -0.9752
  327TMC3    C4 4962   3.484   1.612  10.512  0.6350  0.0147  0.3396
  327TMC3    C5 4963   3.455   1.628  10.376 -0.5185 -0.2824  0.1898
  327TMC3    C6 4964   3.361   1.718  10.340  0.5572  0.4850 -0.4166
  327TMC3     C 4965   3.475   1.703  10.731 -0.7463 -0.7458  0.2559
  327TMC3     O 4966   3.396   1.731  10.822  0.0921 -0.0308 -0.0877
  327TMC3     H 4967   3.262   1.830  10.650  0.9153  0.1371  0.0873
  327TMC3    H1 4968   3.553   1.537  10.548 -1.5666 -1.5742  1.2144
  327TMC3    H2 4969   3.344   1.744  10.236 -1.5129 -1.3491 -0.5360
  327TMC3    C7 4970   3.539   1.563  10.275  0.4429 -0.6045 -0.0427
  327TMC3    C8 4971   3.200   1.885  10.387 -0.4753  0.2927  0.5938
  327TMC3    O1 4972   3.533   1.592  10.156 -0.4286 -0.0601 -0.0280
  327TMC3    O2 4973   3.239   1.943  10.287 -0.1253  0.0544  0.1654
  328MPD2     C 4974   1.137   0.751  17.105  0.9640  0.0398  0.2895
  328MPD2    C1 4975   1.052   0.687  17.014  0.3005  0.0931  0.4292
  328MPD2    C2 4976   0.983   0.761  16.917 -0.5212  0.0452  0.1541
  328MPD2    C3 4977   0.996   0.897  16.912  0.2614  0.1480 -0.8171
  328MPD2    C4 4978   1.082   0.957  16.999  0.2506  0.1105  0.2877
  328MPD2    C5 4979   1.146   0.881  17.098  0.0278  0.3873  0.6149
  328MPD2     H 4980   0.900   0.712  16.868  0.8422 -1.1609 -0.9457
  328MPD2    H1 4981   1.080   1.065  17.005  1.3532  0.0548  1.6155
  328MPD2    H2 4982   1.183   0.697  17.187  0.2003  0.4992  1.0258
  328MPD2    H3 4983   1.206   0.929  17.174  0.4438  0.3177  0.3259
  328MPD2     N 4984   0.905   0.986  16.847  0.0914 -0.4387  0.5065
  328MPD2    H5 4985   0.902   1.083  16.875  2.2968  0.0284 -0.8700
  328MPD2    N1 4986   1.035   0.541  17.039 -0.5360  0.0151 -0.2289
  328MPD2    H7 4987   1.069   0.498  17.125 -0.4912  1.3615  0.4245
  329TMC3    C1 4988   0.917   0.341  17.033  0.3874  0.4441  0.5188
  329TMC3    C2 4989   0.840   0.376  17.139  0.3854 -0.0058 -0.4460
  329TMC3    C3 4990   0.761   0.282  17.191 -0.3193 -0.7368 -0.0261
  329TMC3    C4 4991   0.911   0.219  16.970 -0.4768  0.4724  0.5253
  329TMC3    C5 4992   0.822   0.124  17.019 -0.9601 -0.0413 -1.8588
  329TMC3    C6 4993   0.750   0.159  17.130  0.1899 -0.2881  0.3792
  329TMC3     C 4994   0.959   0.457  16.958  0.4454  0.0257 -0.1731
  329TMC3     O 4995   0.935   0.474  16.838  0.8506 -0.1613 -0.1816
  329TMC3     H 4996   0.833   0.479  17.173 -2.2983 -0.7484  1.2145
  329TMC3    H1 4997   0.963   0.205  16.877 -1.3919  0.3231  0.0324
  329TMC3    H2 4998   0.669   0.096  17.163  0.2506  0.7766  2.5524
  329TMC3    C7 4999   0.825   4.730  16.964 -0.1787  0.4641  0.2073
  329TMC3    C8 5000   0.633   0.352  17.210 -0.0084  0.2854 -1.2071
  329TMC3    O1 5001   0.894   4.716  16.864  0.1944 -0.6061  0.3272
  329TMC3    O2 5002   0.535   0.312  17.147  0.3854 -0.0360  0.0337
  330TMC3    C1 5003   4.103   0.419   8.691  0.5993  0.0192 -0.5483
  330TMC3    C2 5004   4.124   0.375   8.818 -0.1624 -0.3692 -0.4358
  330TMC3    C3 5005   4.211   0.268   8.832 -0.0391 -0.2246 -0.6586
  330TMC3    C4 5006   4.171   0.367   8.587 -0.2034 -0.7428  0.6238
  330TMC3    C5 5007   4.248   0.257   8.603 -0.4112 -0.1305 -0.2423
  330TMC3    C6 5008   4.266   0.200   8.725  0.2754  0.7077  0.8799
  330TMC3     C 5009   4.034   0.545   8.667 -0.6756  0.1669  0.3438
  330TMC3     O 5010   4.072   0.596   8.563  0.2107  0.0758  0.4070
  330TMC3     H 5011   4.081   0.416   8.908 -0.5213  0.0035 -0.7739
  330TMC3    H1 5012   4.149   0.405   8.488  0.6855 -3.4536 -0.5978
  330TMC3    H2 5013   4.338   0.119   8.730  0.1977  0.7863  3.2085
  330TMC3    C7 5014   4.266   0.165   8.489  0.3374 -0.0147 -0.7000
  330TMC3    C8 5015   4.245   0.225   8.961  0.0116  0.3916  0.6958
  330TMC3    O1 5016   4.354   0.079   8.505  0.2848 -0.3748  0.0451
  330TMC3    O2 5017   4.357   0.179   8.968  0.4841  0.0527 -0.4339
  331MPD2     C 5018   1.939   4.303  12.938  0.2810 -0.0767  0.6759
  331MPD2    C1 5019   1.849   4.301  12.835  0.5228  0.3195 -0.2210
  331MPD2    C2 5020   1.808   4.182  12.792 -0.0018  0.3131  0.0897
  331MPD2    C3 5021   1.857   4.067  12.853 -0.2055  0.5865  0.1788
  331MPD2    C4 5022   1.956   4.068  12.948  0.5993  0.4559  0.2165
  331MPD2    C5 5023   1.995   4.193  12.985  0.4210 -0.3435 -0.3659
  331MPD2     H 5024   1.729   4.172  12.718 -0.1222 -1.6448  0.4910
  331MPD2    H1 5025   1.994   3.984  13.005 -0.4107 -1.0939 -1.4062
  331MPD2    H2 5026   1.965   4.397  12.985  0.5812  0.3432 -0.3327
  331MPD2    H3 5027   2.061   4.202  13.071  0.5006 -2.3486 -0.2243
  331MPD2     N 5028   1.811   3.947  12.796 -0.6121  0.0227 -0.6973
  331MPD2    H5 5029   1.747   3.951  12.718 -1.5913  0.2759  0.1170
  331MPD2    N1 5030   1.801   4.423  12.786 -0.5480 -0.2241 -1.0941
  331MPD2    H7 5031   1.861   4.505  12.793  0.3824 -1.1085  1.3501
  332TMC3    C1 5032   1.836   3.732  12.720  0.9510  0.5753 -0.0543
  332TMC3    C2 5033   1.835   3.783  12.591  0.3187 -0.0555 -0.0771
  332TMC3    C3 5034   1.829   3.700  12.481  0.6983 -0.4427  0.0443
  332TMC3    C4 5035   1.855   3.599  12.745  0.4573 -0.1469  0.2773
  332TMC3    C5 5036   1.865   3.523  12.629  0.2152 -0.3100 -0.0087
  332TMC3    C6 5037   1.845   3.566  12.497  0.2378 -0.0977 -0.3009
  332TMC3     C 5038   1.858   3.822  12.830 -0.1599 -0.3375  0.1925
  332TMC3     O 5039   1.908   3.786  12.935 -0.9886 -0.2088  0.4067
  332TMC3     H 5040   1.836   3.889  12.571  2.5226  0.0570  0.5665
  332TMC3    H1 5041   1.852   3.562  12.847 -0.8177 -1.8858 -0.3989
  332TMC3    H2 5042   1.840   3.490  12.419 -2.2147  0.2352 -0.4740
  332TMC3    C7 5043   1.932   3.403  12.650 -1.0422 -0.1714 -0.3822
  332TMC3    C8 5044   1.832   3.757  12.347  0.2826  0.2221  0.1614
  332TMC3    O1 5045   1.906   3.303  12.582 -0.1375  0.3322  0.1990
  332TMC3    O2 5046   1.869   3.873  12.339  0.7936 -0.2586 -0.5807
  333MPD2     C 5047   2.296   4.343  10.341 -0.4861 -0.0796  0.0830
  333MPD2    C1 5048   2.281   4.441  10.441 -0.4495  0.0709 -0.1704
  333MPD2    C2 5049   2.234   4.408  10.563  0.6957 -0.0615  0.4376
  333MPD2    C3 5050   2.196   4.281  10.598  0.1502 -0.4585  0.2533
  333MPD2    C4 5051   2.207   4.180  10.498 -0.4916  0.2706 -0.3151
  333MPD2    C5 5052   2.258   4.210  10.374  0.4413 -1.0620 -0.3893
  333MPD2     H 5053   2.229   4.487  10.637  0.7107 -1.7101  2.1739
  333MPD2    H1 5054   2.197   4.074  10.515 -0.1673  0.7872  3.0157
  333MPD2    H2 5055   2.351   4.373  10.252 -0.0668 -1.7162 -0.2109
  333MPD2    H3 5056   2.278   4.126  10.308 -0.0506 -1.7892  0.3677
  333MPD2     N 5057   2.159   4.251  10.733  0.0651 -1.5011  0.2106
  333MPD2    H5 5058   2.143   4.333  10.792  0.3809 -0.7803 -0.7026
  333MPD2    N1 5059   2.331   4.571  10.426 -0.1868 -0.6167 -0.7324
  333MPD2    H7 5060   2.386   4.586  10.342  0.9968  0.7334  0.2730
  334TMC3    C1 5061   2.422   0.042  10.486  0.0151  0.0244  0.4870
  334TMC3    C2 5062   2.535   0.022  10.413 -0.1839 -0.0606  0.1034
  334TMC3    C3 5063   2.632   0.113  10.404 -1.0701 -0.0967 -0.1691
  334TMC3    C4 5064   2.416   0.156  10.568 -0.2001 -0.0951 -0.1068
  334TMC3    C5 5065   2.522   0.240  10.571 -0.1684 -0.3865  0.0568
  334TMC3    C6 5066   2.630   0.221  10.489  0.4511 -0.0186  0.2754
  334TMC3     C 5067   2.324   4.671  10.519  0.3593 -0.4742  0.4330
  334TMC3     O 5068   2.248   4.695  10.614 -0.1424 -0.1171 -0.2276
  334TMC3     H 5069   2.544   4.666  10.358  2.9892  0.0088  0.4856
  334TMC3    H1 5070   2.331   0.171  10.634 -0.3539  0.0033 -0.3293
  334TMC3    H2 5071   2.712   0.292  10.492 -0.8514  1.5133 -0.5728
  334TMC3    C7 5072   2.514   0.371  10.632  0.2273 -0.0386  0.0887
  334TMC3    C8 5073   2.709   0.114  10.282  0.2332  0.0405  0.1574
  334TMC3    O1 5074   2.617   0.425  10.670 -0.5204  0.1987  0.2828
  334TMC3    O2 5075   2.673   0.038  10.194 -0.0448  0.3796  0.4339
  335TMC3    C1 5076   1.611   0.926  17.192 -0.4277  0.6086  0.6949
  335TMC3    C2 5077   1.528   0.824  17.139 -0.3232 -0.5491  0.4214
  335TMC3    C3 5078   1.553   0.694  17.170  0.1859 -0.1389 -0.0488
  335TMC3    C4 5079   1.713   0.893  17.284 -0.2112 -0.8221 -0.0318
  335TMC3    C5 5080   1.728   0.757  17.306  0.4720 -0.5420  0.4240
  335TMC3    C6 5081   1.648   0.659  17.259 -0.4496 -0.6078 -0.6404
  335TMC3     C 5082   1.576   1.065  17.162  0.4191 -0.3593  0.4102
  335TMC3     O 5083   1.459   1.083  17.132 -0.0690 -0.4350 -0.1997
  335TMC3     H 5084   1.445   0.853  17.075 -1.0180 -0.4618  1.3620
  335TMC3    H1 5085   1.780   0.967  17.327 -2.1049  0.7559  0.2006
  335TMC3    H2 5086   1.654   0.555  17.290  0.6317 -0.2113  0.4814
  335TMC3    C7 5087   1.861   0.706  17.343 -0.0253 -0.0527 -0.1841
  335TMC3    C8 5088   1.465   0.589  17.128  0.4114  0.4126  0.5153
  335TMC3    O1 5089   1.904   0.625  17.266 -0.3787  0.7209  0.1432
  335TMC3    O2 5090   1.415   0.517  17.213 -0.0874  0.0883 -0.0994
  336MPD2     C 5091   1.311   3.193  16.357  0.2309 -0.6579 -0.1252
  336MPD2    C1 5092   1.280   3.150  16.232 -0.0122  1.0558 -0.0419
  336MPD2    C2 5093   1.267   3.014  16.203 -0.4011  0.2547  0.0861
  336MPD2    C3 5094   1.275   2.918  16.298  0.2339  0.1829 -0.0206
  336MPD2    C4 5095   1.292   2.966  16.428  0.5624  0.1845  0.2525
  336MPD2    C5 5096   1.315   3.095  16.457  0.9577  0.2656  0.2535
  336MPD2     H 5097   1.244   2.977  16.103 -0.9363 -0.7708  0.5833
  336MPD2    H1 5098   1.296   2.899  16.513  1.9898  0.8978  0.7478
  336MPD2    H2 5099   1.313   3.296  16.389 -0.1512 -0.3550 -1.0808
  336MPD2    H3 5100   1.320   3.129  16.559  3.2109 -3.2057  1.2998
  336MPD2     N 5101   1.275   2.779  16.285 -0.0161 -0.3776 -0.2064
  336MPD2    H5 5102   1.293   2.723  16.368 -2.7327  0.0312  0.6619
  336MPD2    N1 5103   1.264   3.243  16.127 -0.3221 -0.2441 -0.6224
  336MPD2    H7 5104   1.199   3.223  16.052  0.6123 -0.3615 -1.3995
  337TMC3    C1 5105   1.330   3.427  16.001  0.0877 -0.1798  0.1982
  337TMC3    C2 5106   1.202   3.470  15.980  0.6999 -0.6083 -0.3733
  337TMC3    C3 5107   1.188   3.559  15.877 -0.0368 -0.3754  0.1580
  337TMC3    C4 5108   1.437   3.457  15.927  0.4708  0.1644 -0.4442
  337TMC3    C5 5109   1.416   3.548  15.825 -0.3408  0.2699 -0.8388
  337TMC3    C6 5110   1.294   3.600  15.803  0.5218  0.1639 -0.0420
  337TMC3     C 5111   1.361   3.342  16.110  1.2684 -0.0246 -0.7083
  337TMC3     O 5112   1.469   3.352  16.167  0.2332  0.1509 -0.5283
  337TMC3     H 5113   1.116   3.448  16.042  1.7170  0.5726  1.4700
  337TMC3    H1 5114   1.535   3.418  15.952 -1.1870 -3.2795  0.6504
  337TMC3    H2 5115   1.288   3.689  15.741 -0.4426  0.1047 -0.0315
  337TMC3    C7 5116   1.505   3.530  15.707  0.0555 -0.4445  0.1542
  337TMC3    C8 5117   1.066   3.629  15.872 -0.3546 -0.1608  0.6441
  337TMC3    O1 5118   1.562   3.418  15.706 -0.4109  0.0750  0.2308
  337TMC3    O2 5119   1.009   3.658  15.978  0.0769  0.4354  0.4952
  338MPD2     C 5120   0.981   1.954   0.980  0.1233 -0.4790 -0.2829
  338MPD2    C1 5121   0.963   2.037   0.870 -0.2633 -0.9874 -0.0887
  338MPD2    C2 5122   0.836   2.092   0.862 -1.2403 -0.3237  0.5836
  338MPD2    C3 5123   0.747   2.102   0.972 -0.3971  0.4208 -0.3190
  338MPD2    C4 5124   0.772   2.019   1.079 -0.3267  0.5018  0.5292
  338MPD2    C5 5125   0.890   1.949   1.084 -0.0146 -0.0356  0.4102
  338MPD2     H 5126   0.809   2.154   0.777  0.3908  1.3292  1.2652
  338MPD2    H1 5127   0.718   2.005   1.172 -2.3733  1.8750 -0.4477
  338MPD2    H2 5128   1.078   1.907   0.997  0.7576  0.6499 -0.7448
  338MPD2    H3 5129   0.910   1.883   1.167  3.3797 -0.3446 -0.6525
  338MPD2     N 5130   0.631   2.181   0.949 -1.0920  0.8801  0.2485
  338MPD2    H5 5131   0.633   2.230   0.860 -1.4766 -1.6365 -1.1671
  338MPD2    N1 5132   1.067   2.054   0.769 -0.5666 -0.5214  0.4178
  338MPD2    H7 5133   1.152   2.002   0.790  0.3642  1.2295  0.9583
  339TMC3    C1 5134   0.466   2.333   0.998 -0.5558 -1.1028 -0.2187
  339TMC3    C2 5135   0.449   2.438   1.087  0.4213 -0.3037 -0.2739
  339TMC3    C3 5136   0.448   2.568   1.043 -0.0957  0.8285  0.4517
  339TMC3    C4 5137   0.478   2.355   0.862 -0.5114 -0.0439  0.3254
  339TMC3    C5 5138   0.468   2.491   0.817  0.0656 -0.3992  0.1532
  339TMC3    C6 5139   0.459   2.600   0.908 -0.8812  0.3748  0.8288
  339TMC3     C 5140   0.542   2.219   1.051 -0.3422  0.2089 -0.3502
  339TMC3     O 5141   0.525   2.188   1.166 -0.0743  0.2176  0.8182
  339TMC3     H 5142   0.433   2.412   1.191  2.5343 -0.2258  0.0630
  339TMC3    H1 5143   0.491   2.283   0.782  1.6155  0.5791  0.1246
  339TMC3    H2 5144   0.461   2.706   0.883 -0.0800 -0.2877 -1.9608
  339TMC3    C7 5145   0.513   2.526   0.687  0.1275  0.0038 -0.5818
  339TMC3    C8 5146   0.453   2.669   1.143  0.4998  0.0091 -0.7302
  339TMC3    O1 5147   0.603   2.466   0.630 -0.7608  0.7318 -0.4302
  339TMC3    O2 5148   0.400   2.779   1.114 -0.5461 -0.3308  0.0093
  340MPD2     C 5149   1.947   1.575  10.053 -0.8554 -0.1980  0.1939
  340MPD2    C1 5150   1.941   1.440  10.031  0.1696 -0.9125  0.1234
  340MPD2    C2 5151   1.983   1.353  10.124  0.0947  0.1674  0.1617
  340MPD2    C3 5152   2.024   1.397  10.249  0.0531  0.5076 -0.2412
  340MPD2    C4 5153   2.049   1.528  10.269  0.4290  0.8243 -0.4111
  340MPD2    C5 5154   2.006   1.614  10.172  0.2648 -0.0510 -0.4941
  340MPD2     H 5155   1.989   1.247  10.101 -1.9389  0.4706 -1.7406
  340MPD2    H1 5156   2.107   1.558  10.355  0.4733 -0.0381 -0.1375
  340MPD2    H2 5157   1.930   1.656   9.982 -0.3421  0.2985  0.6310
  340MPD2    H3 5158   2.034   1.718  10.183 -0.0278  0.0407 -0.6173
  340MPD2     N 5159   2.066   1.310  10.355 -0.0689  0.0602  0.2429
  340MPD2    H5 5160   2.110   1.346  10.439  0.5169  0.2970 -0.1686
  340MPD2    N1 5161   1.883   1.392   9.913  0.4476 -0.0676 -0.2855
  340MPD2    H7 5162   1.868   1.457   9.837 -0.0172 -0.6396 -0.6734
  341TMC3    C1 5163   1.801   1.238   9.753  0.9090 -0.3340  0.7788
  341TMC3    C2 5164   1.716   1.136   9.737 -0.1725  0.9637 -0.4045
  341TMC3    C3 5165   1.707   1.083   9.613 -1.4332  0.2176 -0.1479
  341TMC3    C4 5166   1.864   1.299   9.651  0.4279  0.2830  0.6872
  341TMC3    C5 5167   1.852   1.246   9.529  0.8830  0.2049 -0.0139
  341TMC3    C6 5168   1.774   1.133   9.508  0.0564 -0.0046 -0.2834
  341TMC3     C 5169   1.838   1.268   9.891  0.3400 -0.3002 -0.2229
  341TMC3     O 5170   1.841   1.164   9.956 -0.0431  0.2728  0.0770
  341TMC3     H 5171   1.671   1.077   9.816 -1.7804 -0.2779 -2.2332
  341TMC3    H1 5172   1.935   1.375   9.680 -0.1007  1.4475 -1.0726
  341TMC3    H2 5173   1.778   1.085   9.411  1.9200 -0.5772  0.0757
  341TMC3    C7 5174   1.956   1.266   9.432 -0.3752 -0.3303  0.7649
  341TMC3    C8 5175   1.686   0.940   9.619  0.5220 -1.5098 -0.8014
  341TMC3    O1 5176   1.991   1.170   9.362  0.0240  0.4169  0.7492
  341TMC3    O2 5177   1.738   0.880   9.710  0.1263 -0.2300  0.3857
  342MPD2     C 5178   4.240   3.283  17.725 -0.2725  0.7621  0.3096
  342MPD2    C1 5179   4.332   3.300  17.622 -0.4959 -0.8597 -0.1901
  342MPD2    C2 5180   4.361   3.431  17.583 -0.3726 -0.0558  0.1809
  342MPD2    C3 5181   4.306   3.537  17.645 -0.3007 -0.0418  0.9031
  342MPD2    C4 5182   4.214   3.516   0.002  0.2612 -0.5100 -0.5338
  342MPD2    C5 5183   4.186   3.393   0.036 -0.3481 -0.3862  0.3040
  342MPD2     H 5184   4.422   3.451  17.495 -1.8017  1.8754 -0.3758
  342MPD2    H1 5185   4.152   3.598   0.036  3.5145  0.6073  2.6451
  342MPD2    H2 5186   4.203   3.189   0.018 -0.6581  2.0203  3.0420
  342MPD2    H3 5187   4.112   3.377   0.114  0.9835 -3.6205  0.8975
  342MPD2     N 5188   4.328   3.673  17.614  0.0992  0.0516  0.0703
  342MPD2    H5 5189   4.275   3.743  17.665 -0.0096 -0.6128  0.8768
  342MPD2    N1 5190   4.391   3.187  17.551 -0.0831  0.2648 -0.3529
  342MPD2    H7 5191   4.451   3.203  17.472 -0.7155 -1.1513 -1.1175
  343TMC3    C1 5192   4.393   2.964  17.474 -0.2648 -0.9873 -0.2808
  343TMC3    C2 5193   4.505   2.975  17.405 -0.6632 -0.7490 -0.3276
  343TMC3    C3 5194   4.551   2.859  17.339  0.1300  0.5776 -0.5568
  343TMC3    C4 5195   4.330   2.842  17.488 -0.1298  0.8145 -0.8816
  343TMC3    C5 5196   4.371   2.741  17.411 -0.1103  0.1928  0.7697
  343TMC3    C6 5197   4.483   2.740  17.343  0.0839 -0.1308 -0.2345
  343TMC3     C 5198   4.367   3.058  17.588 -0.6081 -0.0295 -0.1749
  343TMC3     O 5199   4.318   3.004  17.683  0.4059  0.5356 -0.2128
  343TMC3     H 5200   4.564   3.066  17.397 -1.7750  0.0393  0.4427
  343TMC3    H1 5201   4.236   2.835  17.541  1.3328  1.2558  1.7708
  343TMC3    H2 5202   4.521   2.651  17.293  1.4935 -0.8318  2.1215
  343TMC3    C7 5203   4.304   2.609  17.415 -0.1342  0.6761  0.1165
  343TMC3    C8 5204   4.693   2.852  17.342  0.4636  0.3418 -0.1016
  343TMC3    O1 5205   4.224   2.590  17.506 -0.5929  0.0381 -0.1174
  343TMC3    O2 5206   0.020   2.914  17.428  0.6525  0.5508 -0.1596
  344MPD2     C 5207   0.617   3.641  10.796 -0.2406 -0.1891 -0.4991
  344MPD2    C1 5208   0.637   3.525  10.724  0.3815 -0.2843  0.1133
  344MPD2    C2 5209   0.706   3.536  10.602 -0.1385 -0.2447 -0.4216
  344MPD2    C3 5210   0.744   3.659  10.549 -0.1341  0.3973  0.1895
  344MPD2    C4 5211   0.712   3.775  10.620 -0.5075 -0.3257 -0.2961
  344MPD2    C5 5212   0.654   3.764  10.742  0.4739 -0.2364  0.0646
  344MPD2     H 5213   0.736   3.447  10.549  2.7522  0.1508  0.5310
  344MPD2    H1 5214   0.744   3.874  10.589  3.7098 -1.2074  1.2384
  344MPD2    H2 5215   0.564   3.649  10.890 -1.5942 -0.5670 -1.2363
  344MPD2    H3 5216   0.660   3.858  10.794 -2.3650 -0.3796  0.6232
  344MPD2     N 5217   0.814   3.668  10.426 -0.4366 -0.0744  0.0790
  344MPD2    H5 5218   0.843   3.581  10.382  0.7351  0.4321 -0.1493
  344MPD2    N1 5219   0.590   3.402  10.772 -0.1030 -0.2821 -0.2804
  344MPD2    H7 5220   0.582   3.329  10.701  1.2799 -0.4825 -0.2426
  345TMC3    C1 5221   0.923   3.763  10.248 -0.2129 -0.7400  0.3988
  345TMC3    C2 5222   1.046   3.728  10.291 -0.5778 -0.4829 -0.1600
  345TMC3    C3 5223   1.148   3.814  10.273  0.2550 -0.0947  0.0371
  345TMC3    C4 5224   0.911   3.869  10.162 -0.1499 -1.1939 -0.7309
  345TMC3    C5 5225   1.021   3.945  10.127  1.0099  0.6895  0.1786
  345TMC3    C6 5226   1.142   3.921  10.186  0.6696  0.1061 -0.6395
  345TMC3     C 5227   0.827   3.782  10.353 -0.1447 -0.0511 -0.1460
  345TMC3     O 5228   0.790   3.896  10.369  0.1517  0.6618 -0.4368
  345TMC3     H 5229   1.058   3.655  10.369  1.6087 -1.3448 -1.3210
  345TMC3    H1 5230   0.821   3.920  10.130  0.8721 -0.7151 -2.8686
  345TMC3    H2 5231   1.224   3.984  10.153  1.3333 -0.8492 -0.8186
  345TMC3    C7 5232   1.018   4.079  10.069 -0.2328  0.2788 -0.4455
  345TMC3    C8 5233   1.208   3.859  10.395  0.1891 -0.4088 -0.1095
  345TMC3    O1 5234   1.111   4.158  10.088  0.0783 -0.2520  0.0942
  345TMC3    O2 5235   1.214   3.982  10.399  0.3935 -0.1599 -0.1874
  346MPD2     C 5236   0.368   0.032  14.184 -0.3668  0.2929  0.1164
  346MPD2    C1 5237   0.377   0.143  14.108  0.5548  1.1230  1.1071
  346MPD2    C2 5238   0.384   0.272  14.172 -0.0918  0.2378  0.4449
  346MPD2    C3 5239   0.391   0.281  14.308 -0.3511 -0.5246 -0.1516
  346MPD2    C4 5240   0.375   0.166  14.379 -0.5796 -0.1343 -0.2282
  346MPD2    C5 5241   0.356   0.042  14.318  0.0035 -0.5540  0.1697
  346MPD2     H 5242   0.394   0.359  14.108 -1.6078 -0.7389 -1.1052
  346MPD2    H1 5243   0.366   0.160  14.487  0.7066 -2.8236 -0.2667
  346MPD2    H2 5244   0.369   4.669  14.141 -1.8001 -0.4091  1.7001
  346MPD2    H3 5245   0.343   4.698  14.390 -1.4299 -0.1798  0.3259
  346MPD2     N 5246   0.420   0.403  14.363  0.1470 -0.7165 -0.0807
  346MPD2    H5 5247   0.424   0.485  14.303 -0.3412  0.5114  1.5506
  346MPD2    N1 5248   0.380   0.143  13.971  0.3860 -0.5738 -0.1341
  346MPD2    H7 5249   0.370   0.235  13.930 -1.9683 -0.7675  0.0051
  347TMC3    C1 5250   0.486   0.561  14.512 -0.3970 -0.7017 -0.1248
  347TMC3    C2 5251   0.612   0.570  14.548  0.3408  0.1393  0.2133
  347TMC3    C3 5252   0.699   0.647  14.480  0.6114 -0.5275 -0.0731
  347TMC3    C4 5253   0.436   0.639  14.415  0.4043  0.6779 -0.1795
  347TMC3    C5 5254   0.520   0.730  14.360  0.4038 -0.1961 -0.2299
  347TMC3    C6 5255   0.654   0.733  14.381  0.0074 -0.5613  0.2990
  347TMC3     C 5256   0.450   0.422  14.495  0.4862 -0.3473  0.3421
  347TMC3     O 5257   0.473   0.349  14.592  0.4283  0.3587 -0.4985
  347TMC3     H 5258   0.652   0.491  14.610  0.8345 -0.4881 -0.9096
  347TMC3    H1 5259   0.333   0.630  14.383  0.7423  1.0884 -1.3765
  347TMC3    H2 5260   0.718   0.792  14.316 -1.6187  2.1604  1.1643
  347TMC3    C7 5261   0.461   0.833  14.271 -0.8090 -0.2953  0.1337
  347TMC3    C8 5262   0.840   0.620  14.489  0.1808  0.3967 -0.5884
  347TMC3    O1 5263   0.355   0.803  14.219 -0.0725 -0.4919  0.0285
  347TMC3    O2 5264   0.873   0.522  14.556  0.0603  0.0668 -0.0099
  348MPD2     C 5265   4.434   0.143  11.732 -0.3451  0.4771  0.3705
  348MPD2    C1 5266   4.500   0.109  11.616 -0.1847  0.0898 -0.3517
  348MPD2    C2 5267   4.459   0.161  11.502 -0.1034 -0.5292 -0.6236
  348MPD2    C3 5268   4.355   0.250  11.497  0.2273  0.0957  0.0304
  348MPD2    C4 5269   4.287   0.283  11.612  0.5047 -0.4062  0.0593
  348MPD2    C5 5270   4.318   0.222  11.726  0.1502  0.3501 -0.3840
  348MPD2     H 5271   4.502   0.132  11.407 -0.2362 -2.6189 -0.0293
  348MPD2    H1 5272   4.211   0.360  11.618  0.7181 -0.1711 -0.3039
  348MPD2    H2 5273   4.441   0.102  11.831  0.3277 -0.6250 -0.1401
  348MPD2    H3 5274   4.255   0.243  11.811 -0.4087  1.0076 -0.9660
  348MPD2     N 5275   4.337   0.334  11.383  0.8380 -0.3366 -0.5392
  348MPD2    H5 5276   4.264   0.403  11.390  0.8102 -0.5163  1.0276
  348MPD2    N1 5277   4.608   0.016  11.619 -0.2903 -0.2904 -0.1150
  348MPD2    H7 5278   4.630   4.721  11.525 -3.2669  0.5473 -1.1249
  349TMC3    C1 5279   0.015   4.582  11.676  0.7562 -0.1656  0.8768
  349TMC3    C2 5280   0.009   4.481  11.764  0.6369 -0.1966 -0.3530
  349TMC3    C3 5281   4.714   4.355  11.715  0.4229 -0.6741  0.1011
  349TMC3    C4 5282   0.002   4.556  11.542 -0.1848  0.0602  0.3935
  349TMC3    C5 5283   4.677   4.438  11.502 -0.2090  0.1898 -0.3993
  349TMC3    C6 5284   4.650   4.340  11.590  0.4442 -0.9565  0.3279
  349TMC3     C 5285   4.672   4.702  11.721  0.0767 -0.1612 -0.0253
  349TMC3     O 5286   4.648   4.718  11.841 -0.6419 -0.6051  0.2686
  349TMC3     H 5287   0.021   4.496  11.871  0.6036  1.2947 -0.5575
  349TMC3    H1 5288   0.023   4.636  11.472  0.2888  0.1090  0.5937
  349TMC3    H2 5289   4.591   4.252  11.567  1.2358 -1.4647  0.2087
  349TMC3    C7 5290   4.577   4.446  11.397  0.5379  0.3751 -0.1235
  349TMC3    C8 5291   4.698   4.255  11.818 -0.1783  0.7661 -0.4225
  349TMC3    O1 5292   4.474   4.385  11.421 -0.3156  0.6995 -0.0857
  349TMC3    O2 5293   4.709   4.289  11.933  0.3755  0.2255  0.1254
  350MPD2     C 5294   3.455   3.604  10.741  0.6133 -0.0845 -0.2329
  350MPD2    C1 5295   3.330   3.538  10.752  0.3230 -0.0749 -1.0662
  350MPD2    C2 5296   3.233   3.575  10.847 -0.7927 -0.5966  0.0401
  350MPD2    C3 5297   3.262   3.662  10.948 -0.5605  0.1669 -0.5134
  350MPD2    C4 5298   3.391   3.721  10.947  0.4247  0.0530 -0.2745
  350MPD2    C5 5299   3.482   3.698  10.843  0.3098 -0.2650  0.2655
  350MPD2     H 5300   3.134   3.531  10.846 -1.1404  0.1835  1.7381
  350MPD2    H1 5301   3.417   3.801  11.015 -0.6538 -0.6367  0.9555
  350MPD2    H2 5302   3.514   3.581  10.653  1.2931 -2.2291  0.7873
  350MPD2    H3 5303   3.576   3.752  10.842  1.0599 -1.5740  0.8811
  350MPD2     N 5304   3.170   3.685  11.053 -0.4355  0.8165 -0.3389
  350MPD2    H5 5305   3.091   3.622  11.049 -3.4328  4.6905 -1.4079
  350MPD2    N1 5306   3.279   3.463  10.642  0.0609  0.0173  0.2255
  350MPD2    H7 5307   3.183   3.431  10.645  0.2000 -0.6568 -2.2160
  351TMC3    C1 5308   3.248   3.343  10.448 -0.3578 -0.3318  0.0902
  351TMC3    C2 5309   3.275   3.213  10.402 -0.6985  0.2683 -0.5927
  351TMC3    C3 5310   3.218   3.173  10.289 -0.7686  0.0989 -0.0248
  351TMC3    C4 5311   3.162   3.430  10.381 -0.0691 -0.0525 -0.1376
  351TMC3    C5 5312   3.109   3.382  10.265 -0.2656  0.1620 -0.1405
  351TMC3    C6 5313   3.141   3.255  10.212 -0.1573  0.2742 -0.4045
  351TMC3     C 5314   3.344   3.403  10.542 -0.4238  0.4829 -0.3696
  351TMC3     O 5315   3.457   3.365  10.543 -0.1254 -0.1901 -0.8333
  351TMC3     H 5316   3.347   3.145  10.447 -0.4393 -0.1224 -1.5970
  351TMC3    H1 5317   3.122   3.515  10.436  0.4689  1.5750 -2.2794
  351TMC3    H2 5318   3.114   3.231  10.110 -2.3261  0.5748  0.1056
  351TMC3    C7 5319   3.009   3.456  10.202 -0.1148 -0.9242 -0.0889
  351TMC3    C8 5320   3.275   3.058  10.232  0.9414  0.5485  0.4907
  351TMC3    O1 5321   3.015   3.575  10.225  0.0666  0.1109  0.4091
  351TMC3    O2 5322   3.282   3.047  10.109  0.2743  0.1709 -0.0840
  352MPD2     C 5323   1.497   0.034   1.410 -0.4344 -0.8510  0.6861
  352MPD2    C1 5324   1.389   4.719   1.330  0.4468  0.4140 -0.6481
  352MPD2    C2 5325   1.338   4.596   1.347  0.4350 -0.7029 -0.0282
  352MPD2    C3 5326   1.387   4.509   1.443  0.0076 -0.6739 -0.4048
  352MPD2    C4 5327   1.493   4.554   1.521 -0.1286  0.1938  0.5212
  352MPD2    C5 5328   1.538   4.685   1.511 -0.2728  0.4125  0.6968
  352MPD2     H 5329   1.261   4.557   1.281  0.7952 -0.6597 -0.4731
  352MPD2    H1 5330   1.528   4.495   1.605  1.8803  1.1645  0.3652
  352MPD2    H2 5331   1.539   0.133   1.391 -0.7969 -1.0788 -1.3113
  352MPD2    H3 5332   1.627   4.712   1.566 -0.9465 -1.0699  2.5298
  352MPD2     N 5333   1.339   4.375   1.464 -0.3808 -0.2643  0.1864
  352MPD2    H5 5334   1.366   4.337   1.554 -1.1324  0.8168  0.8542
  352MPD2    N1 5335   1.348   0.070   1.224 -0.1166 -0.2730 -0.5971
  352MPD2    H7 5336   1.414   0.143   1.203 -0.2417  0.4606  1.5484
  353TMC3    C1 5337   1.246   4.159   1.416 -1.5779 -0.3858  0.7498
  353TMC3    C2 5338   1.345   4.092   1.485 -0.1434  0.3973 -0.1972
  353TMC3    C3 5339   1.340   3.956   1.482  0.4531  0.4906  0.0501
  353TMC3    C4 5340   1.156   4.092   1.339  0.5249  0.0682 -0.2478
  353TMC3    C5 5341   1.144   3.952   1.352  0.0036  0.1979  0.1288
  353TMC3    C6 5342   1.226   3.887   1.437  0.2737  0.0130 -0.1081
  353TMC3     C 5343   1.267   4.292   1.371 -0.3709 -0.0742  0.1373
  353TMC3     O 5344   1.249   4.318   1.249  0.0419  0.0375  0.4253
  353TMC3     H 5345   1.425   4.142   1.540 -0.6401 -0.4476  1.3040
  353TMC3    H1 5346   1.095   4.149   1.269  0.5365 -1.2686 -1.3520
  353TMC3    H2 5347   1.200   3.783   1.448  1.3610 -0.2343  0.1626
  353TMC3    C7 5348   1.072   3.876   1.251 -0.1083 -0.4516  0.5316
  353TMC3    C8 5349   1.447   3.886   1.550  0.3497  0.5612  0.2306
  353TMC3    O1 5350   1.122   3.776   1.207  0.2503  0.7028 -0.7869
  353TMC3    O2 5351   1.513   3.950   1.633 -0.1066 -0.9833 -0.4040
  354TMC3    C1 5352   3.290   1.354  13.458 -0.0332  0.0517 -0.8892
  354TMC3    C2 5353   3.361   1.470  13.466  0.4835 -0.6827 -0.0405
  354TMC3    C3 5354   3.400   1.531  13.348  0.6499 -0.1667 -0.1112
  354TMC3    C4 5355   3.263   1.297  13.340 -0.6702 -0.3136  0.5260
  354TMC3    C5 5356   3.291   1.365  13.224  0.8349  0.1634 -0.0931
  354TMC3    C6 5357   3.364   1.479  13.223 -0.7734 -0.0063  0.5581
  354TMC3     C 5358   3.276   1.271  13.574  0.3016  0.2865 -0.3849
  354TMC3     O 5359   3.303   1.154  13.555  0.7307 -0.9356 -0.0859
  354TMC3     H 5360   3.389   1.513  13.561 -0.4899  0.7096 -0.3825
  354TMC3    H1 5361   3.198   1.210  13.339 -0.9114 -0.1478  1.7729
  354TMC3    H2 5362   3.369   1.538  13.132 -0.6269 -0.5237  0.2347
  354TMC3    C7 5363   3.291   1.279  13.107 -0.2125  0.9474 -0.4905
  354TMC3    C8 5364   3.468   1.658  13.361 -0.3786  0.0764 -0.2808
  354TMC3    O1 5365   3.222   1.180  13.109  0.4439  0.6034 -0.2270
  354TMC3    O2 5366   3.464   1.707  13.475 -0.3244 -0.3160  0.1949
  355MPD2     C 5367   4.045   2.153  11.489 -0.0052 -0.0402 -0.4619
  355MPD2    C1 5368   4.098   2.273  11.535 -0.0845  0.2475  0.5699
  355MPD2    C2 5369   4.160   2.277  11.662  0.2122 -0.3905  0.0164
  355MPD2    C3 5370   4.168   2.161  11.740 -0.7214 -0.6750  0.7413
  355MPD2    C4 5371   4.109   2.040  11.690 -0.1384  0.2804  0.4565
  355MPD2    C5 5372   4.050   2.043  11.568 -0.1536  0.3848 -0.7189
  355MPD2     H 5373   4.188   2.375  11.701  1.3446 -1.8152  2.7686
  355MPD2    H1 5374   4.117   1.945  11.741 -2.4638 -1.1746 -1.8520
  355MPD2    H2 5375   4.001   2.142  11.390 -0.6656  3.4704 -0.5362
  355MPD2    H3 5376   4.006   1.951  11.534 -0.2124 -0.0968  0.6779
  355MPD2     N 5377   4.235   2.160  11.865  0.5498  0.0944  0.1854
  355MPD2    H5 5378   4.279   2.250  11.886  3.3825 -1.1843 -0.3544
  355MPD2    N1 5379   4.088   2.386  11.451 -0.1079 -0.4055 -0.0812
  355MPD2    H7 5380   4.035   2.378  11.365  1.6363  2.7666 -1.4445
  356TMC3    C1 5381   4.352   2.099  12.054 -0.6781 -0.3306  0.2574
  356TMC3    C2 5382   4.443   2.172  11.996 -0.3892  0.8748 -0.5433
  356TMC3    C3 5383   4.497   2.273  12.070  0.3275 -0.3176 -0.7531
  356TMC3    C4 5384   4.293   2.116  12.176  0.0860  0.2943  0.3394
  356TMC3    C5 5385   4.336   2.226  12.240 -0.2618 -0.2655 -0.0091
  356TMC3    C6 5386   4.437   2.304  12.192  0.2315  0.1098 -0.4450
  356TMC3     C 5387   4.265   2.056  11.948  0.1277  0.0201  0.6518
  356TMC3     O 5388   4.221   1.938  11.941  0.1774 -0.6428  0.2373
  356TMC3     H 5389   4.488   2.134  11.905 -0.7067  0.8310 -0.6810
  356TMC3    H1 5390   4.218   2.047  12.214  1.3237 -0.5638  1.2159
  356TMC3    H2 5391   4.485   2.384  12.248  1.8730 -1.5598  0.5084
  356TMC3    C7 5392   4.283   2.247  12.372 -0.1614 -0.5626 -0.0811
  356TMC3    C8 5393   4.566   2.369  11.992 -0.2491 -0.7249  0.1579
  356TMC3    O1 5394   4.237   2.153  12.435  0.0212  0.4280 -0.4776
  356TMC3    O2 5395   4.644   2.325  11.909 -0.1485  0.5180  0.5431
  357MPD2     C 5396   3.295   1.437   0.817  0.1839  0.2930 -0.0208
  357MPD2    C1 5397   3.185   1.452   0.902 -0.4493  0.1112  0.2331
  357MPD2    C2 5398   3.060   1.433   0.842 -0.0492  0.0472  0.9424
  357MPD2    C3 5399   3.040   1.408   0.704  0.1008  0.2340 -0.0945
  357MPD2    C4 5400   3.150   1.409   0.624 -0.6244 -0.2994  0.5957
  357MPD2    C5 5401   3.273   1.427   0.682  0.4561 -0.5181 -0.1628
  357MPD2     H 5402   2.977   1.438   0.911 -0.7053 -0.7790  0.2133
  357MPD2    H1 5403   3.143   1.395   0.517  1.6443  3.1038  0.0003
  357MPD2    H2 5404   3.398   1.439   0.850 -0.1510  3.0016  0.8826
  357MPD2    H3 5405   3.354   1.420   0.610  1.6479  1.1611  1.0119
  357MPD2     N 5406   2.914   1.389   0.639  0.6376 -0.5352 -0.1751
  357MPD2    H5 5407   2.915   1.374   0.538 -0.6338 -0.7952 -0.1558
  357MPD2    N1 5408   3.214   1.472   1.040 -0.0233 -0.1283  0.3066
  357MPD2    H7 5409   3.311   1.459   1.068 -0.2346 -0.0465  1.0733
  358TMC3    C1 5410   3.181   1.481   1.265 -0.8489  0.6136  0.7743
  358TMC3    C2 5411   3.278   1.379   1.284  0.2019 -0.3769 -0.7709
  358TMC3    C3 5412   3.341   1.358   1.402 -0.1920  0.2026  0.5036
  358TMC3    C4 5413   3.144   1.555   1.370 -0.1922  0.0410 -0.9762
  358TMC3    C5 5414   3.213   1.536   1.488  0.0055 -0.0501 -0.2409
  358TMC3    C6 5415   3.309   1.439   1.510  0.1861 -0.2451 -0.7536
  358TMC3     C 5416   3.121   1.503   1.134 -0.3673  0.9030 -0.1942
  358TMC3     O 5417   3.020   1.563   1.111  0.1225 -0.0805  0.1731
  358TMC3     H 5418   3.303   1.321   1.195 -2.1053  0.5327 -1.9934
  358TMC3    H1 5419   3.077   1.636   1.342  0.1142  1.0008  1.0347
  358TMC3    H2 5420   3.373   1.437   1.598  0.1902 -0.7349 -0.7675
  358TMC3    C7 5421   3.197   1.635   1.589 -0.5106 -0.2049 -0.4365
  358TMC3    C8 5422   3.395   1.228   1.421  0.0806  0.0589 -0.0310
  358TMC3    O1 5423   3.140   1.737   1.543 -0.2600 -0.3948 -0.6432
  358TMC3    O2 5424   3.474   1.209   1.511 -0.1320 -0.2355  0.0359
  359MPD2     C 5425   3.289   0.734  11.976 -1.1296 -0.1785  0.4971
  359MPD2    C1 5426   3.403   0.661  11.985  0.3787  0.7657 -0.3793
  359MPD2    C2 5427   3.417   0.571  12.084 -0.1131 -0.0648 -0.2924
  359MPD2    C3 5428   3.309   0.537  12.167 -0.1836  0.4074 -0.0167
  359MPD2    C4 5429   3.189   0.601  12.150 -0.4253  0.0140  0.3699
  359MPD2    C5 5430   3.182   0.704  12.060  0.4549 -0.3146  0.2001
  359MPD2     H 5431   3.514   0.526  12.105  0.3099  0.3257 -1.4007
  359MPD2    H1 5432   3.101   0.583  12.209  0.9239 -1.2045  2.0123
  359MPD2    H2 5433   3.272   0.807  11.898 -1.7826  0.0166  0.8260
  359MPD2    H3 5434   3.101   0.776  12.056  0.7432 -0.1538 -2.9705
  359MPD2     N 5435   3.316   0.435  12.265 -0.6068  0.2714 -0.3362
  359MPD2    H5 5436   3.231   0.407  12.312 -2.4475  1.4843 -2.9097
  359MPD2    N1 5437   3.517   0.680  11.905 -0.1665  0.6256 -0.0703
  359MPD2    H7 5438   3.600   0.626  11.927 -1.4567 -0.5565  1.7749
  360TMC3    C1 5439   3.658   0.779  11.743 -0.3907  0.1159  0.7411
  360TMC3    C2 5440   3.775   0.782  11.816 -0.1866 -0.0043 -0.5424
  360TMC3    C3 5441   3.888   0.732  11.753 -0.3299 -0.4193 -0.0539
  360TMC3    C4 5442   3.661   0.765  11.602 -0.3000  0.1452  0.4079
  360TMC3    C5 5443   3.779   0.718  11.547 -0.3301  0.4211  0.3196
  360TMC3    C6 5444   3.892   0.706  11.620 -0.7294  0.0042  0.4746
  360TMC3     C 5445   3.525   0.772  11.802  0.1984 -0.3034  0.1952
  360TMC3     O 5446   3.432   0.816  11.730  0.3972  0.0254  0.6970
  360TMC3     H 5447   3.770   0.787  11.924  1.3284 -2.3539 -0.3472
  360TMC3    H1 5448   3.563   0.772  11.556  0.1350  0.3357 -0.5031
  360TMC3    H2 5449   3.971   0.648  11.574  0.7782  2.7227 -0.3315
  360TMC3    C7 5450   3.788   0.683  11.400 -0.3522  0.1534  0.1716
  360TMC3    C8 5451   3.990   0.665  11.842  0.2232  0.4104  0.5162
  360TMC3    O1 5452   3.896   0.664  11.352 -0.0437  0.4110  0.1451
  360TMC3    O2 5453   3.963   0.658  11.960  0.5489  0.0721  0.5563
  361MPD2     C 5454   0.936   4.138  16.209  0.6481 -0.6024  0.5691
  361MPD2    C1 5455   0.869   4.173  16.324  0.5531  0.1682  0.6439
  361MPD2    C2 5456   0.927   4.127  16.440 -0.0603  0.2192 -0.7031
  361MPD2    C3 5457   1.026   4.029  16.443 -0.0615 -0.1202 -0.0347
  361MPD2    C4 5458   1.078   3.991  16.323 -1.1718 -0.6503 -0.3313
  361MPD2    C5 5459   1.029   4.043  16.209 -0.5173 -0.1573 -0.2516
  361MPD2     H 5460   0.886   4.160  16.535 -1.5625  0.8757 -1.5904
  361MPD2    H1 5461   1.149   3.909  16.317  0.2766  0.6892 -1.3529
  361MPD2    H2 5462   0.922   4.186  16.112 -0.5033 -1.1121  0.4856
  361MPD2    H3 5463   1.065   4.008  16.112  0.7170 -0.4252  0.2979
  361MPD2     N 5464   1.076   3.967  16.561  1.0770  0.2690  0.0407
  361MPD2    H5 5465   1.131   3.883  16.547 -1.5680 -1.3989 -0.3212
  361MPD2    N1 5466   0.763   4.267  16.339 -0.4511  0.1459 -0.1660
  361MPD2    H7 5467   0.728   4.284  16.433  1.9110  1.0471  0.5457
  362TMC3    C1 5468   0.582   4.396  16.266  0.1638  0.3321 -0.4269
  362TMC3    C2 5469   0.520   4.393  16.385 -1.0965  0.0193 -0.1464
  362TMC3    C3 5470   0.405   4.463  16.406 -0.4922  0.0997  0.2505
  362TMC3    C4 5471   0.533   4.468  16.162  1.0297 -0.4547  0.2408
  362TMC3    C5 5472   0.415   4.540  16.179  0.1325 -0.0191  0.2884
  362TMC3    C6 5473   0.354   4.541  16.302 -0.1181 -0.1443  0.6802
  362TMC3     C 5474   0.697   4.310  16.232 -0.1521  0.1065  0.3536
  362TMC3     O 5475   0.717   4.302  16.112 -0.6252  0.4770 -0.2802
  362TMC3     H 5476   0.552   4.329  16.466  0.8351 -0.1230 -1.0160
  362TMC3    H1 5477   0.597   4.483  16.076  0.4825  1.7626  0.2213
  362TMC3    H2 5478   0.261   4.596  16.314  0.3619  1.4129 -2.6073
  362TMC3    C7 5479   0.360   4.630  16.082  0.3387 -0.0003  0.3157
  362TMC3    C8 5480   0.306   4.418  16.506 -0.2983  0.4336  0.0622
  362TMC3    O1 5481   0.326   0.002  16.126 -0.3519  0.0762  0.4560
  362TMC3    O2 5482   0.348   4.314  16.559  0.5010 -0.2347 -0.0615
  363TMC3    C1 5483   4.061   1.777   9.871  0.2542  0.0606 -0.1946
  363TMC3    C2 5484   4.026   1.711   9.981 -0.7384 -0.0259 -0.0584
  363TMC3    C3 5485   3.958   1.773  10.077 -0.0961 -0.2040  0.6910
  363TMC3    C4 5486   4.046   1.919   9.858  0.3065  0.8147  0.1515
  363TMC3    C5 5487   3.983   1.981   9.964 -0.4592 -0.3455  0.5643
  363TMC3    C6 5488   3.947   1.910  10.082  0.0458  1.1239  1.2038
  363TMC3     C 5489   4.136   1.708   9.765 -0.2169  0.3460 -0.1835
  363TMC3     O 5490   4.200   1.608   9.795 -0.3181 -0.3069  0.5270
  363TMC3     H 5491   4.015   1.603   9.980  1.9640 -0.2958 -0.9426
  363TMC3    H1 5492   4.071   1.975   9.768 -1.0178  1.4997  0.2013
  363TMC3    H2 5493   3.900   1.965  10.163 -0.4269  1.8231  0.4588
  363TMC3    C7 5494   3.946   2.122   9.945 -0.2587  0.4811 -0.5897
  363TMC3    C8 5495   3.931   1.703  10.198 -0.4092  0.5529  0.0292
  363TMC3    O1 5496   4.006   2.189   9.859  0.7058  0.1396  0.2194
  363TMC3    O2 5497   3.858   1.767  10.279  0.1530  0.3613 -0.2369
  364MPD2     C 5498   2.913   2.296  10.479 -0.6199 -0.9041  0.8669
  364MPD2    C1 5499   2.995   2.261  10.375  0.3101  1.0029  0.4564
  364MPD2    C2 5500   3.064   2.141  10.369  0.1450  0.7431 -0.1330
  364MPD2    C3 5501   3.038   2.056  10.474  0.3520  0.5530  0.4726
  364MPD2    C4 5502   2.973   2.096  10.582 -0.4030 -0.2504  0.0019
  364MPD2    C5 5503   2.915   2.218  10.586  0.0977  0.5581 -0.4596
  364MPD2     H 5504   3.146   2.124  10.301  0.8010 -2.0544  1.3717
  364MPD2    H1 5505   2.956   2.039  10.673  0.6565 -1.4797 -0.5760
  364MPD2    H2 5506   2.871   2.396  10.478 -0.3667 -0.8006  0.5142
  364MPD2    H3 5507   2.851   2.254  10.666  1.1092  0.3568  0.4406
  364MPD2     N 5508   3.109   1.928  10.485 -0.4049  0.0383 -0.2646
  364MPD2    H5 5509   3.090   1.867  10.563  0.0175 -0.2621 -0.3951
  364MPD2    N1 5510   3.013   2.365  10.274  0.3778 -0.4131 -0.7439
  364MPD2    H7 5511   2.978   2.457  10.301  0.1811 -1.3791  2.3369
  365TMC3    C1 5512   3.045   2.444  10.047 -0.1093  0.1485 -0.1752
  365TMC3    C2 5513   3.041   2.407   9.915  0.9356 -0.0033  0.7779
  365TMC3    C3 5514   3.032   2.499   9.818 -0.1459 -0.9819  1.0433
  365TMC3    C4 5515   3.038   2.570  10.096  0.1540 -0.4899  0.2549
  365TMC3    C5 5516   3.026   2.663   9.997 -0.4523  0.2869  0.3207
  365TMC3    C6 5517   3.037   2.635   9.860  0.3159 -0.4153  0.3883
  365TMC3     C 5518   3.056   2.337  10.148 -0.6283  0.3924  0.4943
  365TMC3     O 5519   3.100   2.231  10.103  0.1689 -0.4075 -0.0654
  365TMC3     H 5520   3.053   2.303   9.885 -0.6268  0.4990 -1.5310
  365TMC3    H1 5521   3.046   2.596  10.201  0.4610 -2.2075  0.6578
  365TMC3    H2 5522   3.030   2.720   9.794 -2.1081 -0.6525  0.3377
  365TMC3    C7 5523   2.996   2.800  10.022 -0.6302 -0.6839 -0.4736
  365TMC3    C8 5524   3.062   2.470   9.677  0.2403  0.7504 -0.7364
  365TMC3    O1 5525   2.953   2.869   9.934  0.3402 -0.0661 -0.0358
  365TMC3    O2 5526   3.088   2.564   9.601 -0.3727 -0.0191  0.4288
  366MPD2     C 5527   0.725   2.172  15.492  0.4321 -0.3307 -0.3404
  366MPD2    C1 5528   0.830   2.247  15.434  0.5774  0.0826 -0.0076
  366MPD2    C2 5529   0.931   2.173  15.376  0.3036  0.1818  0.2887
  366MPD2    C3 5530   0.925   2.041  15.365 -0.1729 -0.3122  0.3489
  366MPD2    C4 5531   0.823   1.959  15.413 -0.6092  0.7588 -0.0461
  366MPD2    C5 5532   0.729   2.032  15.476 -0.1699 -0.3575 -0.2402
  366MPD2     H 5533   1.019   2.213  15.326 -1.1199 -0.8839 -3.0362
  366MPD2    H1 5534   0.819   1.851  15.406  2.4654  0.8187 -3.0331
  366MPD2    H2 5535   0.643   2.224  15.541  0.3531 -1.2342  0.4885
  366MPD2    H3 5536   0.647   1.965  15.503 -1.1856 -0.2458 -3.0916
  366MPD2     N 5537   1.043   1.999  15.308  0.1962  0.4945 -0.5828
  366MPD2    H5 5538   1.091   2.070  15.253  2.1785  0.1775  0.7058
  366MPD2    N1 5539   0.846   2.377  15.447  0.0489  0.2802  0.4087
  366MPD2    H7 5540   0.939   2.412  15.425  0.0667 -1.2733 -1.9792
  367TMC3    C1 5541   0.815   2.599  15.461 -0.1953  0.2459 -0.1532
  367TMC3    C2 5542   0.933   2.612  15.537 -0.4731 -0.0650  0.0079
  367TMC3    C3 5543   0.984   2.732  15.531  0.7551 -0.2910  0.5905
  367TMC3    C4 5544   0.756   2.696  15.385 -0.3195 -0.0685 -0.0680
  367TMC3    C5 5545   0.820   2.818  15.380  0.4090  0.1026 -0.2284
  367TMC3    C6 5546   0.929   2.842  15.465 -0.1158 -0.2950 -0.3162
  367TMC3     C 5547   0.756   2.470  15.477 -0.0460 -0.5087  0.8970
  367TMC3     O 5548   0.636   2.460  15.474 -0.2110  0.2763 -0.4969
  367TMC3     H 5549   0.968   2.528  15.595  1.5575 -0.9777 -2.5227
  367TMC3    H1 5550   0.682   2.657  15.316  0.8350  0.1383 -1.4207
  367TMC3    H2 5551   0.980   2.936  15.449 -1.0916  0.2019 -0.5170
  367TMC3    C7 5552   0.762   2.925  15.299  0.5935  0.0617 -0.0955
  367TMC3    C8 5553   1.102   2.748  15.610 -0.2584 -0.2254 -0.2686
  367TMC3    O1 5554   0.816   3.034  15.315 -0.4485  0.0639  0.1122
  367TMC3    O2 5555   1.183   2.655  15.600 -0.1496 -0.1121  0.3202
  368MPD2     C 5556   2.116   4.535  13.516 -0.2331 -0.2006 -0.6782
  368MPD2    C1 5557   2.141   4.647  13.443  0.6950  0.5582 -0.1995
  368MPD2    C2 5558   2.220   4.643  13.333  0.0064 -0.2771 -0.3627
  368MPD2    C3 5559   2.290   4.531  13.302  0.3260  0.5067 -0.0768
  368MPD2    C4 5560   2.273   4.415  13.382  0.4315  0.9944  0.0163
  368MPD2    C5 5561   2.184   4.417  13.484 -0.3072  0.1883  0.2671
  368MPD2     H 5562   2.230   4.728  13.267 -0.1729 -1.1268 -1.4715
  368MPD2    H1 5563   2.319   4.320  13.362  0.4738  1.3367 -1.5037
  368MPD2    H2 5564   2.056   4.541  13.606 -0.3713  0.2674 -0.8017
  368MPD2    H3 5565   2.170   4.333  13.552 -1.5234 -0.9516 -1.3948
  368MPD2     N 5566   2.376   4.523  13.187  0.0520  0.6859 -0.8288
  368MPD2    H5 5567   2.430   4.440  13.166 -0.9917 -0.1632 -0.1571
  368MPD2    N1 5568   2.043   0.012  13.468 -0.3468  0.2625  0.1760
  368MPD2    H7 5569   1.962   4.724  13.523 -0.0774  1.1299  0.9729
  369TMC3    C1 5570   1.915   0.210  13.404  0.1329 -0.3001 -0.2857
  369TMC3    C2 5571   1.917   0.290  13.296  0.9265 -0.5930 -0.2179
  369TMC3    C3 5572   1.831   0.265  13.191 -0.5204  0.2307 -0.7272
  369TMC3    C4 5573   1.809   0.125  13.414 -0.2571  0.6547 -0.3517
  369TMC3    C5 5574   1.724   0.097  13.313 -0.0199  0.2821 -0.8404
  369TMC3    C6 5575   1.732   0.172  13.197  0.2878  0.1008 -0.7373
  369TMC3     C 5576   2.040   0.134  13.400  0.2465 -0.4878 -0.6803
  369TMC3     O 5577   2.124   0.190  13.331 -0.1559 -0.0932  0.1066
  369TMC3     H 5578   1.978   0.379  13.291 -0.5515  0.5474  2.1632
  369TMC3    H1 5579   1.798   0.067  13.505  0.7541 -0.1208 -0.7251
  369TMC3    H2 5580   1.669   0.157  13.109  0.2783  0.5458 -0.8030
  369TMC3    C7 5581   1.663   4.698  13.309 -0.4814 -0.3926 -0.4849
  369TMC3    C8 5582   1.889   0.281  13.060  0.1141  1.0759 -0.1986
  369TMC3    O1 5583   1.700   4.628  13.400  0.2855 -0.0798 -0.3500
  369TMC3    O2 5584   1.815   0.311  12.968 -0.1286  0.2864  0.1119
  370TMC3    C1 5585   1.399   0.050  15.987  0.1392  0.1643  0.5627
  370TMC3    C2 5586   1.390   4.695  16.089  0.2931 -0.1596 -0.1235
  370TMC3    C3 5587   1.481   4.590  16.085  0.3167 -0.1369  0.5701
  370TMC3    C4 5588   1.472   0.030  15.868 -0.7479 -0.2546 -0.5961
  370TMC3    C5 5589   1.546   4.651  15.868  0.4252 -0.0642  0.2008
  370TMC3    C6 5590   1.557   4.571  15.973  0.4033  0.2906 -0.8370
  370TMC3     C 5591   1.387   0.191  16.027 -0.0117  0.0827 -0.0850
  370TMC3     O 5592   1.293   0.216  16.100 -0.2078 -0.2833  0.1535
  370TMC3     H 5593   1.334   4.724  16.177  3.0042  0.8599  1.2589
  370TMC3    H1 5594   1.470   0.113  15.798  1.0610  0.3066  0.0112
  370TMC3    H2 5595   1.618   4.482  15.965  0.2835  0.1198  0.1435
  370TMC3    C7 5596   1.640   4.645  15.756  0.3743 -0.4109 -0.1272
  370TMC3    C8 5597   1.533   4.518  16.204 -0.5899 -0.7898  0.5409
  370TMC3    O1 5598   1.622   4.727  15.666  0.3200  0.7043  0.1469
  370TMC3    O2 5599   1.596   4.413  16.194  0.0885  0.7092 -0.6416
  371TMC3    C1 5600   3.343   3.391  15.461  0.5843  0.2102  0.5275
  371TMC3    C2 5601   3.212   3.371  15.422  0.4596  0.3931  0.3055
  371TMC3    C3 5602   3.124   3.473  15.437 -0.0380  0.3099  0.1504
  371TMC3    C4 5603   3.390   3.514  15.487  0.2773 -0.4559  0.7430
  371TMC3    C5 5604   3.300   3.614  15.490 -0.1671  0.1850 -0.3551
  371TMC3    C6 5605   3.163   3.598  15.461  0.7616 -0.0885 -0.2279
  371TMC3     C 5606   3.438   3.278  15.478 -0.3316 -0.2296 -0.2755
  371TMC3     O 5607   3.554   3.288  15.516  0.0574 -0.1445  0.5592
  371TMC3     H 5608   3.181   3.272  15.391  1.2048  0.0598  0.6485
  371TMC3    H1 5609   3.496   3.532  15.493  0.7085 -2.4528 -0.8615
  371TMC3    H2 5610   3.094   3.681  15.450  0.5020 -0.0744  1.5807
  371TMC3    C7 5611   3.332   3.756  15.513  0.3833 -0.2644  0.0153
  371TMC3    C8 5612   2.985   3.452  15.415  0.2711  0.0948  0.1412
  371TMC3    O1 5613   3.241   3.837  15.497  0.3518 -0.4879  0.1243
  371TMC3    O2 5614   2.964   3.360  15.330 -0.2505 -0.2271  0.4510
  372MPD2     C 5615   2.572   0.138  13.452  1.1653 -0.6930 -0.9176
  372MPD2    C1 5616   2.687   0.076  13.500  0.3265  0.2867 -0.2186
  372MPD2    C2 5617   2.670   4.707  13.589 -0.1738 -0.7187 -0.4121
  372MPD2    C3 5618   2.542   4.664  13.626 -0.3599  0.7290  0.9705
  372MPD2    C4 5619   2.429   4.732  13.584  0.2054 -0.5722 -0.0792
  372MPD2    C5 5620   2.448   0.098  13.497  0.7867 -0.1848  0.4388
  372MPD2     H 5621   2.756   4.651  13.624  0.0214 -1.5921 -2.2569
  372MPD2    H1 5622   2.329   4.702  13.615  1.3952 -3.8413  0.6097
  372MPD2    H2 5623   2.583   0.215  13.376  0.1666 -1.6862 -2.0730
  372MPD2    H3 5624   2.363   0.150  13.455  0.3195 -1.8770 -0.7133
  372MPD2     N 5625   2.541   4.546  13.703 -0.0407 -0.3377  0.2767
  372MPD2    H5 5626   2.628   4.500  13.728 -0.3769 -0.6843  0.7957
  372MPD2    N1 5627   2.822   0.098  13.452 -0.3494  0.7915  0.1231
  372MPD2    H7 5628   2.891   0.040  13.499  1.3153  0.5583 -2.6133
  373TMC3    C1 5629   2.454   4.347  13.800  0.1912 -0.6713 -0.5262
  373TMC3    C2 5630   2.383   4.292  13.902 -0.0261 -0.5980 -0.2560
  373TMC3    C3 5631   2.429   4.181  13.963 -0.2812 -0.2170  0.1908
  373TMC3    C4 5632   2.569   4.284  13.754 -0.1726 -0.3368 -0.8385
  373TMC3    C5 5633   2.598   4.159  13.814 -0.2107 -0.1572 -0.1596
  373TMC3    C6 5634   2.527   4.104  13.912 -0.3431  0.3309 -0.2288
  373TMC3     C 5635   2.430   4.489  13.765 -0.2464  0.5679  0.2307
  373TMC3     O 5636   2.317   4.536  13.777  0.5543 -0.1446 -0.0848
  373TMC3     H 5637   2.299   4.345  13.946  0.2600  0.1154 -0.5666
  373TMC3    H1 5638   2.625   4.326  13.672  0.3676  1.4586  0.4450
  373TMC3    H2 5639   2.571   4.017  13.960 -0.0395 -0.7969 -2.5335
  373TMC3    C7 5640   2.733   4.113  13.799 -0.0079 -1.1263 -0.1244
  373TMC3    C8 5641   2.454   4.219  14.096 -0.4465  0.3366 -0.0192
  373TMC3    O1 5642   2.770   3.995  13.786  0.2887 -0.8766  0.6775
  373TMC3    O2 5643   2.451   4.341  14.122  0.2933 -0.0919 -0.2523
  374TMC3    C1 5644   3.312   0.544   9.572  0.1802 -0.2710  0.0814
  374TMC3    C2 5645   3.438   0.498   9.544  0.1076  0.2291  0.4896
  374TMC3    C3 5646   3.468   0.468   9.414  0.0413 -0.1715  0.1062
  374TMC3    C4 5647   3.213   0.544   9.478 -0.2264 -0.1384  0.1094
  374TMC3    C5 5648   3.251   0.519   9.350  0.2523  0.1986  0.6348
  374TMC3    C6 5649   3.375   0.473   9.320 -0.3716  0.9610 -0.3196
  374TMC3     C 5650   3.277   0.561   9.712 -0.0463  0.1493 -0.8158
  374TMC3     O 5651   3.158   0.554   9.746 -0.1874  0.4336  0.4981
  374TMC3     H 5652   3.518   0.492   9.617  0.2165 -2.8465  0.1102
  374TMC3    H1 5653   3.114   0.582   9.500  0.2959  1.6647 -0.6156
  374TMC3    H2 5654   3.398   0.442   9.219  0.7036  2.3280 -0.4976
  374TMC3    C7 5655   3.167   0.585   9.251 -0.2316  0.4717  0.3573
  374TMC3    C8 5656   3.607   0.467   9.370  0.7054 -0.3966 -0.3840
  374TMC3    O1 5657   3.076   0.649   9.308 -0.2433  0.0742 -0.0156
  374TMC3    O2 5658   3.629   0.503   9.255  0.0042 -0.8020  0.5972
  375MPD2     C 5659   3.159   0.355  17.214  0.0362 -0.2343  0.2143
  375MPD2    C1 5660   3.058   0.356  17.119  0.1670  0.0172  0.0567
  375MPD2    C2 5661   3.088   0.382  16.990  0.0273  0.4463 -0.1958
  375MPD2    C3 5662   3.215   0.418  16.947  1.1255  0.6803 -0.4370
  375MPD2    C4 5663   3.317   0.412  17.040 -0.0281  0.3650  0.2008
  375MPD2    C5 5664   3.282   0.382  17.165 -0.2157  0.0145  0.0924
  375MPD2     H 5665   3.007   0.387  16.918  1.1224 -0.5477 -1.5016
  375MPD2    H1 5666   3.421   0.428  17.014 -0.1310  2.3301  0.9461
  375MPD2    H2 5667   3.133   0.338  17.318  3.5513  1.7811  1.3984
  375MPD2    H3 5668   3.364   0.368  17.235 -1.2252  0.7802  1.4383
  375MPD2     N 5669   3.239   0.476  16.825 -0.5404  0.0032  0.0672
  375MPD2    H5 5670   3.336   0.485  16.797 -0.7402  0.1920 -0.5667
  375MPD2    N1 5671   2.917   0.337  17.154  0.5453  0.7807  0.2428
  375MPD2    H7 5672   2.850   0.341  17.078  1.3298  0.5908 -0.4619
  376TMC3    C1 5673   3.198   0.512  16.600  1.0066 -0.5509  0.3404
  376TMC3    C2 5674   3.316   0.440  16.570 -0.2462  0.4752 -0.0146
  376TMC3    C3 5675   3.352   0.438  16.436  0.1338 -0.2873 -0.3454
  376TMC3    C4 5676   3.111   0.564  16.511  0.1768 -0.2682  0.3484
  376TMC3    C5 5677   3.155   0.559  16.381 -0.8594 -0.3168  0.0115
  376TMC3    C6 5678   3.268   0.493  16.338 -0.6478 -0.0397 -0.3395
  376TMC3     C 5679   3.140   0.507  16.732 -0.2249 -0.7699 -1.0390
  376TMC3     O 5680   3.020   0.528  16.747 -0.0380  0.0078 -0.3950
  376TMC3     H 5681   3.384   0.415  16.651 -1.3937 -2.4648  0.0544
  376TMC3    H1 5682   3.028   0.626  16.541 -1.0351 -0.3199 -2.9447
  376TMC3    H2 5683   3.303   0.490  16.235 -0.6428 -0.4109 -0.3269
  376TMC3    C7 5684   3.058   0.595  16.283 -0.0297  0.3525  0.1899
  376TMC3    C8 5685   3.492   0.438  16.400 -0.0218  0.1928 -0.1741
  376TMC3    O1 5686   3.104   0.609  16.172 -0.4451 -0.3477 -0.0928
  376TMC3    O2 5687   3.520   0.490  16.293  0.4626 -0.7084  0.4656
  377MPD2     C 5688   1.172   0.011  12.696  0.1852 -0.2131  0.0770
  377MPD2    C1 5689   1.265   0.031  12.798 -0.1784  0.2842  0.2621
  377MPD2    C2 5690   1.253   4.709  12.925  0.4035  0.3228 -0.3936
  377MPD2    C3 5691   1.148   4.631  12.946  0.0412 -0.5095  0.1961
  377MPD2    C4 5692   1.056   4.593  12.846  0.0685  0.1433 -0.9287
  377MPD2    C5 5693   1.064   4.661  12.727 -0.3694 -0.6949 -0.1638
  377MPD2     H 5694   1.324   4.720  13.006 -0.3125 -0.1876  0.3040
  377MPD2    H1 5695   0.975   4.522  12.859  0.4058  0.2810  1.9819
  377MPD2    H2 5696   1.185   0.066  12.603 -2.3018  0.1721 -0.0402
  377MPD2    H3 5697   0.990   4.642  12.650 -1.0956  3.6501 -0.5412
  377MPD2     N 5698   1.118   4.575  13.067  0.4012  0.5096  0.2192
  377MPD2    H5 5699   1.050   4.500  13.073  1.7559 -1.1817 -5.1371
  377MPD2    N1 5700   1.375   0.116  12.770 -0.6913  0.5257 -0.1788
  377MPD2    H7 5701   1.363   0.165  12.682 -0.5581  1.2474  0.2068
  378TMC3    C1 5702   1.634   0.374  12.631 -0.3847  0.1087 -0.4667
  378TMC3    C2 5703   1.555   0.317  12.728  0.0868 -0.3897  0.7688
  378TMC3    C3 5704   1.595   0.202  12.794  0.0740 -0.1224  0.2559
  378TMC3    C4 5705   1.751   0.319  12.595  0.5356  0.8341  0.1180
  378TMC3    C5 5706   1.789   0.200  12.660  0.0403  0.0832 -0.6708
  378TMC3    C6 5707   1.712   0.139  12.757  0.2235 -0.6826 -0.1515
  378TMC3     C 5708   1.568   0.472  12.552 -0.3468  0.2797 -0.0549
  378TMC3     O 5709   1.452   0.494  12.588 -0.4458  0.8025 -0.3839
  378TMC3     H 5710   1.459   0.355  12.761  0.2000 -0.9609  1.7662
  378TMC3    H1 5711   1.815   0.364  12.521 -1.1217 -0.2570 -1.9692
  378TMC3    H2 5712   1.727   0.040  12.797 -0.0113  0.0537  1.7450
  378TMC3    C7 5713   1.926   0.151  12.662  1.0401  0.5728  0.4866
  378TMC3    C8 5714   1.489   0.118  12.843 -0.0153 -0.3556  0.0042
  378TMC3    O1 5715   1.949   0.074  12.752 -0.5036  0.0537 -0.4245
  378TMC3    O2 5716   1.524   0.047  12.941  0.0016  0.0118  0.4376
  379MPD2     C 5717   2.332   2.719  16.258  0.3297 -0.3417  0.0800
  379MPD2    C1 5718   2.212   2.696  16.320 -0.6366 -0.3324  0.5977
  379MPD2    C2 5719   2.203   2.666  16.453  0.3121 -0.1517  0.3409
  379MPD2    C3 5720   2.319   2.650  16.524  0.3207 -0.1805 -0.3299
  379MPD2    C4 5721   2.443   2.661  16.464  0.8920  0.1060 -0.2788
  379MPD2    C5 5722   2.441   2.692  16.330 -0.8138 -0.0010  1.1322
  379MPD2     H 5723   2.104   2.644  16.491 -0.0490 -1.1534 -1.1912
  379MPD2    H1 5724   2.535   2.634  16.513 -0.2811 -2.4672  0.5078
  379MPD2    H2 5725   2.337   2.745  16.153 -0.8680 -0.3842  0.0116
  379MPD2    H3 5726   2.536   2.696  16.279 -1.1309  0.2102  0.5658
  379MPD2     N 5727   2.333   2.606  16.657 -0.5386 -0.0795  0.8716
  379MPD2    H5 5728   2.429   2.575  16.670 -0.6655  0.1232  2.2895
  379MPD2    N1 5729   2.102   2.703  16.235  0.9648 -0.0016 -0.6183
  379MPD2    H7 5730   2.117   2.723  16.137  0.0790  1.1690 -0.5306
  380TMC3    C1 5731   1.877   2.674  16.159 -0.0782 -0.0048 -0.3241
  380TMC3    C2 5732   1.931   2.594  16.057  0.3523 -0.0285  0.1526
  380TMC3    C3 5733   1.872   2.616  15.935  0.4914  0.4539  0.1827
  380TMC3    C4 5734   1.766   2.761  16.149  0.6929  0.6095  0.2299
  380TMC3    C5 5735   1.716   2.767  16.021 -0.2471 -0.8358  0.8193
  380TMC3    C6 5736   1.764   2.694  15.917 -0.1889 -0.3110  0.1479
  380TMC3     C 5737   1.968   2.683  16.277  0.0454 -0.0829 -0.5974
  380TMC3     O 5738   1.920   2.691  16.388  0.0712 -1.2171  0.2002
  380TMC3     H 5739   2.011   2.526  16.082 -0.0337 -0.8876 -0.9722
  380TMC3    H1 5740   1.735   2.820  16.234 -0.9287 -0.1721  0.1773
  380TMC3    H2 5741   1.731   2.716  15.816 -2.5678 -1.6282  0.6306
  380TMC3    C7 5742   1.623   2.873  15.991  0.0560 -0.4668  0.6761
  380TMC3    C8 5743   1.959   2.587  15.814 -0.0262 -0.3050  0.9307
  380TMC3    O1 5744   1.626   2.974  16.064 -0.5351 -0.0901 -0.3441
  380TMC3    O2 5745   1.919   2.634  15.708  0.4398 -0.0962 -0.0017
  381TMC3    C1 5746   1.770   3.894  16.012 -0.4301  0.0297 -0.1901
  381TMC3    C2 5747   1.847   3.998  15.989  0.6560  0.5269 -0.4821
  381TMC3    C3 5748   1.830   4.107  16.075 -0.7569 -0.0745 -0.1736
  381TMC3    C4 5749   1.692   3.883  16.132 -0.1127  0.6633  0.6366
  381TMC3    C5 5750   1.675   3.997  16.201  0.6289  0.2243  0.8389
  381TMC3    C6 5751   1.739   4.111  16.176 -0.0544  0.2561  0.9808
  381TMC3     C 5752   1.803   3.768  15.934 -0.0405 -0.1588  0.4348
  381TMC3     O 5753   1.871   3.782  15.833 -0.1570  0.3004  0.5356
  381TMC3     H 5754   1.918   3.991  15.907  0.8864  1.4916 -0.3638
  381TMC3    H1 5755   1.634   3.794  16.152  1.1483 -0.0288  1.2661
  381TMC3    H2 5756   1.732   4.191  16.249 -1.0170 -0.8469  2.1075
  381TMC3    C7 5757   1.659   3.970  16.340  0.6435 -0.1900  0.3952
  381TMC3    C8 5758   1.916   4.225  16.057  0.0948  0.1837  0.2175
  381TMC3    O1 5759   1.724   3.877  16.388  0.0875  0.2079  0.1279
  381TMC3    O2 5760   1.985   4.218  15.957  0.1286 -0.0053  0.0655
  382MPD2     C 5761   0.895   1.827  17.048 -0.5080 -0.8657  0.0559
  382MPD2    C1 5762   0.947   1.795  17.174  0.4762  0.5354  0.0743
  382MPD2    C2 5763   0.929   1.668  17.228 -0.1911  0.0813  0.4065
  382MPD2    C3 5764   0.854   1.578  17.156 -0.4381  0.3500 -0.3462
  382MPD2    C4 5765   0.822   1.608  17.029  0.5650 -0.0228 -0.5615
  382MPD2    C5 5766   0.833   1.730  16.973 -0.6477 -0.2732  0.2638
  382MPD2     H 5767   0.950   1.640  17.331 -0.3468 -0.6850  0.2279
  382MPD2    H1 5768   0.787   1.535  16.957  0.0162 -1.7426  1.4252
  382MPD2    H2 5769   0.902   1.923  16.997  0.2526 -2.6027 -3.0703
  382MPD2    H3 5770   0.807   1.745  16.868 -1.9432  0.5425  0.6948
  382MPD2     N 5771   0.832   1.445  17.195  0.2583 -0.3013 -0.6055
  382MPD2    H5 5772   0.762   1.390  17.146  1.0299 -0.9510 -0.9645
  382MPD2    N1 5773   1.017   1.898  17.246 -0.0485  0.2814  0.0508
  382MPD2    H7 5774   1.044   1.876  17.341 -1.4569  0.2350  0.4418
  383TMC3    C1 5775   0.836   1.245  17.314  1.3204  0.1785  0.0329
  383TMC3    C2 5776   0.707   1.220  17.284  0.2357 -0.6552  0.8747
  383TMC3    C3 5777   0.660   1.092  17.301 -0.2070 -0.1166  0.9163
  383TMC3    C4 5778   0.923   1.144  17.336 -0.5446 -0.1215 -0.1441
  383TMC3    C5 5779   0.871   1.021  17.354 -0.3299 -0.2502  0.1572
  383TMC3    C6 5780   0.743   0.991  17.337  0.9957  0.1942 -0.0286
  383TMC3     C 5781   0.899   1.372  17.287 -0.2318  0.6223 -0.5256
  383TMC3     O 5782   1.001   1.401  17.347  0.2672  0.3809 -0.1902
  383TMC3     H 5783   0.635   1.296  17.255 -1.2028 -2.4089 -0.1792
  383TMC3    H1 5784   1.028   1.171  17.349 -1.0742  1.0119  1.8351
  383TMC3    H2 5785   0.700   0.894  17.358  0.6485  0.6816  1.5219
  383TMC3    C7 5786   0.958   0.907  17.392 -0.5702  0.0976 -0.2185
  383TMC3    C8 5787   0.562   1.057  17.202 -0.9999  0.4117  0.3258
  383TMC3    O1 5788   0.911   0.794  17.400 -0.3838  0.4841  0.1998
  383TMC3    O2 5789   0.475   1.141  17.192 -0.3980  0.3036  0.2099
  384MPD2     C 5790   2.367   3.342  12.054 -0.0644 -0.8747 -0.1337
  384MPD2    C1 5791   2.469   3.307  12.138  0.2313 -0.0463 -0.0260
  384MPD2    C2 5792   2.600   3.327  12.099  0.9037 -0.1364 -0.3582
  384MPD2    C3 5793   2.634   3.375  11.973 -0.1311 -0.3677 -0.2447
  384MPD2    C4 5794   2.532   3.415  11.884 -0.1109  0.3174  0.2190
  384MPD2    C5 5795   2.405   3.400  11.932  0.4475 -0.0554 -0.2959
  384MPD2     H 5796   2.678   3.289  12.164  0.9627  0.9044  0.1743
  384MPD2    H1 5797   2.551   3.455  11.785  1.4870  0.6964  0.6824
  384MPD2    H2 5798   2.263   3.319  12.074 -0.0963  1.4373  2.3118
  384MPD2    H3 5799   2.321   3.455  11.890 -0.1168  0.6860  1.8059
  384MPD2     N 5800   2.764   3.355  11.929 -0.1048 -0.5769 -0.1964
  384MPD2    H5 5801   2.836   3.335  11.998  1.2048  0.8592 -1.1464
  384MPD2    N1 5802   2.439   3.252  12.263  0.0881  0.2564 -0.5411
  384MPD2    H7 5803   2.520   3.248  12.324  0.1927  1.1725 -0.6259
  385TMC3    C1 5804   2.941   3.319  11.794 -0.7587  0.3793  0.3316
  385TMC3    C2 5805   2.956   3.212  11.713  0.2163  0.5084 -0.4125
  385TMC3    C3 5806   3.030   3.101  11.752 -0.4032  0.0917  0.8917
  385TMC3    C4 5807   3.009   3.315  11.913  0.6622  0.8844 -0.2490
  385TMC3    C5 5808   3.071   3.203  11.967 -0.3322 -0.0859 -0.3164
  385TMC3    C6 5809   3.075   3.090  11.880 -0.4955 -0.1243 -0.1898
  385TMC3     C 5810   2.809   3.368  11.796 -0.3398 -0.1926 -0.3415
  385TMC3     O 5811   2.743   3.368  11.690  0.0214 -0.2377  0.0364
  385TMC3     H 5812   2.894   3.210  11.624 -0.2041  2.2681 -0.1546
  385TMC3    H1 5813   3.007   3.399  11.981 -0.7283  2.6752 -2.4728
  385TMC3    H2 5814   3.132   3.000  11.899 -1.0912  0.0378  2.3736
  385TMC3    C7 5815   3.023   3.184  12.100 -0.3434 -0.0969  0.5765
  385TMC3    C8 5816   2.991   2.963  11.703  0.1309  0.4212 -0.2287
  385TMC3    O1 5817   2.943   3.263  12.144 -0.5904  0.3367 -0.3420
  385TMC3    O2 5818   2.980   2.883  11.795  0.6345  0.4784 -0.0214
  386TMC3    C1 5819   3.123   0.491  11.813  0.5031 -1.0933 -0.7917
  386TMC3    C2 5820   3.160   0.588  11.717  0.3010 -0.4079 -0.6820
  386TMC3    C3 5821   3.056   0.673  11.687 -0.2992 -1.0487  0.1641
  386TMC3    C4 5822   3.014   0.501  11.895  0.6997 -0.1590 -0.4398
  386TMC3    C5 5823   2.935   0.608  11.873 -0.0139  0.1345 -0.9953
  386TMC3    C6 5824   2.932   0.672  11.756 -0.3520 -0.1689  0.0215
  386TMC3     C 5825   3.203   0.371  11.823  0.0027  0.1373 -0.1155
  386TMC3     O 5826   3.312   0.355  11.764  0.6949  0.5934 -0.1449
  386TMC3     H 5827   3.246   0.572  11.654  0.1850  2.6827 -1.6091
  386TMC3    H1 5828   3.000   0.465  11.996 -2.3071  0.5683 -0.5961
  386TMC3    H2 5829   2.853   0.741  11.730  1.7195  0.9551 -3.2821
  386TMC3    C7 5830   2.851   0.659  11.978  0.3915 -0.4093  0.5133
  386TMC3    C8 5831   3.058   0.748  11.560  0.0219  0.4246  0.2432
  386TMC3    O1 5832   2.825   0.590  12.071 -0.2183  0.3606  0.2163
  386TMC3    O2 5833   2.946   0.785  11.531  0.2793  0.2654 -0.0612
  387MPD2     C 5834   0.963   0.979  10.031 -0.1948 -0.3081  0.3558
  387MPD2    C1 5835   1.077   0.921  10.079 -0.1613 -0.0403  0.4761
  387MPD2    C2 5836   1.093   0.787  10.044 -0.1214 -0.0493 -0.6474
  387MPD2    C3 5837   1.002   0.704   9.980 -0.1259  0.2804  1.2095
  387MPD2    C4 5838   0.893   0.770   9.924 -0.4209 -0.2849  0.0458
  387MPD2    C5 5839   0.881   0.910   9.943  0.0614 -0.3091  0.5456
  387MPD2     H 5840   1.179   0.737  10.087 -1.0995  0.9418  2.4643
  387MPD2    H1 5841   0.812   0.713   9.880 -1.6368 -0.0659  1.9959
  387MPD2    H2 5842   0.943   1.085  10.035 -0.4982 -0.3111 -0.8899
  387MPD2    H3 5843   0.792   0.955   9.899  0.3462 -0.2103  0.0661
  387MPD2     N 5844   1.010   0.568   9.991 -0.2736  0.3634  0.2177
  387MPD2    H5 5845   1.099   0.545  10.034 -0.7502 -1.8550  0.0231
  387MPD2    N1 5846   1.174   0.975  10.165  0.3132 -0.2659  0.4282
  387MPD2    H7 5847   1.248   0.913  10.193  0.5751 -0.0916  0.1224
  388TMC3    C1 5848   1.239   1.099  10.353 -0.2359 -0.4553  0.2146
  388TMC3    C2 5849   1.281   1.214  10.400 -0.3211  0.8997 -0.6419
  388TMC3    C3 5850   1.347   1.211  10.522 -0.3056  0.2556  0.0135
  388TMC3    C4 5851   1.273   0.982  10.414  0.1779 -0.6592  0.4942
  388TMC3    C5 5852   1.342   0.980  10.536  0.6978  0.3253  0.0035
  388TMC3    C6 5853   1.381   1.100  10.589  0.5911  0.3756  0.7143
  388TMC3     C 5854   1.162   1.092  10.228  0.1272 -0.8876 -0.0948
  388TMC3     O 5855   1.070   1.174  10.219 -0.1087  0.0743 -0.6186
  388TMC3     H 5856   1.263   1.302  10.339 -1.8104  0.6983 -0.4910
  388TMC3    H1 5857   1.216   0.895  10.383 -0.6012 -0.6257  1.8729
  388TMC3    H2 5858   1.441   1.095  10.679 -0.9610 -2.0450  1.5965
  388TMC3    C7 5859   1.402   0.859  10.582  0.4153  0.2653 -0.4647
  388TMC3    C8 5860   1.377   1.344  10.572 -1.2732  1.0449  0.9670
  388TMC3    O1 5861   1.426   0.854  10.701  0.3817  0.5009 -0.0283
  388TMC3    O2 5862   1.406   1.430  10.490  0.2477  0.0513 -0.3106
  389MPD2     C 5863   0.329   3.612  10.607  0.2496  0.1363  0.5375
  389MPD2    C1 5864   0.258   3.578  10.496  1.1653 -0.0049 -0.1630
  389MPD2    C2 5865   0.144   3.500  10.507  0.6608  0.3718 -0.2120
  389MPD2    C3 5866   0.098   3.462  10.637  0.9201 -0.1555 -0.2142
  389MPD2    C4 5867   0.177   3.494  10.747 -0.1346 -0.0929  0.1064
  389MPD2    C5 5868   0.289   3.566  10.730  0.1405  0.0935 -0.0646
  389MPD2     H 5869   0.075   3.499  10.423 -0.4089 -4.0098  0.7305
  389MPD2    H1 5870   0.140   3.470  10.846  1.6086  1.2372  1.0702
  389MPD2    H2 5871   0.420   3.671  10.604  0.0761  0.3111 -0.9948
  389MPD2    H3 5872   0.347   3.586  10.820 -1.8748  0.1166  1.2064
  389MPD2     N 5873   4.713   3.405  10.671 -0.0744 -0.1511  0.3692
  389MPD2    H5 5874   4.693   3.372  10.765  3.0573  0.5174  1.2532
  389MPD2    N1 5875   0.311   3.617  10.372  0.0208  0.1003  0.0181
  389MPD2    H7 5876   0.382   3.689  10.367  0.3252 -0.2709 -1.0634
  390TMC3    C1 5877   4.489   3.357  10.659 -0.1628 -0.1879 -0.5378
  390TMC3    C2 5878   4.471   3.432  10.770 -0.2697  0.2562  0.8943
  390TMC3    C3 5879   4.345   3.431  10.821 -0.5185  0.7447 -0.0836
  390TMC3    C4 5880   4.385   3.284  10.600  0.2073 -0.0489 -0.5696
  390TMC3    C5 5881   4.260   3.285  10.663  0.4156  0.3846 -0.0374
  390TMC3    C6 5882   4.235   3.368  10.768  0.4738  0.0847  0.4956
  390TMC3     C 5883   4.616   3.370  10.585  0.1308  0.2279  0.1396
  390TMC3     O 5884   4.613   3.375  10.464 -0.5073 -0.2010 -0.0923
  390TMC3     H 5885   4.549   3.478  10.830  0.4697 -0.0800  0.1896
  390TMC3    H1 5886   4.400   3.220  10.514  1.1454 -0.8260  0.1734
  390TMC3    H2 5887   4.136   3.388  10.805  0.5762 -0.6897  1.1860
  390TMC3    C7 5888   4.183   3.163  10.669  0.4857  0.4258  0.1866
  390TMC3    C8 5889   4.362   3.447  10.967  0.3252  0.4879  0.0616
  390TMC3    O1 5890   4.199   3.087  10.576  0.4452 -0.2922  0.5263
  390TMC3    O2 5891   4.450   3.379  11.015 -0.3202 -0.6891  0.7775
  391MPD2     C 5892   4.128   0.144  10.757  0.0579  0.2355  0.7799
  391MPD2    C1 5893   4.141   0.282  10.743 -0.0689  0.3028 -0.2904
  391MPD2    C2 5894   4.142   0.342  10.623 -0.1971  0.3023  0.2561
  391MPD2    C3 5895   4.139   0.259  10.510  0.3092  0.2322  0.1950
  391MPD2    C4 5896   4.131   0.122  10.527  0.2316  0.3137  0.0433
  391MPD2    C5 5897   4.120   0.063  10.654 -1.4281 -0.1730 -0.8807
  391MPD2     H 5898   4.135   0.450  10.608  1.8682  0.2815 -0.8042
  391MPD2    H1 5899   4.137   0.051  10.445  1.7581 -1.8719  2.0565
  391MPD2    H2 5900   4.128   0.100  10.856  0.7356 -0.8679  0.2806
  391MPD2    H3 5901   4.109   4.693  10.666  0.9979 -0.2809  0.3080
  391MPD2     N 5902   4.149   0.321  10.385 -0.0324  0.4303  0.4231
  391MPD2    H5 5903   4.144   0.422  10.391  0.8693  0.4474  0.9123
  391MPD2    N1 5904   4.165   0.355  10.863 -0.3216  0.0447  0.1739
  391MPD2    H7 5905   4.156   0.303  10.950 -0.7994  0.9473  0.6599
  392TMC3    C1 5906   4.176   0.354  10.157 -0.3033 -0.6673 -0.8696
  392TMC3    C2 5907   4.114   0.317  10.042  0.1222  0.0151  0.1946
  392TMC3    C3 5908   4.143   0.391   9.935 -0.7056 -0.4731  0.3572
  392TMC3    C4 5909   4.266   0.459  10.167 -0.5869  0.2913  0.2994
  392TMC3    C5 5910   4.309   0.517  10.053 -0.1184  0.0948 -0.2842
  392TMC3    C6 5911   4.241   0.490   9.937 -0.3437 -0.6400 -0.0978
  392TMC3     C 5912   4.154   0.265  10.261 -0.4623  0.2059  0.1932
  392TMC3     O 5913   4.147   0.140  10.242 -0.4616  0.4997 -0.5193
  392TMC3     H 5914   4.055   0.227  10.030  0.2200  0.4376 -3.3056
  392TMC3    H1 5915   4.297   0.491  10.266  1.4955  0.8282 -0.5271
  392TMC3    H2 5916   4.278   0.530   9.843 -2.3100  0.6114 -0.3412
  392TMC3    C7 5917   4.434   0.596  10.043 -0.4601  0.1531 -0.1507
  392TMC3    C8 5918   4.057   0.372   9.819  0.1717 -1.0279 -0.3832
  392TMC3    O1 5919   4.460   0.634   9.931  0.2205  0.3868  0.2490
  392TMC3    O2 5920   3.948   0.324   9.846 -0.3219  0.4027 -0.0049
  393TMC3    C1 5921   2.315   3.720  10.452  0.6557 -0.5030 -0.0302
  393TMC3    C2 5922   2.299   3.607  10.379 -0.1410 -0.0064  0.1257
  393TMC3    C3 5923   2.234   3.498  10.437 -0.3576  0.0243  0.0206
  393TMC3    C4 5924   2.291   3.724  10.587  1.0276  0.3722 -0.7318
  393TMC3    C5 5925   2.251   3.603  10.649  0.4013 -0.0574 -0.3419
  393TMC3    C6 5926   2.214   3.493  10.576  0.2131 -0.3924 -0.2022
  393TMC3     C 5927   2.388   3.827  10.384 -0.8354  0.9305  0.0744
  393TMC3     O 5928   2.364   3.845  10.267 -0.0583 -0.0192 -0.4949
  393TMC3     H 5929   2.313   3.612  10.271  0.2207  1.0265  0.2162
  393TMC3    H1 5930   2.311   3.814  10.645 -0.9500 -1.5043  2.8625
  393TMC3    H2 5931   2.156   3.409  10.612  2.9738 -1.4496  1.7766
  393TMC3    C7 5932   2.222   3.606  10.789 -0.4801  0.2427  0.3466
  393TMC3    C8 5933   2.212   3.373  10.359  0.5174  0.5699 -0.2709
  393TMC3    O1 5934   2.144   3.513  10.827 -0.0574  0.0978 -0.3679
  393TMC3    O2 5935   2.204   3.272  10.427  0.1383  0.1004 -0.7039
  394TMC3    C1 5936   0.314   3.647  10.135  0.1050 -0.4522  0.0834
  394TMC3    C2 5937   0.314   3.573  10.020 -0.1978 -0.3611  0.2192
  394TMC3    C3 5938   0.289   3.632   9.899  0.3643  0.2803  0.3745
  394TMC3    C4 5939   0.284   3.784  10.134  0.4053  0.0992 -1.0173
  394TMC3    C5 5940   0.260   3.837  10.011  0.2401  0.0076 -0.3522
  394TMC3    C6 5941   0.267   3.765   9.895  0.6042 -0.1807 -0.0535
  394TMC3     C 5942   0.269   3.565  10.251  0.2152  0.0504  0.4172
  394TMC3     O 5943   0.182   3.482  10.219  0.0133  0.3415 -0.4110
  394TMC3     H 5944   0.338   3.467  10.024 -0.7500 -0.6283 -3.4845
  394TMC3    H1 5945   0.261   3.843  10.222  0.5337  1.8858 -2.1769
  394TMC3    H2 5946   0.254   3.815   9.800  0.7574 -0.0035  0.0193
  394TMC3    C7 5947   0.235   3.981  10.009 -0.6119  1.0031  0.2045
  394TMC3    C8 5948   0.204   3.560   9.813 -1.1205  0.6348  0.7623
  394TMC3    O1 5949   0.241   4.036  10.122 -0.5854  0.0443 -0.7106
  394TMC3    O2 5950   0.207   3.587   9.694  0.6088 -0.0971  0.4391
  395TMC3    C1 5951   4.195   0.759  14.354 -0.2748  0.0115  0.0576
  395TMC3    C2 5952   4.072   0.814  14.331 -0.7534 -1.1317  1.3088
  395TMC3    C3 5953   4.043   0.941  14.381 -0.6954  0.4895  0.0618
  395TMC3    C4 5954   4.305   0.839  14.380  0.3715  0.0950 -0.4020
  395TMC3    C5 5955   4.279   0.976  14.397  0.1022 -0.3737  0.3535
  395TMC3    C6 5956   4.152   1.028  14.399 -0.1192 -0.0998  0.5681
  395TMC3     C 5957   4.189   0.653  14.453  0.1601 -0.6990 -0.5058
  395TMC3     O 5958   4.216   0.695  14.565  0.1873  0.4228 -0.0105
  395TMC3     H 5959   3.985   0.758  14.299 -1.2247  0.4666 -0.2068
  395TMC3    H1 5960   4.401   0.800  14.412 -0.6844 -0.9904  1.4517
  395TMC3    H2 5961   4.128   1.133  14.410  0.6188  0.3064 -1.6360
  395TMC3    C7 5962   4.389   1.066  14.430 -0.2152 -0.4799 -0.0646
  395TMC3    C8 5963   3.979   0.940  14.511  0.0217  0.1110  0.2342
  395TMC3    O1 5964   4.374   1.158  14.509 -0.3932 -0.6552 -0.2460
  395TMC3    O2 5965   3.991   1.040  14.584  0.7194  0.6077  0.1590
  396MPD2     C 5966   4.050   1.363  17.375 -0.2786 -0.0449 -0.0868
  396MPD2    C1 5967   4.187   1.387  17.395 -0.4172 -0.2717  0.1651
  396MPD2    C2 5968   4.221   1.526  17.392  0.1133  0.2296 -0.4975
  396MPD2    C3 5969   4.137   1.620  17.330 -0.0235 -0.4522  0.4195
  396MPD2    C4 5970   4.012   1.582  17.285 -0.3451  0.1218 -0.3798
  396MPD2    C5 5971   3.968   1.455  17.325  0.4305 -0.9637 -0.1199
  396MPD2     H 5972   4.320   1.567  17.409  1.3101 -3.1572  0.7038
  396MPD2    H1 5973   3.935   1.650  17.250 -1.9474 -1.9256 -0.8397
  396MPD2    H2 5974   4.017   1.261  17.394 -0.2600 -0.0215  0.0679
  396MPD2    H3 5975   3.862   1.436  17.309  0.4005  0.0647 -1.2127
  396MPD2     N 5976   4.196   1.745  17.291  0.2763 -0.4752  0.0925
  396MPD2    H5 5977   4.291   1.766  17.319  0.3459 -2.0670  1.0389
  396MPD2    N1 5978   4.270   1.277  17.433 -0.0466  0.2519  0.2525
  396MPD2    H7 5979   4.230   1.186  17.455  2.5789 -0.7261  0.9684
  397TMC3    C1 5980   4.472   1.163  17.464 -0.4465 -0.6443  0.0947
  397TMC3    C2 5981   4.571   1.154  17.363 -0.1237  0.9960  0.4980
  397TMC3    C3 5982   4.550   1.055  17.269 -0.2354  0.3730 -0.0810
  397TMC3    C4 5983   4.382   1.053  17.477 -0.0145  0.3472  0.6535
  397TMC3    C5 5984   4.382   0.952  17.397  0.0168 -0.4633 -0.0237
  397TMC3    C6 5985   4.470   0.949  17.293 -0.8922 -0.0760  0.5492
  397TMC3     C 5986   4.405   1.294  17.451  0.1893  0.0058 -0.8766
  397TMC3     O 5987   4.476   1.391  17.437  0.1813  0.2063 -0.6508
  397TMC3     H 5988   4.620   1.250  17.347 -1.0792  1.0112 -2.2334
  397TMC3    H1 5989   4.299   1.055  17.547  0.1595  1.6541  0.8260
  397TMC3    H2 5990   4.455   0.864  17.227  1.4731 -0.2848  0.2809
  397TMC3    C7 5991   4.271   0.860  17.393 -0.7703  0.2466  0.3026
  397TMC3    C8 5992   4.554   1.098  17.128  0.9632  0.1630  0.0972
  397TMC3    O1 5993   4.231   0.840  17.275 -0.4334  0.2639 -0.4874
  397TMC3    O2 5994   4.499   1.024  17.050 -0.0830  0.4642  0.4548
  398MPD2     C 5995   1.864   2.786   0.194 -0.4931 -0.0042  0.6239
  398MPD2    C1 5996   1.957   2.691   0.223 -0.6682  0.5944  0.0401
  398MPD2    C2 5997   2.085   2.744   0.244  0.1017  0.5929  0.9273
  398MPD2    C3 5998   2.126   2.877   0.225  0.2114  0.0894  0.5698
  398MPD2    C4 5999   2.027   2.966   0.194 -0.3205  0.1835 -0.1336
  398MPD2    C5 6000   1.896   2.921   0.181  0.2013  0.1147 -0.5044
  398MPD2     H 6001   2.155   2.667   0.276 -1.4360 -1.1340  0.1414
  398MPD2    H1 6002   2.052   3.071   0.194  0.1379  0.0729 -1.3692
  398MPD2    H2 6003   1.760   2.760   0.177  0.0618 -0.5703 -1.8699
  398MPD2    H3 6004   1.810   2.984   0.161 -0.5540  0.3141  3.5119
  398MPD2     N 6005   2.262   2.900   0.232  0.0521  0.1673  0.3931
  398MPD2    H5 6006   2.324   2.821   0.244  1.7148  1.0784 -1.9857
  398MPD2    N1 6007   1.940   2.551   0.248 -0.1101 -0.3667  0.5090
  398MPD2    H7 6008   2.017   2.494   0.283 -1.2233 -1.3657  1.3769
  399TMC3    C1 6009   1.842   2.338   0.254  0.1111  0.0286  0.0560
  399TMC3    C2 6010   1.893   2.301   0.368  0.9145  0.4776 -0.2458
  399TMC3    C3 6011   1.898   2.175   0.413  0.6733 -0.2211 -1.1704
  399TMC3    C4 6012   1.770   2.251   0.174  0.1578 -0.4078  0.5224
  399TMC3    C5 6013   1.785   2.120   0.214  1.3322 -0.7942 -0.0526
  399TMC3    C6 6014   1.853   2.078   0.327  0.6622  0.1650  0.5005
  399TMC3     C 6015   1.827   2.478   0.225 -0.5522  0.0271 -0.4602
  399TMC3     O 6016   1.730   2.505   0.154  0.7581 -0.1011  0.1179
  399TMC3     H 6017   1.935   2.367   0.444  1.2296  1.0969 -0.9578
  399TMC3    H1 6018   1.728   2.275   0.077 -2.7238  1.6153  2.2549
  399TMC3    H2 6019   1.849   1.975   0.361 -1.9984  0.6249  1.6486
  399TMC3    C7 6020   1.726   2.012   0.133 -0.0536 -0.1230 -0.1576
  399TMC3    C8 6021   2.022   2.132   0.481 -0.1308 -0.1527  0.9153
  399TMC3    O1 6022   1.755   1.898   0.162 -0.0681 -0.0110  0.0898
  399TMC3    O2 6023   2.059   2.186   0.581  0.6541 -0.7886  0.4172
  400TMC3    C1 6024   0.702   1.042  16.746  0.9955  0.1641 -0.3986
  400TMC3    C2 6025   0.612   1.029  16.641  0.1917  0.7974 -0.2125
  400TMC3    C3 6026   0.521   1.126  16.627  0.1616 -0.2804 -0.4535
  400TMC3    C4 6027   0.708   1.160  16.824  1.0768 -0.2173  0.2161
  400TMC3    C5 6028   0.614   1.257  16.801  0.3825  0.9677 -0.0383
  400TMC3    C6 6029   0.514   1.235  16.712 -0.6333  0.1711 -0.1396
  400TMC3     C 6030   0.808   0.946  16.753  0.7288  0.2357  0.8770
  400TMC3     O 6031   0.806   0.842  16.687  0.2660 -0.3592  0.0792
  400TMC3     H 6032   0.609   0.935  16.588  0.2680  1.2857 -1.0775
  400TMC3    H1 6033   0.782   1.182  16.899  3.4420  0.1772 -2.2225
  400TMC3    H2 6034   0.422   1.291  16.699 -1.0152 -0.0032  1.8159
  400TMC3    C7 6035   0.590   1.351  16.898  0.0414  0.3358  0.2226
  400TMC3    C8 6036   0.409   1.113  16.533  0.6049 -0.6149 -0.2715
  400TMC3    O1 6037   0.641   1.331  17.009 -0.4904  0.0014 -0.1905
  400TMC3    O2 6038   0.320   1.197  16.538 -0.0086 -0.2233 -0.3700
  401MPD2     C 6039   3.224   4.081   0.709  0.1752  0.5836  0.5157
  401MPD2    C1 6040   3.327   3.989   0.724  0.0056 -0.1944  0.3002
  401MPD2    C2 6041   3.296   3.859   0.745  0.0065 -0.4192  0.1082
  401MPD2    C3 6042   3.160   3.815   0.753  0.4101 -0.2460  0.1265
  401MPD2    C4 6043   3.062   3.904   0.716 -0.2776  0.2224  0.0950
  401MPD2    C5 6044   3.096   4.033   0.696  0.7127  0.3874 -0.2440
  401MPD2     H 6045   3.380   3.792   0.763 -0.9063 -1.6340 -0.1681
  401MPD2    H1 6046   2.955   3.886   0.715 -0.2843  0.2516  0.2562
  401MPD2    H2 6047   3.243   4.187   0.710  3.7623 -0.0276 -3.7376
  401MPD2    H3 6048   3.014   4.096   0.662  0.1392 -0.0282  0.3797
  401MPD2     N 6049   3.143   3.679   0.789 -0.1767 -0.5220  0.0815
  401MPD2    H5 6050   3.222   3.620   0.813  1.3535  0.8166 -1.7232
  401MPD2    N1 6051   3.462   4.030   0.729 -0.3748 -0.0473 -0.2128
  401MPD2    H7 6052   3.527   3.959   0.760 -0.6375  0.6369  1.8588
  402TMC3    C1 6053   3.051   3.469   0.817  0.8070 -0.7124 -0.1544
  402TMC3    C2 6054   3.154   3.453   0.901  0.2546 -0.3529 -0.6923
  402TMC3    C3 6055   3.235   3.347   0.882  0.4049 -0.2381  0.2508
  402TMC3    C4 6056   3.040   3.397   0.702  0.1338 -1.0032 -0.0381
  402TMC3    C5 6057   3.129   3.295   0.684  0.4874  0.4298 -0.1175
  402TMC3    C6 6058   3.217   3.259   0.784 -0.3475  0.3764  0.1342
  402TMC3     C 6059   3.023   3.611   0.790 -0.7337  0.5699  1.0585
  402TMC3     O 6060   2.913   3.646   0.755  0.0723  0.0115 -0.0952
  402TMC3     H 6061   3.157   3.504   0.997 -1.6453  0.4947 -1.0798
  402TMC3    H1 6062   2.967   3.410   0.623  0.6423  1.5663 -0.0681
  402TMC3    H2 6063   3.293   3.182   0.770 -0.0234  0.8049 -0.5016
  402TMC3    C7 6064   3.146   3.224   0.559  0.9249  0.0914 -0.1045
  402TMC3    C8 6065   3.370   3.357   0.920 -0.0606  0.2794  0.0070
  402TMC3    O1 6066   3.055   3.159   0.518 -0.1499  0.3564 -0.3223
  402TMC3    O2 6067   3.459   3.298   0.856  0.0871 -0.5212 -0.4591
  403MPD2     C 6068   2.637   2.182  13.212 -0.6634 -0.0768 -0.8073
  403MPD2    C1 6069   2.567   2.271  13.293 -0.2352 -0.0570 -0.1292
  403MPD2    C2 6070   2.641   2.321  13.406 -0.3006  0.3996 -0.8312
  403MPD2    C3 6071   2.765   2.274  13.435  0.0795 -0.3587 -0.0172
  403MPD2    C4 6072   2.831   2.198  13.345 -0.5567  0.4799 -0.4236
  403MPD2    C5 6073   2.766   2.145  13.238 -0.3367 -0.4191  0.0083
  403MPD2     H 6074   2.601   2.386  13.482  1.3465 -2.2907  2.3560
  403MPD2    H1 6075   2.928   2.158  13.375 -0.2651  1.6868  0.2257
  403MPD2    H2 6076   2.594   2.141  13.121 -0.7890 -2.3375  0.2576
  403MPD2    H3 6077   2.815   2.068  13.180  1.4615 -0.8377  2.1003
  403MPD2     N 6078   2.829   2.316  13.559  0.7345 -0.1438 -0.3375
  403MPD2    H5 6079   2.782   2.386  13.615 -0.1243 -1.3491  0.4673
  403MPD2    N1 6080   2.433   2.306  13.256 -0.3182  0.8166 -0.1158
  403MPD2    H7 6081   2.415   2.267  13.164  0.8203 -0.6115  0.2575
  404TMC3    C1 6082   2.201   2.348  13.291  0.0056  0.4560 -0.0122
  404TMC3    C2 6083   2.114   2.292  13.382  0.0457  0.1061 -0.0391
  404TMC3    C3 6084   2.008   2.215  13.333  0.5068 -0.0068  0.5735
  404TMC3    C4 6085   2.182   2.333  13.154 -0.2879 -0.9084 -0.2875
  404TMC3    C5 6086   2.076   2.264  13.116 -0.1091  0.3606  0.4698
  404TMC3    C6 6087   1.999   2.196  13.203  0.3657  0.1414 -0.3592
  404TMC3     C 6088   2.338   2.366  13.335  0.6173  0.8475  0.3073
  404TMC3     O 6089   2.354   2.399  13.453  0.7147  0.1009 -0.6330
  404TMC3     H 6090   2.145   2.292  13.486 -0.2419 -1.9247  0.0513
  404TMC3    H1 6091   2.245   2.387  13.085 -0.2473 -0.8346 -0.1915
  404TMC3    H2 6092   1.917   2.139  13.160 -0.2987  0.2114  0.8403
  404TMC3    C7 6093   2.046   2.256  12.976 -0.0539  0.3448 -0.4035
  404TMC3    C8 6094   1.963   2.111  13.414 -1.3222  0.3345 -0.7642
  404TMC3    O1 6095   2.134   2.291  12.896  0.0599 -0.0007  0.2362
  404TMC3    O2 6096   1.950   2.006  13.355 -0.2783 -0.0440  0.2271
  405MPD2     C 6097   2.349   2.630  14.626 -0.3362  0.5027 -0.1237
  405MPD2    C1 6098   2.276   2.621  14.509  0.6616  0.4099  0.0332
  405MPD2    C2 6099   2.293   2.722  14.415 -0.2759  0.1737  0.0070
  405MPD2    C3 6100   2.378   2.829  14.437  0.0944  0.6413  0.0287
  405MPD2    C4 6101   2.449   2.830  14.552 -0.4110 -0.1335 -0.2294
  405MPD2    C5 6102   2.434   2.734  14.644  0.1297 -0.1821  0.3279
  405MPD2     H 6103   2.227   2.720  14.329 -0.0421  3.2789 -0.2458
  405MPD2    H1 6104   2.524   2.906  14.574 -0.8755  0.0596  0.6824
  405MPD2    H2 6105   2.340   2.565  14.713  0.8140 -1.9287 -1.8107
  405MPD2    H3 6106   2.487   2.752  14.737 -1.0510  1.3832  0.6944
  405MPD2     N 6107   2.386   2.935  14.342  0.1373 -0.4057  0.6374
  405MPD2    H5 6108   2.338   2.929  14.253  0.0908 -0.2020  0.6493
  405MPD2    N1 6109   2.192   2.510  14.494  0.4469 -0.4056 -0.3234
  405MPD2    H7 6110   2.197   2.454  14.579 -1.2539 -0.1236 -0.0425
  406TMC3    C1 6111   2.248   3.298  14.253  0.1417 -0.0334  0.1945
  406TMC3    C2 6112   2.177   3.231  14.152  0.2144 -0.3826  0.1043
  406TMC3    C3 6113   2.245   3.123  14.101 -0.8015 -1.0782 -0.4800
  406TMC3    C4 6114   2.366   3.257  14.313  0.4708 -0.2423 -0.4935
  406TMC3    C5 6115   2.423   3.150  14.252 -0.9697 -0.4819 -0.1015
  406TMC3    C6 6116   2.366   3.084  14.144 -0.7069  0.3438 -0.1021
  406TMC3     C 6117   2.213   3.427  14.283 -0.3327 -1.2266  0.1707
  406TMC3     O 6118   2.296   3.506  14.322  0.2754 -0.0318  0.3672
  406TMC3     H 6119   2.086   3.268  14.105  0.3226 -0.9435 -0.5413
  406TMC3    H1 6120   2.414   3.308  14.396 -1.5615  0.1969  0.4097
  406TMC3    H2 6121   2.420   3.002  14.099  0.5869  0.2413  1.6363
  406TMC3    C7 6122   2.448   3.054  14.364  0.2069 -0.0110 -0.4758
  406TMC3    C8 6123   2.164   3.006  14.085 -0.4454  0.3371  0.2126
  406TMC3    O1 6124   2.508   3.102  14.462  0.3155  0.0862 -0.5527
  406TMC3    O2 6125   2.212   2.903  14.124  0.0460 -0.5444  0.2277
  407MPD2     C 6126   0.311   0.212   9.760 -0.1510 -0.1580 -0.8089
  407MPD2    C1 6127   0.437   0.187   9.819  0.1236  0.3239  0.3197
  407MPD2    C2 6128   0.495   0.285   9.901  0.5287 -0.3260 -0.9067
  407MPD2    C3 6129   0.426   0.404   9.918 -0.4009 -0.1479  0.0598
  407MPD2    C4 6130   0.299   0.427   9.868  0.1602 -0.4444 -0.0898
  407MPD2    C5 6131   0.249   0.334   9.783 -0.1366  0.3262 -0.4254
  407MPD2     H 6132   0.598   0.273   9.933  0.2371  0.9558  0.4872
  407MPD2    H1 6133   0.236   0.515   9.875 -0.3224 -0.9205  1.5691
  407MPD2    H2 6134   0.253   0.132   9.715  1.8405 -1.0407 -1.8495
  407MPD2    H3 6135   0.152   0.346   9.736 -1.1750 -0.6249  1.4701
  407MPD2     N 6136   0.487   0.505   9.999 -0.2315 -0.1891  0.5387
  407MPD2    H5 6137   0.445   0.597   9.992 -0.8491 -0.6413 -1.6955
  407MPD2    N1 6138   0.513   0.076   9.775  0.1646 -0.4252 -0.0430
  407MPD2    H7 6139   0.595   0.051   9.830  0.4612  2.7960  1.0133
  408TMC3    C1 6140   0.607   4.637   9.658 -0.3539 -0.2279  0.0181
  408TMC3    C2 6141   0.720   4.703   9.633  0.4323 -0.4646  0.4852
  408TMC3    C3 6142   0.836   4.629   9.607 -0.1112 -0.0462  0.2429
  408TMC3    C4 6143   0.593   4.500   9.632  0.2024  0.0827  0.3174
  408TMC3    C5 6144   0.701   4.435   9.586 -0.1368 -0.2257  0.0563
  408TMC3    C6 6145   0.821   4.494   9.586 -0.5154  0.2497 -0.3851
  408TMC3     C 6146   0.482   4.713   9.687  0.6599  0.0705 -0.1342
  408TMC3     O 6147   0.377   4.689   9.628 -0.1521  0.2693  0.7789
  408TMC3     H 6148   0.718   0.075   9.630 -1.8474 -0.4754  1.8022
  408TMC3    H1 6149   0.493   4.460   9.646  1.5467 -3.5997 -0.7345
  408TMC3    H2 6150   0.913   4.436   9.580 -1.2557 -0.9139 -0.4371
  408TMC3    C7 6151   0.700   4.293   9.598  0.1501  0.4766 -0.2531
  408TMC3    C8 6152   0.968   4.669   9.633  0.9647  0.4409 -0.1880
  408TMC3    O1 6153   0.807   4.237   9.613  0.1980 -0.1025 -1.2455
  408TMC3    O2 6154   1.056   4.581   9.652 -0.4037  0.6089 -0.0003
  409MPD2     C 6155   4.100   0.590  16.739 -0.4927 -0.0712 -0.9079
  409MPD2    C1 6156   4.228   0.538  16.739 -0.0334  0.3253  0.5178
  409MPD2    C2 6157   4.333   0.608  16.688 -0.1620 -0.7945 -0.3161
  409MPD2    C3 6158   4.308   0.738  16.651  0.0750  0.9184  0.2076
  409MPD2    C4 6159   4.178   0.794  16.654 -0.4280  0.6250  1.5871
  409MPD2    C5 6160   4.078   0.716  16.691  0.2808 -0.5091  0.3436
  409MPD2     H 6161   4.435   0.570  16.679 -0.4136 -1.4750 -0.2915
  409MPD2    H1 6162   4.153   0.893  16.618  0.4253  1.1393  2.3974
  409MPD2    H2 6163   4.011   0.535  16.767 -1.1703  2.1666  1.3102
  409MPD2    H3 6164   3.978   0.759  16.688  0.9484  0.9486 -0.4309
  409MPD2     N 6165   4.410   0.830  16.627  0.0092 -0.3621  0.2706
  409MPD2    H5 6166   4.393   0.930  16.628 -0.2268 -0.3952 -0.3586
  409MPD2    N1 6167   4.261   0.409  16.782  0.1024 -0.2377 -0.0408
  409MPD2    H7 6168   4.357   0.378  16.777  0.2568  0.5288 -1.5156
  410TMC3    C1 6169   4.616   0.929  16.640 -0.0470 -0.1226  0.0298
  410TMC3    C2 6170   4.724   0.935  16.721 -0.2345  0.3417 -0.0287
  410TMC3    C3 6171   0.062   1.046  16.723 -0.8795  0.6924  0.7444
  410TMC3    C4 6172   4.586   1.032  16.552 -0.2784  0.4334  0.1047
  410TMC3    C5 6173   4.664   1.145  16.555  0.0715 -0.1670  0.1893
  410TMC3    C6 6174   0.034   1.158  16.647  0.3413  0.0461 -0.2999
  410TMC3     C 6175   4.546   0.808  16.642  0.1720  0.6158  0.4909
  410TMC3     O 6176   4.606   0.702  16.654  0.4190  0.2593 -0.4462
  410TMC3     H 6177   0.000   0.861  16.798  1.7248 -0.3567 -1.0293
  410TMC3    H1 6178   4.523   1.005  16.468  2.8747 -0.3224 -1.9958
  410TMC3    H2 6179   0.113   1.230  16.627 -0.8493  1.8529  1.4831
  410TMC3    C7 6180   4.646   1.240  16.447  0.4748  0.3048 -0.1119
  410TMC3    C8 6181   0.176   1.049  16.813  0.1712  0.1219  0.3538
  410TMC3    O1 6182   4.554   1.212  16.370  0.2818 -0.5643 -0.1925
  410TMC3    O2 6183   0.213   1.158  16.854 -0.4623  0.4914 -0.5427
  411MPD2     C 6184   0.236   1.951  14.559 -0.0963  0.4637  0.1227
  411MPD2    C1 6185   0.107   1.956  14.598 -0.1351  0.1441 -0.5514
  411MPD2    C2 6186   0.029   1.844  14.560 -0.7990 -0.4084 -0.1870
  411MPD2    C3 6187   0.081   1.733  14.486 -0.2817 -0.0642 -0.5748
  411MPD2    C4 6188   0.210   1.748  14.443 -0.8553 -0.2682  1.7075
  411MPD2    C5 6189   0.286   1.859  14.470 -0.3059  0.5098  0.2746
  411MPD2     H 6190   4.664   1.843  14.596 -0.1639  1.0212  1.6738
  411MPD2    H1 6191   0.249   1.689  14.361 -0.2656 -0.3868  2.0745
  411MPD2    H2 6192   0.298   2.035  14.590 -1.0887  0.9110  0.9169
  411MPD2    H3 6193   0.387   1.874  14.434 -0.4401  1.6669  0.3888
  411MPD2     N 6194   4.729   1.636  14.431 -0.8923  0.5243  0.4430
  411MPD2    H5 6195   0.023   1.572  14.360  0.2631  0.4802  0.9764
  411MPD2    N1 6196   0.040   2.060  14.671  0.0134  0.5911  0.5965
  411MPD2    H7 6197   4.680   2.047  14.696 -0.0146 -1.2281 -0.4170
  412TMC3    C1 6198   4.528   1.543  14.383  0.1275  0.2972  0.6130
  412TMC3    C2 6199   4.401   1.502  14.430  0.2318  1.0272 -0.3038
  412TMC3    C3 6200   4.323   1.419  14.351  0.3222  0.3287 -0.1965
  412TMC3    C4 6201   4.574   1.523  14.256 -0.2704 -0.6326 -0.3068
  412TMC3    C5 6202   4.487   1.443  14.179 -0.3542 -0.2174  0.2883
  412TMC3    C6 6203   4.378   1.383  14.235  0.6046 -0.4078  0.1002
  412TMC3     C 6204   4.599   1.627  14.469 -0.7147 -0.3818 -0.2889
  412TMC3     O 6205   4.559   1.640  14.582  0.1630  0.3856  0.1957
  412TMC3     H 6206   4.359   1.543  14.522  3.2999  2.1853  0.5866
  412TMC3    H1 6207   4.668   1.547  14.207  0.1185 -0.9558  0.2878
  412TMC3    H2 6208   4.326   1.315  14.168 -1.1368  0.7369  0.2864
  412TMC3    C7 6209   4.454   1.510  14.052  0.6542 -0.2819 -0.2109
  412TMC3    C8 6210   4.177   1.438  14.363 -0.5508  0.1067  0.3039
  412TMC3    O1 6211   4.345   1.483  13.998 -0.2202  0.6168  0.5365
  412TMC3    O2 6212   4.125   1.472  14.469 -0.2588  0.0588 -0.6328
  413MPD2     C 6213   1.319   4.393  15.751 -0.2446  0.1419 -0.4259
  413MPD2    C1 6214   1.323   4.402  15.612 -0.0354 -0.5623 -0.2055
  413MPD2    C2 6215   1.425   4.339  15.538  0.5487 -0.3575 -0.3545
  413MPD2    C3 6216   1.523   4.271  15.605 -0.1650  0.1879  0.8237
  413MPD2    C4 6217   1.518   4.257  15.748 -0.3890  0.0984  0.2034
  413MPD2    C5 6218   1.418   4.318  15.813 -0.9358  0.1916  0.4993
  413MPD2     H 6219   1.435   4.359  15.432  2.7706  0.5971  0.0502
  413MPD2    H1 6220   1.596   4.212  15.808  1.6934  1.5309 -1.4542
  413MPD2    H2 6221   1.248   4.458  15.802  2.0778  2.8205 -0.6080
  413MPD2    H3 6222   1.407   4.305  15.920 -2.1754  2.8114  0.7024
  413MPD2     N 6223   1.630   4.215  15.528  0.1329 -0.9917  0.4516
  413MPD2    H5 6224   1.629   4.234  15.428 -2.0177 -1.3130  0.4025
  413MPD2    N1 6225   1.221   4.477  15.542  0.7667 -0.2055  0.1875
  413MPD2    H7 6226   1.156   4.536  15.593  0.1427 -0.8458  0.1409
  414TMC3    C1 6227   1.808   4.077  15.478 -0.7864 -0.5750 -0.1753
  414TMC3    C2 6228   1.894   3.977  15.505  0.3145  0.9948 -1.0764
  414TMC3    C3 6229   1.955   3.912  15.412 -0.5762  0.4225  0.9961
  414TMC3    C4 6230   1.795   4.127  15.350 -0.1069  0.3462 -0.1658
  414TMC3    C5 6231   1.881   4.078  15.250 -0.3130  0.0648  0.4181
  414TMC3    C6 6232   1.952   3.964  15.284 -0.1343 -0.2545  0.1930
  414TMC3     C 6233   1.711   4.117  15.574  0.3701  0.1499 -0.5281
  414TMC3     O 6234   1.719   4.058  15.682 -0.2501  0.6340  0.3146
  414TMC3     H 6235   1.903   3.954  15.611 -2.7147  0.7440 -0.8550
  414TMC3    H1 6236   1.734   4.207  15.308 -0.3216  0.2622 -0.0127
  414TMC3    H2 6237   2.007   3.915  15.205  0.5399 -0.4679  0.7973
  414TMC3    C7 6238   1.949   4.174  15.168  0.1058  0.9502  0.3410
  414TMC3    C8 6239   2.046   3.800  15.429  0.2136 -0.5710 -0.1486
  414TMC3    O1 6240   1.894   4.258  15.106 -0.5126  0.1752 -0.3853
  414TMC3    O2 6241   2.122   3.789  15.333  0.1989  0.0120  0.7951
  415TMC3    C1 6242   2.695   2.544   9.971  0.7936  0.3443  0.0916
  415TMC3    C2 6243   2.720   2.636   9.870  0.4460 -0.0981  0.4573
  415TMC3    C3 6244   2.679   2.592   9.743  0.0473  0.1866  0.8351
  415TMC3    C4 6245   2.651   2.418   9.946 -0.3621 -0.2592 -0.6286
  415TMC3    C5 6246   2.621   2.381   9.818  0.6857  0.1963  0.4874
  415TMC3    C6 6247   2.629   2.466   9.713 -0.4645 -0.6359  0.3575
  415TMC3     C 6248   2.698   2.590  10.108  0.2357  0.3195  0.0755
  415TMC3     O 6249   2.730   2.507  10.194 -0.1363 -0.5588 -0.1116
  415TMC3     H 6250   2.755   2.734   9.900 -0.0585  0.1002  0.3922
  415TMC3    H1 6251   2.644   2.344  10.025 -0.8257 -0.3903 -0.7978
  415TMC3    H2 6252   2.597   2.434   9.614  2.6067 -0.4174 -0.6749
  415TMC3    C7 6253   2.531   2.266   9.801  0.3287 -0.0405  1.1021
  415TMC3    C8 6254   2.684   2.687   9.638 -0.0305  0.6928  0.6967
  415TMC3    O1 6255   2.453   2.262   9.705 -0.2389 -0.2212  0.3614
  415TMC3    O2 6256   2.636   2.654   9.526 -0.1193 -0.2031  0.0169
  416MPD2     C 6257   4.246   1.533  11.190  0.1624 -0.3974 -0.6490
  416MPD2    C1 6258   4.132   1.448  11.216 -0.1852  0.1006 -0.2689
  416MPD2    C2 6259   4.106   1.345  11.131  1.0249 -0.3075 -0.2375
  416MPD2    C3 6260   4.187   1.329  11.019 -0.7300  0.3766 -0.6117
  416MPD2    C4 6261   4.302   1.404  11.001  0.5637 -0.3397  0.9211
  416MPD2    C5 6262   4.328   1.514  11.080 -0.3058  0.6522 -0.3509
  416MPD2     H 6263   4.026   1.273  11.145  2.1075 -1.8164 -1.8504
  416MPD2    H1 6264   4.361   1.396  10.910 -1.2310 -0.7681 -0.2038
  416MPD2    H2 6265   4.267   1.617  11.256 -0.9754 -1.2360  0.7752
  416MPD2    H3 6266   4.410   1.583  11.062  1.2899 -1.1130  0.1569
  416MPD2     N 6267   4.158   1.220  10.939  0.1901 -0.4522  0.6777
  416MPD2    H5 6268   4.078   1.162  10.961 -0.8721  0.0916 -1.7916
  416MPD2    N1 6269   4.052   1.484  11.328  0.1260 -0.4000 -0.1292
  416MPD2    H7 6270   4.093   1.564  11.375 -1.1446 -0.2672  0.7595
  417TMC3    C1 6271   3.879   1.489  11.478  0.1035  0.2035  0.1290
  417TMC3    C2 6272   3.805   1.424  11.572 -0.7514 -0.1192 -0.5491
  417TMC3    C3 6273   3.737   1.497  11.664  0.9884 -0.1593  0.1972
  417TMC3    C4 6274   3.872   1.622  11.467  0.0987  0.1403  0.1616
  417TMC3    C5 6275   3.792   1.689  11.553 -0.6205  0.0171 -0.0298
  417TMC3    C6 6276   3.723   1.628  11.655 -0.0336  0.1677 -0.3723
  417TMC3     C 6277   3.932   1.422  11.362 -0.3817 -0.0047  0.3301
  417TMC3     O 6278   3.875   1.322  11.319 -0.3954  0.1424  0.2754
  417TMC3     H 6279   3.825   1.317  11.577 -1.0312 -0.1761 -0.5955
  417TMC3    H1 6280   3.926   1.680  11.393 -0.4937 -1.3331 -1.3962
  417TMC3    H2 6281   3.649   1.677  11.717  0.8902 -0.6816  1.3945
  417TMC3    C7 6282   3.754   1.825  11.515 -0.5997  0.2922  0.1593
  417TMC3    C8 6283   3.708   1.430  11.791 -1.4963 -0.2681  0.5209
  417TMC3    O1 6284   3.783   1.862  11.399 -0.1625  0.1090  0.7210
  417TMC3    O2 6285   3.723   1.309  11.796 -0.7517  0.1635  0.3352
  418TMC3    C1 6286   2.672   2.918   0.247 -0.3786  0.6773 -0.3783
  418TMC3    C2 6287   2.568   2.992   0.203 -0.1470 -0.9661  0.0066
  418TMC3    C3 6288   2.456   3.012   0.282  0.5594  0.4051  0.0679
  418TMC3    C4 6289   2.670   2.856   0.371  0.2791  0.3866  0.0140
  418TMC3    C5 6290   2.561   2.889   0.454 -1.2563 -0.2754 -0.3293
  418TMC3    C6 6291   2.453   2.969   0.411 -0.5325  0.8383 -0.2737
  418TMC3     C 6292   2.786   2.905   0.163  0.4460  0.8855 -0.3692
  418TMC3     O 6293   2.789   2.965   0.055 -0.1468 -0.6361 -1.2367
  418TMC3     H 6294   2.579   3.053   0.114 -1.0271 -1.8332 -0.7055
  418TMC3    H1 6295   2.756   2.801   0.407  1.9240  2.5312 -0.6211
  418TMC3    H2 6296   2.362   2.989   0.466 -1.5068 -2.7267 -0.5812
  418TMC3    C7 6297   2.542   2.785   0.557  0.0377  0.0837 -0.7526
  418TMC3    C8 6298   2.322   3.020   0.234 -0.0800 -0.1999  0.1359
  418TMC3    O1 6299   2.589   2.675   0.542 -0.1077 -0.2658  0.1365
  418TMC3    O2 6300   2.280   3.132   0.234  0.6521  0.4126  0.6153
  419MPD2     C 6301   0.632   1.202  12.051 -0.2033 -0.5991  0.5918
  419MPD2    C1 6302   0.725   1.230  12.147  1.2417 -0.1447  0.8573
  419MPD2    C2 6303   0.686   1.234  12.278 -0.1010  0.9393 -0.0010
  419MPD2    C3 6304   0.560   1.208  12.323 -0.2458  0.5458  0.0341
  419MPD2    C4 6305   0.472   1.168  12.224  0.2905  0.5951  0.1884
  419MPD2    C5 6306   0.504   1.172  12.093 -0.0279 -0.7844  0.1781
  419MPD2     H 6307   0.767   1.256  12.346  0.6773 -0.7507 -0.3657
  419MPD2    H1 6308   0.376   1.122  12.246 -0.1538  1.1931 -0.5045
  419MPD2    H2 6309   0.652   1.213  11.945  2.8171 -2.4726  0.9590
  419MPD2    H3 6310   0.437   1.145  12.013 -0.5533 -0.2724  0.4458
  419MPD2     N 6311   0.535   1.220  12.459  0.6302 -0.0306 -0.8136
  419MPD2    H5 6312   0.605   1.264  12.517  0.1684  0.3587 -0.5627
  419MPD2    N1 6313   0.860   1.267  12.128 -0.0964  0.0439 -0.0254
  419MPD2    H7 6314   0.909   1.299  12.211 -1.1244 -0.3453  0.7379
  420TMC3    C1 6315   0.396   1.291  12.634 -0.7837 -0.0713  0.3064
  420TMC3    C2 6316   0.283   1.355  12.656  0.6630 -0.4328 -0.5538
  420TMC3    C3 6317   0.269   1.420  12.775 -0.7477  0.0703 -0.0408
  420TMC3    C4 6318   0.489   1.271  12.734 -0.7407  0.3480 -0.2878
  420TMC3    C5 6319   0.475   1.335  12.849 -0.4130  0.3462  0.7712
  420TMC3    C6 6320   0.360   1.409  12.874 -0.0736 -0.2378 -0.0441
  420TMC3     C 6321   0.411   1.222  12.508  1.0715 -0.2490  0.4321
  420TMC3     O 6322   0.312   1.178  12.449 -0.4776  0.1895  0.4965
  420TMC3     H 6323   0.229   1.388  12.568  0.1662  1.1513  0.3367
  420TMC3    H1 6324   0.573   1.203  12.721 -1.8139 -1.1140  0.3403
  420TMC3    H2 6325   0.342   1.452  12.972 -1.3095 -1.5882  0.3001
  420TMC3    C7 6326   0.589   1.345  12.934  0.0141 -0.0300 -0.0406
  420TMC3    C8 6327   0.143   1.505  12.792  0.2374  0.7106 -0.4110
  420TMC3    O1 6328   0.671   1.249  12.931 -0.2960 -0.4700 -0.3252
  420TMC3    O2 6329   0.147   1.583  12.887 -0.0627  0.0906 -0.5154
  421TMC3    C1 6330   2.989   2.337  13.731  0.1125 -0.2133  0.4281
  421TMC3    C2 6331   2.955   2.473  13.742 -0.4202  0.0570  0.3855
  421TMC3    C3 6332   3.046   2.546  13.821 -0.2118 -0.2016  0.4580
  421TMC3    C4 6333   3.093   2.274  13.807  0.3660  0.1111  0.0977
  421TMC3    C5 6334   3.169   2.352  13.883 -0.4928  0.2552 -0.2465
  421TMC3    C6 6335   3.150   2.486  13.888  0.8636  0.0825  0.2435
  421TMC3     C 6336   2.945   2.260  13.615  1.3402 -0.0319 -0.2632
  421TMC3     O 6337   2.999   2.152  13.580  0.1645  0.1382  0.5839
  421TMC3     H 6338   2.881   2.522  13.680  2.2664  5.3080  1.3666
  421TMC3    H1 6339   3.111   2.169  13.785 -2.8196 -0.2233 -0.9226
  421TMC3    H2 6340   3.202   2.543  13.963  0.8408 -3.1813  2.7287
  421TMC3    C7 6341   3.277   2.304  13.961 -0.1176 -0.1380 -0.2169
  421TMC3    C8 6342   3.007   2.678  13.868 -0.2988 -0.4059  0.4925
  421TMC3    O1 6343   3.364   2.385  13.984  0.5220 -0.2385  0.5361
  421TMC3    O2 6344   3.098   2.737  13.922 -0.3502 -0.0509 -0.1222
  422TMC3    C1 6345   4.703   4.491  12.212  0.4901 -0.0981  0.4046
  422TMC3    C2 6346   4.666   4.605  12.286 -0.0357  0.2000 -0.5035
  422TMC3    C3 6347   4.539   4.602  12.339 -1.0545 -0.1929  0.2091
  422TMC3    C4 6348   4.623   4.378  12.214  0.5636 -0.3872 -0.0767
  422TMC3    C5 6349   4.498   4.388  12.267  0.0379  0.1853 -0.1396
  422TMC3    C6 6350   4.458   4.494  12.338  0.1148 -0.1278  0.6930
  422TMC3     C 6351   0.110   4.481  12.202  0.5196 -0.8193  0.4191
  422TMC3     O 6352   0.169   4.545  12.282  0.9450  0.0860 -0.2731
  422TMC3     H 6353   0.001   4.682  12.312  0.1176  0.2591 -1.1029
  422TMC3    H1 6354   4.671   4.291  12.171 -0.7379 -0.5038 -1.3183
  422TMC3    H2 6355   4.355   4.510  12.369 -0.2073 -0.4614 -0.1945
  422TMC3    C7 6356   4.404   4.279  12.256 -0.5099 -0.3009 -0.0766
  422TMC3    C8 6357   4.512   4.710  12.434  0.1180  0.0947  0.3382
  422TMC3    O1 6358   4.427   4.199  12.164  0.4776 -0.6440  0.3290
  422TMC3    O2 6359   4.602   0.045  12.481  0.2589 -0.2225  0.0815
  423MPD2     C 6360   1.579   0.318   0.488  0.4656 -0.5133 -0.4570
  423MPD2    C1 6361   1.473   0.229   0.496  0.9906 -1.0526 -0.3264
  423MPD2    C2 6362   1.420   0.179   0.377 -0.0540  0.2727  0.7978
  423MPD2    C3 6363   1.473   0.204   0.253  0.0112  0.0821  0.2271
  423MPD2    C4 6364   1.577   0.294   0.256 -0.0278  0.2435 -0.2093
  423MPD2    C5 6365   1.635   0.348   0.367  0.8467  0.4090 -0.3668
  423MPD2     H 6366   1.332   0.115   0.374 -1.0322  1.6685 -0.7392
  423MPD2    H1 6367   1.619   0.319   0.159  0.3354  0.2740 -0.0451
  423MPD2    H2 6368   1.620   0.365   0.576 -2.5418  1.5656 -0.1797
  423MPD2    H3 6369   1.713   0.422   0.357  1.0829  0.2244  0.1137
  423MPD2     N 6370   1.451   0.139   0.128  0.3228 -0.4855  0.1870
  423MPD2    H5 6371   1.516   0.164   0.053 -0.1261 -2.4011 -0.8453
  423MPD2    N1 6372   1.402   0.216   0.617 -0.1443  0.2442  0.3070
  423MPD2    H7 6373   1.315   0.164   0.609 -0.1055  0.3710 -0.9156
  424TMC3    C1 6374   1.328   0.228   0.834  0.5774  1.4143 -0.4794
  424TMC3    C2 6375   1.347   0.173   0.956  0.5863  0.6966 -0.1703
  424TMC3    C3 6376   1.231   0.142   1.032 -0.2632 -0.3404  0.6965
  424TMC3    C4 6377   1.208   0.252   0.774  0.1780  0.9113 -0.5745
  424TMC3    C5 6378   1.103   0.215   0.851  0.2212  0.3376  0.1716
  424TMC3    C6 6379   1.110   0.152   0.972 -0.4570  0.1950  0.4767
  424TMC3     C 6380   1.440   0.247   0.747 -0.1899  0.0039 -0.1953
  424TMC3     O 6381   1.550   0.268   0.798  0.9987  0.4908  0.3441
  424TMC3     H 6382   1.449   0.166   0.990  0.0594 -0.8711  1.0964
  424TMC3    H1 6383   1.192   0.302   0.679  2.3565  0.0900 -1.3718
  424TMC3    H2 6384   1.028   0.118   1.035 -1.1282 -1.7519 -1.4625
  424TMC3    C7 6385   0.975   0.211   0.775 -0.5504  0.1626 -0.1057
  424TMC3    C8 6386   1.236   0.051   1.143  0.3451 -0.5773  0.3208
  424TMC3    O1 6387   0.987   0.215   0.653  0.2501 -0.1178 -0.4065
  424TMC3    O2 6388   1.149   4.704   1.141  0.1148  0.4774  0.0338
  425MPD2     C 6389   0.196   4.357  17.074  0.9657 -0.3394 -0.4620
  425MPD2    C1 6390   0.159   4.232  17.024  0.6696 -0.1910  0.1482
  425MPD2    C2 6391   0.067   4.152  17.092  0.7752 -0.0912 -0.1713
  425MPD2    C3 6392   0.021   4.190  17.214  0.1092  0.2942  0.4756
  425MPD2    C4 6393   0.054   4.317  17.262 -1.0888 -0.8878 -0.1125
  425MPD2    C5 6394   0.134   4.403  17.185  0.5462 -0.6052  0.1279
  425MPD2     H 6395   0.041   4.054  17.056 -0.6343  0.7463 -1.4155
  425MPD2    H1 6396   0.041   4.360  17.361  2.6911 -0.6474  0.3118
  425MPD2    H2 6397   0.270   4.420  17.026 -2.3890  3.7335 -0.3028
  425MPD2    H3 6398   0.163   4.497  17.231  0.3159 -0.7651  0.6017
  425MPD2     N 6399   4.667   4.112  17.287 -0.2374 -0.2789 -0.0810
  425MPD2    H5 6400   4.646   4.020  17.250 -0.8238 -0.5314  0.8929
  425MPD2    N1 6401   0.231   4.194  16.906 -0.1022 -0.1316  0.0695
  425MPD2    H7 6402   0.304   4.253  16.869 -2.6217  1.9513 -1.6530
  426TMC3    C1 6403   0.332   4.058  16.758  0.2451  0.4853  0.3717
  426TMC3    C2 6404   0.322   4.015  16.630  0.6152  0.0690  0.3389
  426TMC3    C3 6405   0.440   4.020  16.560  0.4530 -0.4305 -0.6041
  426TMC3    C4 6406   0.448   4.090  16.818  0.8317 -0.0786 -0.2818
  426TMC3    C5 6407   0.562   4.070  16.750  0.3166 -0.5380  0.1352
  426TMC3    C6 6408   0.558   4.047  16.613 -0.4430 -0.3554 -0.2083
  426TMC3     C 6409   0.222   4.074  16.845  0.0154 -0.5489  0.9910
  426TMC3     O 6410   0.154   3.977  16.868 -0.2252 -0.1209 -0.1562
  426TMC3     H 6411   0.224   4.000  16.588  0.3025  0.1685  1.0277
  426TMC3    H1 6412   0.447   4.096  16.927  1.7323 -2.6716 -0.1297
  426TMC3    H2 6413   0.653   4.035  16.564  0.5799 -1.8290  2.1220
  426TMC3    C7 6414   0.663   3.970  16.814 -0.1788 -1.0157  0.2713
  426TMC3    C8 6415   0.448   3.922  16.449  0.6816  0.2798  0.5330
  426TMC3    O1 6416   0.776   3.958  16.763  0.2530 -0.8711  0.5438
  426TMC3    O2 6417   0.514   3.956  16.350 -0.3396  0.3421 -0.1326
  427MPD2     C 6418   3.762   1.865  15.038  0.2950  0.0771  0.1324
  427MPD2    C1 6419   3.744   1.725  15.027 -0.4174  0.2801  0.2228
  427MPD2    C2 6420   3.623   1.675  14.983  0.1093  0.3634 -0.0558
  427MPD2    C3 6421   3.521   1.755  14.938  0.8246 -0.5406  0.0108
  427MPD2    C4 6422   3.542   1.893  14.942 -0.4324  0.6774  0.4570
  427MPD2    C5 6423   3.665   1.945  14.990 -0.5655  0.1653 -0.0016
  427MPD2     H 6424   3.610   1.568  14.993  1.3494  0.3947  1.9451
  427MPD2    H1 6425   3.474   1.967  14.902  0.0453  1.0864  0.3990
  427MPD2    H2 6426   3.848   1.920  15.074 -0.4335  0.4680  1.2679
  427MPD2    H3 6427   3.669   2.053  14.994 -0.1248  0.1262  0.4956
  427MPD2     N 6428   3.409   1.704  14.860 -0.1554  0.4317  0.4095
  427MPD2    H5 6429   3.345   1.771  14.819  0.2659 -1.4827 -3.3303
  427MPD2    N1 6430   3.846   1.637  15.076  0.2418  0.0338  0.3643
  427MPD2    H7 6431   3.845   1.542  15.041 -2.9835 -0.3238  1.4105
  428TMC3    C1 6432   4.052   1.563  15.171 -0.2692 -1.1149  0.5197
  428TMC3    C2 6433   4.003   1.431  15.186  0.0821 -0.4625 -0.7397
  428TMC3    C3 6434   4.089   1.351  15.251 -0.0232  0.1753 -0.0801
  428TMC3    C4 6435   4.172   1.598  15.203  0.4340  0.3876  0.4520
  428TMC3    C5 6436   4.260   1.509  15.248 -0.8694 -0.1441  0.4700
  428TMC3    C6 6437   4.218   1.381  15.276 -0.0353 -0.3219 -0.1505
  428TMC3     C 6438   3.964   1.671  15.144  0.3631 -0.1447 -0.2131
  428TMC3     O 6439   3.986   1.781  15.194  0.3322  0.4512  0.7648
  428TMC3     H 6440   3.902   1.395  15.169 -1.4729  3.4717  0.0254
  428TMC3    H1 6441   4.195   1.704  15.205  0.0874  0.4721 -0.2741
  428TMC3    H2 6442   4.295   1.312  15.308  1.8065  1.1696 -1.3851
  428TMC3    C7 6443   4.382   1.560  15.312 -0.3527  0.5155  0.2209
  428TMC3    C8 6444   4.052   1.209  15.264  0.0354  0.3167  0.3189
  428TMC3    O1 6445   4.422   1.497  15.411  0.3394  0.0779 -0.0171
  428TMC3    O2 6446   3.954   1.172  15.210 -0.0578 -0.1449 -0.3695
  429MPD2     C 6447   4.674   1.045   0.070  0.2465  0.6143 -0.7502
  429MPD2    C1 6448   0.025   1.017  17.709  0.1959 -0.1659 -0.0278
  429MPD2    C2 6449   0.098   1.122  17.660 -0.1112 -0.0509  0.0862
  429MPD2    C3 6450   0.094   1.252  17.713  0.8645  0.6671 -0.1689
  429MPD2    C4 6451   0.012   1.274   0.076 -0.5148 -0.5951 -0.1701
  429MPD2    C5 6452   4.671   1.176   0.126  0.0886 -0.2195  0.0629
  429MPD2     H 6453   0.167   1.105  17.578 -0.5591  1.9873 -0.7158
  429MPD2    H1 6454   0.014   1.368   0.130 -0.8214 -0.8705  0.3212
  429MPD2    H2 6455   4.618   0.968   0.124  1.7725  0.0807  0.0884
  429MPD2    H3 6456   4.623   1.195   0.222 -0.0535  1.6030 -0.3689
  429MPD2     N 6457   0.181   1.356  17.656  0.4641 -0.5743 -0.2242
  429MPD2    H5 6458   0.246   1.333  17.581  0.6023 -2.4097  0.4704
  429MPD2    N1 6459   0.033   0.891  17.652  0.3972  0.3649  0.1454
  429MPD2    H7 6460   0.091   0.882  17.569  1.0519  1.3925  0.4972
  430TMC3    C1 6461   0.232   1.578  17.600  0.6962  0.0958  0.4856
  430TMC3    C2 6462   0.173   1.701  17.590  0.3231 -0.6008 -0.4315
  430TMC3    C3 6463   0.248   1.807  17.530 -0.1783 -0.0196  0.6922
  430TMC3    C4 6464   0.349   1.552  17.546  0.0870  0.1310  0.0810
  430TMC3    C5 6465   0.426   1.649  17.493 -0.2472  0.4731 -0.1608
  430TMC3    C6 6466   0.379   1.775  17.491  0.7534 -0.0275 -0.8932
  430TMC3     C 6467   0.166   1.487  17.687  0.3628  0.1181 -0.2285
  430TMC3     O 6468   0.107   1.540   0.032  0.1813  0.0702 -0.3122
  430TMC3     H 6469   0.073   1.714  17.628  0.3156  0.5959 -0.8826
  430TMC3    H1 6470   0.385   1.450  17.554 -0.4917  0.0762  1.8918
  430TMC3    H2 6471   0.436   1.858  17.450  2.5541 -1.6793 -1.7080
  430TMC3    C7 6472   0.480   1.616  17.370  0.3290 -0.2077  0.1958
  430TMC3    C8 6473   0.171   1.866  17.419 -0.2311 -0.1861  0.1292
  430TMC3    O1 6474   0.562   1.526  17.361  0.2435 -0.1322  0.1639
  430TMC3    O2 6475   0.245   1.931  17.344 -0.0015 -0.0764  0.0993
  431MPD2     C 6476   0.890   1.830  12.623  0.2324  0.4378 -0.5578
  431MPD2    C1 6477   1.000   1.881  12.557 -0.0007  0.0587 -0.4511
  431MPD2    C2 6478   1.073   1.805  12.473 -0.1986 -0.1059  0.0109
  431MPD2    C3 6479   1.021   1.674  12.435 -0.1470 -0.2647 -0.1028
  431MPD2    C4 6480   0.909   1.629  12.494  0.4909 -0.4624  0.0490
  431MPD2    C5 6481   0.847   1.704  12.588  0.4780  0.5219  0.2571
  431MPD2     H 6482   1.154   1.843  12.411  1.0159 -0.7683  1.1953
  431MPD2    H1 6483   0.872   1.527  12.482 -1.1329  0.1010  0.2586
  431MPD2    H2 6484   0.838   1.889  12.697  0.1695  0.7567 -0.8571
  431MPD2    H3 6485   0.749   1.674  12.624  0.4397 -0.6944 -0.8568
  431MPD2     N 6486   1.083   1.589  12.343  0.0157  0.1708  0.2028
  431MPD2    H5 6487   1.050   1.493  12.343 -0.8893  0.4791 -1.4784
  431MPD2    N1 6488   1.045   2.004  12.599 -0.2209 -0.2099 -0.0449
  431MPD2    H7 6489   1.145   2.025  12.596 -0.5275  1.2130 -0.4359
  432TMC3    C1 6490   1.151   1.538  12.134  0.7829 -0.2354 -0.5673
  432TMC3    C2 6491   1.251   1.541  12.041  0.5216  0.3192  0.2977
  432TMC3    C3 6492   1.235   1.458  11.934 -0.5726  0.4911  0.4962
  432TMC3    C4 6493   1.042   1.460  12.120  0.1552 -0.5771  0.1058
  432TMC3    C5 6494   1.032   1.374  12.020  0.4753 -0.2769  0.4844
  432TMC3    C6 6495   1.126   1.375  11.914 -0.2973 -0.0820 -0.7674
  432TMC3     C 6496   1.165   1.632  12.239  0.7878 -0.6565 -0.4917
  432TMC3     O 6497   1.219   1.738  12.211  0.3191  0.7867 -0.2557
  432TMC3     H 6498   1.344   1.592  12.061  2.5552 -3.3271  0.1911
  432TMC3    H1 6499   0.957   1.488  12.182 -0.1609  0.8258 -0.9469
  432TMC3    H2 6500   1.115   1.312  11.827 -0.8002 -0.7042 -0.2495
  432TMC3    C7 6501   0.911   1.293  12.010  0.2708  0.7367 -0.1948
  432TMC3    C8 6502   1.331   1.456  11.830 -0.5161 -0.4804 -0.4891
  432TMC3    O1 6503   0.873   1.257  11.898  0.3710 -0.1338 -0.5125
  432TMC3    O2 6504   1.320   1.369  11.742  0.4363  0.1258 -0.0329
  433MPD2     C 6505   0.316   0.552  10.740  0.5341  0.1883  0.6145
  433MPD2    C1 6506   0.237   0.441  10.743  0.2227  0.0803 -0.7201
  433MPD2    C2 6507   0.168   0.406  10.861  0.3200 -0.6489  0.0408
  433MPD2    C3 6508   0.181   0.499  10.968  0.0039  1.2252  0.2669
  433MPD2    C4 6509   0.257   0.615  10.961  0.9890  0.0843  0.0935
  433MPD2    C5 6510   0.323   0.633  10.848 -0.2831  0.2353 -0.1933
  433MPD2     H 6511   0.125   0.311  10.890 -3.8617  1.5685  1.2150
  433MPD2    H1 6512   0.270   0.693  11.035  0.5593  1.6201 -1.4456
  433MPD2    H2 6513   0.367   0.565  10.646  2.7574  0.5145  1.8671
  433MPD2    H3 6514   0.408   0.700  10.854 -2.1190  2.7100 -2.0540
  433MPD2     N 6515   0.121   0.458  11.084 -0.2419 -0.0424  0.0856
  433MPD2    H5 6516   0.068   0.371  11.083 -1.2478  0.5555  1.1375
  433MPD2    N1 6517   0.256   0.353  10.645 -0.0037 -0.3163  0.3239
  433MPD2    H7 6518   0.322   0.373  10.571  1.5417  0.8203  2.0190
  434TMC3    C1 6519   0.251   0.130  10.551  0.6424 -0.4511  0.0759
  434TMC3    C2 6520   0.375   0.086  10.588  0.0368 -0.2780 -0.5456
  434TMC3    C3 6521   0.402   4.690  10.588 -0.1814 -0.7157  0.6436
  434TMC3    C4 6522   0.168   0.042  10.502  0.1612 -0.2685  0.5702
  434TMC3    C5 6523   0.196   4.649  10.495  0.0880  0.1892  0.3346
  434TMC3    C6 6524   0.311   4.599  10.543  1.1700  0.3268  0.0452
  434TMC3     C 6525   0.186   0.235  10.627  0.6224  0.4680 -0.1640
  434TMC3     O 6526   0.078   0.205  10.678  0.4302  0.0815 -0.4911
  434TMC3     H 6527   0.449   0.158  10.619  0.7475 -1.7155  1.0825
  434TMC3    H1 6528   0.065   0.072  10.486  0.2350 -0.5750 -0.4554
  434TMC3    H2 6529   0.332   4.493  10.529 -2.1937 -0.5544  1.5858
  434TMC3    C7 6530   0.138   4.592  10.378 -0.6214 -0.2585 -0.0540
  434TMC3    C8 6531   0.516   4.646  10.671  0.2086  0.2709 -0.0721
  434TMC3    O1 6532   0.066   4.666  10.307 -0.5723  0.6491 -0.1138
  434TMC3    O2 6533   0.576   4.735  10.728  0.6330 -0.1238 -0.4889
  435MPD2     C 6534   2.126   0.346  15.297  0.7438  0.2854  0.0406
  435MPD2    C1 6535   2.067   0.350  15.422  0.6031  0.0626  0.3644
  435MPD2    C2 6536   2.151   0.321  15.529 -0.0469 -0.5819 -0.0453
  435MPD2    C3 6537   2.284   0.290  15.512 -0.5326  0.7890 -0.5889
  435MPD2    C4 6538   2.340   0.279  15.385 -0.1885  0.4107  0.2725
  435MPD2    C5 6539   2.255   0.297  15.279 -0.1636 -1.4126 -0.5511
  435MPD2     H 6540   2.114   0.328  15.631 -0.0434  0.4607 -0.1161
  435MPD2    H1 6541   2.445   0.259  15.366 -0.7601 -2.1801 -0.1085
  435MPD2    H2 6542   2.058   0.361  15.214 -0.4237 -3.0857  0.3741
  435MPD2    H3 6543   2.275   0.284  15.173 -0.8415  0.9688 -0.9609
  435MPD2     N 6544   2.348   0.263  15.632 -0.0216 -0.7018 -0.3013
  435MPD2    H5 6545   2.282   0.246  15.707  1.7719 -1.0470  1.2114
  435MPD2    N1 6546   1.926   0.365  15.424 -0.1191 -0.1970  0.2371
  435MPD2    H7 6547   1.882   0.394  15.337  1.0715  1.8732  0.3308
  436TMC3    C1 6548   1.502   0.367  15.612 -0.7624 -0.0011 -0.5351
  436TMC3    C2 6549   1.631   0.410  15.595 -0.3080 -0.1005  0.1359
  436TMC3    C3 6550   1.709   0.361  15.503  0.2821  0.6104 -0.4007
  436TMC3    C4 6551   1.447   0.265  15.540  0.5756  0.0932 -0.4327
  436TMC3    C5 6552   1.539   0.199  15.457  0.2251 -0.0867  0.4117
  436TMC3    C6 6553   1.664   0.250  15.433  0.1332 -0.3174 -0.1875
  436TMC3     C 6554   1.416   0.441  15.701  0.0225 -0.3085 -0.1212
  436TMC3     O 6555   1.308   0.390  15.735  0.1374  0.1413 -0.7048
  436TMC3     H 6556   1.676   0.488  15.655  2.2092 -0.3056 -1.4519
  436TMC3    H1 6557   1.345   0.230  15.549  0.9648 -0.0875  3.2804
  436TMC3    H2 6558   1.724   0.203  15.356  1.1753 -1.2227  1.1607
  436TMC3    C7 6559   1.467   0.115  15.364  0.2867  0.0236 -0.1798
  436TMC3    C8 6560   1.845   0.357  15.534 -0.4214 -0.1972  1.1449
  436TMC3    O1 6561   1.351   0.144  15.340 -0.9215  0.6052  0.7116
  436TMC3    O2 6562   1.878   0.342  15.653  0.1955 -0.4090  0.6196
  437TMC3    C1 6563   0.563   2.966  12.747  0.2515  0.6656 -0.0610
  437TMC3    C2 6564   0.496   3.020  12.643  0.5952  0.1563  0.3350
  437TMC3    C3 6565   0.556   3.020  12.527  0.1887  0.3341  0.4256
  437TMC3    C4 6566   0.697   2.923  12.735  0.3850 -0.3004  0.0251
  437TMC3    C5 6567   0.756   2.930  12.612  0.3089 -0.3387  0.3869
  437TMC3    C6 6568   0.689   2.985  12.513 -0.5907  0.8026 -0.1967
  437TMC3     C 6569   0.501   2.946  12.870 -0.5436 -0.1441 -0.7505
  437TMC3     O 6570   0.544   2.868  12.949 -0.2461  0.4686  0.8511
  437TMC3     H 6571   0.389   3.007  12.639  0.6931 -0.5687 -0.1021
  437TMC3    H1 6572   0.756   2.890  12.819 -1.2283  0.2039  1.3567
  437TMC3    H2 6573   0.731   3.000  12.414  0.6927  0.4788  0.2957
  437TMC3    C7 6574   0.898   2.967  12.605  0.2476 -0.7732  0.0018
  437TMC3    C8 6575   0.498   3.093  12.415  0.0359  0.2067 -0.1428
  437TMC3    O1 6576   0.916   3.052  12.522 -0.0616 -0.9060  0.6383
  437TMC3    O2 6577   0.544   3.088  12.301 -0.1234 -0.2130 -0.2498
  438MPD2     C 6578   2.812   2.419  16.846 -0.5779  0.3495 -0.6350
  438MPD2    C1 6579   2.885   2.335  16.929  0.1789 -0.2903 -0.0490
  438MPD2    C2 6580   2.900   2.378  17.061 -0.6459 -0.7051  0.2005
  438MPD2    C3 6581   2.869   2.507  17.110  1.0583 -0.5696  0.1741
  438MPD2    C4 6582   2.796   2.583  17.020  0.1372  0.0254 -0.2483
  438MPD2    C5 6583   2.768   2.546  16.887  0.0265 -0.1929 -0.5953
  438MPD2     H 6584   2.941   2.303  17.128 -0.1519  0.0624  0.7588
  438MPD2    H1 6585   2.775   2.688  17.036  2.6199  0.4682  0.1346
  438MPD2    H2 6586   2.781   2.392  16.746 -0.5069 -1.2683 -0.2140
  438MPD2    H3 6587   2.709   2.612  16.825  0.1849  0.6532  0.1527
  438MPD2     N 6588   2.878   2.547  17.241 -0.4376 -0.1525 -0.0127
  438MPD2    H5 6589   2.853   2.643  17.260  1.4275  0.5517 -1.1679
  438MPD2    N1 6590   2.951   2.215  16.894 -0.0553  0.3810  0.0133
  438MPD2    H7 6591   3.005   2.171  16.968 -0.7856 -0.0964  0.2626
  439TMC3    C1 6592   3.029   2.053  16.740 -0.2455  0.2178  0.3343
  439TMC3    C2 6593   3.076   2.033  16.609 -0.2546 -0.0210  0.5265
  439TMC3    C3 6594   3.181   1.951  16.586 -0.0690  0.7514 -0.2459
  439TMC3    C4 6595   3.087   1.981  16.843  0.3715  0.6539  0.1619
  439TMC3    C5 6596   3.187   1.899  16.813 -0.5047 -0.7750  0.1909
  439TMC3    C6 6597   3.246   1.884  16.691 -0.4514  0.3970  0.3100
  439TMC3     C 6598   2.948   2.167  16.765 -0.2583  0.1514  1.1512
  439TMC3     O 6599   2.888   2.205  16.665 -0.0076 -0.2515  0.0429
  439TMC3     H 6600   3.028   2.081  16.524  1.4981  1.2642  0.2604
  439TMC3    H1 6601   3.049   1.992  16.944 -0.9666  1.3052 -0.4061
  439TMC3    H2 6602   3.334   1.821  16.689  0.0208  1.0794 -0.2931
  439TMC3    C7 6603   3.270   1.861  16.922 -0.1371  0.2409 -0.5140
  439TMC3    C8 6604   3.278   2.000  16.485  0.0970 -0.3717 -0.0742
  439TMC3    O1 6605   3.375   1.920  16.926  0.2289 -0.5722  0.2152
  439TMC3    O2 6606   3.395   1.966  16.505  0.1320 -0.0957  0.4606
  440MPD2     C 6607   2.064   3.107  14.624  0.5728  0.0653  0.5824
  440MPD2    C1 6608   2.059   3.204  14.722 -0.5710  0.4981 -0.3821
  440MPD2    C2 6609   2.135   3.193  14.829 -0.0432  0.5174 -0.7575
  440MPD2    C3 6610   2.196   3.073  14.854 -0.5492 -0.7945 -0.1535
  440MPD2    C4 6611   2.193   2.969  14.765 -0.3071 -0.1979  0.2879
  440MPD2    C5 6612   2.129   2.991  14.650  0.0208  0.8188  0.4763
  440MPD2     H 6613   2.128   3.268  14.907  0.5875 -0.0246 -0.1801
  440MPD2    H1 6614   2.228   2.868  14.782  0.8313 -0.0169 -0.9386
  440MPD2    H2 6615   2.009   3.112  14.530 -0.4082 -2.2993  1.0398
  440MPD2    H3 6616   2.121   2.911  14.578 -0.4009 -0.1689  1.6197
  440MPD2     N 6617   2.260   3.048  14.975  0.1375 -0.2211  0.5389
  440MPD2    H5 6618   2.269   2.951  15.003 -1.7199 -0.4797  0.2613
  440MPD2    N1 6619   1.995   3.332  14.699 -0.5964 -0.4852 -0.1081
  440MPD2    H7 6620   2.027   3.405  14.762  2.5813 -0.9159 -1.1767
  441TMC3    C1 6621   2.324   3.118  15.201 -0.6745 -0.2729  0.2898
  441TMC3    C2 6622   2.400   3.206  15.271 -0.3682  0.5541  0.3244
  441TMC3    C3 6623   2.456   3.162  15.390 -0.5638 -0.2831  0.8348
  441TMC3    C4 6624   2.283   2.997  15.257 -0.2976  0.1323 -0.1195
  441TMC3    C5 6625   2.337   2.959  15.373 -0.7465  0.7088 -0.2919
  441TMC3    C6 6626   2.421   3.037  15.441  0.7574 -0.3286  0.1995
  441TMC3     C 6627   2.294   3.148  15.061  0.0923 -0.0025  0.1492
  441TMC3     O 6628   2.318   3.265  15.039  0.4108 -0.6368  0.7381
  441TMC3     H 6629   2.426   3.303  15.229 -1.6574  0.7005 -0.1181
  441TMC3    H1 6630   2.216   2.927  15.208  0.0307 -0.4986  0.3257
  441TMC3    H2 6631   2.460   3.018  15.540  1.2902 -1.2192 -0.1766
  441TMC3    C7 6632   2.273   2.859  15.452 -0.2026 -0.6984 -0.0561
  441TMC3    C8 6633   2.444   3.264  15.495  0.1089  0.0172 -0.2062
  441TMC3    O1 6634   2.158   2.816  15.431  0.3443 -0.3647 -0.3780
  441TMC3    O2 6635   2.507   3.239  15.595 -0.5423 -0.0627 -0.2189
  442MPD2     C 6636   0.153   4.249  16.171  0.7208 -0.1697  0.4674
  442MPD2    C1 6637   0.061   4.214  16.264  0.1644  0.3676 -0.0201
  442MPD2    C2 6638   0.050   4.083  16.307  0.3079 -0.3454  0.0508
  442MPD2    C3 6639   0.141   3.982  16.260 -0.1176 -0.1738 -0.3197
  442MPD2    C4 6640   0.233   4.023  16.164  0.3222 -0.4631 -0.2538
  442MPD2    C5 6641   0.242   4.154  16.128  0.5723  0.4347 -0.5809
  442MPD2     H 6642   4.727   4.067  16.396  0.3406  1.3462  0.3845
  442MPD2    H1 6643   0.318   3.961  16.135 -0.7435 -0.8737 -2.4477
  442MPD2    H2 6644   0.157   4.348  16.126  1.7422  0.2939  1.5856
  442MPD2    H3 6645   0.326   4.181  16.066  0.9896 -0.7934 -0.5520
  442MPD2     N 6646   0.139   3.849  16.297 -0.2759 -0.4952  0.4594
  442MPD2    H5 6647   0.185   3.782  16.236 -0.9772 -0.0157 -0.6010
  442MPD2    N1 6648   4.707   4.308  16.316  0.7261  0.2426  0.3386
  442MPD2    H7 6649   4.642   4.264  16.380  0.4486 -0.1859 -0.2368
  443TMC3    C1 6650   4.580   4.496  16.358  0.3726 -0.0143  0.0221
  443TMC3    C2 6651   4.545   4.624  16.318  0.1612 -0.2913  0.4090
  443TMC3    C3 6652   4.433   4.682  16.369 -0.0909 -0.0476  0.4409
  443TMC3    C4 6653   4.507   4.433  16.462 -0.2652 -0.1529 -0.3853
  443TMC3    C5 6654   4.399   4.499  16.516 -0.1168  0.1435 -0.2479
  443TMC3    C6 6655   4.362   4.625  16.471  0.5039 -0.2365 -0.2340
  443TMC3     C 6656   4.699   4.440  16.292  0.1571  0.2687 -0.0972
  443TMC3     O 6657   0.037   4.519  16.227  0.3732 -0.1679  0.1774
  443TMC3     H 6658   4.587   4.667  16.227 -1.6274 -0.2745 -0.4122
  443TMC3    H1 6659   4.532   4.332  16.493  2.7923  0.7294  0.0600
  443TMC3    H2 6660   4.268   4.675  16.494 -0.7859 -2.3374 -0.8335
  443TMC3    C7 6661   4.329   4.442  16.633 -0.4627 -0.1722 -0.0201
  443TMC3    C8 6662   4.361   0.049  16.296 -0.6860 -0.7247 -1.0466
  443TMC3    O1 6663   4.359   4.326  16.648 -1.3341 -0.1505  0.6430
  443TMC3    O2 6664   4.294   0.129  16.358 -0.6402 -0.0577  0.3200
  444MPD2     C 6665   0.228   2.719  17.339 -0.3881 -0.1710  0.1351
  444MPD2    C1 6666   0.131   2.710  17.238  0.1919 -0.4076  0.0694
  444MPD2    C2 6667   0.161   2.653  17.115  0.4060 -0.6757 -0.4871
  444MPD2    C3 6668   0.292   2.607  17.095 -0.3247 -0.2752  0.1886
  444MPD2    C4 6669   0.391   2.620  17.193  0.0599  0.1345 -0.1335
  444MPD2    C5 6670   0.359   2.673  17.316 -0.9238  0.4014  0.1226
  444MPD2     H 6671   0.079   2.637  17.045  0.8441  0.0515 -1.1623
  444MPD2    H1 6672   0.494   2.589  17.182  0.3677  1.1324 -0.1055
  444MPD2    H2 6673   0.206   2.767  17.433 -1.5906  1.4601 -0.9584
  444MPD2    H3 6674   0.438   2.686  17.389 -1.6302  1.8231  0.6459
  444MPD2     N 6675   0.321   2.536  16.977 -0.0922  0.9314 -0.0879
  444MPD2    H5 6676   0.236   2.516  16.926  1.3296  1.0865 -2.4899
  444MPD2    N1 6677   0.001   2.759  17.250  0.2710 -1.0423  0.6441
  444MPD2    H7 6678   4.676   2.708  17.189 -1.1768  0.9651  0.4091
  445TMC3    C1 6679   0.438   2.415  16.805  0.5771 -0.2593  0.0045
  445TMC3    C2 6680   0.331   2.432  16.720  0.4709  0.1214  0.1018
  445TMC3    C3 6681   0.345   2.383  16.593 -0.0316  0.2469  1.0351
  445TMC3    C4 6682   0.559   2.369  16.766 -0.1617  0.6075  0.3355
  445TMC3    C5 6683   0.566   2.331  16.636  0.5385  0.2549 -0.1634
  445TMC3    C6 6684   0.466   2.349  16.549 -0.3805 -0.4524  0.1141
  445TMC3     C 6685   0.446   2.497  16.932 -0.2693  0.4001 -0.6214
  445TMC3     O 6686   0.556   2.502  16.983 -0.3180 -0.2189 -0.5610
  445TMC3     H 6687   0.238   2.480  16.745  1.3499  1.5187  0.6787
  445TMC3    H1 6688   0.649   2.366  16.826 -2.1537 -1.3549  3.2122
  445TMC3    H2 6689   0.491   2.324  16.446 -0.2047 -0.0412  0.0554
  445TMC3    C7 6690   0.687   2.276  16.579  1.1310 -0.1781 -0.2914
  445TMC3    C8 6691   0.249   2.423  16.495  0.5405  0.7175 -0.8835
  445TMC3    O1 6692   0.710   2.292  16.463 -0.6789 -0.0484 -0.3766
  445TMC3    O2 6693   0.157   2.497  16.529  0.8759 -0.3528 -0.2856
  446MPD2     C 6694   0.170   4.375  10.798  0.5970 -0.4864  0.1985
  446MPD2    C1 6695   0.086   4.482  10.774  0.2863 -0.6383 -0.2025
  446MPD2    C2 6696   0.121   4.602  10.828  0.6177  0.4987 -0.6668
  446MPD2    C3 6697   0.228   4.618  10.910  0.5844 -0.0180 -0.5231
  446MPD2    C4 6698   0.308   4.508  10.939 -0.1297  0.0122  0.4187
  446MPD2    C5 6699   0.279   4.388  10.877 -0.2267 -0.1159 -0.1124
  446MPD2     H 6700   0.057   4.686  10.804 -0.9094 -0.0232  1.5902
  446MPD2    H1 6701   0.383   4.525  11.015  1.0596 -1.5730 -0.3968
  446MPD2    H2 6702   0.141   4.279  10.757 -2.6005  1.4955 -2.2737
  446MPD2    H3 6703   0.333   4.296  10.901  1.0948  0.4382 -0.9473
  446MPD2     N 6704   0.256   0.010  10.952  0.4859 -0.1488 -0.0795
  446MPD2    H5 6705   0.204   0.085  10.908  1.3319  0.4424 -0.0659
  446MPD2    N1 6706   4.700   4.471  10.702  0.0107 -0.2898 -0.3795
  446MPD2    H7 6707   4.651   4.560  10.695  0.7943 -0.0498 -2.6777
  447TMC3    C1 6708   0.381   0.180  11.057  0.3113 -0.5419 -0.2144
  447TMC3    C2 6709   0.424   0.253  10.946  0.6662  0.2098 -0.0224
  447TMC3    C3 6710   0.515   0.353  10.977 -0.8533  0.0882  0.2325
  447TMC3    C4 6711   0.425   0.201  11.184  0.5564  1.0836 -0.0484
  447TMC3    C5 6712   0.504   0.306  11.208 -0.2850  0.1241 -0.3824
  447TMC3    C6 6713   0.549   0.386  11.107 -0.2082 -0.9399  0.4923
  447TMC3     C 6714   0.357   0.041  11.038  0.0020  0.4029  0.6397
  447TMC3     O 6715   0.419   4.706  11.114 -0.4383 -0.2153  0.1475
  447TMC3     H 6716   0.397   0.228  10.844  1.3527  2.6962 -0.8063
  447TMC3    H1 6717   0.410   0.124  11.259  2.4199  1.2157  0.4699
  447TMC3    H2 6718   0.632   0.453  11.129 -1.1799 -0.5173  2.9177
  447TMC3    C7 6719   0.612   0.264  11.281 -0.2581  0.3276 -0.1601
  447TMC3    C8 6720   0.595   0.401  10.863  0.2895 -0.8807  0.1272
  447TMC3    O1 6721   0.714   0.252  11.220  0.2428  0.2633  0.0052
  447TMC3    O2 6722   0.556   0.380  10.748  0.0718 -0.3899  0.1538
  448TMC3    C1 6723   2.757   3.522  16.630  0.3250 -0.5296  0.6038
  448TMC3    C2 6724   2.810   3.395  16.628 -0.7327 -0.0294 -0.4738
  448TMC3    C3 6725   2.852   3.334  16.747  1.3072  0.5017  1.0860
  448TMC3    C4 6726   2.740   3.592  16.745 -0.6292  0.1133  0.3397
  448TMC3    C5 6727   2.796   3.534  16.857 -0.7286 -0.1431  0.4158
  448TMC3    C6 6728   2.842   3.404  16.865  0.4783  0.4421  0.0994
  448TMC3     C 6729   2.727   3.575  16.495  0.9471 -0.3967 -0.5064
  448TMC3     O 6730   2.722   3.489  16.408 -0.6128 -0.4990 -0.4337
  448TMC3     H 6731   2.805   3.332  16.540 -1.7086 -1.3728  0.5331
  448TMC3    H1 6732   2.712   3.696  16.734  2.0638  0.8127  0.0440
  448TMC3    H2 6733   2.902   3.374  16.950  0.4670 -1.6811 -0.6469
  448TMC3    C7 6734   2.822   3.615  16.973  0.2552  0.0178 -0.0817
  448TMC3    C8 6735   2.872   3.188  16.757  0.0543 -0.0350 -0.0888
  448TMC3    O1 6736   2.856   3.729  16.956  0.1589 -0.6230 -0.2387
  448TMC3    O2 6737   2.892   3.151  16.867 -0.2336 -0.5689  0.1101
  449MPD2     C 6738   0.088   2.933  14.627  0.1280  0.5338 -0.0910
  449MPD2    C1 6739   4.736   2.997  14.556 -0.0877 -0.2857 -0.1185
  449MPD2    C2 6740   4.602   2.954  14.551  0.8553  0.5927 -0.1730
  449MPD2    C3 6741   4.559   2.844  14.609  0.4686 -0.1169 -0.3387
  449MPD2    C4 6742   4.650   2.784  14.698 -0.0605 -0.0314 -0.0421
  449MPD2    C5 6743   0.040   2.834  14.709  0.3150 -0.2178  0.3076
  449MPD2     H 6744   4.541   3.000  14.475  0.3277  2.6165  1.4641
  449MPD2    H1 6745   4.620   2.705  14.766 -1.1753  0.2417 -0.2246
  449MPD2    H2 6746   0.194   2.953  14.618  0.2170  0.8454  1.6791
  449MPD2    H3 6747   0.108   2.798  14.786 -0.7938 -2.7577  0.1020
  449MPD2     N 6748   4.427   2.799  14.580  0.2515  0.4384 -0.0944
  449MPD2    H5 6749   4.384   2.831  14.493 -0.8849  2.9675  1.3777
  449MPD2    N1 6750   0.030   3.105  14.466  0.3218 -0.2302  0.3855
  449MPD2    H7 6751   4.685   3.142  14.420 -0.7638 -2.1460  0.7707
  450TMC3    C1 6752   0.128   3.308  14.390  0.6738 -0.1090 -0.2219
  450TMC3    C2 6753   0.197   3.332  14.270 -0.3938  0.3145 -0.2145
  450TMC3    C3 6754   0.129   3.400  14.165 -0.9296 -0.0594  0.4832
  450TMC3    C4 6755   4.730   3.351  14.406 -0.6252 -0.3606  0.0843
  450TMC3    C5 6756   4.661   3.404  14.300 -0.8668 -0.1758 -0.0147
  450TMC3    C6 6757   4.731   3.428  14.181  0.8572 -0.1615 -0.9067
  450TMC3     C 6758   0.149   3.176  14.450  0.2080 -0.7691 -0.0816
  450TMC3     O 6759   0.258   3.134  14.488 -0.3697  0.2462  0.3524
  450TMC3     H 6760   0.299   3.297  14.260 -0.4922 -0.7858  2.7640
  450TMC3    H1 6761   4.676   3.325  14.497 -0.5032  5.0810  1.6904
  450TMC3    H2 6762   4.679   3.471  14.096  0.7986  0.9800 -0.2952
  450TMC3    C7 6763   4.532   3.336  14.292 -0.6671 -0.0861 -0.9274
  450TMC3    C8 6764   0.192   3.432  14.031  0.5016  1.0575 -0.3505
  450TMC3    O1 6765   4.535   3.227  14.350  0.0918  0.0548 -0.1678
  450TMC3    O2 6766   0.284   3.369  13.989 -0.5017  0.3511 -0.2482
  451MPD2     C 6767   1.560   0.599   1.369  0.0192 -0.5536 -1.0283
  451MPD2    C1 6768   1.569   0.695   1.272 -0.4477 -0.2161 -0.0539
  451MPD2    C2 6769   1.677   0.689   1.183  0.2511 -0.1687 -0.0781
  451MPD2    C3 6770   1.771   0.596   1.197  0.0568 -0.2221 -0.5759
  451MPD2    C4 6771   1.754   0.494   1.291  0.1701 -0.3478 -0.9617
  451MPD2    C5 6772   1.652   0.497   1.381  0.3955  1.6442 -0.8880
  451MPD2     H 6773   1.685   0.769   1.110 -1.1006 -0.3611 -0.4422
  451MPD2    H1 6774   1.828   0.415   1.301 -1.9024 -2.0026  1.2006
  451MPD2    H2 6775   1.478   0.598   1.440 -0.2657 -0.3386 -1.3562
  451MPD2    H3 6776   1.657   0.429   1.465  0.9524  0.5394 -1.8161
  451MPD2     N 6777   1.870   0.579   1.103 -0.0711  0.7704  0.5615
  451MPD2    H5 6778   1.956   0.542   1.141  0.0821  0.1949 -0.3627
  451MPD2    N1 6779   1.454   0.781   1.251  0.3242  0.7817 -0.2107
  451MPD2    H7 6780   1.378   0.742   1.305  2.6609  0.4127  2.8187
  452TMC3    C1 6781   1.757   0.650   0.899  0.1336  0.7550  0.0288
  452TMC3    C2 6782   1.647   0.565   0.915  0.1363  0.2633 -0.3157
  452TMC3    C3 6783   1.533   0.575   0.850  0.3255  0.0819  0.3063
  452TMC3    C4 6784   1.754   0.747   0.810 -0.3280 -0.0924 -0.4937
  452TMC3    C5 6785   1.635   0.764   0.751  0.5238  0.1457 -0.3198
  452TMC3    C6 6786   1.528   0.676   0.761 -0.2228 -0.0326  0.7315
  452TMC3     C 6787   1.875   0.646   0.983  0.0528  0.3916 -0.2951
  452TMC3     O 6788   1.972   0.683   0.927 -0.4736 -0.2494 -0.0392
  452TMC3     H 6789   1.652   0.481   0.984  1.5172 -0.1482 -0.9052
  452TMC3    H1 6790   1.842   0.809   0.802 -1.3821  1.8753  3.2329
  452TMC3    H2 6791   1.440   0.700   0.702  0.9303  2.2651 -0.0748
  452TMC3    C7 6792   1.617   0.865   0.647  0.6128 -0.2697  1.2411
  452TMC3    C8 6793   1.417   0.548   0.935  0.5777 -0.0233 -0.5299
  452TMC3    O1 6794   1.547   0.833   0.549 -0.1913  0.4382 -0.3388
  452TMC3    O2 6795   1.443   0.513   1.051 -1.0456 -0.1850  0.1534
  453TMC3    C1 6796   2.245   4.075  11.965 -0.3004  0.8001 -0.1049
  453TMC3    C2 6797   2.159   4.004  11.882  0.3948 -0.2417  0.5042
  453TMC3    C3 6798   2.150   4.045  11.748 -0.4566 -0.2546 -0.0139
  453TMC3    C4 6799   2.307   4.190  11.927  0.3099 -0.1904 -0.7925
  453TMC3    C5 6800   2.296   4.228  11.791  0.1340 -0.7705  0.5417
  453TMC3    C6 6801   2.209   4.163  11.702  0.3336  0.3142  0.3446
  453TMC3     C 6802   2.254   4.040  12.105 -0.0054 -0.3291 -0.0361
  453TMC3     O 6803   2.297   4.121  12.188 -0.5897  0.3364 -0.2982
  453TMC3     H 6804   2.104   3.913  11.904 -2.2828  1.8896  2.5841
  453TMC3    H1 6805   2.382   4.224  11.997 -0.5969  0.4698 -0.1437
  453TMC3    H2 6806   2.206   4.188  11.596  1.1777 -1.3493 -0.0769
  453TMC3    C7 6807   2.362   4.349  11.742  0.3772 -0.0931 -0.6005
  453TMC3    C8 6808   2.120   3.938  11.653  0.1685 -0.0286  0.7217
  453TMC3    O1 6809   2.346   4.380  11.624  0.2331  0.3857 -0.7116
  453TMC3    O2 6810   2.052   3.977  11.559  0.3166  0.5833 -0.1613
  454MPD2     C 6811   0.892   2.667  16.538  0.2371 -0.3745 -0.1030
  454MPD2    C1 6812   0.831   2.783  16.524  0.2049 -0.0003  0.6680
  454MPD2    C2 6813   0.747   2.825  16.628  0.5779  1.0019  0.4989
  454MPD2    C3 6814   0.722   2.746  16.735  0.1714  0.2580  0.4428
  454MPD2    C4 6815   0.786   2.625  16.748  0.7722  0.0638 -0.4378
  454MPD2    C5 6816   0.870   2.594  16.647 -0.2264  0.4322  0.0435
  454MPD2     H 6817   0.708   2.925  16.610 -0.7972  0.5438  0.9161
  454MPD2    H1 6818   0.772   2.566  16.837 -0.2734  0.7037 -0.1746
  454MPD2    H2 6819   0.962   2.623  16.468  2.5613 -1.2074  2.7331
  454MPD2    H3 6820   0.916   2.496  16.655 -0.1056  0.5078  0.2696
  454MPD2     N 6821   0.635   2.778  16.847 -0.0363 -0.1115 -0.1454
  454MPD2    H5 6822   0.654   2.717  16.925  0.5845 -1.0377 -1.0152
  454MPD2    N1 6823   0.844   2.867  16.416  0.1674 -0.0343  0.4067
  454MPD2    H7 6824   0.808   2.961  16.429  0.3434 -0.2005  2.0244
  455TMC3    C1 6825   0.480   2.945  16.764 -0.0314  0.5263  0.1883
  455TMC3    C2 6826   0.479   3.083  16.748  0.7590 -0.0555 -0.7759
  455TMC3    C3 6827   0.445   3.130  16.625 -0.2291  0.1264 -0.8087
  455TMC3    C4 6828   0.447   2.865  16.659 -0.1336 -0.4962 -0.1824
  455TMC3    C5 6829   0.390   2.924  16.544  0.3100  0.4034 -0.3935
  455TMC3    C6 6830   0.389   3.063  16.529  0.2365  0.1933 -0.3512
  455TMC3     C 6831   0.556   2.887  16.868 -0.3738 -0.1550 -0.3924
  455TMC3     O 6832   0.523   2.926  16.978  0.4443 -0.3493 -0.4743
  455TMC3     H 6833   0.510   3.154  16.823 -1.8312  0.0686  0.1797
  455TMC3    H1 6834   0.439   2.758  16.678  0.6989 -0.5718 -0.2340
  455TMC3    H2 6835   0.355   3.109  16.437  0.4031 -0.5533 -0.7864
  455TMC3    C7 6836   0.384   2.847  16.424  0.0504 -0.3523  0.0142
  455TMC3    C8 6837   0.462   3.278  16.600  0.2981 -0.1826 -0.2881
  455TMC3    O1 6838   0.302   2.883  16.342  0.0978  0.2428 -0.0375
  455TMC3    O2 6839   0.470   3.353  16.698 -0.2168 -0.8585  0.3653
  456MPD2     C 6840   3.752   2.223  16.671  0.1033  0.6409 -0.3776
  456MPD2    C1 6841   3.768   2.333  16.742  0.2062 -0.1229 -0.1265
  456MPD2    C2 6842   3.673   2.355  16.837 -0.1099 -0.5775  0.5768
  456MPD2    C3 6843   3.556   2.287  16.838 -0.9026  0.1949  0.1388
  456MPD2    C4 6844   3.534   2.177  16.758 -0.4315  0.1746 -0.5190
  456MPD2    C5 6845   3.635   2.147  16.677 -1.0888  0.0933  0.3611
  456MPD2     H 6846   3.676   2.440  16.904 -4.2456  0.5596 -0.6616
  456MPD2    H1 6847   3.449   2.111  16.751  1.0701 -1.5535 -2.4130
  456MPD2    H2 6848   3.827   2.196  16.598  0.1026  0.3491 -0.2720
  456MPD2    H3 6849   3.623   2.062  16.611 -1.8204  0.3802  0.1303
  456MPD2     N 6850   3.459   2.332  16.926  0.4387 -0.1517 -0.2361
  456MPD2    H5 6851   3.483   2.410  16.988  0.1239  0.4175 -0.8302
  456MPD2    N1 6852   3.876   2.424  16.724  0.7173  0.5699 -0.2672
  456MPD2    H7 6853   3.940   2.393  16.652 -0.6579 -1.9649 -0.3954
  457TMC3    C1 6854   3.259   2.420  16.976  0.5025 -0.1437  0.1557
  457TMC3    C2 6855   3.184   2.508  16.905  0.9887 -0.1892 -0.5115
  457TMC3    C3 6856   3.149   2.621  16.963  0.5361 -0.1758 -0.4792
  457TMC3    C4 6857   3.319   2.441  17.102  0.4625 -0.9255  0.2248
  457TMC3    C5 6858   3.277   2.559  17.157  0.2794  0.4189 -0.4336
  457TMC3    C6 6859   3.199   2.654  17.088 -0.5961 -0.6364  0.2777
  457TMC3     C 6860   3.323   2.319  16.897  0.5595  0.0665 -0.2031
  457TMC3     O 6861   3.265   2.271  16.799 -0.3719 -0.0957  0.1574
  457TMC3     H 6862   3.143   2.486  16.807  0.8265 -0.0566 -0.4734
  457TMC3    H1 6863   3.379   2.364  17.149  0.3997  0.0496  1.8803
  457TMC3    H2 6864   3.167   2.745  17.137  1.9188 -0.9165  2.4945
  457TMC3    C7 6865   3.334   2.576  17.288 -0.1200  0.9452  0.3250
  457TMC3    C8 6866   3.089   2.729  16.882 -0.1432  0.5989  0.9112
  457TMC3    O1 6867   3.372   2.475  17.345  0.5946 -0.0098  0.5497
  457TMC3    O2 6868   3.088   2.837  16.942  0.0309 -0.3358 -0.2974
  458MPD2     C 6869   1.397   2.946  12.644  0.6588 -0.0254 -0.6365
  458MPD2    C1 6870   1.348   2.843  12.720  0.0188 -0.2070 -0.7085
  458MPD2    C2 6871   1.208   2.835  12.740  0.1100  0.4010  0.6168
  458MPD2    C3 6872   1.128   2.929  12.686  0.5449  0.1657  0.0698
  458MPD2    C4 6873   1.184   3.027  12.607  0.1101  0.9316 -0.9676
  458MPD2    C5 6874   1.315   3.032  12.585  0.5474 -0.0766  0.4384
  458MPD2     H 6875   1.164   2.764  12.809  0.8983  1.0311  1.7580
  458MPD2    H1 6876   1.131   3.098  12.545 -2.7237 -1.4459 -1.2730
  458MPD2    H2 6877   1.503   2.967  12.646  0.7793 -0.8563  2.0412
  458MPD2    H3 6878   1.357   3.098  12.511  1.3611 -0.3762  0.6392
  458MPD2     N 6879   0.986   2.907  12.692  0.5902  0.7299 -0.1830
  458MPD2    H5 6880   0.952   2.836  12.756  0.1930 -0.0837 -1.2863
  458MPD2    N1 6881   1.443   2.766  12.788  0.5891  0.0315  0.7226
  458MPD2    H7 6882   1.541   2.791  12.776 -0.1648  2.9085  0.4615
  459TMC3    C1 6883   1.539   2.611  12.940  0.6950 -0.6391 -0.0264
  459TMC3    C2 6884   1.659   2.640  12.890 -0.5056 -0.0633  0.5481
  459TMC3    C3 6885   1.768   2.587  12.957  0.3610 -0.2715  0.7664
  459TMC3    C4 6886   1.517   2.528  13.051  0.4626  0.9854  0.4038
  459TMC3    C5 6887   1.627   2.474  13.102  0.2126 -0.8242  0.0588
  459TMC3    C6 6888   1.756   2.505  13.065 -0.5278  0.8364 -0.1380
  459TMC3     C 6889   1.418   2.670  12.888 -0.1891  0.3852  0.5680
  459TMC3     O 6890   1.311   2.615  12.929  0.7216  0.0194  0.7101
  459TMC3     H 6891   1.667   2.704  12.803 -3.5039 -0.3562  0.0522
  459TMC3    H1 6892   1.416   2.500  13.079 -0.1635  2.8406 -0.0287
  459TMC3    H2 6893   1.842   2.456  13.111  0.3738  1.0487 -1.5914
  459TMC3    C7 6894   1.616   2.357  13.176 -1.0076 -0.2452 -0.0008
  459TMC3    C8 6895   1.886   2.653  12.926 -0.1763  0.5893 -0.4448
  459TMC3    O1 6896   1.707   2.280  13.159  0.1528 -0.1475 -0.0643
  459TMC3    O2 6897   1.894   2.691  12.810  0.2298  0.1073 -0.2153
  460MPD2     C 6898   0.959   0.494  10.849 -0.0405  0.6348  0.2031
  460MPD2    C1 6899   0.823   0.496  10.819 -0.0850  0.2974  0.0353
  460MPD2    C2 6900   0.787   0.558  10.696  0.4473 -0.1278  0.5591
  460MPD2    C3 6901   0.878   0.615  10.610 -0.0597  0.1378 -0.2677
  460MPD2    C4 6902   1.007   0.605  10.641  1.2270 -0.2935  0.4690
  460MPD2    C5 6903   1.050   0.552  10.762  0.6844 -0.3716  0.3577
  460MPD2     H 6904   0.682   0.567  10.670  1.3329 -0.2020 -2.9735
  460MPD2    H1 6905   1.090   0.632  10.576  0.7080 -2.8455 -1.2496
  460MPD2    H2 6906   1.006   0.441  10.931 -1.9619  1.4428  1.8429
  460MPD2    H3 6907   1.156   0.553  10.785  0.7171  2.9872  0.0741
  460MPD2     N 6908   0.827   0.652  10.483  0.3585  0.0934  0.3614
  460MPD2    H5 6909   0.728   0.638  10.465  0.8916 -0.5084 -2.1952
  460MPD2    N1 6910   0.725   0.430  10.899  0.8402  0.4956 -0.8969
  460MPD2    H7 6911   0.760   0.380  10.980 -1.6634  0.0427 -0.0951
  461TMC3    C1 6912   0.817   0.716  10.258 -0.1460  0.3726 -0.5186
  461TMC3    C2 6913   0.755   0.607  10.206 -0.3031 -0.1857  0.1514
  461TMC3    C3 6914   0.640   0.614  10.149  0.2376 -0.4555 -0.0219
  461TMC3    C4 6915   0.760   0.836  10.253 -0.4151  0.2101 -0.0896
  461TMC3    C5 6916   0.639   0.841  10.192  0.5499 -0.7757  0.5787
  461TMC3    C6 6917   0.576   0.730  10.140  0.0779  0.7478 -1.0608
  461TMC3     C 6918   0.903   0.698  10.377 -0.7761 -0.7188  1.3946
  461TMC3     O 6919   1.022   0.699  10.362 -0.6410  0.4131  0.0065
  461TMC3     H 6920   0.813   0.515  10.213  0.9632  0.5295 -1.1113
  461TMC3    H1 6921   0.801   0.917  10.313  0.5053 -0.4572  0.1753
  461TMC3    H2 6922   0.472   0.739  10.111 -0.2655  0.9256  0.2167
  461TMC3    C7 6923   0.555   0.960  10.230 -0.6611 -0.1464 -0.0882
  461TMC3    C8 6924   0.591   0.492  10.087  0.5345 -0.3955 -0.0557
  461TMC3    O1 6925   0.434   0.941  10.217 -0.1513  0.3710  0.4007
  461TMC3    O2 6926   0.652   0.394  10.127 -0.5356  0.6958  0.4952
  462TMC3    C1 6927   0.354   1.106   0.141  0.0587  0.5466 -0.0395
  462TMC3    C2 6928   0.422   1.070   0.035 -0.6901 -0.0245  0.0005
  462TMC3    C3 6929   0.445   0.941   0.009  0.0490  0.3402  0.7017
  462TMC3    C4 6930   0.289   1.011   0.216  0.1620  0.3347 -0.1864
  462TMC3    C5 6931   0.282   0.886   0.169  0.2988  0.3920  0.1888
  462TMC3    C6 6932   0.376   0.846   0.075  0.4173  0.7578 -0.2072
  462TMC3     C 6933   0.345   1.241   0.186 -0.1047 -0.2497  0.4728
  462TMC3     O 6934   0.282   1.266   0.285  0.8954  0.0465  0.1929
  462TMC3     H 6935   0.451   1.148  17.712  1.4732  0.4020  1.3841
  462TMC3    H1 6936   0.226   1.045   0.297  0.1335  0.9815 -0.4780
  462TMC3    H2 6937   0.356   0.756   0.018 -1.2845  1.1186 -0.1758
  462TMC3    C7 6938   0.180   0.799   0.214  0.7257  0.1556  0.3209
  462TMC3    C8 6939   0.464   0.927  17.611 -0.0430  0.0051 -0.1134
  462TMC3    O1 6940   0.195   0.682   0.187 -0.0869  0.4261 -0.2812
  462TMC3    O2 6941   0.406   1.003  17.538  0.1203 -0.2732  0.2552
  463MPD2     C 6942   1.030   3.928   1.750  0.3367  0.1594  0.4718
  463MPD2    C1 6943   0.943   3.994   1.666  0.1934  0.3774  0.1732
  463MPD2    C2 6944   0.956   4.130   1.660 -0.2840  0.0617  0.2168
  463MPD2    C3 6945   1.062   4.201   1.722  0.0400 -0.4168 -0.1238
  463MPD2    C4 6946   1.159   4.125   1.787  0.0407  0.0892 -0.0453
  463MPD2    C5 6947   1.138   3.994   1.805  0.3151  0.4779 -0.1572
  463MPD2     H 6948   0.880   4.188   1.609 -1.5321  0.4884  2.5910
  463MPD2    H1 6949   1.251   4.161   1.833 -0.5023  0.7640  0.5178
  463MPD2    H2 6950   1.019   3.822   1.772 -1.7758  0.3732  0.4122
  463MPD2    H3 6951   1.204   3.929   1.861  0.1071  1.7640  1.6180
  463MPD2     N 6952   1.086   4.339   1.705  0.8370 -0.2325  0.1296
  463MPD2    H5 6953   1.172   4.372   1.748  1.3793 -2.1455  0.5506
  463MPD2    N1 6954   0.840   3.933   1.589 -0.7306 -0.2440  0.3978
  463MPD2    H7 6955   0.773   3.999   1.550 -0.6012 -0.8308 -0.8290
  464TMC3    C1 6956   0.729   3.756   1.485 -0.5415  0.4208  1.0377
  464TMC3    C2 6957   0.628   3.847   1.455 -0.1839  0.2504 -0.2684
  464TMC3    C3 6958   0.565   3.821   1.338  0.1781 -0.5335  0.7365
  464TMC3    C4 6959   0.763   3.645   1.414 -0.1131  0.0353  0.5490
  464TMC3    C5 6960   0.691   3.625   1.297 -0.0487 -0.1179 -0.0449
  464TMC3    C6 6961   0.589   3.710   1.258 -0.0551  0.0875  0.8694
  464TMC3     C 6962   0.829   3.802   1.574  0.4020  0.2217 -0.2764
  464TMC3     O 6963   0.915   3.720   1.614  0.9552 -0.3356 -0.0794
  464TMC3     H 6964   0.584   3.914   1.528  0.0468  0.5140 -0.3684
  464TMC3    H1 6965   0.858   3.597   1.437  0.2410 -0.5287 -2.0906
  464TMC3    H2 6966   0.533   3.696   1.167 -1.1673  1.6265  1.3203
  464TMC3    C7 6967   0.755   3.527   1.214 -0.1799 -0.2149 -1.0578
  464TMC3    C8 6968   0.467   3.917   1.289 -0.3461  0.0537 -0.4018
  464TMC3    O1 6969   0.850   3.467   1.260 -0.4346 -0.4068 -0.3452
  464TMC3    O2 6970   0.448   3.910   1.165  0.3078  0.2364  0.3656
  465MPD2     C 6971   2.531   2.830  16.986 -0.7276 -0.6416 -0.1135
  465MPD2    C1 6972   2.395   2.831  17.011  0.6189  0.3928 -0.2020
  465MPD2    C2 6973   2.312   2.881  16.914  0.7185 -0.2732  0.6120
  465MPD2    C3 6974   2.364   2.920  16.791 -0.4848 -0.0551 -0.1390
  465MPD2    C4 6975   2.504   2.924  16.772 -0.1559  0.0333 -0.2527
  465MPD2    C5 6976   2.580   2.872  16.870 -0.6205 -0.0388 -0.3909
  465MPD2     H 6977   2.206   2.880  16.938  1.5731  1.4012  4.5641
  465MPD2    H1 6978   2.547   2.971  16.684 -0.5158  1.4352  0.3240
  465MPD2    H2 6979   2.593   2.786  17.063  0.2864 -2.0981 -1.7469
  465MPD2    H3 6980   2.687   2.860  16.856 -0.5728 -0.3024  0.1793
  465MPD2     N 6981   2.275   2.963  16.692  0.2901  0.0230 -0.1578
  465MPD2    H5 6982   2.174   2.959  16.706  0.3568 -0.1660  0.3015
  465MPD2    N1 6983   2.335   2.794  17.134 -0.1611  0.6355 -0.0036
  465MPD2    H7 6984   2.237   2.809  17.153 -0.0742  0.5434  0.5126
  466TMC3    C1 6985   1.953   2.992  16.458 -0.3270 -0.4189 -0.2212
  466TMC3    C2 6986   1.955   3.077  16.345  0.1824 -0.2173  0.1465
  466TMC3    C3 6987   2.076   3.122  16.299  0.6971 -0.1438 -0.3917
  466TMC3    C4 6988   2.065   2.949  16.522  0.0956 -1.2776  0.2796
  466TMC3    C5 6989   2.186   3.007  16.480 -0.3603 -0.9289  0.0018
  466TMC3    C6 6990   2.194   3.095  16.375  0.5490 -0.2290  0.4308
  466TMC3     C 6991   1.852   3.010  16.554 -0.2685 -0.2002  0.3855
  466TMC3     O 6992   1.869   2.953  16.661 -0.2276 -0.1126 -0.3088
  466TMC3     H 6993   1.870   3.113  16.288 -0.8239  0.7193  2.2360
  466TMC3    H1 6994   2.070   2.861  16.586 -2.4165  0.8161  3.3378
  466TMC3    H2 6995   2.285   3.150  16.354  0.4836 -0.8611 -1.4643
  466TMC3    C7 6996   2.306   3.007  16.563  0.1883  0.2215 -0.1374
  466TMC3    C8 6997   2.076   3.244  16.222  0.1379 -0.0857 -0.8302
  466TMC3    O1 6998   2.408   3.046  16.518  0.3678 -0.5128  0.3439
  466TMC3    O2 6999   2.153   3.241  16.123 -0.5269  0.2281  0.4003
  467TMC3    C1 7000   3.495   2.098  13.702 -0.2618 -0.2323 -0.5081
  467TMC3    C2 7001   3.434   2.193  13.619 -0.3973  0.4496  0.3681
  467TMC3    C3 7002   3.331   2.151  13.544 -0.9995 -1.1708 -0.3183
  467TMC3    C4 7003   3.435   1.974  13.716  0.1060  0.1602 -1.1001
  467TMC3    C5 7004   3.330   1.944  13.633  0.1660 -0.2925  0.1311
  467TMC3    C6 7005   3.280   2.027  13.539  0.1396  0.4052  0.3128
  467TMC3     C 7006   3.629   2.138  13.751 -0.3123  1.4692 -0.5641
  467TMC3     O 7007   3.680   2.234  13.692  0.2951  0.3673 -0.1253
  467TMC3     H 7008   3.474   2.293  13.610  0.1421  0.1296 -0.7194
  467TMC3    H1 7009   3.461   1.910  13.799  0.9602  0.8077 -0.8700
  467TMC3    H2 7010   3.185   2.002  13.493  1.1286 -2.3064 -0.2891
  467TMC3    C7 7011   3.236   1.837  13.675  0.4112 -0.3873 -0.7430
  467TMC3    C8 7012   3.298   2.245  13.442 -0.3873 -0.2926 -0.0185
  467TMC3    O1 7013   3.262   1.787  13.782 -1.2140 -0.0085 -0.5404
  467TMC3    O2 7014   3.308   2.366  13.476  0.1979  0.5304 -0.7132
  468MPD2     C 7015   2.285   0.792  10.820 -0.0454 -0.1939 -0.1252
  468MPD2    C1 7016   2.417   0.766  10.794 -0.5370  1.2357  0.1739
  468MPD2    C2 7017   2.453   0.649  10.723 -0.0418 -0.9020  0.5760
  468MPD2    C3 7018   2.359   0.549  10.707 -0.3498  0.0342 -0.0112
  468MPD2    C4 7019   2.226   0.578  10.740  0.0224  0.4578 -0.8966
  468MPD2    C5 7020   2.187   0.704  10.790 -0.0120  0.1473  0.1764
  468MPD2     H 7021   2.555   0.644  10.685 -0.7356  1.0831 -1.4742
  468MPD2    H1 7022   2.152   0.499  10.739 -1.6711  2.0422  0.4214
  468MPD2    H2 7023   2.245   0.883  10.864 -0.2230 -1.1214  1.5953
  468MPD2    H3 7024   2.089   0.714  10.835  0.7669  0.2650  1.8196
  468MPD2     N 7025   2.389   0.417  10.658 -0.0214 -0.5393  0.5668
  468MPD2    H5 7026   2.313   0.357  10.627  0.3293 -1.7475  2.0274
  468MPD2    N1 7027   2.520   0.858  10.816 -0.1534  0.1778 -0.1404
  468MPD2    H7 7028   2.608   0.820  10.783  0.6836  1.4623  0.6157
  469TMC3    C1 7029   2.647   1.044  10.861  1.0084 -0.0275  1.0209
  469TMC3    C2 7030   2.750   0.964  10.912  0.1372 -0.6797 -0.8962
  469TMC3    C3 7031   2.856   1.025  10.978  0.0970 -0.0247  0.2511
  469TMC3    C4 7032   2.665   1.181  10.866  0.1835 -0.0041 -0.2972
  469TMC3    C5 7033   2.776   1.234  10.917 -0.2160 -0.0378  0.4784
  469TMC3    C6 7034   2.878   1.162  10.965  0.4604  0.1740 -0.0046
  469TMC3     C 7035   2.516   0.992  10.846  0.3733 -0.0490  0.1772
  469TMC3     O 7036   2.416   1.064  10.853  0.2944  0.2774  0.2384
  469TMC3     H 7037   2.733   0.857  10.907  0.3084 -0.8044  0.9507
  469TMC3    H1 7038   2.582   1.239  10.828 -0.9132  0.1272  2.2649
  469TMC3    H2 7039   2.956   1.222  11.011  1.3874 -0.5426 -0.6206
  469TMC3    C7 7040   2.770   1.365  10.973  0.3344  0.3794  0.8935
  469TMC3    C8 7041   2.925   0.948  11.083  0.4843 -0.4737 -0.0870
  469TMC3    O1 7042   2.767   1.460  10.892 -0.2097 -0.3282 -0.0628
  469TMC3    O2 7043   2.862   0.857  11.137 -0.7196  0.3012 -0.2592
  470TMC3    C1 7044   4.216   0.456   0.799  0.0814 -0.7690 -0.3099
  470TMC3    C2 7045   4.328   0.500   0.854 -0.7525  0.4303 -0.7119
  470TMC3    C3 7046   4.329   0.535   0.983  0.7259  0.3465 -0.7778
  470TMC3    C4 7047   4.096   0.453   0.868  0.1499  0.6834 -1.2999
  470TMC3    C5 7048   4.093   0.505   0.990 -0.1887 -0.0527 -0.1905
  470TMC3    C6 7049   4.208   0.545   1.053 -0.9435  1.2152 -0.4271
  470TMC3     C 7050   4.210   0.423   0.655  0.3403  0.2201 -0.2449
  470TMC3     O 7051   4.316   0.449   0.599  1.1863  0.2771  0.7200
  470TMC3     H 7052   4.419   0.493   0.795 -0.0676 -0.9939  0.5050
  470TMC3    H1 7053   4.002   0.431   0.818 -0.2857  2.9364 -1.4834
  470TMC3    H2 7054   4.205   0.569   1.159  2.2478 -2.7774  0.5735
  470TMC3    C7 7055   3.981   0.469   1.065  0.2403 -0.0720 -0.7705
  470TMC3    C8 7056   4.443   0.607   1.038 -0.4073  0.3971 -0.4344
  470TMC3    O1 7057   3.922   0.363   1.038  0.7696 -0.3491 -0.7328
  470TMC3    O2 7058   4.418   0.687   1.124  0.4497  0.1734  0.1758
  471MPD2     C 7059   4.565   1.829  17.036  0.5716  0.1377 -0.2712
  471MPD2    C1 7060   4.671   1.913  17.059 -0.4864  0.3664 -0.1657
  471MPD2    C2 7061   4.727   1.925  17.183  0.6314 -0.1745  0.0965
  471MPD2    C3 7062   4.695   1.839  17.287  0.4180 -0.2380 -0.5218
  471MPD2    C4 7063   4.592   1.748  17.264 -0.0549  0.0492 -0.4897
  471MPD2    C5 7064   4.534   1.743  17.144 -0.7600  0.3490  0.3204
  471MPD2     H 7065   0.069   1.999  17.185  0.0017  0.3893  3.3699
  471MPD2    H1 7066   4.567   1.680  17.345  0.7213  0.3868  0.0354
  471MPD2    H2 7067   4.524   1.820  16.936  1.4252  2.5373 -0.8292
  471MPD2    H3 7068   4.468   1.658  17.128  0.1428 -0.4472  0.8580
  471MPD2     N 7069   0.035   1.824  17.406  0.5300  0.6043  0.4436
  471MPD2    H5 7070   4.729   1.765  17.476 -0.3561 -0.3309 -0.8870
  471MPD2    N1 7071   4.736   1.992  16.958 -0.4246 -0.0176  0.5299
  471MPD2    H7 7072   0.091   2.022  16.987 -0.2055  2.4080 -2.8063
  472TMC3    C1 7073   0.019   2.084  16.743  0.7377 -1.2287  0.1375
  472TMC3    C2 7074   4.697   2.171  16.665 -0.0616  0.4739 -0.7373
  472TMC3    C3 7075   4.719   2.174  16.528 -0.0698 -0.0921 -0.0477
  472TMC3    C4 7076   0.110   1.992  16.707 -0.7938 -0.5829 -0.4336
  472TMC3    C5 7077   0.126   1.990  16.569 -1.1092 -0.4622 -0.2037
  472TMC3    C6 7078   0.078   2.087  16.481  0.3327  0.2109 -0.3454
  472TMC3     C 7079   4.672   2.028  16.838 -0.2757  0.4007  0.7468
  472TMC3     O 7080   4.568   2.001  16.784  0.0965  0.4782  0.3963
  472TMC3     H 7081   4.603   2.212  16.699 -0.5500 -1.3736  0.1472
  472TMC3    H1 7082   0.124   1.902  16.765 -0.3703  0.0145  0.3914
  472TMC3    H2 7083   0.099   2.074  16.376  1.5054 -0.3824 -0.0371
  472TMC3    C7 7084   0.138   1.854  16.530 -0.3054  0.0225 -0.1509
  472TMC3    C8 7085   4.604   2.147  16.447 -0.2852 -0.4364 -1.0660
  472TMC3    O1 7086   0.198   1.778  16.604 -0.3318 -0.4848  0.1469
  472TMC3    O2 7087   4.607   2.174  16.330 -0.2011 -0.2858 -0.4013
  473MPD2     C 7088   4.472   4.056  13.641 -0.3348  0.7663 -0.0849
  473MPD2    C1 7089   4.421   4.167  13.582 -0.2483 -0.3599  0.2915
  473MPD2    C2 7090   4.401   4.278  13.664  0.2899  0.2471  0.3111
  473MPD2    C3 7091   4.466   4.286  13.785  0.8735 -0.0652 -0.7210
  473MPD2    C4 7092   4.528   4.175  13.838  0.3577  0.1031 -0.0422
  473MPD2    C5 7093   4.537   4.065  13.764  0.7095 -0.8387  0.4977
  473MPD2     H 7094   4.336   4.359  13.634 -0.1669  0.8985  3.0106
  473MPD2    H1 7095   4.567   4.169  13.939 -1.1449  2.5585  0.6612
  473MPD2    H2 7096   4.488   3.965  13.585 -2.5527  0.9988 -1.0977
  473MPD2    H3 7097   4.580   3.979  13.813  1.2741 -0.1252  1.2427
  473MPD2     N 7098   4.452   4.402  13.865 -0.0178  0.0292  0.6398
  473MPD2    H5 7099   4.503   4.393  13.952 -2.9877  1.8624  2.5992
  473MPD2    N1 7100   4.377   4.175  13.450 -0.1983 -0.4434 -0.8377
  473MPD2    H7 7101   4.369   4.275  13.430 -1.8130 -0.8726 -2.2896
  474TMC3    C1 7102   4.422   4.637  13.929  0.4578 -0.1918  0.2998
  474TMC3    C2 7103   4.442   0.020  13.872 -0.3186 -0.1127  0.1042
  474TMC3    C3 7104   4.489   0.121  13.946  0.2644  0.8707  0.3034
  474TMC3    C4 7105   4.463   4.608  14.060  0.1636 -0.3989 -0.3218
  474TMC3    C5 7106   4.506   4.719  14.135 -0.4243 -0.0191 -0.2277
  474TMC3    C6 7107   4.516   0.107  14.081 -0.3254 -0.0760  0.2598
  474TMC3     C 7108   4.389   4.527  13.838 -0.4501  0.7056 -0.2175
  474TMC3     O 7109   4.328   4.560  13.733  0.3514  0.2351  0.7651
  474TMC3     H 7110   4.465   0.011  13.767 -1.2766 -0.1409 -0.1097
  474TMC3    H1 7111   4.436   4.515  14.109 -1.3235  1.2927  2.0485
  474TMC3    H2 7112   4.546   0.192  14.141  0.8033 -1.0540  1.0965
  474TMC3    C7 7113   4.517   4.695  14.278 -0.4505  0.1512 -0.1267
  474TMC3    C8 7114   4.511   0.249  13.887 -0.2788  0.2658  0.1431
  474TMC3    O1 7115   4.481   4.580  14.302  0.1881  0.6333  0.0059
  474TMC3    O2 7116   4.572   0.334  13.952  0.6507  0.8282  1.0114
  475MPD2     C 7117   2.358   3.706  11.276  0.2604 -0.0105 -0.0241
  475MPD2    C1 7118   2.473   3.716  11.199 -0.1639  0.6624 -0.0483
  475MPD2    C2 7119   2.452   3.721  11.059  0.7469 -0.7512  0.2485
  475MPD2    C3 7120   2.331   3.680  11.002 -0.0341  0.1176 -0.7592
  475MPD2    C4 7121   2.223   3.651  11.082  0.1618 -0.4012  0.9241
  475MPD2    C5 7122   2.236   3.669  11.220  0.0045 -0.9764 -0.6073
  475MPD2     H 7123   2.537   3.731  10.992  0.1382  0.4877 -0.3596
  475MPD2    H1 7124   2.126   3.620  11.044  1.1031 -1.3632 -0.7151
  475MPD2    H2 7125   2.353   3.724  11.383  1.2702 -0.0858  0.0364
  475MPD2    H3 7126   2.156   3.636  11.284  2.1042 -0.7972  2.1117
  475MPD2     N 7127   2.323   3.667  10.857 -0.6961 -0.7082  0.8002
  475MPD2    H5 7128   2.403   3.702  10.804 -1.0866  1.5075  1.6604
  475MPD2    N1 7129   2.597   3.744  11.262  0.2078 -0.4066  0.3521
  475MPD2    H7 7130   2.600   3.765  11.362 -0.6820 -0.5509  0.4049
  476TMC3    C1 7131   2.833   3.774  11.270  0.1162 -0.0213 -0.3098
  476TMC3    C2 7132   2.951   3.736  11.209  0.4347  0.6163 -0.6580
  476TMC3    C3 7133   3.062   3.798  11.238 -0.0384 -0.0140 -0.2577
  476TMC3    C4 7134   2.838   3.868  11.364 -0.5440 -0.4815  0.3706
  476TMC3    C5 7135   2.955   3.920  11.415 -0.0966 -0.2148  0.0281
  476TMC3    C6 7136   3.069   3.893  11.341  0.3247 -0.4231 -0.4102
  476TMC3     C 7137   2.713   3.759  11.190 -0.2710  0.2354  0.3425
  476TMC3     O 7138   2.742   3.720  11.078 -0.0977  0.2265  0.3202
  476TMC3     H 7139   2.947   3.653  11.140 -0.4912  0.2199 -0.1298
  476TMC3    H1 7140   2.748   3.910  11.407 -0.8722 -0.3895 -0.4176
  476TMC3    H2 7141   3.162   3.936  11.376 -0.3130 -0.0145  0.7856
  476TMC3    C7 7142   2.940   4.041  11.501  0.0467 -0.4232  0.5425
  476TMC3    C8 7143   3.175   3.787  11.148 -0.7096 -0.3837  0.6681
  476TMC3    O1 7144   2.848   4.052  11.577 -0.4842 -0.7585 -0.5500
  476TMC3    O2 7145   3.261   3.872  11.161 -0.1187 -0.1518 -0.4267
  477MPD2     C 7146   1.148   4.417  11.944 -0.3292  0.1915  0.0346
  477MPD2    C1 7147   1.122   4.331  11.842 -0.4184 -0.3908  0.4360
  477MPD2    C2 7148   1.175   4.205  11.839 -0.5282 -0.4576  0.1066
  477MPD2    C3 7149   1.262   4.161  11.939  0.2601 -0.1345 -0.4327
  477MPD2    C4 7150   1.305   4.250  12.037  0.4267 -0.4001 -0.8900
  477MPD2    C5 7151   1.240   4.375  12.039  0.0426 -0.2506  0.0085
  477MPD2     H 7152   1.151   4.136  11.759  1.2986  0.3642 -1.1445
  477MPD2    H1 7153   1.375   4.232  12.118 -2.0246  0.8206  1.5165
  477MPD2    H2 7154   1.096   4.512  11.954  0.5021  0.8889 -2.3882
  477MPD2    H3 7155   1.266   4.446  12.117  0.5081 -0.9799  0.5318
  477MPD2     N 7156   1.315   4.032  11.918  0.1697  0.4544  0.7262
  477MPD2    H5 7157   1.291   3.978  11.835 -0.9858 -0.2429  1.5228
  477MPD2    N1 7158   1.023   4.371  11.742 -0.6631  0.0040 -0.4953
  477MPD2    H7 7159   0.999   4.469  11.748 -0.8469 -0.3154  3.6304
  478TMC3    C1 7160   0.918   4.396  11.534  0.0846 -0.3129 -0.1493
  478TMC3    C2 7161   0.815   4.473  11.596  0.0288 -0.0962 -0.7210
  478TMC3    C3 7162   0.725   4.527  11.510 -0.0247  0.2680 -0.1748
  478TMC3    C4 7163   0.935   4.383  11.401  0.0888 -0.0627  0.1602
  478TMC3    C5 7164   0.844   4.446  11.326  0.2342  0.8353  1.1731
  478TMC3    C6 7165   0.734   4.508  11.372 -0.2032 -0.6254 -0.2150
  478TMC3     C 7166   0.988   4.304  11.626 -0.5545 -0.4346 -0.3833
  478TMC3     O 7167   1.043   4.208  11.576  0.3351 -0.8485  0.2679
  478TMC3     H 7168   0.817   4.497  11.702 -1.5831  0.3941 -0.8035
  478TMC3    H1 7169   1.006   4.313  11.358  1.1214  2.3702 -2.0756
  478TMC3    H2 7170   0.658   4.550  11.308 -0.6021 -0.1218  0.5887
  478TMC3    C7 7171   0.827   4.378  11.197  0.3248 -0.3967 -0.3486
  478TMC3    C8 7172   0.606   4.602  11.545 -0.3112  0.1673 -0.7463
  478TMC3    O1 7173   0.884   4.271  11.177  0.6746  0.2017 -0.1096
  478TMC3    O2 7174   0.543   4.655  11.454 -0.5801  0.6865 -0.3044
  479MPD2     C 7175   4.625   1.796  15.168  0.1879  0.1529  0.1413
  479MPD2    C1 7176   4.574   1.715  15.265  0.1177  1.1153  0.0953
  479MPD2    C2 7177   4.646   1.691  15.380  0.0727  0.4720  0.8928
  479MPD2    C3 7178   0.030   1.746  15.397  0.9258 -0.1403  0.0057
  479MPD2    C4 7179   0.081   1.833  15.303  0.3016  0.4709 -0.2135
  479MPD2    C5 7180   0.012   1.854  15.187 -0.2075 -0.1660  0.0863
  479MPD2     H 7181   4.605   1.625  15.456 -1.6807  1.2481  0.5991
  479MPD2    H1 7182   0.175   1.885  15.320 -0.0187  0.6842  0.8860
  479MPD2    H2 7183   4.568   1.832  15.083  2.1049 -0.4249 -1.3877
  479MPD2    H3 7184   0.050   1.924  15.113 -1.3188 -0.5081 -0.8142
  479MPD2     N 7185   0.106   1.724  15.510 -0.2214 -0.5610  0.1152
  479MPD2    H5 7186   0.203   1.754  15.503  0.0540 -1.4933 -0.1210
  479MPD2    N1 7187   4.447   1.655  15.232 -0.2581 -0.4685 -0.5606
  479MPD2    H7 7188   4.414   1.671  15.137  1.8006  1.5421 -0.9467
  480TMC3    C1 7189   4.511   1.635  15.823 -0.8288 -0.2968 -0.4327
  480TMC3    C2 7190   4.457   1.754  15.820 -0.4478  0.0713 -0.5157
  480TMC3    C3 7191   4.519   1.845  15.738  0.2354 -0.3034  0.0797
  480TMC3    C4 7192   4.613   1.594  15.744  0.0955  1.0698 -0.2150
  480TMC3    C5 7193   4.666   1.689  15.666 -1.2296  0.0424  0.2599
  480TMC3    C6 7194   4.632   1.819  15.671  0.7295 -0.4534  0.2609
  480TMC3     C 7195   4.459   1.526  15.908  0.4173  0.5425 -0.5530
  480TMC3     O 7196   4.513   1.415  15.910  0.2990  0.1422 -0.1793
  480TMC3     H 7197   4.368   1.782  15.876  1.0128  0.4886  1.6225
  480TMC3    H1 7198   4.640   1.490  15.729  1.4273  1.4906 -0.7292
  480TMC3    H2 7199   4.691   1.888  15.613  1.1958 -1.1101 -0.0516
  480TMC3    C7 7200   0.064   1.660  15.624 -0.5355 -0.4980 -1.0372
  480TMC3    C8 7201   4.416   1.918  15.664 -0.0096 -0.3276 -0.0338
  480TMC3    O1 7202   0.130   1.596  15.702 -0.1865  0.0857  0.1522
  480TMC3    O2 7203   4.299   1.901  15.693  0.3190 -0.3500 -0.4740
  481MPD2     C 7204   1.488   1.233  13.911 -0.3658 -0.2039  0.0027
  481MPD2    C1 7205   1.370   1.163  13.935  0.2283 -0.5504  0.1522
  481MPD2    C2 7206   1.337   1.131  14.066  0.0850 -0.2520  0.3567
  481MPD2    C3 7207   1.416   1.168  14.177 -0.0162 -1.1307  0.5637
  481MPD2    C4 7208   1.530   1.234  14.149  0.3200 -0.1968  0.4606
  481MPD2    C5 7209   1.566   1.268  14.018  0.3267 -0.8498 -0.3290
  481MPD2     H 7210   1.236   1.096  14.080 -0.1962  0.2347 -0.4872
  481MPD2    H1 7211   1.595   1.269  14.228 -2.1553  3.2253  0.9451
  481MPD2    H2 7212   1.508   1.253  13.807 -0.2274  0.2132  0.1105
  481MPD2    H3 7213   1.665   1.307  13.998 -0.5462  0.1252 -2.8093
  481MPD2     N 7214   1.377   1.135  14.315  0.3179  0.1223  0.2506
  481MPD2    H5 7215   1.439   1.170  14.387 -0.7090  2.4937 -0.0206
  481MPD2    N1 7216   1.283   1.144  13.819 -0.3657 -0.3137 -0.7439
  481MPD2    H7 7217   1.288   1.212  13.743  0.2143  0.7338  0.2215
  482TMC3    C1 7218   1.102   1.066  13.699  0.6208  0.5692  0.3967
  482TMC3    C2 7219   1.023   0.960  13.678  0.5116 -0.1708  0.6148
  482TMC3    C3 7220   0.925   0.970  13.583 -0.8765  0.1086  0.1060
  482TMC3    C4 7221   1.084   1.188  13.632 -0.6317 -0.7666  0.0944
  482TMC3    C5 7222   0.986   1.192  13.537 -0.0448 -0.4258 -0.3895
  482TMC3    C6 7223   0.903   1.082  13.514 -1.1205  0.0852  0.7635
  482TMC3     C 7224   1.185   1.052  13.816  0.0982  0.3263 -0.4259
  482TMC3     O 7225   1.177   0.951  13.884 -0.4041 -0.1008 -0.9283
  482TMC3     H 7226   1.027   0.873  13.743 -1.6706  1.6318  3.1348
  482TMC3    H1 7227   1.145   1.278  13.639 -1.1782 -0.3279 -0.8098
  482TMC3    H2 7228   0.827   1.089  13.438 -2.3253  0.8382  2.0352
  482TMC3    C7 7229   0.947   1.321  13.480  0.0885 -0.3737 -0.1020
  482TMC3    C8 7230   0.851   0.851  13.563  0.4146  0.6160 -0.2038
  482TMC3    O1 7231   0.988   1.416  13.542 -0.4905 -0.1675 -0.2088
  482TMC3    O2 7232   0.901   0.743  13.583 -0.1705  0.5672 -0.0850
  483TMC3    C1 7233   3.656   4.167   0.730 -0.0690  0.7592 -1.1236
  483TMC3    C2 7234   3.715   4.284   0.778  0.0171  0.0754 -0.0844
  483TMC3    C3 7235   3.850   4.279   0.788 -0.0499 -0.2581 -0.0383
  483TMC3    C4 7236   3.736   4.058   0.686  0.5964 -0.7272 -0.3653
  483TMC3    C5 7237   3.872   4.062   0.696  0.8961 -0.0898  0.4239
  483TMC3    C6 7238   3.924   4.176   0.753 -0.4682  0.2661 -0.2604
  483TMC3     C 7239   3.516   4.159   0.704 -0.4694  0.0958 -0.5049
  483TMC3     O 7240   3.460   4.265   0.676 -0.9763 -0.8152  0.0121
  483TMC3     H 7241   3.649   4.369   0.787  0.8222  0.8198 -1.2130
  483TMC3    H1 7242   3.691   3.978   0.628  0.8839 -0.5522 -0.8235
  483TMC3    H2 7243   4.030   4.195   0.744 -0.6323  0.8902 -0.8820
  483TMC3    C7 7244   3.958   3.981   0.616  0.0421  0.8280  0.2690
  483TMC3    C8 7245   3.917   4.411   0.801  0.5620 -0.5303  0.2966
  483TMC3    O1 7246   4.076   4.014   0.611 -0.4164  0.0879  0.6863
  483TMC3    O2 7247   3.865   4.505   0.739  0.9421 -0.1798  0.0110
  484MPD2     C 7248   2.192   2.682  13.123 -0.0523 -1.0965  0.3555
  484MPD2    C1 7249   2.108   2.709  13.015  0.4428 -0.7026  0.1314
  484MPD2    C2 7250   2.156   2.783  12.901  0.2026  0.4306  0.0515
  484MPD2    C3 7251   2.287   2.818  12.896 -0.8577  0.4854 -0.2130
  484MPD2    C4 7252   2.371   2.790  13.001 -0.6499 -0.5774 -1.1399
  484MPD2    C5 7253   2.321   2.728  13.116 -0.6159 -0.1401 -0.6756
  484MPD2     H 7254   2.090   2.811  12.820  0.9872 -0.6577 -0.9707
  484MPD2    H1 7255   2.476   2.817  13.006 -0.1573 -2.6130 -0.3639
  484MPD2    H2 7256   2.166   2.636  13.218  1.0334  1.2806  1.7940
  484MPD2    H3 7257   2.378   2.717  13.207 -0.2408 -0.4518 -0.9485
  484MPD2     N 7258   2.336   2.890  12.784 -0.1269  0.2076 -0.0280
  484MPD2    H5 7259   2.430   2.928  12.793  0.0628  0.2195 -2.0147
  484MPD2    N1 7260   1.980   2.660  13.028 -0.4154 -0.2325  0.3503
  484MPD2    H7 7261   1.964   2.619  13.120  1.8407 -0.6368  0.5521
  485TMC3    C1 7262   2.341   3.010  12.574  0.7648  0.4025 -1.0320
  485TMC3    C2 7263   2.476   3.025  12.584 -0.1936 -0.8177  0.2749
  485TMC3    C3 7264   2.534   3.146  12.546  0.2863  0.2129  1.0247
  485TMC3    C4 7265   2.261   3.103  12.515  0.6219  0.1268 -1.1042
  485TMC3    C5 7266   2.325   3.220  12.469 -0.6224 -0.4310 -0.0379
  485TMC3    C6 7267   2.459   3.249  12.498  0.0754 -0.2624 -0.7035
  485TMC3     C 7268   2.273   2.920  12.663 -0.4546  0.8325  0.3148
  485TMC3     O 7269   2.164   2.882  12.621  0.1660  0.0280 -0.0607
  485TMC3     H 7270   2.530   2.951  12.641  1.9345 -0.3676 -1.1383
  485TMC3    H1 7271   2.154   3.089  12.504  0.8187 -0.8244 -1.7904
  485TMC3    H2 7272   2.496   3.350  12.482  2.3579 -1.2790 -1.7976
  485TMC3    C7 7273   2.311   3.250  12.326 -1.0370 -0.4671  0.1590
  485TMC3    C8 7274   2.659   3.138  12.481 -0.1932 -0.0988  0.0847
  485TMC3    O1 7275   2.203   3.247  12.272  0.7308  0.2604 -0.0146
  485TMC3    O2 7276   2.696   3.238  12.420  0.0814 -0.3498 -0.2965
  486MPD2     C 7277   3.996   1.898  12.855  0.1903  0.4765 -0.2469
  486MPD2    C1 7278   3.986   1.882  12.716 -0.2407 -0.3037  0.9204
  486MPD2    C2 7279   3.972   1.993  12.636  0.9252 -0.3352 -0.3238
  486MPD2    C3 7280   3.971   2.119  12.699 -0.0732 -0.4798 -0.3367
  486MPD2    C4 7281   3.984   2.133  12.835 -0.2831  0.1012 -0.6973
  486MPD2    C5 7282   4.008   2.026  12.913 -0.2739 -0.0898 -0.2870
  486MPD2     H 7283   3.956   1.995  12.529 -0.6397  0.0274 -0.0819
  486MPD2    H1 7284   3.978   2.233  12.877  2.6507  0.0384 -0.0776
  486MPD2    H2 7285   4.001   1.817  12.927  1.9607  0.0295 -0.8807
  486MPD2    H3 7286   4.005   2.043  13.020  1.2831  1.7146 -0.5261
  486MPD2     N 7287   3.936   2.231  12.618 -0.0379  0.0210 -0.1561
  486MPD2    H5 7288   3.921   2.216  12.519  0.7836 -0.3150 -0.2311
  486MPD2    N1 7289   4.015   1.745  12.670  0.3485 -0.4976 -0.0815
  486MPD2    H7 7290   4.028   1.675  12.742  0.2260 -2.2537 -1.7536
  487TMC3    C1 7291   3.990   1.552  12.537 -0.0325  0.4554 -0.1595
  487TMC3    C2 7292   3.874   1.493  12.513  0.2832  0.2560 -0.5812
  487TMC3    C3 7293   3.853   1.365  12.563  0.3855  0.4795  0.5960
  487TMC3    C4 7294   4.087   1.496  12.610  0.1346  0.0732 -0.3973
  487TMC3    C5 7295   4.062   1.376  12.667  0.9187 -0.2528  0.1939
  487TMC3    C6 7296   3.957   1.300  12.621  0.3982  0.3752  0.2513
  487TMC3     C 7297   3.979   1.698  12.540  0.2770 -1.0516  0.9474
  487TMC3     O 7298   3.922   1.753  12.448  0.1593  0.2405 -0.3313
  487TMC3     H 7299   3.800   1.546  12.454 -1.0119  0.2649  1.0356
  487TMC3    H1 7300   4.170   1.562  12.635 -1.1185  0.8153  1.8234
  487TMC3    H2 7301   3.952   1.199  12.660  2.1951  0.5404  0.9474
  487TMC3    C7 7302   4.037   1.405  12.807  0.4736  0.2290  0.4362
  487TMC3    C8 7303   3.739   1.352  12.638 -0.2406 -0.5124  0.0061
  487TMC3    O1 7304   4.033   1.525  12.833 -0.2476 -0.1016  0.1178
  487TMC3    O2 7305   3.684   1.455  12.681 -0.6930  0.1748 -0.7206
  488MPD2     C 7306   4.389   3.635  16.456  0.2370 -0.7634  0.5983
  488MPD2    C1 7307   4.393   3.771  16.478 -0.0960  0.1501 -0.4295
  488MPD2    C2 7308   4.369   3.816  16.605 -0.0388  0.1384 -0.4998
  488MPD2    C3 7309   4.340   3.734  16.709 -0.3752  0.5118  0.3696
  488MPD2    C4 7310   4.330   3.599  16.685  0.3297  0.3374  0.0423
  488MPD2    C5 7311   4.347   3.553  16.560  0.2169 -0.2948 -0.0788
  488MPD2     H 7312   4.387   3.918  16.638  2.5491 -0.1749 -0.9871
  488MPD2    H1 7313   4.311   3.526  16.763  2.2724  0.9023  1.0451
  488MPD2    H2 7314   4.403   3.588  16.359  0.3093 -0.3440  0.4082
  488MPD2    H3 7315   4.336   3.446  16.541  1.1872 -0.2131 -1.0990
  488MPD2     N 7316   4.331   3.799  16.840 -0.3813 -0.1338  0.4587
  488MPD2    H5 7317   4.323   3.900  16.836  0.4086 -0.0109  2.2306
  488MPD2    N1 7318   4.420   3.864  16.371  0.7194 -0.6963 -0.1254
  488MPD2    H7 7319   4.420   3.962  16.399 -1.6018 -0.7438  0.0714
  489TMC3    C1 7320   4.280   3.847  17.070  0.2757  0.3451 -0.8897
  489TMC3    C2 7321   4.348   3.962  17.070  0.4617 -0.1610 -0.0527
  489TMC3    C3 7322   4.298   4.065  17.148  0.1073 -0.0972 -0.4706
  489TMC3    C4 7323   4.190   3.815  17.163  0.5608  0.2867  1.6253
  489TMC3    C5 7324   4.147   3.916  17.241 -0.1827  1.0447 -0.4947
  489TMC3    C6 7325   4.194   4.039  17.245  0.0263 -0.0618  0.2712
  489TMC3     C 7326   4.298   3.746  16.963 -0.0244  0.7000 -0.3173
  489TMC3     O 7327   4.290   3.630  17.003 -0.0229 -0.3302  0.3554
  489TMC3     H 7328   4.403   3.980  16.978  0.0145 -0.4232 -0.3703
  489TMC3    H1 7329   4.150   3.715  17.152 -1.8450  1.3635  0.5806
  489TMC3    H2 7330   4.152   4.116  17.309 -1.0874 -0.0643 -0.4654
  489TMC3    C7 7331   4.068   3.878  17.355  0.9456  0.5987 -0.4745
  489TMC3    C8 7332   4.318   4.190  17.098 -0.2578 -0.0432  0.1515
  489TMC3    O1 7333   4.032   3.973  17.424 -0.5883  0.5735  0.4883
  489TMC3    O2 7334   4.410   4.207  17.027  0.1586 -0.1810 -0.6870
  490MPD2     C 7335   0.068   3.027   0.376  0.3224  0.2132  0.4360
  490MPD2    C1 7336   0.075   2.930   0.278  0.3927  0.4228  0.2661
  490MPD2    C2 7337   0.146   2.955   0.162 -0.4660  0.3399 -0.4285
  490MPD2    C3 7338   0.227   3.068   0.164 -0.0376 -0.7904  0.4677
  490MPD2    C4 7339   0.219   3.160   0.265  0.5037 -0.1502 -0.1312
  490MPD2    C5 7340   0.138   3.142   0.365  0.7741 -0.4995  0.0044
  490MPD2     H 7341   0.144   2.880   0.084  0.7787 -0.1955  0.0534
  490MPD2    H1 7342   0.276   3.251   0.256  0.1446 -0.2140 -2.9176
  490MPD2    H2 7343   0.006   3.018   0.465  0.5783 -1.5506  0.4217
  490MPD2    H3 7344   0.133   3.223   0.437  1.3271 -0.6844  0.2467
  490MPD2     N 7345   0.326   3.090   0.065 -0.4943  0.0457  0.5642
  490MPD2    H5 7346   0.375   3.179   0.069  1.8810 -1.2973  1.1352
  490MPD2    N1 7347   4.736   2.809   0.274 -0.8195  0.6180  0.3775
  490MPD2    H7 7348   0.024   2.743   0.201 -0.3950  2.6542 -1.2974
  491TMC3    C1 7349   4.564   2.656   0.340 -0.5077 -0.1765  0.1187
  491TMC3    C2 7350   4.530   2.574   0.444  0.7777 -0.4439 -0.5952
  491TMC3    C3 7351   4.527   2.442   0.425  0.8087 -0.0021 -0.7586
  491TMC3    C4 7352   4.577   2.602   0.220 -0.5430 -1.0562 -0.0400
  491TMC3    C5 7353   4.546   2.474   0.202  0.9304 -0.1337 -0.0431
  491TMC3    C6 7354   4.540   2.388   0.300 -0.3028 -0.0758 -0.6047
  491TMC3     C 7355   4.647   2.772   0.377  0.0062 -0.3421  0.5302
  491TMC3     O 7356   4.638   2.812   0.493  0.3884  0.6644 -0.3370
  491TMC3     H 7357   4.529   2.611   0.546  2.2626  1.1171 -1.1472
  491TMC3    H1 7358   4.601   2.661   0.132 -0.0007  0.2837  1.0046
  491TMC3    H2 7359   4.509   2.285   0.287 -2.1619  0.2429  1.2391
  491TMC3    C7 7360   4.554   2.414   0.065  0.0789 -0.0863  0.6953
  491TMC3    C8 7361   4.537   2.358   0.534 -0.3492  0.0828 -0.3902
  491TMC3    O1 7362   4.497   2.305   0.062 -0.2299 -0.7424 -0.2392
  491TMC3    O2 7363   4.454   2.365   0.628  0.1935 -0.2228  0.2269
  492MPD2     C 7364   0.588   3.136  11.502  0.0611 -0.6362 -0.1728
  492MPD2    C1 7365   0.512   3.049  11.420 -0.3144  1.1165  0.3967
  492MPD2    C2 7366   0.459   2.936  11.475 -0.1021  0.2636  0.3761
  492MPD2    C3 7367   0.473   2.903  11.608 -0.0365 -0.4192 -0.0516
  492MPD2    C4 7368   0.553   2.987  11.683  0.2192  0.0759  0.5236
  492MPD2    C5 7369   0.612   3.100  11.630  0.7343  0.3974 -0.9227
  492MPD2     H 7370   0.381   2.885  11.420 -1.3936  0.4198  2.0403
  492MPD2    H1 7371   0.588   2.954  11.780  1.7672 -0.8646 -0.3605
  492MPD2    H2 7372   0.620   3.227  11.453  1.1790  0.3010  2.3008
  492MPD2    H3 7373   0.684   3.161  11.684  1.2488 -0.0507 -1.0993
  492MPD2     N 7374   0.424   2.786  11.673 -0.2873  0.1099 -0.2822
  492MPD2    H5 7375   0.443   2.777  11.773 -1.9999 -1.4560 -0.0739
  492MPD2    N1 7376   0.497   3.092  11.284  0.4521  0.6947  0.4342
  492MPD2    H7 7377   0.534   3.184  11.261  0.9612 -0.0577 -1.7437
  493TMC3    C1 7378   0.416   3.080  11.057 -0.5108  0.1158  0.1363
  493TMC3    C2 7379   0.492   3.190  11.021  0.1177  0.3789 -0.1450
  493TMC3    C3 7380   0.473   3.244  10.898 -0.2522  0.1982 -0.0608
  493TMC3    C4 7381   0.309   3.045  10.983 -0.2502 -0.0966 -0.8091
  493TMC3    C5 7382   0.288   3.115  10.871  0.2772  0.1332 -0.1506
  493TMC3    C6 7383   0.361   3.221  10.819  0.1686 -0.1630  0.3165
  493TMC3     C 7384   0.437   3.013  11.182  0.8911  0.5992 -0.1905
  493TMC3     O 7385   0.372   2.909  11.186 -0.2411  0.5692  0.4100
  493TMC3     H 7386   0.574   3.213  11.088  0.4075  0.0787 -0.3905
  493TMC3    H1 7387   0.251   2.954  10.996  1.7065 -0.8062  2.8767
  493TMC3    H2 7388   0.318   3.280  10.739 -0.4240 -0.2929  0.5371
  493TMC3    C7 7389   0.169   3.086  10.802  0.0230 -0.3693 -0.2271
  493TMC3    C8 7390   0.524   3.381  10.888 -0.0098 -0.7089 -0.2270
  493TMC3    O1 7391   0.173   3.093  10.679 -0.5545 -0.1513  0.3593
  493TMC3    O2 7392   0.526   3.445  10.994  0.7596 -0.2018  0.0341
  494TMC3    C1 7393   0.494   4.391   0.047  0.8128 -0.7085  0.1847
  494TMC3    C2 7394   0.482   4.261   0.013  0.1956  0.5569  0.2740
  494TMC3    C3 7395   0.561   4.196  17.666 -0.0848 -0.9048  0.3086
  494TMC3    C4 7396   0.585   4.475  17.736 -0.2224 -0.3262  0.4600
  494TMC3    C5 7397   0.654   4.414  17.632 -0.0827 -0.8612  0.4062
  494TMC3    C6 7398   0.635   4.284  17.592  0.3914  0.2305 -0.5047
  494TMC3     C 7399   0.442   4.420   0.178 -0.4146  0.2940 -0.9834
  494TMC3     O 7400   0.352   4.352   0.221 -0.3329  0.1229 -0.0386
  494TMC3     H 7401   0.420   4.195   0.074 -0.1030 -1.1721 -1.9113
  494TMC3    H1 7402   0.570   4.580   0.011 -3.3264 -0.4735 -1.0797
  494TMC3    H2 7403   0.686   4.261  17.499  2.4683 -0.2740  0.7505
  494TMC3    C7 7404   0.758   4.477  17.563  0.2223 -0.2088 -0.3438
  494TMC3    C8 7405   0.639   4.090  17.722  0.5567 -0.2760 -0.3067
  494TMC3    O1 7406   0.848   4.406  17.528  0.2170 -0.8762  0.4304
  494TMC3    O2 7407   0.587   4.029   0.070 -0.1746  0.0267 -0.2432
  495TMC3    C1 7408   0.003   2.251  14.779 -0.3175 -0.5084 -0.1118
  495TMC3    C2 7409   4.628   2.265  14.700  0.0516  0.5217 -0.1851
  495TMC3    C3 7410   4.509   2.292  14.760 -0.2666  0.1245  0.4719
  495TMC3    C4 7411   4.736   2.263  14.915  0.7132 -0.0393  0.0770
  495TMC3    C5 7412   4.617   2.280  14.972 -0.0351  0.3125 -0.1611
  495TMC3    C6 7413   4.502   2.292  14.896  0.4822  0.2572  0.0097
  495TMC3     C 7414   0.105   2.160  14.731  0.3993 -0.3289  1.3277
  495TMC3     O 7415   0.222   2.181  14.752  0.1560  0.2381 -0.0343
  495TMC3     H 7416   4.655   2.268  14.595 -1.0775  0.3624 -0.4845
  495TMC3    H1 7417   0.085   2.241  14.977 -1.4773 -0.4516  2.9779
  495TMC3    H2 7418   4.407   2.320  14.941  0.1149 -0.4126 -0.3520
  495TMC3    C7 7419   4.606   2.232  15.107 -0.9032 -0.6657  0.6462
  495TMC3    C8 7420   4.397   2.209  14.713  0.1687  0.3091  0.4568
  495TMC3    O1 7421   4.671   2.274  15.200 -0.0164 -0.3868 -0.3630
  495TMC3    O2 7422   4.327   2.155  14.794  0.7466 -0.1126 -0.3789
  496MPD2     C 7423   2.094   1.833  15.387  0.0258  0.0853  0.5110
  496MPD2    C1 7424   2.083   1.698  15.364  0.4385  0.1672 -0.0374
  496MPD2    C2 7425   1.958   1.636  15.379  0.1256  0.4214  1.3680
  496MPD2    C3 7426   1.846   1.713  15.409  0.2217  1.2853  0.3145
  496MPD2    C4 7427   1.861   1.851  15.430 -0.4083 -0.7325  0.6786
  496MPD2    C5 7428   1.988   1.909  15.428  0.6194 -0.0519 -0.2088
  496MPD2     H 7429   1.951   1.529  15.359  0.9133  0.8563 -1.2239
  496MPD2    H1 7430   1.774   1.911  15.452 -1.1916 -0.9756 -1.6746
  496MPD2    H2 7431   2.193   1.877  15.379 -0.5671  1.4579  0.6476
  496MPD2    H3 7432   1.992   2.012  15.462  0.6160 -0.2632  0.4387
  496MPD2     N 7433   1.718   1.647  15.409 -0.2557  0.2342 -0.1288
  496MPD2    H5 7434   1.709   1.558  15.361 -3.4616 -0.2849  1.4756
  496MPD2    N1 7435   2.198   1.631  15.325 -0.0778  0.4302  0.2905
  496MPD2    H7 7436   2.275   1.683  15.285 -0.3476  1.7268  1.4515
  497TMC3    C1 7437   1.487   1.619  15.459 -0.1117  0.1438  1.1211
  497TMC3    C2 7438   1.451   1.531  15.358 -0.4783 -0.5107  0.4692
  497TMC3    C3 7439   1.332   1.479  15.362  0.0627  1.1225  0.2064
  497TMC3    C4 7440   1.399   1.651  15.555 -0.1400 -0.5142  0.3738
  497TMC3    C5 7441   1.275   1.587  15.563  0.2810  0.2448 -0.2336
  497TMC3    C6 7442   1.234   1.502  15.457  0.4555 -0.7703  0.3819
  497TMC3     C 7443   1.606   1.699  15.459  0.9311 -0.3207  0.4818
  497TMC3     O 7444   1.593   1.795  15.536  0.5152 -0.2606  0.1956
  497TMC3     H 7445   1.521   1.519  15.276 -2.0562  0.8596 -1.0783
  497TMC3    H1 7446   1.431   1.710  15.640  3.0310 -0.7467 -0.6671
  497TMC3    H2 7447   1.149   1.436  15.473 -1.2376  1.0931 -0.9239
  497TMC3    C7 7448   1.223   1.561  15.696 -0.0607 -0.3934 -0.1510
  497TMC3    C8 7449   1.303   1.386  15.258  0.2882 -0.5165  0.5429
  497TMC3    O1 7450   1.111   1.519  15.714 -0.3393  0.2339 -0.0848
  497TMC3    O2 7451   1.395   1.351  15.193 -0.2335 -0.7675  0.6206
  498MPD2     C 7452   2.735   3.161   9.482 -0.2445  0.5173  0.3101
  498MPD2    C1 7453   2.801   3.148   9.601 -0.0568 -0.4092 -0.4420
  498MPD2    C2 7454   2.807   3.027   9.662 -0.4316 -0.1565  0.1118
  498MPD2    C3 7455   2.746   2.916   9.602 -0.1092  0.5276 -0.1849
  498MPD2    C4 7456   2.689   2.932   9.478 -0.5904 -0.1392 -0.2898
  498MPD2    C5 7457   2.684   3.052   9.414  0.0759  0.1675 -1.0387
  498MPD2     H 7458   2.860   3.012   9.756 -0.2049 -0.4132 -0.0558
  498MPD2    H1 7459   2.639   2.843   9.440 -2.1733 -0.3985  2.4487
  498MPD2    H2 7460   2.725   3.256   9.432  1.7699 -0.0251 -1.0999
  498MPD2    H3 7461   2.638   3.061   9.316 -1.3692 -0.0622 -0.3785
  498MPD2     N 7462   2.736   2.799   9.683  0.2725  0.3283 -0.3411
  498MPD2    H5 7463   2.774   2.793   9.777 -0.8904  0.1446  0.1081
  498MPD2    N1 7464   2.867   3.259   9.661 -0.5031  0.0229 -0.2377
  498MPD2    H7 7465   2.925   3.242   9.743  0.2114 -0.1025 -0.7756
  499TMC3    C1 7466   2.895   3.487   9.733  0.7997 -0.4758 -0.0459
  499TMC3    C2 7467   3.008   3.451   9.803  0.0039  0.3545  0.0711
  499TMC3    C3 7468   3.074   3.543   9.870  0.0778 -0.2371 -0.3830
  499TMC3    C4 7469   2.858   3.619   9.717  0.0769  0.3497  0.2527
  499TMC3    C5 7470   2.931   3.711   9.793  0.1630  0.0430 -0.0299
  499TMC3    C6 7471   3.047   3.682   9.863  0.6398  0.3846 -0.6702
  499TMC3     C 7472   2.830   3.392   9.642  0.1278  0.1750 -0.3344
  499TMC3     O 7473   2.745   3.431   9.566 -0.2115 -0.0736  0.1781
  499TMC3     H 7474   3.037   3.347   9.812 -0.9062  0.2456  1.8660
  499TMC3    H1 7475   2.781   3.653   9.649 -1.0457 -3.0252 -0.1811
  499TMC3    H2 7476   3.104   3.757   9.917 -1.1941  0.5684  1.0447
  499TMC3    C7 7477   2.907   3.853   9.777  0.5571 -0.9495  0.0242
  499TMC3    C8 7478   3.202   3.503   9.924  0.1658  0.0130 -0.5504
  499TMC3    O1 7479   2.984   3.943   9.803  0.1127  0.0032  0.0009
  499TMC3    O2 7480   3.242   3.400   9.874 -0.0246 -0.4029  0.2091
  500MPD2     C 7481   4.068   4.129  10.727  0.8125 -0.4576 -0.2511
  500MPD2    C1 7482   4.104   4.094  10.594 -0.7858  0.4410 -0.3186
  500MPD2    C2 7483   4.030   4.140  10.483 -0.7897 -0.2050 -0.1155
  500MPD2    C3 7484   3.921   4.215  10.514  1.1629 -0.4848  0.0276
  500MPD2    C4 7485   3.890   4.257  10.644 -0.2860 -0.3108 -0.7219
  500MPD2    C5 7486   3.960   4.211  10.753  0.0674  0.4141  0.0354
  500MPD2     H 7487   4.058   4.117  10.381 -1.1336 -0.5540 -0.1276
  500MPD2    H1 7488   3.800   4.316  10.654 -0.1286 -0.4599  1.5865
  500MPD2    H2 7489   4.123   4.095  10.814  1.3933  0.7284 -0.1523
  500MPD2    H3 7490   3.926   4.241  10.851 -1.1566  1.6600 -0.7632
  500MPD2     N 7491   3.837   4.269  10.414  0.1131 -0.2049  0.1259
  500MPD2    H5 7492   3.771   4.338  10.450  1.4889  0.1850  1.8788
  500MPD2    N1 7493   4.211   4.005  10.560 -0.2453 -0.3781  0.4028
  500MPD2    H7 7494   4.226   3.979  10.463 -0.7818  0.1569  0.1711
  501TMC3    C1 7495   4.395   3.849  10.590  0.8547 -0.0886  0.4744
  501TMC3    C2 7496   4.459   3.896  10.474 -0.3999  0.4484 -0.3014
  501TMC3    C3 7497   4.590   3.855  10.455 -0.0955 -0.8115  0.5167
  501TMC3    C4 7498   4.462   3.768  10.681 -0.0372 -0.0165 -0.0945
  501TMC3    C5 7499   4.599   3.745  10.661 -0.6352 -0.6143 -0.2437
  501TMC3    C6 7500   4.659   3.781  10.546  0.8962 -0.1964  0.1056
  501TMC3     C 7501   4.289   3.939  10.650  0.1231 -0.4735 -0.0851
  501TMC3     O 7502   4.275   3.927  10.770 -0.3439 -0.2290  0.8757
  501TMC3     H 7503   4.418   3.981  10.422 -0.4107 -0.0398 -1.0853
  501TMC3    H1 7504   4.422   3.744  10.779  0.4647  0.2319  0.1675
  501TMC3    H2 7505   0.024   3.759  10.517 -0.2812 -2.4868 -2.2220
  501TMC3    C7 7506   4.682   3.777  10.772  0.0913  0.3602  0.1254
  501TMC3    C8 7507   4.671   3.969  10.415  0.2581  0.2947  0.7356
  501TMC3    O1 7508   4.658   3.734  10.883  0.2306  0.1870 -0.2385
  501TMC3    O2 7509   0.026   3.994  10.493  0.1405  0.2164 -0.4626
  502TMC3    C1 7510   4.004   2.824  15.296 -0.1438 -0.4088  0.0429
  502TMC3    C2 7511   3.966   2.950  15.270  0.1027  0.0514  0.3625
  502TMC3    C3 7512   3.850   2.971  15.197  0.0348 -0.0080  0.9607
  502TMC3    C4 7513   3.923   2.719  15.267  0.2696  0.2501  0.5693
  502TMC3    C5 7514   3.800   2.745  15.206  0.0025  0.0656  0.1272
  502TMC3    C6 7515   3.756   2.871  15.166 -0.3419  0.1973 -0.1049
  502TMC3     C 7516   4.100   2.810  15.399  0.1781 -0.3940  0.3430
  502TMC3     O 7517   4.194   2.889  15.395  0.1758 -0.7716  0.1956
  502TMC3     H 7518   4.035   3.028  15.300  0.5952  0.4286 -1.7419
  502TMC3    H1 7519   3.947   2.616  15.289 -0.3382  0.4006  1.9069
  502TMC3    H2 7520   3.679   2.883  15.091 -2.4362 -1.2124  1.8357
  502TMC3    C7 7521   3.745   2.633  15.135  0.3852 -0.2695  0.5833
  502TMC3    C8 7522   3.807   3.110  15.196  0.5477 -0.6076 -0.0993
  502TMC3    O1 7523   3.821   2.544  15.096  0.3088  0.0471  0.0476
  502TMC3    O2 7524   3.877   3.198  15.236 -0.6140 -0.4920  0.1111
  503MPD2     C 7525   1.080   3.273  16.741  0.1739 -0.6186  0.1064
  503MPD2    C1 7526   1.143   3.329  16.849 -0.6374 -0.1114 -0.1428
  503MPD2    C2 7527   1.188   3.256  16.958 -0.5829  0.6663  0.1898
  503MPD2    C3 7528   1.182   3.117  16.952 -0.0019  0.3188 -0.4276
  503MPD2    C4 7529   1.130   3.055  16.840 -1.1044  1.2974 -0.3479
  503MPD2    C5 7530   1.074   3.139  16.736  0.0553  0.4523 -0.8995
  503MPD2     H 7531   1.231   3.315  17.038 -0.0825  1.8506 -0.9475
  503MPD2    H1 7532   1.127   2.948  16.827  2.4997  0.8134  2.6878
  503MPD2    H2 7533   1.052   3.331  16.654 -0.1500  0.0341  0.6382
  503MPD2    H3 7534   1.037   3.084  16.650 -0.4144  0.4229 -0.6848
  503MPD2     N 7535   1.219   3.038  17.069  0.0527  0.2862 -0.3870
  503MPD2    H5 7536   1.227   3.086  17.158  2.7199  0.5715 -0.7684
  503MPD2    N1 7537   1.171   3.468  16.862  0.5425  0.4266  0.2258
  503MPD2    H7 7538   1.223   3.496  16.944  0.9264 -2.2354  0.8915
  504TMC3    C1 7539   1.296   2.857  17.198  0.0148  0.4034  0.6148
  504TMC3    C2 7540   1.207   2.852  17.303  0.3478  0.1140  0.4029
  504TMC3    C3 7541   1.234   2.752  17.393  0.1718 -0.2553  0.4544
  504TMC3    C4 7542   1.415   2.793  17.190  0.3140 -0.4568 -0.6132
  504TMC3    C5 7543   1.444   2.715  17.290 -0.5451 -0.3145 -0.0763
  504TMC3    C6 7544   1.355   2.688  17.394 -0.4049 -0.4041  0.4659
  504TMC3     C 7545   1.241   2.904  17.069 -0.7929  0.7631 -0.1013
  504TMC3     O 7546   1.261   2.827  16.976 -0.1012  0.3152  0.6522
  504TMC3     H 7547   1.106   2.891  17.294  0.2448 -0.6990 -2.0325
  504TMC3    H1 7548   1.455   2.776  17.091  1.8834  2.1674 -0.4564
  504TMC3    H2 7549   1.395   2.645  17.485 -0.6442 -0.3625  0.5908
  504TMC3    C7 7550   1.577   2.646  17.277  0.6437  0.4419  0.1235
  504TMC3    C8 7551   1.138   2.725  17.494  0.0072  0.1073  0.3290
  504TMC3    O1 7552   1.641   2.670  17.176  0.0575 -0.7757 -0.4913
  504TMC3    O2 7553   1.039   2.798  17.493 -0.0154 -0.3069 -1.3116
  505MPD2     C 7554   2.026   2.255  10.525 -0.1004 -0.3024 -0.1417
  505MPD2    C1 7555   2.124   2.177  10.586  0.7228  0.5221 -0.9520
  505MPD2    C2 7556   2.208   2.240  10.678  0.5843  0.7677 -0.1691
  505MPD2    C3 7557   2.185   2.369  10.722  0.1000  0.0102 -0.5495
  505MPD2    C4 7558   2.084   2.447  10.662 -0.1085 -0.8695 -0.6232
  505MPD2    C5 7559   2.010   2.388  10.561 -0.6623 -0.3208  0.3169
  505MPD2     H 7560   2.292   2.184  10.718 -0.1592  0.3860  0.8461
  505MPD2    H1 7561   2.088   2.554  10.677 -1.5243 -0.6467 -1.8077
  505MPD2    H2 7562   1.963   2.210  10.449  1.5375 -1.1997 -0.9855
  505MPD2    H3 7563   1.955   2.455  10.496  1.4887  1.4983  0.3604
  505MPD2     N 7564   2.282   2.423  10.810  0.2439 -0.3596  0.4375
  505MPD2    H5 7565   2.360   2.364  10.839  1.1402 -0.0028 -1.2204
  505MPD2    N1 7566   2.138   2.041  10.549 -0.3416  0.3592  0.6964
  505MPD2    H7 7567   2.072   1.996  10.486  0.0807  0.8433 -0.0867
  506TMC3    C1 7568   2.218   1.821  10.564 -0.1148  0.2084 -0.0681
  506TMC3    C2 7569   2.221   1.812  10.422  0.3043  0.1423 -0.2376
  506TMC3    C3 7570   2.307   1.715  10.364  0.1817 -0.3924  0.4595
  506TMC3    C4 7571   2.302   1.742  10.638  0.0651  1.2372 -0.2710
  506TMC3    C5 7572   2.398   1.670  10.573  0.2045  0.7018  0.2381
  506TMC3    C6 7573   2.403   1.643  10.434  0.4563  0.6206 -0.6061
  506TMC3     C 7574   2.221   1.954  10.618 -0.4598 -0.7302 -0.5436
  506TMC3     O 7575   2.295   1.974  10.713  0.4529  0.1246 -0.8005
  506TMC3     H 7576   2.164   1.875  10.354 -0.3833  1.0080  1.1310
  506TMC3    H1 7577   2.313   1.747  10.746 -1.9013 -1.0941  0.0383
  506TMC3    H2 7578   2.489   1.599  10.384  0.5806 -0.3763  0.4725
  506TMC3    C7 7579   2.534   1.704  10.611  0.2016  0.1125  0.8740
  506TMC3    C8 7580   2.330   1.713  10.221 -0.2481  0.0656 -0.6071
  506TMC3    O1 7581   2.636   1.650  10.568 -0.1525  0.0616  1.1300
  506TMC3    O2 7582   2.313   1.610  10.162 -0.1304  0.1729 -0.3684
  507TMC3    C1 7583   1.822   2.385  14.553 -0.0732 -0.1029  0.4983
  507TMC3    C2 7584   1.738   2.422  14.453  0.4521  0.8937  0.3706
  507TMC3    C3 7585   1.786   2.439  14.332 -0.1176 -0.2297 -0.1255
  507TMC3    C4 7586   1.961   2.384  14.533  0.2517  0.1219  0.6670
  507TMC3    C5 7587   2.005   2.389  14.407  0.1038  0.2323  0.0278
  507TMC3    C6 7588   1.919   2.413  14.311 -0.3608 -0.1366 -0.7798
  507TMC3     C 7589   1.784   2.435  14.687  0.3156 -0.4000 -0.6967
  507TMC3     O 7590   1.724   2.542  14.683  0.8166  0.5306  0.4375
  507TMC3     H 7591   1.639   2.457  14.478  0.1566  0.4670 -0.2051
  507TMC3    H1 7592   2.027   2.372  14.617  2.1238  0.2281 -0.7958
  507TMC3    H2 7593   1.954   2.408  14.209  1.4211  0.5731 -0.1983
  507TMC3    C7 7594   2.124   2.468  14.379 -0.6057  0.0836 -0.1126
  507TMC3    C8 7595   1.724   2.552  14.260 -0.2866  0.2808 -0.7922
  507TMC3    O1 7596   2.135   2.524  14.269  0.3403 -0.4794  0.3148
  507TMC3    O2 7597   1.604   2.560  14.260  0.2214  0.0101 -0.1110
  508MPD2     C 7598   2.737   0.773  16.297 -0.2639  0.2421 -0.4027
  508MPD2    C1 7599   2.836   0.700  16.236 -0.0764  0.4582  0.5044
  508MPD2    C2 7600   2.850   0.708  16.098 -0.3438 -0.1273 -0.5194
  508MPD2    C3 7601   2.764   0.787  16.019 -0.3578  0.2403 -0.4371
  508MPD2    C4 7602   2.676   0.873  16.082 -0.0077 -0.5162  0.2389
  508MPD2    C5 7603   2.659   0.860  16.220 -0.1291 -0.2305 -0.0013
  508MPD2     H 7604   2.924   0.652  16.043  0.5511  1.0761 -0.5170
  508MPD2    H1 7605   2.615   0.944  16.028  0.8787 -0.5612 -0.8103
  508MPD2    H2 7606   2.730   0.763  16.404 -1.5150 -1.5049 -0.6487
  508MPD2    H3 7607   2.585   0.924  16.267  1.2195 -0.3450  2.2730
  508MPD2     N 7608   2.791   0.788  15.878 -0.6717 -0.1385  0.1685
  508MPD2    H5 7609   2.857   0.720  15.843 -1.6059 -2.0268  2.0786
  508MPD2    N1 7610   2.932   0.645  16.328 -0.0766  0.1006  0.3432
  508MPD2    H7 7611   2.912   0.642  16.427  0.6781 -1.2627  0.4403
  509TMC3    C1 7612   2.764   0.950  15.432  0.2428  0.3381  0.5648
  509TMC3    C2 7613   2.901   0.963  15.422  0.0480  0.4526  0.3313
  509TMC3    C3 7614   2.969   0.921  15.529 -0.0441  1.0295  0.0287
  509TMC3    C4 7615   2.700   0.907  15.544  0.1642  0.3983 -0.5677
  509TMC3    C5 7616   2.771   0.853  15.647  0.6805  0.7578 -0.7153
  509TMC3    C6 7617   2.909   0.872  15.640 -0.2165 -0.0776 -0.0417
  509TMC3     C 7618   2.675   1.002  15.324  0.3194 -0.1420  0.3218
  509TMC3     O 7619   2.553   0.995  15.337 -0.9738 -0.5453  0.6863
  509TMC3     H 7620   2.950   0.985  15.327 -0.1670 -0.6529 -0.0382
  509TMC3    H1 7621   2.592   0.916  15.553  0.0651 -0.4067 -0.9343
  509TMC3    H2 7622   2.965   0.855  15.731 -3.6935 -1.3143  1.8854
  509TMC3    C7 7623   2.717   0.854  15.783  0.4313 -0.8851  0.0958
  509TMC3    C8 7624   3.110   0.893  15.524 -0.2379  0.2630 -0.0624
  509TMC3    O1 7625   2.621   0.926  15.799 -0.1243  0.0996  0.3019
  509TMC3    O2 7626   3.147   0.817  15.611  0.1539  0.4328 -0.2219
  510MPD2     C 7627   1.032   2.276  14.570  0.4247  0.2727 -0.2285
  510MPD2    C1 7628   1.090   2.177  14.642  0.0842  0.2496 -0.0273
  510MPD2    C2 7629   1.204   2.119  14.591 -0.2733 -0.0854  0.1947
  510MPD2    C3 7630   1.263   2.165  14.479  0.0332 -0.3517 -0.6159
  510MPD2    C4 7631   1.202   2.269  14.412 -0.3710  0.8915 -0.6425
  510MPD2    C5 7632   1.088   2.321  14.454  0.2084  0.0316  0.7956
  510MPD2     H 7633   1.251   2.032  14.637 -0.2093  0.2159  0.7071
  510MPD2    H1 7634   1.255   2.315  14.329 -1.1979 -1.1744 -2.3152
  510MPD2    H2 7635   0.945   2.332  14.603 -0.4565 -1.5664  0.5971
  510MPD2    H3 7636   1.049   2.408  14.404  0.4844 -0.1956  0.1889
  510MPD2     N 7637   1.387   2.114  14.444 -0.0402  0.5514 -0.4253
  510MPD2    H5 7638   1.423   2.039  14.502 -2.1055 -1.3852 -1.6314
  510MPD2    N1 7639   1.035   2.136  14.763  0.7718 -0.3773 -0.0852
  510MPD2    H7 7640   0.963   2.195  14.802  1.3940 -0.5385  1.3194
  511TMC3    C1 7641   0.989   1.993  14.942  0.7076 -0.5166  0.7108
  511TMC3    C2 7642   0.887   2.069  14.976  0.8135 -0.7726  0.3288
  511TMC3    C3 7643   0.769   2.005  15.021 -0.3388 -0.1537  0.0739
  511TMC3    C4 7644   0.981   1.857  14.954 -1.0684 -0.1575 -0.0293
  511TMC3    C5 7645   0.863   1.791  14.990  0.0940 -0.2097  0.2345
  511TMC3    C6 7646   0.756   1.866  15.034  0.0361 -0.3759  0.1431
  511TMC3     C 7647   1.084   2.032  14.842  0.5506  0.0365  0.3853
  511TMC3     O 7648   1.181   1.959  14.817 -0.1464  0.3979 -0.6824
  511TMC3     H 7649   0.891   2.177  14.970 -1.8028 -0.6074  1.6427
  511TMC3    H1 7650   1.052   1.801  14.894 -0.8672 -1.6936  1.6529
  511TMC3    H2 7651   0.659   1.829  15.065  0.6571 -0.5432  1.8654
  511TMC3    C7 7652   0.828   1.672  14.916  0.1295  0.5746 -0.9004
  511TMC3    C8 7653   0.685   2.097  15.091  0.3966  0.2758  0.1504
  511TMC3    O1 7654   0.897   1.647  14.815 -0.1720  0.6625  0.0580
  511TMC3    O2 7655   0.734   2.207  15.112  0.2172  0.1775  0.2989
  512TMC3    C1 7656   4.691   1.736  13.187  0.1760  0.2690 -0.5242
  512TMC3    C2 7657   0.071   1.693  13.237 -0.1924 -0.3808  0.2163
  512TMC3    C3 7658   0.078   1.559  13.243 -0.2167 -0.2923 -0.3199
  512TMC3    C4 7659   4.577   1.658  13.141 -0.3199  0.3451  0.2949
  512TMC3    C5 7660   4.601   1.525  13.146  0.4707 -0.6684 -0.1187
  512TMC3    C6 7661   4.719   1.475  13.191  0.0865 -0.4157  0.3304
  512TMC3     C 7662   4.669   1.868  13.234  0.4988 -0.2581  0.1605
  512TMC3     O 7663   0.026   1.944  13.213 -0.1222 -0.3064  0.2958
  512TMC3     H 7664   0.139   1.760  13.288 -0.4985  0.1423 -0.0545
  512TMC3    H1 7665   4.485   1.701  13.105  0.7752  1.4116 -1.2144
  512TMC3    H2 7666   4.736   1.370  13.214  3.8139  0.1790  0.3165
  512TMC3    C7 7667   4.484   1.434  13.124 -0.1692  0.0305  0.2165
  512TMC3    C8 7668   0.166   1.500  13.338 -0.9024  0.0323  0.3698
  512TMC3    O1 7669   4.369   1.487  13.124  0.4396 -0.3045  0.1883
  512TMC3    O2 7670   0.146   1.388  13.372  0.2483  0.6527 -0.1635
  513MPD2     C 7671   1.986   1.185  13.019 -0.0683  0.9922  0.5070
  513MPD2    C1 7672   2.043   1.307  13.060 -0.4256  0.9118  0.1941
  513MPD2    C2 7673   2.079   1.314  13.194 -0.1153 -0.0471  0.2417
  513MPD2    C3 7674   2.075   1.211  13.278  0.3842 -0.5090  0.0080
  513MPD2    C4 7675   2.021   1.093  13.235 -0.3081  0.0722  0.0547
  513MPD2    C5 7676   1.984   1.078  13.105 -0.1312 -0.1506 -1.1021
  513MPD2     H 7677   2.117   1.407  13.234 -0.7090  1.1148 -1.8772
  513MPD2    H1 7678   2.028   1.004  13.296  0.5353  1.0388  1.3777
  513MPD2    H2 7679   1.965   1.160  12.916  0.2005 -1.9957  1.1915
  513MPD2    H3 7680   1.967   0.976  13.075  1.8538 -1.3822  1.8803
  513MPD2     N 7681   2.129   1.234  13.408  0.5661  0.4888  0.3283
  513MPD2    H5 7682   2.151   1.331  13.429  0.9858  0.6863 -1.0231
  513MPD2    N1 7683   2.070   1.406  12.964 -0.4224  0.0020 -0.6419
  513MPD2    H7 7684   2.028   1.402  12.872 -1.2402  1.8702 -0.3464
  514TMC3    C1 7685   2.169   1.609  12.894  0.4725 -0.9502  0.4300
  514TMC3    C2 7686   2.050   1.650  12.836  0.6784  0.3193 -0.0748
  514TMC3    C3 7687   2.041   1.784  12.805 -0.1056 -0.4427 -0.1748
  514TMC3    C4 7688   2.272   1.696  12.926 -0.3378 -0.1766 -0.3483
  514TMC3    C5 7689   2.253   1.827  12.906 -0.3852 -1.0919  1.4644
  514TMC3    C6 7690   2.144   1.869  12.833 -0.5312 -0.2441 -0.1211
  514TMC3     C 7691   2.160   1.505  12.993  0.5673 -0.0819  0.3641
  514TMC3     O 7692   2.227   1.519  13.093 -0.5043  0.4533  0.3352
  514TMC3     H 7693   1.968   1.581  12.818  0.5539  0.4375  0.0467
  514TMC3    H1 7694   2.362   1.657  12.973  0.8462  0.9409 -1.6815
  514TMC3    H2 7695   2.140   1.975  12.811  3.0623 -0.0274  0.2392
  514TMC3    C7 7696   2.285   1.901  13.026  0.4428 -0.0350  0.6068
  514TMC3    C8 7697   1.929   1.830  12.726  1.0517  0.5325 -0.1051
  514TMC3    O1 7698   2.306   2.019  13.010  0.5047 -0.4951 -0.4347
  514TMC3    O2 7699   1.821   1.775  12.749  0.1170 -0.0668  0.2785
  515MPD2     C 7700   0.030   3.447  15.264 -0.6691 -0.1649 -0.1255
  515MPD2    C1 7701   0.075   3.404  15.144 -0.6517  0.2451  0.8660
  515MPD2    C2 7702   0.165   3.485  15.081 -0.2399  0.1098  0.1572
  515MPD2    C3 7703   0.212   3.598  15.143 -0.2529 -0.4324  0.3622
  515MPD2    C4 7704   0.168   3.633  15.265 -0.1715 -0.3239  0.5110
  515MPD2    C5 7705   0.072   3.559  15.325 -0.7020  0.2194 -0.4568
  515MPD2     H 7706   0.202   3.449  14.986 -1.3280 -1.5185  0.3576
  515MPD2    H1 7707   0.204   3.726  15.308 -1.4049  0.1579  0.5130
  515MPD2    H2 7708   4.689   3.392  15.315 -0.8321  0.1832 -0.0009
  515MPD2    H3 7709   0.035   3.580  15.424  0.4921 -3.2671  0.7018
  515MPD2     N 7710   0.321   3.682  15.093 -0.5388 -0.4529 -0.4660
  515MPD2    H5 7711   0.347   3.763  15.149 -2.5444  0.2865 -0.6114
  515MPD2    N1 7712   0.030   3.285  15.086 -0.1060 -0.1000  0.4598
  515MPD2    H7 7713   0.053   3.266  14.989  2.7754  1.7694  0.8053
  516TMC3    C1 7714   4.657   3.086  15.053  0.1927  0.4332  0.5067
  516TMC3    C2 7715   4.583   3.141  14.950 -0.6916 -0.5810  0.2734
  516TMC3    C3 7716   4.482   3.069  14.888  0.6523  0.3851 -0.1950
  516TMC3    C4 7717   4.643   2.961  15.083 -0.3712  0.4081 -0.5544
  516TMC3    C5 7718   4.537   2.894  15.031  0.2421  0.2772  0.0367
  516TMC3    C6 7719   4.444   2.951  14.946 -0.0779 -0.6205  0.0432
  516TMC3     C 7720   4.711   3.178  15.153 -1.0426 -0.5572 -0.4304
  516TMC3     O 7721   4.718   3.144  15.269  0.0674 -0.1391  0.2915
  516TMC3     H 7722   4.586   3.249  14.946  1.9907 -0.5809  2.2229
  516TMC3    H1 7723   4.693   2.919  15.170  1.0170  0.2746 -1.4123
  516TMC3    H2 7724   4.346   2.915  14.916  0.4229 -2.9747  1.3055
  516TMC3    C7 7725   4.476   2.798  15.119 -0.0763  0.7574 -0.8446
  516TMC3    C8 7726   4.390   3.138  14.798 -0.2896  0.2495  0.3074
  516TMC3    O1 7727   4.481   2.824  15.240 -0.7974  0.0108 -0.7219
  516TMC3    O2 7728   4.274   3.098  14.788 -0.5482 -0.3126  0.2533
  517MPD2     C 7729   4.050   4.347   0.045  0.1080  0.4277 -0.2448
  517MPD2    C1 7730   4.193   4.354   0.032 -0.5813  0.4634 -0.5744
  517MPD2    C2 7731   4.251   4.466   0.088 -0.1452 -0.0618 -0.6688
  517MPD2    C3 7732   4.188   4.561   0.162  0.3383  0.0049  0.2332
  517MPD2    C4 7733   4.051   4.549   0.180  0.0464  0.1433 -0.6767
  517MPD2    C5 7734   3.985   4.448   0.116  0.2095  0.4538 -0.2146
  517MPD2     H 7735   4.348   4.490   0.046  0.1014 -2.5672 -1.5080
  517MPD2    H1 7736   3.995   4.607   0.251  0.1372 -1.3967  0.6497
  517MPD2    H2 7737   3.994   4.263   0.006 -2.0002  0.9864  1.5693
  517MPD2    H3 7738   3.877   4.445   0.122  0.3612 -3.3979  0.4891
  517MPD2     N 7739   4.250   4.672   0.217  0.6757 -0.4716 -0.4891
  517MPD2    H5 7740   4.187   4.730   0.272 -0.4685  0.3299 -2.6573
  517MPD2    N1 7741   4.274   4.259  17.712  0.2343 -0.0281 -0.0876
  517MPD2    H7 7742   4.370   4.283  17.691  0.3481  0.2189  0.7132
  518TMC3    C1 7743   4.311   4.073  17.573 -0.5919  0.7850 -0.4947
  518TMC3    C2 7744   4.314   3.937  17.587  0.0753  0.4118  0.4178
  518TMC3    C3 7745   4.421   3.867  17.532  0.3561  0.6124 -0.5189
  518TMC3    C4 7746   4.402   4.141  17.508 -0.0634  0.3758  0.6110
  518TMC3    C5 7747   4.504   4.068  17.453  0.2866 -0.1929  0.0866
  518TMC3    C6 7748   4.518   3.930  17.460  0.4193  0.5126  0.0552
  518TMC3     C 7749   4.220   4.143  17.666 -0.2049  0.3522 -0.4187
  518TMC3     O 7750   4.119   4.084  17.699  0.9519  0.4104  0.1914
  518TMC3     H 7751   4.233   3.889  17.640 -1.0527  0.4461 -1.2686
  518TMC3    H1 7752   4.390   4.247  17.487 -0.0180 -0.3288 -3.0103
  518TMC3    H2 7753   4.612   3.886  17.429  0.4240  1.7268 -1.6651
  518TMC3    C7 7754   4.605   4.149  17.402  0.4144  0.3704 -0.5970
  518TMC3    C8 7755   4.415   3.721  17.528 -0.4466 -0.1419  0.0607
  518TMC3    O1 7756   4.610   4.258  17.464  0.3772 -0.2242 -0.0445
  518TMC3    O2 7757   4.492   3.664  17.452 -0.2446  0.2484  0.1988
  519MPD2     C 7758   1.244   2.890  14.530 -0.0616 -0.0842 -0.2759
  519MPD2    C1 7759   1.137   2.828  14.472 -0.7691  0.8330  0.8138
  519MPD2    C2 7760   1.169   2.730  14.379  0.1602  0.0218  0.7738
  519MPD2    C3 7761   1.303   2.711  14.342  0.1731  0.8827  0.0045
  519MPD2    C4 7762   1.410   2.767  14.406 -0.2944  0.1885  0.6331
  519MPD2    C5 7763   1.375   2.855  14.507 -0.0899 -0.5945  0.7478
  519MPD2     H 7764   1.093   2.675  14.325 -0.0829  1.3443 -0.2483
  519MPD2    H1 7765   1.514   2.756  14.379 -1.0828 -1.6757 -1.6334
  519MPD2    H2 7766   1.238   2.972  14.600 -2.6797 -0.7466  0.2651
  519MPD2    H3 7767   1.451   2.900  14.569  0.4825 -0.9963  0.3350
  519MPD2     N 7768   1.341   2.634  14.229  0.0118  0.4700 -0.1168
  519MPD2    H5 7769   1.440   2.626  14.212  0.2026  0.5538  0.9630
  519MPD2    N1 7770   1.007   2.884  14.478 -0.6378 -0.1001  0.1769
  519MPD2    H7 7771   0.978   2.975  14.511  1.6618  1.5559 -2.3541
  520TMC3    C1 7772   1.328   2.523  14.024 -0.4380 -0.4641 -0.1937
  520TMC3    C2 7773   1.281   2.560  13.903 -0.4382  0.4284  0.3815
  520TMC3    C3 7774   1.352   2.542  13.790 -0.3135 -0.3387 -0.3286
  520TMC3    C4 7775   1.438   2.449  14.040 -0.4229  0.3953 -0.9017
  520TMC3    C5 7776   1.514   2.436  13.928 -0.0599 -0.6557  0.8235
  520TMC3    C6 7777   1.476   2.483  13.802  0.6128  0.4522  0.2254
  520TMC3     C 7778   1.256   2.572  14.142 -0.3981  0.5284  0.2038
  520TMC3     O 7779   1.138   2.593  14.129  0.3974 -0.4754 -0.4701
  520TMC3     H 7780   1.177   2.588  13.888  0.0872  1.5075 -1.2362
  520TMC3    H1 7781   1.463   2.410  14.138  0.5975  0.5786 -1.0885
  520TMC3    H2 7782   1.547   2.489  13.721 -0.4519 -0.0857 -0.7339
  520TMC3    C7 7783   1.658   2.403  13.934 -0.9819  0.2184 -0.4587
  520TMC3    C8 7784   1.341   2.633  13.683 -0.0443 -0.5046 -0.1149
  520TMC3    O1 7785   1.698   2.312  14.005  0.1888 -0.0221 -0.3243
  520TMC3    O2 7786   1.402   2.607  13.582  0.5572 -0.3386 -0.2685
  521MPD2     C 7787   2.093   0.810  17.603 -0.0028  0.7156  0.3741
  521MPD2    C1 7788   2.047   0.740  17.493 -0.2795  0.2109 -0.0867
  521MPD2    C2 7789   2.138   0.651  17.436 -0.0719  0.4529  0.0229
  521MPD2    C3 7790   2.262   0.621  17.491  0.1622  0.2332  0.2411
  521MPD2    C4 7791   2.301   0.686  17.603 -0.0219 -0.3664  1.0560
  521MPD2    C5 7792   2.220   0.790  17.648  0.3664 -0.8569 -0.2887
  521MPD2     H 7793   2.114   0.597  17.346 -1.1160  1.4825 -0.3190
  521MPD2    H1 7794   2.394   0.659  17.651  1.5673  0.8326 -1.4041
  521MPD2    H2 7795   2.025   0.877  17.655  0.7342  0.0577  2.1823
  521MPD2    H3 7796   2.245   0.834  17.744  0.7153 -2.1159  0.1892
  521MPD2     N 7797   2.339   0.529  17.415  0.3853  0.6311  0.2863
  521MPD2    H5 7798   2.291   0.483  17.338  1.8230  0.2093 -0.3577
  521MPD2    N1 7799   1.920   0.773  17.448  0.0626 -0.0368  0.3668
  521MPD2    H7 7800   1.861   0.828  17.510  0.0976  0.7619 -0.3010
  522TMC3    C1 7801   2.526   0.398  17.343  0.2690  0.0161 -0.1245
  522TMC3    C2 7802   2.652   0.358  17.370 -0.2981 -0.0441 -0.2668
  522TMC3    C3 7803   2.718   0.299  17.267 -0.3773  0.0316  0.6777
  522TMC3    C4 7804   2.480   0.406  17.215 -0.4526  0.1844  0.4228
  522TMC3    C5 7805   2.540   0.335  17.121 -0.3561 -0.7088 -0.3038
  522TMC3    C6 7806   2.662   0.278  17.147 -0.2663  0.1467 -0.3274
  522TMC3     C 7807   2.461   0.478  17.454  0.7971 -0.6079 -0.7083
  522TMC3     O 7808   2.521   0.490  17.558  0.1630  0.1525 -0.0441
  522TMC3     H 7809   2.702   0.359  17.466  0.8018  2.9555 -0.8845
  522TMC3    H1 7810   2.378   0.439  17.200  0.0539  1.5389 -0.0965
  522TMC3    H2 7811   2.718   0.227  17.070 -2.4848  1.0491 -2.5308
  522TMC3    C7 7812   2.494   0.312  16.983 -0.0581 -0.1283  0.4028
  522TMC3    C8 7813   2.867   0.298  17.275 -0.0837 -0.0242 -0.5343
  522TMC3    O1 7814   2.566   0.242  16.912  0.1205  0.4737  0.1628
  522TMC3    O2 7815   2.919   0.297  17.386  0.0806 -0.1535  0.1756
  523MPD2     C 7816   0.671   1.300  10.281  0.2565 -0.0703 -0.0740
  523MPD2    C1 7817   0.581   1.200  10.280  0.3674 -0.4119 -0.2098
  523MPD2    C2 7818   0.448   1.222  10.319 -0.0584  0.8438 -1.0529
  523MPD2    C3 7819   0.403   1.345  10.359 -0.3162  0.1643 -0.0407
  523MPD2    C4 7820   0.492   1.449  10.343 -0.1828 -0.8737  0.1238
  523MPD2    C5 7821   0.619   1.425  10.300 -0.1497  0.1628 -0.0473
  523MPD2     H 7822   0.378   1.139  10.319  2.5480 -1.3499  0.1604
  523MPD2    H1 7823   0.471   1.550  10.375 -2.2040 -0.4540 -2.4885
  523MPD2    H2 7824   0.775   1.286  10.256 -0.1359  0.0800 -1.8233
  523MPD2    H3 7825   0.686   1.510  10.297  1.4612 -1.0325  1.9191
  523MPD2     N 7826   0.278   1.358  10.426 -0.0014 -0.2038 -1.0412
  523MPD2    H5 7827   0.261   1.445  10.474 -2.2068 -1.9773  1.3481
  523MPD2    N1 7828   0.631   1.073  10.249 -0.1393 -0.0854  0.4148
  523MPD2    H7 7829   0.728   1.066  10.219  0.6082  1.7728  2.4406
  524TMC3    C1 7830   0.053   1.326  10.485  0.3111  0.1535 -0.2674
  524TMC3    C2 7831   0.062   1.373  10.613 -0.1865 -0.0977  0.3463
  524TMC3    C3 7832   4.685   1.419  10.682 -0.0399  0.3658  0.0626
  524TMC3    C4 7833   4.668   1.300  10.439 -0.3572  0.0114  0.0025
  524TMC3    C5 7834   4.558   1.345  10.503  0.3136 -0.3386  0.6605
  524TMC3    C6 7835   4.562   1.408  10.625  0.3164 -0.1767  0.5624
  524TMC3     C 7836   0.169   1.275  10.418 -0.0243 -0.6094  0.7749
  524TMC3     O 7837   0.157   1.176  10.353 -0.8797 -0.2361 -0.0722
  524TMC3     H 7838   0.161   1.403  10.642  0.1549  1.6206 -2.6121
  524TMC3    H1 7839   4.653   1.248  10.345  1.6813  0.8281 -0.7520
  524TMC3    H2 7840   4.469   1.435  10.673  0.6077 -0.8232  1.5068
  524TMC3    C7 7841   4.435   1.378  10.424 -0.3657 -0.5351  0.2933
  524TMC3    C8 7842   4.689   1.488  10.812  0.0654  1.5712 -0.2509
  524TMC3    O1 7843   4.447   1.400  10.304  0.2736 -0.1306 -0.4419
  524TMC3    O2 7844   4.584   1.535  10.856 -0.0449 -0.3529  0.2948
  525MPD2     C 7845   2.648   2.422  14.350  0.3563 -0.5343  0.0025
  525MPD2    C1 7846   2.775   2.423  14.413  0.3415 -0.5768  0.4739
  525MPD2    C2 7847   2.842   2.544  14.403  0.3464  0.5446 -0.1124
  525MPD2    C3 7848   2.786   2.659  14.344  0.0108  0.0140  0.3156
  525MPD2    C4 7849   2.656   2.647  14.297  0.5358 -0.3447  1.0571
  525MPD2    C5 7850   2.586   2.531  14.308  0.6170 -0.9681 -0.2798
  525MPD2     H 7851   2.943   2.544  14.440 -0.1255 -2.5114  1.1809
  525MPD2    H1 7852   2.608   2.734  14.253  0.7396 -0.6819  0.1524
  525MPD2    H2 7853   2.585   2.335  14.357  0.4269 -0.6690 -1.0488
  525MPD2    H3 7854   2.479   2.530  14.288  1.2998 -2.4212 -3.9664
  525MPD2     N 7855   2.849   2.785  14.336  0.2631  0.6586 -0.0045
  525MPD2    H5 7856   2.793   2.858  14.293  0.5419  0.6095 -0.4618
  525MPD2    N1 7857   2.823   2.317  14.492  0.0094  0.6770  0.0228
  525MPD2    H7 7858   2.909   2.333  14.543  0.8664  1.5269 -1.6982
  526TMC3    C1 7859   2.809   2.118  14.617 -0.6086  0.5917  1.6432
  526TMC3    C2 7860   2.719   2.047  14.704 -0.2640  0.2090 -0.0513
  526TMC3    C3 7861   2.787   1.955  14.789  0.2172 -0.1752 -0.1931
  526TMC3    C4 7862   2.943   2.103  14.607 -0.4847  0.4719 -0.1659
  526TMC3    C5 7863   3.000   2.011  14.690  0.4104  0.1822 -0.0630
  526TMC3    C6 7864   2.928   1.945  14.779 -0.0863 -0.3183 -0.2734
  526TMC3     C 7865   2.748   2.204  14.520  0.7352  0.4052 -0.7366
  526TMC3     O 7866   2.640   2.164  14.473  0.2050  0.5562 -0.1518
  526TMC3     H 7867   2.612   2.056  14.691 -0.5208 -1.1533  1.1528
  526TMC3    H1 7868   3.009   2.148  14.533  0.7424 -1.9680 -0.5717
  526TMC3    H2 7869   2.979   1.879  14.849 -2.0300 -3.0364 -1.4556
  526TMC3    C7 7870   3.148   2.000  14.712  0.5461 -0.2536  0.8886
  526TMC3    C8 7871   2.744   1.941  14.935 -0.1937  0.7275 -0.1426
  526TMC3    O1 7872   3.194   1.890  14.741 -0.3261  0.0556  0.4882
  526TMC3    O2 7873   2.820   1.887  15.010 -0.2845 -0.1363 -0.2098
  527MPD2     C 7874   0.459   0.183   0.753  0.2896 -0.4144 -0.2226
  527MPD2    C1 7875   0.502   0.225   0.874  0.0049 -0.4645  0.2769
  527MPD2    C2 7876   0.636   0.250   0.899 -0.0746  0.2757 -0.6674
  527MPD2    C3 7877   0.735   0.216   0.811 -0.5340  0.3484  0.6995
  527MPD2    C4 7878   0.688   0.180   0.684 -0.3910 -0.0281 -0.2943
  527MPD2    C5 7879   0.557   0.159   0.662 -0.4071  0.4830  0.4700
  527MPD2     H 7880   0.669   0.283   0.996 -0.1184 -0.7268 -0.3133
  527MPD2    H1 7881   0.750   0.150   0.601  1.8430  0.5554  1.1721
  527MPD2    H2 7882   0.356   0.171   0.724  0.0599 -0.2307  0.5349
  527MPD2    H3 7883   0.523   0.126   0.565  0.5532 -1.4667  0.7973
  527MPD2     N 7884   0.870   0.219   0.857  0.3118 -0.2863 -0.4812
  527MPD2    H5 7885   0.876   0.233   0.957  2.4291  0.5511 -0.7170
  527MPD2    N1 7886   0.410   0.259   0.978 -0.0876 -0.4968  0.1769
  527MPD2    H7 7887   0.445   0.300   1.064 -0.6804  1.2594 -0.4279
  528TMC3    C1 7888   0.219   0.336   1.073  0.2373  0.0223 -0.1919
  528TMC3    C2 7889   0.296   0.426   1.137  0.0533 -0.2183 -1.2008
  528TMC3    C3 7890   0.238   0.513   1.229 -0.8637  0.0600 -0.2700
  528TMC3    C4 7891   0.089   0.320   1.107 -0.2495  0.1711 -0.2995
  528TMC3    C5 7892   0.035   0.394   1.210  0.3788 -0.6664 -0.3360
  528TMC3    C6 7893   0.105   0.491   1.272 -0.2323 -0.1045  0.4530
  528TMC3     C 7894   0.274   0.242   0.977  0.3965 -0.2252 -0.0040
  528TMC3     O 7895   0.203   0.169   0.905 -0.1197 -0.1514  0.7248
  528TMC3     H 7896   0.384   0.459   1.081  1.1365  0.9243  1.1685
  528TMC3    H1 7897   0.036   0.233   1.071 -1.8356  1.2644 -0.5976
  528TMC3    H2 7898   0.056   0.551   1.349  2.7478  1.6832  0.9411
  528TMC3    C7 7899   4.637   0.373   1.259  0.4800  0.0844  0.0697
  528TMC3    C8 7900   0.321   0.592   1.312  0.4541  0.3109 -0.5233
  528TMC3    O1 7901   4.598   0.431   1.360 -0.7086 -0.2459  0.6912
  528TMC3    O2 7902   0.435   0.607   1.267  0.2161  0.6690 -0.1249
  529MPD2     C 7903   2.400   3.165   0.786  0.2508 -0.1121  0.8409
  529MPD2    C1 7904   2.525   3.147   0.736  0.0388  0.1182  0.6324
  529MPD2    C2 7905   2.554   3.208   0.615 -0.3741  0.3461  0.3230
  529MPD2    C3 7906   2.465   3.299   0.560  0.8103  0.6444 -0.0401
  529MPD2    C4 7907   2.345   3.329   0.621  0.4455  0.2562  0.6850
  529MPD2    C5 7908   2.313   3.248   0.727  0.2324 -0.4531  0.0666
  529MPD2     H 7909   2.650   3.191   0.568 -1.2845 -1.5431 -0.8214
  529MPD2    H1 7910   2.270   3.400   0.589  0.0799  0.4725  2.0194
  529MPD2    H2 7911   2.370   3.123   0.881 -0.7600 -0.4737  0.3578
  529MPD2    H3 7912   2.216   3.257   0.774 -0.2361  0.3065 -1.0588
  529MPD2     N 7913   2.480   3.366   0.439 -1.0098  0.1967 -0.2999
  529MPD2    H5 7914   2.411   3.435   0.412 -0.8028 -0.3913 -2.3749
  529MPD2    N1 7915   2.617   3.055   0.786  0.3630  0.2593  0.0023
  529MPD2    H7 7916   2.705   3.059   0.736  0.2833 -1.0988 -0.2462
  530TMC3    C1 7917   2.723   2.893   0.903 -0.2021  0.2517 -0.3374
  530TMC3    C2 7918   2.837   2.970   0.916  0.6461  0.2748 -0.1032
  530TMC3    C3 7919   2.957   2.913   0.956  0.3198 -0.3712 -0.4687
  530TMC3    C4 7920   2.722   2.758   0.923  1.0009 -0.0071 -0.1991
  530TMC3    C5 7921   2.838   2.709   0.967  0.5480 -0.0941 -0.1036
  530TMC3    C6 7922   2.958   2.778   0.981 -0.5450 -0.7593 -0.4387
  530TMC3     C 7923   2.601   2.968   0.892 -0.0156  0.2835  0.3934
  530TMC3     O 7924   2.500   2.939   0.948 -0.3059  0.7090  0.9145
  530TMC3     H 7925   2.831   3.077   0.925  1.1725  0.4757 -2.3115
  530TMC3    H1 7926   2.634   2.697   0.906  1.5102 -0.6524 -0.5122
  530TMC3    H2 7927   3.049   2.732   1.021 -1.7687 -1.7749  1.1824
  530TMC3    C7 7928   2.842   2.569   1.004  0.4247  0.1615  0.8743
  530TMC3    C8 7929   3.054   2.998   1.012  0.3308  0.4071 -0.3298
  530TMC3    O1 7930   2.952   2.521   0.989 -0.9271 -0.6394  0.1795
  530TMC3    O2 7931   3.019   3.113   1.031 -0.0404 -0.2067  0.0092
  531MPD2     C 7932   2.343   1.889  13.537 -0.1305  0.2275  0.0510
  531MPD2    C1 7933   2.293   1.766  13.492 -0.2000 -0.3380 -0.2275
  531MPD2    C2 7934   2.271   1.741  13.363 -0.4976  0.0189 -0.3135
  531MPD2    C3 7935   2.299   1.847  13.273  0.7847  0.6247  0.4242
  531MPD2    C4 7936   2.343   1.977  13.318  0.0853 -0.0784  1.0400
  531MPD2    C5 7937   2.370   1.988  13.451 -0.0610 -0.1037 -0.6110
  531MPD2     H 7938   2.242   1.644  13.325 -1.5528 -0.5734  2.0118
  531MPD2    H1 7939   2.379   2.051  13.248 -0.7266  0.7336  1.4759
  531MPD2    H2 7940   2.366   1.923  13.637 -1.1633  1.7974 -0.2515
  531MPD2    H3 7941   2.398   2.085  13.490 -0.6642  0.3010 -1.1932
  531MPD2     N 7942   2.267   1.820  13.137  0.0588  0.0029 -0.7961
  531MPD2    H5 7943   2.242   1.724  13.118  0.3187 -0.7640  2.6638
  531MPD2    N1 7944   2.287   1.662  13.587  0.1782 -0.1248  0.3748
  531MPD2    H7 7945   2.335   1.679  13.674 -0.3406 -1.7249  0.9653
  532TMC3    C1 7946   2.258   1.434  13.672  0.3319 -0.6061  0.3162
  532TMC3    C2 7947   2.174   1.326  13.643 -0.0927  0.3661 -0.8001
  532TMC3    C3 7948   2.223   1.201  13.617 -0.2468  0.9262  0.0195
  532TMC3    C4 7949   2.386   1.416  13.690  0.5261  0.2754  0.1549
  532TMC3    C5 7950   2.436   1.288  13.670 -0.1857  0.2948 -0.6483
  532TMC3    C6 7951   2.357   1.180  13.634  0.0709  0.1696  0.4453
  532TMC3     C 7952   2.227   1.538  13.576 -0.2221  0.3107  0.1871
  532TMC3     O 7953   2.170   1.487  13.480 -0.2854 -0.0401  0.0586
  532TMC3     H 7954   2.066   1.332  13.633  0.2803  2.0912 -3.6910
  532TMC3    H1 7955   2.458   1.495  13.710  1.9435 -0.5962 -1.4792
  532TMC3    H2 7956   2.396   1.091  13.587  0.2107 -0.2807  1.4269
  532TMC3    C7 7957   2.566   1.272  13.721 -0.2678  0.4031  0.0123
  532TMC3    C8 7958   2.160   1.138  13.503  0.1279 -0.1853 -0.3835
  532TMC3    O1 7959   2.624   1.365  13.769  0.0038 -0.5996  0.1613
  532TMC3    O2 7960   2.169   1.015  13.495 -0.0147 -0.0009 -0.8363
  533TMC3    C1 7961   2.955   2.965  14.422 -0.1109  0.3978  0.0702
  533TMC3    C2 7962   3.065   3.018  14.483 -1.0895 -0.9513 -0.1101
  533TMC3    C3 7963   3.045   3.137  14.547 -0.5500 -0.3960 -0.7803
  533TMC3    C4 7964   2.825   3.016  14.439  0.2688  0.2732 -0.0026
  533TMC3    C5 7965   2.805   3.117  14.533  0.3241 -0.6309 -0.1295
  533TMC3    C6 7966   2.920   3.193  14.570  0.0151  0.0161 -0.3800
  533TMC3     C 7967   2.963   2.821  14.405 -0.3380 -0.0507 -0.4859
  533TMC3     O 7968   3.042   2.761  14.480 -0.2111  0.4453  0.7389
  533TMC3     H 7969   3.169   2.989  14.468 -0.7730 -0.5047  1.2897
  533TMC3    H1 7970   2.736   2.966  14.405  0.4901  0.7786 -1.3186
  533TMC3    H2 7971   2.908   3.272  14.643  0.2562  1.1374 -1.5369
  533TMC3    C7 7972   2.743   3.049  14.648 -0.4210 -0.2808 -0.0163
  533TMC3    C8 7973   3.165   3.208  14.600 -0.1374 -0.3363  0.3815
  533TMC3    O1 7974   2.750   2.926  14.646 -0.2440  0.0568  0.6579
  533TMC3    O2 7975   3.158   3.330  14.609  0.4386  0.1915 -0.5952
  534MPD2     C 7976   0.823   3.332   1.007 -0.0994 -0.5077  0.1920
  534MPD2    C1 7977   0.721   3.429   0.993 -0.3730 -0.8140 -0.4894
  534MPD2    C2 7978   0.664   3.448   0.869  0.3795 -0.5486 -0.6885
  534MPD2    C3 7979   0.703   3.363   0.764 -0.0494 -0.7791  0.0472
  534MPD2    C4 7980   0.811   3.274   0.776 -0.1910 -0.4229  0.5789
  534MPD2    C5 7981   0.859   3.249   0.902 -0.5436 -0.6683  0.5999
  534MPD2     H 7982   0.593   3.529   0.856 -1.7399 -1.9921  1.9110
  534MPD2    H1 7983   0.842   3.212   0.693 -1.3863  0.9868 -0.9247
  534MPD2    H2 7984   0.874   3.311   1.100  0.1282  2.1062  0.6359
  534MPD2    H3 7985   0.928   3.167   0.920  0.6556 -0.2769 -2.2264
  534MPD2     N 7986   0.658   3.376   0.628 -0.3780 -0.8234 -0.1519
  534MPD2    H5 7987   0.684   3.305   0.559  1.7566  0.1568 -0.3702
  534MPD2    N1 7988   0.677   3.507   1.100  0.6225 -0.4156  0.4454
  534MPD2    H7 7989   0.597   3.569   1.088 -0.1689 -1.4796  0.3054
  535TMC3    C1 7990   0.518   3.449   0.452  0.3025  0.0411 -0.1925
  535TMC3    C2 7991   0.382   3.443   0.444  1.0432  0.2434 -0.8205
  535TMC3    C3 7992   0.324   3.520   0.351  0.1966 -0.4918 -0.9791
  535TMC3    C4 7993   0.592   3.503   0.351  0.3064 -0.3023  0.4443
  535TMC3    C5 7994   0.527   3.576   0.255 -0.1007  0.4032 -0.2199
  535TMC3    C6 7995   0.394   3.590   0.255 -0.7431  0.0458  0.2119
  535TMC3     C 7996   0.558   3.457   0.589  0.7185  0.3531  0.4680
  535TMC3     O 7997   0.485   3.527   0.654  0.1777 -0.7196 -0.6023
  535TMC3     H 7998   0.320   3.410   0.526  1.0035  1.5099 -0.3429
  535TMC3    H1 7999   0.700   3.502   0.350  0.2997 -0.5030 -0.3650
  535TMC3    H2 8000   0.341   3.654   0.185  3.9541 -0.1176 -3.4309
  535TMC3    C7 8001   0.611   3.632   0.144  0.3855  0.3203 -0.0187
  535TMC3    C8 8002   0.186   3.551   0.385  0.3176 -0.3544 -0.5971
  535TMC3    O1 8003   0.717   3.679   0.181 -0.1182  0.0179  0.5565
  535TMC3    O2 8004   0.128   3.453   0.423  0.0451 -0.1183 -0.1759
  536MPD2     C 8005   4.425   2.492  16.754 -0.5991 -0.1111  0.2675
  536MPD2    C1 8006   4.348   2.372  16.751 -0.1763  0.1692 -0.0883
  536MPD2    C2 8007   4.266   2.348  16.640 -0.6015 -0.0653  0.5580
  536MPD2    C3 8008   4.268   2.428  16.527 -0.0371 -0.7199  0.1375
  536MPD2    C4 8009   4.357   2.536  16.529 -0.3398  0.4756  0.1463
  536MPD2    C5 8010   4.426   2.567  16.639 -0.3616  0.2370  1.0272
  536MPD2     H 8011   4.202   2.261  16.639  0.0076 -0.4967 -0.9468
  536MPD2    H1 8012   4.366   2.600  16.442 -1.8109  0.3852 -0.0785
  536MPD2    H2 8013   4.484   2.528  16.837 -0.3392 -0.7344  0.3541
  536MPD2    H3 8014   4.493   2.652  16.631  0.2040 -0.1489  1.5947
  536MPD2     N 8015   4.185   2.407  16.413  0.3228 -0.1471 -0.3339
  536MPD2    H5 8016   4.207   2.459  16.328  0.9110 -1.2466 -0.8547
  536MPD2    N1 8017   4.358   2.283  16.864 -0.1516  0.0101 -0.5534
  536MPD2    H7 8018   4.429   2.300  16.934  0.4022  1.0835 -1.3853
  537TMC3    C1 8019   4.296   2.107  17.030 -0.5059  0.0745  0.7656
  537TMC3    C2 8020   4.382   2.161  17.123 -0.6030  0.4191  0.6844
  537TMC3    C3 8021   4.385   2.092  17.243 -0.5826 -0.3405 -0.2705
  537TMC3    C4 8022   4.221   1.992  17.055  0.2937 -0.2646  0.1400
  537TMC3    C5 8023   4.218   1.941  17.179  0.1327  0.4034 -0.5782
  537TMC3    C6 8024   4.305   1.994  17.281  0.1665 -0.0101  0.2283
  537TMC3     C 8025   4.279   2.171  16.890  0.5632  0.4589  0.5150
  537TMC3     O 8026   4.186   2.129  16.822 -0.3136  0.5085 -0.6349
  537TMC3     H 8027   4.444   2.246  17.095 -1.9964  1.0373 -0.5194
  537TMC3    H1 8028   4.159   1.953  16.975  0.9658 -1.1305  0.0504
  537TMC3    H2 8029   4.314   1.948  17.379 -0.8106  1.4980  1.0317
  537TMC3    C7 8030   4.134   1.825  17.202 -0.3639 -0.4669 -0.0415
  537TMC3    C8 8031   4.458   2.151  17.357 -0.3400  0.2444 -0.1144
  537TMC3    O1 8032   4.048   1.801  17.119  0.0416 -0.7423 -0.4800
  537TMC3    O2 8033   4.420   2.124  17.467 -0.2607 -0.0057 -0.1967
  538TMC3    C1 8034   1.298   0.621  11.228 -0.0148 -0.0342  0.6885
  538TMC3    C2 8035   1.422   0.633  11.168 -0.7301  0.3830  0.0750
  538TMC3    C3 8036   1.438   0.721  11.061 -0.0815  0.2540  1.0338
  538TMC3    C4 8037   1.194   0.674  11.166 -0.1099  0.4608 -0.0132
  538TMC3    C5 8038   1.205   0.754  11.053  0.2343 -0.0642 -0.1855
  538TMC3    C6 8039   1.330   0.783  11.004 -0.1501  0.0945 -0.0223
  538TMC3     C 8040   1.286   0.553  11.351 -0.1929  0.5392  0.3379
  538TMC3     O 8041   1.372   0.466  11.376 -0.0987  0.0658 -0.0510
  538TMC3     H 8042   1.504   0.576  11.209 -0.8877 -0.5794 -0.9345
  538TMC3    H1 8043   1.095   0.664  11.210  0.7078  0.3866  1.7894
  538TMC3    H2 8044   1.345   0.832  10.908  1.4924 -1.2767 -0.4633
  538TMC3    C7 8045   1.075   0.799  11.002  0.3732  0.9186  0.4874
  538TMC3    C8 8046   1.575   0.749  11.027  0.1705  0.1911  0.3031
  538TMC3    O1 8047   0.973   0.781  11.063  0.5466  0.3499  0.2907
  538TMC3    O2 8048   1.643   0.749  11.129  0.6472 -0.1319  0.0473
  539MPD2     C 8049   0.447   4.648  11.866  0.2141 -0.1859  0.2818
  539MPD2    C1 8050   0.468   4.670  11.734  0.9852  0.4427 -0.5399
  539MPD2    C2 8051   0.381   0.017  11.667 -0.7002  0.1787  0.0647
  539MPD2    C3 8052   0.281   0.086  11.728  0.7073  0.5001 -0.3438
  539MPD2    C4 8053   0.272   0.065  11.864 -0.3221  0.7816  0.3333
  539MPD2    C5 8054   0.348   4.715  11.931 -0.3544  0.5156 -0.1559
  539MPD2     H 8055   0.404   0.048  11.566 -1.3227  2.7819  0.7267
  539MPD2    H1 8056   0.196   0.108  11.928 -0.1873 -0.1720  1.1448
  539MPD2    H2 8057   0.516   4.583  11.920  1.2296  0.5264 -0.1503
  539MPD2    H3 8058   0.329   4.702  12.037  0.3599  2.1110  0.1574
  539MPD2     N 8059   0.192   0.173  11.657 -0.1368 -0.0757  0.6224
  539MPD2    H5 8060   0.131   0.234  11.710 -1.3044 -0.2188 -0.5380
  539MPD2    N1 8061   0.574   4.601  11.673  0.5405 -0.4051 -0.0926
  539MPD2    H7 8062   0.634   4.546  11.733  0.8074  0.2307  0.2251
  540TMC3    C1 8063   0.092   0.279  11.469  0.3635 -0.2761  0.1147
  540TMC3    C2 8064   0.115   0.324  11.338  0.0815  0.7135  0.1694
  540TMC3    C3 8065   0.057   0.440  11.302  0.1536  0.2718  0.2138
  540TMC3    C4 8066   0.009   0.346  11.564 -0.8752 -0.6135 -0.4199
  540TMC3    C5 8067   4.695   0.462  11.520  0.1310 -0.8342 -0.3657
  540TMC3    C6 8068   4.728   0.513  11.398 -0.0126  0.1539  0.2751
  540TMC3     C 8069   0.176   0.172  11.514  0.2121 -0.3532  1.0391
  540TMC3     O 8070   0.226   0.109  11.421 -0.4699 -0.2741  0.4723
  540TMC3     H 8071   0.190   0.284  11.270 -0.7094 -0.6151  0.0774
  540TMC3    H1 8072   4.726   0.309  11.664  3.0378  4.7438  2.3288
  540TMC3    H2 8073   4.713   0.619  11.382 -2.6030  0.2072  3.3066
  540TMC3    C7 8074   4.590   0.530  11.585  0.9912  0.6137  0.5443
  540TMC3    C8 8075   0.125   0.522  11.208  0.1238  0.5399  0.4738
  540TMC3    O1 8076   4.527   0.607  11.519 -0.5629 -0.0746 -0.8633
  540TMC3    O2 8077   0.201   0.609  11.250 -0.1449  0.0887 -0.3681
  541MPD2     C 8078   3.531   1.937  13.298 -0.1242  0.0048  0.1232
  541MPD2    C1 8079   3.540   1.836  13.201  0.5530 -0.0222  0.1492
  541MPD2    C2 8080   3.580   1.861  13.072  0.7950  0.6470  0.2924
  541MPD2    C3 8081   3.605   1.988  13.026 -0.3172  0.5450 -0.4523
  541MPD2    C4 8082   3.604   2.087  13.119 -0.4772  1.0223 -0.6291
  541MPD2    C5 8083   3.577   2.058  13.251 -0.7682  0.7832 -0.4498
  541MPD2     H 8084   3.583   1.774  13.007 -2.4211  0.4006  0.4816
  541MPD2    H1 8085   3.624   2.189  13.088 -2.2095  2.3423  2.5119
  541MPD2    H2 8086   3.487   1.929  13.397 -0.7746  0.9886 -0.0848
  541MPD2    H3 8087   3.580   2.144  13.317 -1.6232  1.6306 -1.5262
  541MPD2     N 8088   3.626   2.019  12.886 -0.3358 -0.1087 -0.8827
  541MPD2    H5 8089   3.650   2.115  12.864  0.3688 -0.2063 -0.5380
  541MPD2    N1 8090   3.506   1.702  13.236 -0.3882  0.7677  0.8433
  541MPD2    H7 8091   3.520   1.631  13.164  1.4870  0.2351  1.7510
  542TMC3    C1 8092   3.632   1.980  12.640 -0.1382 -1.0635 -0.1940
  542TMC3    C2 8093   3.638   1.889  12.539 -0.5385 -0.1590  0.2697
  542TMC3    C3 8094   3.626   1.939  12.417  0.2410 -0.2831 -0.2284
  542TMC3    C4 8095   3.622   2.118  12.616 -0.6736 -0.4824 -0.0389
  542TMC3    C5 8096   3.622   2.156  12.486  0.2412 -0.2657  0.1552
  542TMC3    C6 8097   3.618   2.073  12.384 -0.3542 -0.1510 -0.8112
  542TMC3     C 8098   3.629   1.926  12.778  0.0266 -0.6819 -0.4841
  542TMC3     O 8099   3.632   1.804  12.787  0.1411  0.1240 -0.3245
  542TMC3     H 8100   3.656   1.783  12.560  1.3998 -0.0433 -0.7806
  542TMC3    H1 8101   3.590   2.188  12.692 -0.8052 -1.4212  0.7631
  542TMC3    H2 8102   3.592   2.090  12.280 -2.1743 -0.0003 -0.3240
  542TMC3    C7 8103   3.583   2.289  12.464 -0.4508  0.6281  0.4680
  542TMC3    C8 8104   3.637   1.856  12.303  0.1828 -0.1156 -1.0298
  542TMC3    O1 8105   3.512   2.337  12.547  0.1444 -0.0287  0.1447
  542TMC3    O2 8106   3.687   1.897  12.195 -0.4146  0.5692  0.0892
  543TMC3    C1 8107   2.909   2.530  17.467 -0.3437 -0.6149 -0.4887
  543TMC3    C2 8108   2.949   2.444  17.564 -0.2807  0.3891 -0.5236
  543TMC3    C3 8109   2.892   2.444  17.686 -0.0026 -0.8007  0.3172
  543TMC3    C4 8110   2.800   2.614  17.491  0.9965  0.1710  0.4437
  543TMC3    C5 8111   2.744   2.608  17.614 -0.0416  0.1409 -0.0580
  543TMC3    C6 8112   2.780   2.516  17.709 -0.3757 -0.4683 -0.4855
  543TMC3     C 8113   2.946   2.478  17.337 -0.5888 -0.1079  0.9025
  543TMC3     O 8114   3.005   2.371  17.331 -0.1891  0.0044 -0.7369
  543TMC3     H 8115   3.042   2.391  17.546 -1.2601 -1.6164  0.3520
  543TMC3    H1 8116   2.745   2.665  17.413  0.5519  2.6349  2.3747
  543TMC3    H2 8117   2.725   2.524   0.057 -0.1154  1.7065 -0.5118
  543TMC3    C7 8118   2.643   2.705  17.642 -0.2645  0.0671  0.2539
  543TMC3    C8 8119   2.910   2.315   0.013  0.0763 -0.1566 -0.6439
  543TMC3    O1 8120   2.578   2.695  17.743  0.1419  0.1472  0.6029
  543TMC3    O2 8121   2.996   2.246  17.704 -0.2495 -0.3971  0.0281
  544MPD2     C 8122   2.784   1.948   0.347 -0.2889 -0.0868  0.0969
  544MPD2    C1 8123   2.840   1.942   0.223  0.3554 -0.0476  0.4103
  544MPD2    C2 8124   2.870   2.063   0.154  0.1331  0.1684  0.0265
  544MPD2    C3 8125   2.855   2.185   0.217  0.1227 -0.4283  0.0815
  544MPD2    C4 8126   2.781   2.191   0.329 -0.0176 -0.2125 -0.0735
  544MPD2    C5 8127   2.742   2.075   0.390 -0.2102 -0.3409 -0.2686
  544MPD2     H 8128   2.900   2.055   0.050 -3.1957 -1.2148 -0.8386
  544MPD2    H1 8129   2.757   2.285   0.377  1.2478 -0.4030  0.9472
  544MPD2    H2 8130   2.755   1.855   0.394  1.4864 -0.7664 -0.1745
  544MPD2    H3 8131   2.668   2.090   0.467  1.0549 -0.2390  0.9188
  544MPD2     N 8132   2.866   2.305   0.140 -0.2596  0.1837 -0.1055
  544MPD2    H5 8133   2.825   2.386   0.186  1.1141 -0.3606  2.0464
  544MPD2    N1 8134   2.848   1.807   0.171 -0.1023  0.0768 -0.7148
  544MPD2    H7 8135   2.836   1.730   0.237  0.6681  0.1465 -0.4924
  545TMC3    C1 8136   2.906   1.632   0.035  0.0097 -0.5320 -0.3113
  545TMC3    C2 8137   2.889   1.574  17.657  0.0661  0.5522 -0.6095
  545TMC3    C3 8138   2.857   1.446  17.637  0.2961 -0.5922 -0.0732
  545TMC3    C4 8139   2.890   1.550   0.147 -0.4769  0.5391  0.3182
  545TMC3    C5 8140   2.872   1.409   0.125 -0.0444 -0.2361 -0.3513
  545TMC3    C6 8141   2.860   1.360  17.742  0.2141  0.8290  0.2012
  545TMC3     C 8142   2.881   1.774   0.045 -0.5984 -0.3208  0.1331
  545TMC3     O 8143   2.870   1.839  17.688 -0.3806  0.2598 -0.2878
  545TMC3     H 8144   2.902   1.638  17.570  1.9411 -0.3238 -0.9808
  545TMC3    H1 8145   2.905   1.584   0.249  0.0134  0.9520  0.1044
  545TMC3    H2 8146   2.848   1.255  17.716 -1.1569  0.6289  1.6278
  545TMC3    C7 8147   2.887   1.316   0.231  0.1883 -0.1901  0.4073
  545TMC3    C8 8148   2.869   1.391  17.503  0.4726  0.3688 -0.4213
  545TMC3    O1 8149   2.938   1.343   0.336  0.2096  0.4013 -0.1448
  545TMC3    O2 8150   2.917   1.282  17.494  0.3961 -0.2363  0.5333
  546MPD2     C 8151   4.023   2.309  17.114 -0.4659  0.0571  0.7611
  546MPD2    C1 8152   4.041   2.302  17.246 -0.2733 -0.3250 -0.0597
  546MPD2    C2 8153   4.128   2.393  17.305  0.0586  0.0130 -0.0299
  546MPD2    C3 8154   4.203   2.479  17.225  0.9471 -0.4355 -0.0378
  546MPD2    C4 8155   4.183   2.482  17.089  0.4190 -1.1060  0.0599
  546MPD2    C5 8156   4.091   2.397  17.033 -0.4215 -0.0158 -0.5569
  546MPD2     H 8157   4.150   2.401  17.410 -0.6348  0.1309  0.1044
  546MPD2    H1 8158   4.237   2.558  17.033 -1.2790  0.2211  0.2162
  546MPD2    H2 8159   3.966   2.232  17.063  0.8845 -0.0365 -0.6102
  546MPD2    H3 8160   4.085   2.403  16.925  0.7157  0.8517 -0.5732
  546MPD2     N 8161   4.293   2.571  17.282  0.4626 -0.1756 -0.5715
  546MPD2    H5 8162   4.338   2.640  17.223  0.3986  0.4618  0.1233
  546MPD2    N1 8163   3.969   2.212  17.316 -0.2742  0.1821 -0.3307
  546MPD2    H7 8164   3.919   2.154  17.249 -1.0022  1.1863 -0.6535
  547TMC3    C1 8165   3.909   2.051  17.477 -0.0113 -0.1146 -0.4897
  547TMC3    C2 8166   3.803   2.014  17.404  0.2849 -0.2123  0.0172
  547TMC3    C3 8167   3.758   1.880  17.408 -0.0823 -0.2422 -0.0097
  547TMC3    C4 8168   3.960   1.963  17.565  0.1943 -0.4231  0.1026
  547TMC3    C5 8169   3.916   1.833  17.561 -0.3953  0.1755  0.2979
  547TMC3    C6 8170   3.821   1.782  17.478 -1.2106 -0.9747 -0.0460
  547TMC3     C 8171   3.976   2.176  17.454 -0.3544  0.5519  0.3174
  547TMC3     O 8172   4.055   2.213  17.540 -0.1556  0.4057 -0.5356
  547TMC3     H 8173   3.749   2.087  17.345  1.6616  0.8606  0.0622
  547TMC3    H1 8174   4.031   2.000  17.639 -1.8639 -1.8786  2.8231
  547TMC3    H2 8175   3.804   1.675  17.465  1.5443 -1.4898  0.5685
  547TMC3    C7 8176   3.945   1.752  17.676 -1.0822  0.0768  1.2226
  547TMC3    C8 8177   3.654   1.854  17.312 -0.2264 -0.0732 -0.5265
  547TMC3    O1 8178   3.881   1.649  17.695 -0.3498 -0.5978  0.0898
  547TMC3    O2 8179   3.620   1.946  17.237 -0.0083 -0.3796  0.4618
  548MPD2     C 8180   3.660   3.654  12.332 -0.1032  0.0324  0.2130
  548MPD2    C1 8181   3.632   3.529  12.383 -0.3135  0.1479  0.0054
  548MPD2    C2 8182   3.730   3.450  12.441 -0.3868 -0.5707 -0.3733
  548MPD2    C3 8183   3.859   3.496  12.444 -0.1458  0.2643 -0.1951
  548MPD2    C4 8184   3.892   3.616  12.381 -0.0525 -0.2548  0.1450
  548MPD2    C5 8185   3.792   3.698  12.335  0.8771  0.6558  1.1617
  548MPD2     H 8186   3.703   3.356  12.487 -0.9734  0.9846  2.4715
  548MPD2    H1 8187   3.996   3.648  12.382  0.4109 -1.7428 -1.2046
  548MPD2    H2 8188   3.577   3.708  12.289  0.1230 -0.0643 -0.3471
  548MPD2    H3 8189   3.817   3.798  12.300  2.1618 -0.2607 -0.5489
  548MPD2     N 8190   3.963   3.413  12.496 -0.2410  0.3006 -0.4824
  548MPD2    H5 8191   4.047   3.460  12.525 -0.1158 -0.4514  0.3799
  548MPD2    N1 8192   3.491   3.498  12.381  0.0295 -0.4059  0.0140
  548MPD2    H7 8193   3.423   3.565  12.346  1.1794  1.3299  1.1165
  549TMC3    C1 8194   3.293   3.370  12.421 -1.1029  0.0690  0.7372
  549TMC3    C2 8195   3.237   3.459  12.508 -0.0340 -0.0861 -1.2454
  549TMC3    C3 8196   3.107   3.433  12.558  0.1525  0.1726  0.9030
  549TMC3    C4 8197   3.238   3.247  12.412  0.2432  0.4942  0.3133
  549TMC3    C5 8198   3.117   3.218  12.477  0.4896 -1.1682 -0.1377
  549TMC3    C6 8199   3.055   3.311  12.554 -0.1277 -0.3643 -0.0118
  549TMC3     C 8200   3.443   3.370  12.415 -0.4194  0.2419  0.2888
  549TMC3     O 8201   3.486   3.263  12.453 -0.0453 -0.6181 -0.4073
  549TMC3     H 8202   3.294   3.548  12.532 -0.3618 -0.1785 -0.1248
  549TMC3    H1 8203   3.286   3.185  12.338  0.4418  0.5946  0.3570
  549TMC3    H2 8204   2.965   3.287  12.608 -1.1583  0.2208 -1.4562
  549TMC3    C7 8205   3.112   3.086  12.522 -0.5506 -0.1471 -0.4066
  549TMC3    C8 8206   3.031   3.540  12.612  0.3070 -0.5925  0.0610
  549TMC3    O1 8207   3.012   3.056  12.590  0.2790  0.4818  0.4112
  549TMC3    O2 8208   2.939   3.501  12.684 -0.1332 -0.5324 -0.0515
  550TMC3    C1 8209   2.971   1.847  12.149  0.4899  0.5156  0.8508
  550TMC3    C2 8210   2.883   1.865  12.259 -0.3659  0.0059  0.7469
  550TMC3    C3 8211   2.849   1.996  12.292 -0.1014  0.3425  0.8690
  550TMC3    C4 8212   3.029   1.952  12.084 -0.7174 -0.3947  0.0757
  550TMC3    C5 8213   2.984   2.077  12.110 -0.4540  0.7637  0.6099
  550TMC3    C6 8214   2.902   2.096  12.223  0.1241 -0.4086  0.0828
  550TMC3     C 8215   2.955   1.713  12.089 -0.2329  0.1985  1.2811
  550TMC3     O 8216   2.936   1.620  12.167 -0.4135  0.4819 -0.3596
  550TMC3     H 8217   2.837   1.781  12.310 -0.4547 -0.1746  0.3690
  550TMC3    H1 8218   3.096   1.944  11.999 -1.6791 -0.6520 -0.6637
  550TMC3    H2 8219   2.876   2.198  12.248 -2.4879 -0.8726 -0.8001
  550TMC3    C7 8220   2.949   2.144  11.989 -0.2747 -0.6280  0.2843
  550TMC3    C8 8221   2.710   2.026  12.324  0.1631  0.5261  0.5823
  550TMC3    O1 8222   3.011   2.122  11.889  0.3013  0.0050  0.0573
  550TMC3    O2 8223   2.658   2.108  12.251  0.1592 -0.2638 -0.2511
  551TMC3    C1 8224   0.027   4.120  13.403 -0.4880 -0.3258  0.0884
  551TMC3    C2 8225   0.127   4.026  13.375 -0.6310 -0.2906  1.2949
  551TMC3    C3 8226   0.230   4.006  13.465 -0.3701  0.5326  0.5679
  551TMC3    C4 8227   0.033   4.185  13.525 -0.0581 -0.5847 -0.0153
  551TMC3    C5 8228   0.146   4.168  13.605 -0.6600 -0.4458 -0.1492
  551TMC3    C6 8229   0.243   4.076  13.583  0.4150  0.6934  0.2403
  551TMC3     C 8230   4.694   4.183  13.309 -0.7541 -0.6927  0.7090
  551TMC3     O 8231   4.667   4.294  13.336  0.2046  0.2250 -0.3486
  551TMC3     H 8232   0.143   3.998  13.272 -0.3025  0.0546  1.2531
  551TMC3    H1 8233   4.702   4.262  13.560  0.3854  0.3238 -1.1491
  551TMC3    H2 8234   0.321   4.048  13.652 -0.8434  1.3699  1.9327
  551TMC3    C7 8235   0.152   4.216  13.743  0.1671  0.1368 -0.8228
  551TMC3    C8 8236   0.351   3.963  13.402  0.1532 -0.2203  0.9122
  551TMC3    O1 8237   0.186   4.128  13.824  0.2603 -0.1334 -0.0252
  551TMC3    O2 8238   0.347   3.871  13.324  0.3693  0.2732 -0.4040
  552MPD2     C 8239   2.696   1.179  14.107  0.1733 -0.4082 -0.3090
  552MPD2    C1 8240   2.642   1.079  14.189  0.2695  0.1759 -0.3532
  552MPD2    C2 8241   2.707   1.040  14.303  0.9180  0.0370  0.7535
  552MPD2    C3 8242   2.817   1.118  14.348 -0.7394  0.4398  0.7566
  552MPD2    C4 8243   2.865   1.220  14.268 -0.4206  0.0414  0.2731
  552MPD2    C5 8244   2.796   1.257  14.152  0.4313 -0.0139  0.6111
  552MPD2     H 8245   2.670   0.950  14.352  1.7277  0.6119  2.4232
  552MPD2    H1 8246   2.956   1.272  14.293 -1.0907  0.8593  1.0140
  552MPD2    H2 8247   2.640   1.218  14.022 -1.5911 -1.7112  0.2602
  552MPD2    H3 8248   2.826   1.338  14.086  1.4730 -0.6626  0.2875
  552MPD2     N 8249   2.884   1.077  14.463  0.1878 -0.4042 -0.8622
  552MPD2    H5 8250   2.968   1.129  14.487 -0.8294 -0.3913  2.7881
  552MPD2    N1 8251   2.519   1.008  14.161 -0.1585 -0.7134  0.6150
  552MPD2    H7 8252   2.495   0.934  14.226  1.4850  1.3088  3.5616
  553TMC3    C1 8253   2.378   0.907  14.005 -0.2043 -0.1940  0.4886
  553TMC3    C2 8254   2.325   0.904  13.878 -0.1421  0.0239 -0.5240
  553TMC3    C3 8255   2.318   0.780  13.814 -0.3693 -0.5231 -0.4142
  553TMC3    C4 8256   2.408   0.794  14.076 -0.3748  0.0104 -0.0495
  553TMC3    C5 8257   2.383   0.674  14.013 -0.4421  0.6022  0.6128
  553TMC3    C6 8258   2.341   0.662  13.882  0.2916 -0.0711  0.4905
  553TMC3     C 8259   2.454   1.020  14.042 -0.0278 -0.0333  0.5884
  553TMC3     O 8260   2.456   1.102  13.954 -0.2740  0.6992  0.3342
  553TMC3     H 8261   2.302   0.991  13.818 -2.4307  1.0919  1.8722
  553TMC3    H1 8262   2.449   0.783  14.176 -1.4352  2.2667  0.6210
  553TMC3    H2 8263   2.343   0.564  13.835  0.8656  0.0764  0.2059
  553TMC3    C7 8264   2.461   0.562  14.054  0.6866 -0.3841  0.5020
  553TMC3    C8 8265   2.360   0.787  13.679  0.9842 -0.1445 -0.3085
  553TMC3    O1 8266   2.399   0.461  14.094  0.1427  0.2113 -0.6250
  553TMC3    O2 8267   2.448   0.869  13.648 -0.1974 -0.2813 -0.2929
  554TMC3    C1 8268   4.350   0.447  11.197  0.0988  0.5385  0.2171
  554TMC3    C2 8269   4.333   0.421  11.063  0.5370  0.2857  0.1258
  554TMC3    C3 8270   4.272   0.523  10.992  0.4705  0.1695  0.2188
  554TMC3    C4 8271   4.344   0.569  11.254 -0.3066 -0.5042 -0.0127
  554TMC3    C5 8272   4.306   0.671  11.172  0.4837  0.2357 -0.1889
  554TMC3    C6 8273   4.270   0.649  11.044  0.1660 -0.1940 -0.0243
  554TMC3     C 8274   4.402   0.340  11.268  0.2347  0.1098  0.2905
  554TMC3     O 8275   4.484   0.265  11.218 -0.6166  0.6249 -0.0354
  554TMC3     H 8276   4.325   0.315  11.040  0.8111  0.0856  0.9368
  554TMC3    H1 8277   4.365   0.587  11.359 -2.0621  0.0184  0.2612
  554TMC3    H2 8278   4.231   0.729  10.982 -0.8045 -0.3185  0.4311
  554TMC3    C7 8279   4.387   0.791  11.189  0.9991 -0.1686  0.1070
  554TMC3    C8 8280   4.194   0.491  10.869 -0.1516 -0.1485 -0.6844
  554TMC3    O1 8281   4.373   0.880  11.105  0.4168 -0.4717 -0.4954
  554TMC3    O2 8282   4.169   0.581  10.791 -0.3120  0.1530  0.1554
  555TMC3    C1 8283   3.203   4.640  15.367  0.3810 -0.2761  0.5187
  555TMC3    C2 8284   3.231   4.713  15.479  0.1830  0.6628 -0.3109
  555TMC3    C3 8285   3.282   4.646  15.585  0.3892  0.4935  0.6617
  555TMC3    C4 8286   3.215   4.502  15.360 -0.0943 -0.1241  0.3995
  555TMC3    C5 8287   3.286   4.440  15.461  0.0709  0.5087  0.1378
  555TMC3    C6 8288   3.319   4.512  15.574 -0.1543  0.2321 -0.5175
  555TMC3     C 8289   3.202   4.720  15.247  0.0946 -0.2658  0.5940
  555TMC3     O 8290   3.258   0.092  15.254  0.0057 -0.2418  0.0698
  555TMC3     H 8291   3.213   0.083  15.488  3.2979  1.0491  1.4248
  555TMC3    H1 8292   3.188   4.446  15.271  0.6703  1.6616 -0.9459
  555TMC3    H2 8293   3.363   4.454  15.654  0.3806  2.3976  0.7428
  555TMC3    C7 8294   3.324   4.300  15.449 -0.3713  1.1831 -0.1124
  555TMC3    C8 8295   3.287   4.724  15.707  0.4322 -0.6368 -0.0605
  555TMC3    O1 8296   3.245   4.227  15.386 -0.6172 -0.3140 -0.3131
  555TMC3    O2 8297   3.230   0.098  15.705 -0.1195 -0.0401  0.2546
  556MPD2     C 8298   1.922   2.017  11.041 -0.1966 -0.1389 -0.4925
  556MPD2    C1 8299   1.835   1.923  11.085  0.4464  0.0898 -0.0495
  556MPD2    C2 8300   1.806   1.810  11.006  0.6363 -0.8400 -0.6399
  556MPD2    C3 8301   1.850   1.802  10.873 -0.1417  0.3458 -0.2163
  556MPD2    C4 8302   1.947   1.897  10.838 -0.3045 -0.0176 -0.7369
  556MPD2    C5 8303   1.983   2.000  10.917  0.1797  0.2458  0.5023
  556MPD2     H 8304   1.740   1.733  11.044  1.5152 -0.6503  1.2543
  556MPD2    H1 8305   1.994   1.902  10.740 -1.4326  0.7154 -1.2349
  556MPD2    H2 8306   1.940   2.108  11.096 -0.1153 -0.4638  0.0236
  556MPD2    H3 8307   2.054   2.075  10.883 -1.5477  2.0732  0.9253
  556MPD2     N 8308   1.799   1.704  10.778 -0.0732 -0.6795  0.3856
  556MPD2    H5 8309   1.740   1.631  10.816  0.5042 -2.8442 -2.9845
  556MPD2    N1 8310   1.764   1.933  11.206 -0.0459 -0.3665 -0.6844
  556MPD2    H7 8311   1.692   1.862  11.216  0.8355 -1.2138 -0.3145
  557TMC3    C1 8312   1.786   1.589  10.574  0.4173 -0.5216 -0.1862
  557TMC3    C2 8313   1.742   1.614  10.449 -0.1643  0.2529 -0.0916
  557TMC3    C3 8314   1.709   1.503  10.370 -0.3554  0.3406 -0.2361
  557TMC3    C4 8315   1.809   1.463  10.630  0.7121 -0.4523 -0.0442
  557TMC3    C5 8316   1.762   1.359  10.551  0.0884 -0.2427  0.0367
  557TMC3    C6 8317   1.711   1.373  10.424  0.1365  0.4021 -0.3421
  557TMC3     C 8318   1.831   1.704  10.645 -0.0831  0.0238 -1.1125
  557TMC3     O 8319   1.894   1.791  10.579 -0.1128 -0.7029 -0.3480
  557TMC3     H 8320   1.717   1.713  10.412  1.1751  0.8754  0.6430
  557TMC3    H1 8321   1.852   1.450  10.729  3.0028  0.1251 -0.9553
  557TMC3    H2 8322   1.678   1.290  10.363 -0.0037  1.5724 -1.8584
  557TMC3    C7 8323   1.749   1.229  10.611  1.0456  0.5839  0.0406
  557TMC3    C8 8324   1.643   1.524  10.245 -0.1554 -0.1780 -0.0529
  557TMC3    O1 8325   1.673   1.158  10.545 -0.1148  0.5942 -0.0968
  557TMC3    O2 8326   1.604   1.636  10.223 -0.3226 -0.0825 -0.1323
  558TMC3    C1 8327   3.723   4.309  10.225 -0.6986  0.0895 -0.5971
  558TMC3    C2 8328   3.632   4.385  10.293 -0.5106  0.3105 -0.2612
  558TMC3    C3 8329   3.563   4.479  10.224 -0.1421  0.5414  0.3009
  558TMC3    C4 8330   3.739   4.319  10.091 -0.0808  0.1814  0.0562
  558TMC3    C5 8331   3.656   4.404  10.025  0.2724 -0.1015  0.1371
  558TMC3    C6 8332   3.566   4.484  10.084 -0.0186  0.7579  0.3748
  558TMC3     C 8333   3.836   4.240  10.281 -0.2645  0.0575  0.1029
  558TMC3     O 8334   3.896   4.168  10.206 -0.2994  0.2984  0.0382
  558TMC3     H 8335   3.600   4.365  10.395  0.4039 -2.4944 -0.5146
  558TMC3    H1 8336   3.824   4.278  10.037  0.2097  0.2336  0.4710
  558TMC3    H2 8337   3.504   4.555  10.031 -0.4321  1.0006  1.1824
  558TMC3    C7 8338   3.679   4.406   9.886  0.6930  0.5781 -0.2082
  558TMC3    C8 8339   3.463   4.566  10.284  0.1523  0.2189  0.9413
  558TMC3    O1 8340   3.764   4.334   9.835  0.8366 -0.2768 -0.2842
  558TMC3    O2 8341   3.391   4.641  10.214  0.5058 -0.0671 -0.3165
  559MPD2     C 8342   3.921   4.635  10.060  0.2343 -0.2424 -0.4501
  559MPD2    C1 8343   3.890   4.674  10.189  0.0658 -0.5235  0.1071
  559MPD2    C2 8344   3.962   4.619  10.295 -0.4641  0.5633  0.3328
  559MPD2    C3 8345   4.064   4.525  10.274  0.3129 -0.4569 -0.1368
  559MPD2    C4 8346   4.083   4.482  10.143 -0.1290 -0.4461  0.1250
  559MPD2    C5 8347   4.019   4.541  10.040  0.2493  0.9983  0.3505
  559MPD2     H 8348   3.948   4.657  10.396  0.2729  1.2868  0.1647
  559MPD2    H1 8349   4.152   4.399  10.129 -0.8730 -0.4692 -3.4177
  559MPD2    H2 8350   3.875   4.673   9.970  0.8272 -0.5287 -0.8737
  559MPD2    H3 8351   4.024   4.500   9.940  0.1220 -0.9059  1.1270
  559MPD2     N 8352   4.140   4.475  10.382 -0.3571 -0.5834 -0.4383
  559MPD2    H5 8353   4.108   4.499  10.475 -0.4662  1.3456 -0.9737
  559MPD2    N1 8354   3.799   0.041  10.207 -0.3519 -0.4408 -0.2408
  559MPD2    H7 8355   3.757   0.082  10.124 -2.8887  0.6815  1.5736
  560TMC3    C1 8356   4.305   4.374  10.513 -1.0809 -0.4187 -1.1805
  560TMC3    C2 8357   4.231   4.416  10.626 -0.3046 -0.0834  0.2596
  560TMC3    C3 8358   4.295   4.425  10.745  0.4479  0.7059  0.2612
  560TMC3    C4 8359   4.439   4.348  10.524 -0.4272 -0.5206 -0.1917
  560TMC3    C5 8360   4.500   4.388  10.639 -0.4633 -0.2687 -0.3338
  560TMC3    C6 8361   4.428   4.415  10.755 -0.1526 -0.3395  0.1399
  560TMC3     C 8362   4.259   4.403  10.378  0.4103 -0.3603  0.0354
  560TMC3     O 8363   4.329   4.390  10.283  0.1163 -0.6522  0.1091
  560TMC3     H 8364   4.124   4.420  10.616 -0.2122 -2.2394 -1.6643
  560TMC3    H1 8365   4.502   4.313  10.442  1.4070  2.4657 -0.0729
  560TMC3    H2 8366   4.477   4.438  10.849  0.4399  1.9225 -0.7258
  560TMC3    C7 8367   4.635   4.360  10.651  0.3976 -0.9542 -0.5258
  560TMC3    C8 8368   4.211   4.462  10.856  0.0458  0.2048 -0.3019
  560TMC3    O1 8369   4.684   4.250  10.645  0.1439  0.0496 -0.6402
  560TMC3    O2 8370   4.104   4.517  10.828  0.1392 -0.4809 -0.1468
  561TMC3    C1 8371   2.177   4.115  11.153 -0.5456 -0.5447 -0.5391
  561TMC3    C2 8372   2.097   4.012  11.176 -0.1729  0.1118 -0.1231
  561TMC3    C3 8373   2.016   3.964  11.078  0.5121 -0.9133  0.2164
  561TMC3    C4 8374   2.180   4.170  11.022  0.4426 -0.0684  0.0607
  561TMC3    C5 8375   2.097   4.120  10.932  0.1906  0.1949  0.0272
  561TMC3    C6 8376   2.017   4.011  10.953 -0.2652 -0.3362  0.3396
  561TMC3     C 8377   2.303   4.103  11.222  0.1683  0.6078  0.4075
  561TMC3     O 8378   2.302   4.125  11.341 -0.1662 -0.4140  0.1646
  561TMC3     H 8379   2.095   3.975  11.278 -0.7277 -2.0193 -0.9059
  561TMC3    H1 8380   2.251   4.250  11.005  0.2258  0.3626  1.2130
  561TMC3    H2 8381   1.952   3.980  10.872 -1.2940 -1.4830  1.6083
  561TMC3    C7 8382   2.146   4.125  10.790  0.1043 -0.0218 -0.1645
  561TMC3    C8 8383   1.929   3.850  11.099  0.4223  0.5417  0.2577
  561TMC3    O1 8384   2.181   4.012  10.757  0.1067  0.2946 -0.1619
  561TMC3    O2 8385   1.898   3.779  11.002  0.0839 -0.1191  0.0785
  562TMC3    C1 8386   3.080   0.085  16.567  0.8508  0.3482  0.4228
  562TMC3    C2 8387   2.995   0.189  16.548 -0.6524 -0.0035  0.3351
  562TMC3    C3 8388   2.916   0.189  16.434 -0.4583 -0.5882 -0.1000
  562TMC3    C4 8389   3.098   4.728  16.464 -0.3292  0.9377 -0.8332
  562TMC3    C5 8390   3.011   4.732  16.355  0.1808  0.2734 -1.1294
  562TMC3    C6 8391   2.922   0.093  16.341 -0.0872 -0.2405 -0.3722
  562TMC3     C 8392   3.148   0.077  16.690  0.1314 -0.3734  0.0721
  562TMC3     O 8393   3.106   0.151  16.781  0.0246 -0.1176 -0.3639
  562TMC3     H 8394   2.977   0.267  16.621 -0.2760  2.2624 -1.9788
  562TMC3    H1 8395   3.183   4.662  16.472 -0.7032  0.6789  1.0842
  562TMC3    H2 8396   2.852   0.093  16.258  0.8936  2.8008 -1.2111
  562TMC3    C7 8397   2.981   4.612  16.294  0.0361 -0.4757  0.0375
  562TMC3    C8 8398   2.796   0.272  16.439 -0.4889 -0.2180  0.3472
  562TMC3    O1 8399   2.875   4.605  16.231  0.6290  0.4073 -0.0561
  562TMC3    O2 8400   2.742   0.288  16.547  0.3459 -0.1099 -0.0299
  563MPD2     C 8401   0.457   1.454  15.700 -0.7472 -0.2912 -0.3369
  563MPD2    C1 8402   0.460   1.500  15.829 -0.4278 -0.3681 -0.3061
  563MPD2    C2 8403   0.566   1.471  15.909  0.2715 -0.4540 -0.4197
  563MPD2    C3 8404   0.660   1.386  15.868  0.1001 -0.2029 -0.5406
  563MPD2    C4 8405   0.656   1.336  15.743  0.0268 -0.1764  0.1237
  563MPD2    C5 8406   0.556   1.378  15.664 -0.0549 -0.3972  0.7642
  563MPD2     H 8407   0.575   1.504  16.012  1.0306  2.5242 -1.4201
  563MPD2    H1 8408   0.724   1.267  15.695 -0.7752 -1.3945  0.7415
  563MPD2    H2 8409   0.369   1.468  15.639 -0.4523  2.3576 -0.1516
  563MPD2    H3 8410   0.561   1.340  15.562 -3.0668 -0.3259  0.5730
  563MPD2     N 8411   0.755   1.357  15.969 -0.3335 -0.3171  0.1315
  563MPD2    H5 8412   0.736   1.394  16.062  2.6092 -1.2273  1.0784
  563MPD2    N1 8413   0.355   1.575  15.875  0.6579 -0.2731 -0.1442
  563MPD2    H7 8414   0.273   1.577  15.816 -0.0817  1.2191  0.9206
  564TMC3    C1 8415   0.252   1.569  16.088 -0.2918 -0.1291 -0.3708
  564TMC3    C2 8416   0.145   1.513  16.023 -0.4633  0.1015 -0.3862
  564TMC3    C3 8417   0.103   1.398  16.071  0.1220 -0.0174 -0.3867
  564TMC3    C4 8418   0.321   1.498  16.184  0.8870 -0.0655  0.2411
  564TMC3    C5 8419   0.276   1.380  16.230  0.4355  0.1438 -0.4279
  564TMC3    C6 8420   0.154   1.334  16.185  0.5790  0.4076  0.2466
  564TMC3     C 8421   0.350   1.634  15.996  0.1769 -0.2700  0.0881
  564TMC3     O 8422   0.443   1.692  16.051  0.1084 -0.4095  0.1318
  564TMC3     H 8423   0.101   1.556  15.934 -1.1489  0.6290  0.2026
  564TMC3    H1 8424   0.409   1.551  16.219  0.0560  0.1054  2.0625
  564TMC3    H2 8425   0.129   1.232  16.213  0.3610  0.4136  0.0708
  564TMC3    C7 8426   0.392   1.289  16.226  0.9968  0.2250  0.7352
  564TMC3    C8 8427   0.062   1.297  15.968  0.3044  0.6683 -0.5182
  564TMC3    O1 8428   0.490   1.325  16.292  0.0011 -0.2597  0.1277
  564TMC3    O2 8429   0.032   1.183  16.005  0.8175  0.4443  0.4684
  565TMC3    C1 8430   1.826   3.349  10.256  0.0593 -0.8385  0.2049
  565TMC3    C2 8431   1.743   3.285  10.340  0.3545 -0.5883 -0.1740
  565TMC3    C3 8432   1.701   3.157  10.306  0.0318  0.4914 -0.1900
  565TMC3    C4 8433   1.866   3.295  10.133 -0.2474  0.3371 -0.0127
  565TMC3    C5 8434   1.849   3.153  10.127  0.8012 -0.6508  0.0037
  565TMC3    C6 8435   1.762   3.086  10.209  0.1870  0.7468 -0.8995
  565TMC3     C 8436   1.862   3.487  10.273 -0.0126  0.6565 -0.5833
  565TMC3     O 8437   1.893   3.544  10.169 -0.7351  0.9172 -0.1866
  565TMC3     H 8438   1.690   3.342  10.415  0.4051  0.3253 -0.8323
  565TMC3    H1 8439   1.920   3.341  10.051  0.4717  2.2893  1.5531
  565TMC3    H2 8440   1.754   2.978  10.197  0.3139  0.4546  1.6169
  565TMC3    C7 8441   1.891   3.098   9.997  0.3792  0.1691 -0.0469
  565TMC3    C8 8442   1.633   3.089  10.408 -0.3882 -0.3593 -0.0394
  565TMC3    O1 8443   1.885   3.173   9.899 -0.4949  0.7222 -0.0150
  565TMC3    O2 8444   1.617   3.150  10.516 -0.0276  0.1776  0.4278
  566MPD2     C 8445   2.743   4.118  14.498 -0.0073 -0.5351 -0.0846
  566MPD2    C1 8446   2.718   4.237  14.439  0.5457  0.0999 -0.9780
  566MPD2    C2 8447   2.632   4.242  14.329  0.5110 -0.9871  0.1033
  566MPD2    C3 8448   2.567   4.119  14.293 -0.4580 -0.7822  0.0300
  566MPD2    C4 8449   2.594   4.002  14.362 -0.1088 -0.6214  0.2864
  566MPD2    C5 8450   2.691   4.000  14.463 -0.0478 -0.1723 -0.1533
  566MPD2     H 8451   2.622   4.322  14.256  0.5892 -0.5581  0.5609
  566MPD2    H1 8452   2.540   3.910  14.343 -2.3645  0.4600  1.4718
  566MPD2    H2 8453   2.825   4.116  14.569 -0.3091  1.2279  0.3342
  566MPD2    H3 8454   2.716   3.911  14.519  0.0473 -0.8970 -1.3372
  566MPD2     N 8455   2.485   4.115  14.179  0.1664 -0.2417 -0.2806
  566MPD2    H5 8456   2.466   4.020  14.148  0.0029 -0.3895  0.2631
  566MPD2    N1 8457   2.808   4.352  14.470  0.2305 -0.4591 -0.0037
  566MPD2    H7 8458   2.885   4.340  14.535 -0.7935 -1.5319  1.0109
  567TMC3    C1 8459   2.950   4.532  14.407 -0.8465  0.4961 -0.3042
  567TMC3    C2 8460   2.986   4.597  14.292  0.2897 -0.4417 -0.2280
  567TMC3    C3 8461   3.111   4.651  14.291  0.2919 -0.8220 -0.0644
  567TMC3    C4 8462   3.032   4.525  14.513 -0.8457  0.3188  0.7317
  567TMC3    C5 8463   3.156   4.578  14.505 -0.4248  0.6370  0.1078
  567TMC3    C6 8464   3.200   4.649  14.397  0.1588  0.7251 -0.3782
  567TMC3     C 8465   2.823   4.463  14.394 -0.0035  0.2118 -0.2366
  567TMC3     O 8466   2.746   4.511  14.309 -0.0023 -0.0304  0.0288
  567TMC3     H 8467   2.921   4.612  14.207 -0.5199 -0.1242  0.4445
  567TMC3    H1 8468   2.992   4.479  14.603  2.1315  0.9200  2.3600
  567TMC3    H2 8469   3.301   4.688  14.397  0.0879  0.9105 -1.1520
  567TMC3    C7 8470   3.253   4.556  14.611  0.6608  0.1041  0.0948
  567TMC3    C8 8471   3.155   4.706  14.153  0.0721 -0.0397 -1.4206
  567TMC3    O1 8472   3.366   4.601  14.606 -0.1157 -0.5401 -0.0685
  567TMC3    O2 8473   3.080   4.672  14.061  0.3253  0.5668 -0.1806
  568MPD2     C 8474   0.370   4.630  15.717  0.1766 -0.1035  0.5940
  568MPD2    C1 8475   0.335   4.677  15.840 -0.2423  0.5409  0.1413
  568MPD2    C2 8476   0.267   0.061  15.848 -0.2054  0.3569 -0.4115
  568MPD2    C3 8477   0.241   0.136  15.737  0.2284 -0.0517  0.1844
  568MPD2    C4 8478   0.284   0.088  15.613 -0.1234 -0.6873 -0.1988
  568MPD2    C5 8479   0.351   4.702  15.608 -0.7558  0.4442  0.3004
  568MPD2     H 8480   0.238   0.094  15.948  1.9105  1.2041 -0.0779
  568MPD2    H1 8481   0.263   0.136  15.518 -0.1682 -2.6635 -1.1805
  568MPD2    H2 8482   0.422   4.538  15.696 -0.0941 -0.0762 -0.1934
  568MPD2    H3 8483   0.384   4.669  15.510 -0.3032  0.1652  0.5469
  568MPD2     N 8484   0.171   0.252  15.761  0.3633 -0.2160  0.4537
  568MPD2    H5 8485   0.140   0.274  15.855  1.2208  1.1418  0.4116
  568MPD2    N1 8486   0.369   4.596  15.951 -0.0783  0.1450  0.2790
  568MPD2    H7 8487   0.418   4.509  15.928 -1.7541 -0.2771 -1.7008
  569TMC3    C1 8488   0.120   0.478  15.724  0.2947 -0.2801  0.4084
  569TMC3    C2 8489   0.147   0.492  15.857 -0.0378 -0.3942  0.4525
  569TMC3    C3 8490   0.233   0.592  15.901  0.0954 -0.2599  0.1940
  569TMC3    C4 8491   0.160   0.576  15.637 -0.2498  0.0226 -0.3441
  569TMC3    C5 8492   0.231   0.677  15.687 -0.4705 -0.1649 -0.0286
  569TMC3    C6 8493   0.268   0.687  15.816 -0.5590  0.4114 -0.3326
  569TMC3     C 8494   0.135   0.341  15.667 -0.0566  0.0209  0.0663
  569TMC3     O 8495   0.144   0.329  15.546  0.4223  0.2670 -0.6861
  569TMC3     H 8496   0.095   0.429  15.928 -0.0115 -0.3455  0.5148
  569TMC3    H1 8497   0.139   0.569  15.531 -4.2456  0.0923  0.4429
  569TMC3    H2 8498   0.343   0.762  15.841  1.0855 -0.9838 -1.0563
  569TMC3    C7 8499   0.235   0.798  15.607  0.2646 -0.4198 -0.1918
  569TMC3    C8 8500   0.183   0.654  16.016 -0.1590  0.5396 -0.2123
  569TMC3    O1 8501   0.236   0.794  15.486  0.3076  0.0315 -0.0513
  569TMC3    O2 8502   0.076   0.611  16.064  0.1996 -0.0475  0.4441
  570TMC3    C1 8503   4.513   3.935  16.162 -0.3150  0.1947 -0.1160
  570TMC3    C2 8504   4.602   3.905  16.058  0.2233 -0.3717 -0.3481
  570TMC3    C3 8505   4.611   3.997  15.956  0.2407 -0.4224 -0.8200
  570TMC3    C4 8506   4.443   4.052  16.166 -0.0504 -0.1481 -0.2117
  570TMC3    C5 8507   4.453   4.139  16.056  0.1339 -0.1628  0.2835
  570TMC3    C6 8508   4.541   4.115  15.954  0.4167  0.1606 -0.5110
  570TMC3     C 8509   4.484   3.827  16.257  0.2350  0.2774  0.3610
  570TMC3     O 8510   4.518   3.714  16.220 -0.1701  0.0511  0.4229
  570TMC3     H 8511   4.665   3.816  16.060  1.5567  0.6704  2.8290
  570TMC3    H1 8512   4.376   4.075  16.248 -0.8968 -1.9130 -0.4247
  570TMC3    H2 8513   4.560   4.191  15.879 -0.5226  0.5257 -0.3665
  570TMC3    C7 8514   4.394   4.271  16.074  0.2442  0.7782 -0.1957
  570TMC3    C8 8515   4.726   3.997  15.873 -0.6024  0.3886  0.3510
  570TMC3    O1 8516   4.367   4.305  16.188  0.2401  0.0644 -0.4670
  570TMC3    O2 8517   0.025   4.103  15.834  0.2661  0.3871  0.1595
  571MPD2     C 8518   2.203   0.327   0.139 -0.1889 -0.2646  0.5486
  571MPD2    C1 8519   2.126   0.327   0.252 -0.2893 -0.1235  0.0005
  571MPD2    C2 8520   2.108   0.442   0.331  0.2435  0.1135 -0.3546
  571MPD2    C3 8521   2.161   0.565   0.290  0.1281  0.2487 -0.0518
  571MPD2    C4 8522   2.232   0.570   0.179  0.0741  0.1523  0.3804
  571MPD2    C5 8523   2.245   0.454   0.102  0.3285 -0.1584 -0.4301
  571MPD2     H 8524   2.036   0.442   0.412  0.2296  0.9404 -0.3632
  571MPD2    H1 8525   2.282   0.660   0.144  0.1814 -0.1930 -0.3539
  571MPD2    H2 8526   2.216   0.237   0.080  0.1373  0.6455 -0.7658
  571MPD2    H3 8527   2.302   0.474   0.012 -0.9329 -0.9981 -1.4103
  571MPD2     N 8528   2.165   0.680   0.365  0.1326 -0.1115 -0.5387
  571MPD2    H5 8529   2.206   0.763   0.322 -0.4783 -0.0144 -0.9378
  571MPD2    N1 8530   2.056   0.205   0.279 -0.3313 -0.0748 -0.3231
  571MPD2    H7 8531   2.054   0.134   0.206 -0.8559  0.9593 -1.3171
  572TMC3    C1 8532   2.106   0.826   0.536 -0.5274  0.5945  0.6405
  572TMC3    C2 8533   2.107   0.843   0.671  0.3951  0.4165  0.1216
  572TMC3    C3 8534   2.096   0.971   0.713  0.1148 -0.4280  0.0941
  572TMC3    C4 8535   2.078   0.929   0.450 -0.4824 -0.4400 -0.2179
  572TMC3    C5 8536   2.063   1.053   0.500 -1.0410 -0.2190  0.4809
  572TMC3    C6 8537   2.089   1.080   0.632 -0.2872  0.2565  0.1756
  572TMC3     C 8538   2.101   0.693   0.488  0.1104  0.7541 -0.2316
  572TMC3     O 8539   2.047   0.612   0.561 -0.0704  0.2554  0.4825
  572TMC3     H 8540   2.156   0.770   0.735 -0.2739  0.8603  1.1193
  572TMC3    H1 8541   2.074   0.906   0.344 -2.1709 -0.0825 -0.2193
  572TMC3    H2 8542   2.066   1.177   0.674 -1.4583  1.0327 -2.2276
  572TMC3    C7 8543   2.082   1.156   0.403 -0.4372  0.1432 -0.4863
  572TMC3    C8 8544   2.175   1.011   0.824  0.3094  0.9264 -0.5254
  572TMC3    O1 8545   2.074   1.130   0.285 -0.2315 -0.1611 -0.3201
  572TMC3    O2 8546   2.249   1.107   0.809 -0.6956  0.4446 -0.7811
  573MPD2     C 8547   3.521   0.973   1.367  0.4579  0.0876 -0.1130
  573MPD2    C1 8548   3.404   1.012   1.313  0.1296  0.3449 -0.6258
  573MPD2    C2 8549   3.337   0.936   1.215 -0.4105 -0.0863 -0.3643
  573MPD2    C3 8550   3.401   0.825   1.154 -0.2620 -0.0180 -0.3006
  573MPD2    C4 8551   3.514   0.783   1.216 -0.2579  0.9632 -0.1760
  573MPD2    C5 8552   3.574   0.861   1.314  0.6208 -0.0162  0.2633
  573MPD2     H 8553   3.246   0.974   1.169 -1.0854 -1.2608  0.0193
  573MPD2    H1 8554   3.564   0.693   1.183  1.1643  0.7654  2.5003
  573MPD2    H2 8555   3.574   1.035   1.438  0.5150 -1.0883  0.8614
  573MPD2    H3 8556   3.664   0.809   1.347  0.4930  0.4434  1.3013
  573MPD2     N 8557   3.365   0.775   1.032  0.0838  0.3892 -0.1005
  573MPD2    H5 8558   3.431   0.708   0.995 -0.9126 -0.6621  0.0440
  573MPD2    N1 8559   3.339   1.134   1.344  0.3054 -0.3158 -0.5082
  573MPD2    H7 8560   3.250   1.156   1.300 -1.1018 -0.1928  2.3924
  574TMC3    C1 8561   3.270   0.743   0.831  0.2208 -0.3146 -0.3823
  574TMC3    C2 8562   3.145   0.743   0.771  0.1233 -0.0253 -0.6655
  574TMC3    C3 8563   3.137   0.761   0.638  0.4236 -0.2655 -0.4822
  574TMC3    C4 8564   3.384   0.784   0.765 -0.4250 -0.0307 -0.3578
  574TMC3    C5 8565   3.367   0.812   0.629  0.0382 -0.2935 -0.5167
  574TMC3    C6 8566   3.244   0.800   0.559  0.0105 -0.3534 -0.3222
  574TMC3     C 8567   3.253   0.809   0.954  0.0720 -0.0124  0.4870
  574TMC3     O 8568   3.164   0.891   0.972 -0.3302 -0.0095 -0.3085
  574TMC3     H 8569   3.053   0.727   0.827  1.2298 -1.4831  0.7263
  574TMC3    H1 8570   3.478   0.771   0.817 -0.3832 -1.2691 -0.7412
  574TMC3    H2 8571   3.241   0.796   0.451  2.5755 -2.6366 -0.3344
  574TMC3    C7 8572   3.476   0.868   0.556 -0.3013 -0.0549 -0.1742
  574TMC3    C8 8573   3.008   0.772   0.580 -0.0061 -0.2962 -0.6404
  574TMC3    O1 8574   3.443   0.904   0.443 -0.3371  0.1147  0.1772
  574TMC3    O2 8575   2.928   0.699   0.639 -0.7998  0.0475  0.0434
  575TMC3    C1 8576   1.392   2.782  11.221 -0.6580 -0.1617  0.5131
  575TMC3    C2 8577   1.384   2.649  11.241  0.2520 -0.5092  0.1509
  575TMC3    C3 8578   1.402   2.564  11.125  0.0032 -0.3558 -0.3156
  575TMC3    C4 8579   1.405   2.838  11.095  0.3737 -0.7605 -0.3120
  575TMC3    C5 8580   1.427   2.751  10.986 -0.2537 -0.6185 -0.5023
  575TMC3    C6 8581   1.420   2.615  10.997 -0.2390  0.7452 -0.7040
  575TMC3     C 8582   1.333   2.867  11.322 -0.1825 -0.1212  0.2671
  575TMC3     O 8583   1.259   2.953  11.281 -0.0028  0.1338 -0.3289
  575TMC3     H 8584   1.361   2.606  11.338  0.1185  1.7568  1.1031
  575TMC3    H1 8585   1.389   2.942  11.069 -2.4990 -1.7830 -2.6524
  575TMC3    H2 8586   1.441   2.543  10.918 -0.9003 -0.4316  0.1975
  575TMC3    C7 8587   1.460   2.812  10.863 -0.4654  0.4811  0.3404
  575TMC3    C8 8588   1.383   2.426  11.140 -0.6541  0.7517 -0.4744
  575TMC3    O1 8589   1.519   2.920  10.865  0.1328  0.5422 -0.3831
  575TMC3    O2 8590   1.364   2.388  11.254 -0.4971 -0.0517  0.2218
  576MPD2     C 8591   1.618   3.328  12.299  0.7420 -0.5578 -0.0270
  576MPD2    C1 8592   1.540   3.433  12.330 -0.1643 -0.1136 -0.0371
  576MPD2    C2 8593   1.499   3.444  12.463  0.0457 -0.3398 -0.2228
  576MPD2    C3 8594   1.528   3.351  12.561  0.1191 -0.1794  0.2436
  576MPD2    C4 8595   1.598   3.234  12.521 -0.8336  0.7006 -0.1686
  576MPD2    C5 8596   1.647   3.231  12.393 -0.5158  0.1140 -0.2446
  576MPD2     H 8597   1.430   3.525  12.486  0.8827  0.3250 -0.0259
  576MPD2    H1 8598   1.623   3.153  12.588  1.9050  0.2946 -1.7111
  576MPD2    H2 8599   1.658   3.302  12.202  1.2367  0.6511 -0.1471
  576MPD2    H3 8600   1.720   3.152  12.378 -0.1089  0.8277 -1.9509
  576MPD2     N 8601   1.474   3.363  12.690  0.7254  0.1253  0.4595
  576MPD2    H5 8602   1.410   3.438  12.712  0.4081 -0.1166  0.3632
  576MPD2    N1 8603   1.485   3.520  12.231 -1.0140  0.2691 -0.5857
  576MPD2    H7 8604   1.433   3.600  12.267 -0.0282  1.2220 -1.2923
  577TMC3    C1 8605   1.450   3.610  12.009  0.0200 -0.1008 -0.2180
  577TMC3    C2 8606   1.449   3.588  11.874 -0.1892  0.4210  0.0633
  577TMC3    C3 8607   1.452   3.696  11.789  0.3423  0.3069 -0.4391
  577TMC3    C4 8608   1.446   3.743  12.053 -0.3758  0.3989  0.7784
  577TMC3    C5 8609   1.435   3.839  11.956 -1.5833  0.0178  0.1478
  577TMC3    C6 8610   1.444   3.824  11.818 -1.0093 -0.5388 -0.5240
  577TMC3     C 8611   1.494   3.497  12.095  0.2350  0.1058  0.5740
  577TMC3     O 8612   1.534   3.399  12.033  0.1629 -0.1647  0.2245
  577TMC3     H 8613   1.432   3.486  11.839 -3.5961  1.4566 -1.3063
  577TMC3    H1 8614   1.447   3.773  12.157  0.0655  1.4773  0.4721
  577TMC3    H2 8615   1.460   3.902  11.744  1.1921  0.6234  1.1727
  577TMC3    C7 8616   1.403   3.977  12.008 -0.0188 -0.0319  0.0576
  577TMC3    C8 8617   1.462   3.663  11.647  1.0982 -0.0541 -0.4854
  577TMC3    O1 8618   1.440   4.010  12.121  0.3864 -0.1690  0.3703
  577TMC3    O2 8619   1.403   3.564  11.617 -0.2031  0.0933  0.1828
  578MPD2     C 8620   3.526   3.555   1.180  0.4018  0.0075  0.6658
  578MPD2    C1 8621   3.512   3.503   1.047 -0.3304 -0.4573  0.8690
  578MPD2    C2 8622   3.625   3.498   0.970 -0.1043 -0.3156 -0.2334
  578MPD2    C3 8623   3.746   3.545   1.018 -0.3118 -0.2323  0.2387
  578MPD2    C4 8624   3.752   3.607   1.137 -0.1187 -0.7497  0.5385
  578MPD2    C5 8625   3.644   3.609   1.222 -0.8682  0.1080  0.5076
  578MPD2     H 8626   3.622   3.462   0.868 -0.1591 -0.9451 -0.0080
  578MPD2    H1 8627   3.845   3.640   1.180 -0.0502  1.3462 -1.2221
  578MPD2    H2 8628   3.448   3.561   1.255 -1.5359  2.0239 -1.4859
  578MPD2    H3 8629   3.665   3.634   1.325 -1.4138 -0.9126  0.8729
  578MPD2     N 8630   3.852   3.543   0.926  0.3716  0.4676  0.0223
  578MPD2    H5 8631   3.852   3.479   0.847 -0.4023 -1.8221  1.8674
  578MPD2    N1 8632   3.386   3.456   1.014  0.3353  0.2097  0.5449
  578MPD2    H7 8633   3.309   3.491   1.070  0.6431 -0.0105  1.1056
  579TMC3    C1 8634   4.059   3.577   0.831 -0.0987  0.0464  0.4985
  579TMC3    C2 8635   4.157   3.660   0.794 -0.6980  0.2263 -0.1433
  579TMC3    C3 8636   4.252   3.617   0.705  0.0286 -1.2440  0.0569
  579TMC3    C4 8637   4.068   3.445   0.797  0.3681 -0.0539 -0.2872
  579TMC3    C5 8638   4.164   3.401   0.706  0.0464 -0.2694  0.6004
  579TMC3    C6 8639   4.248   3.494   0.654 -0.2551  0.0852  0.7528
  579TMC3     C 8640   3.970   3.612   0.933  0.5973 -0.1690 -0.0114
  579TMC3     O 8641   3.994   3.713   0.997 -0.5221  0.0385  0.1334
  579TMC3     H 8642   4.174   3.753   0.847 -0.1409  0.6600 -1.0578
  579TMC3    H1 8643   4.001   3.376   0.847  0.5140  0.4859  0.6507
  579TMC3    H2 8644   4.324   3.456   0.587 -1.7877  3.7859 -3.1124
  579TMC3    C7 8645   4.186   3.261   0.678  0.0532  0.2262  0.6286
  579TMC3    C8 8646   4.348   3.723   0.672  0.8778  0.6515  0.8387
  579TMC3    O1 8647   4.296   3.217   0.651  0.6406  0.3336  1.0440
  579TMC3    O2 8648   4.339   3.833   0.718 -0.3712  0.2738 -0.0672
  580TMC3    C1 8649   3.642   3.094  11.461  0.6673  0.2719 -0.5010
  580TMC3    C2 8650   3.656   3.047  11.334 -0.3796 -0.6021  0.0060
  580TMC3    C3 8651   3.701   2.916  11.321 -0.0893 -0.1431 -0.5753
  580TMC3    C4 8652   3.647   3.013  11.574  0.5226  0.6168 -0.1977
  580TMC3    C5 8653   3.684   2.884  11.552 -0.0083 -0.4207 -0.5292
  580TMC3    C6 8654   3.702   2.828  11.429 -0.0648  0.5788  0.0593
  580TMC3     C 8655   3.594   3.224  11.478 -0.1866  0.3151  0.3698
  580TMC3     O 8656   3.594   3.310  11.382 -0.6918 -0.2883  0.1691
  580TMC3     H 8657   3.639   3.112  11.249  0.0233 -1.6938 -0.9206
  580TMC3    H1 8658   3.632   3.052  11.674  0.9666 -2.8716  1.2072
  580TMC3    H2 8659   3.751   2.734  11.407 -2.3626 -0.8791  1.2166
  580TMC3    C7 8660   3.729   2.815  11.675  0.1040 -1.0849  0.2959
  580TMC3    C8 8661   3.751   2.870  11.188 -0.2927 -0.0190 -0.4360
  580TMC3    O1 8662   3.699   2.867  11.781 -0.4956 -0.1950  0.2798
  580TMC3    O2 8663   3.748   2.748  11.172 -0.5435  0.1263 -0.0889
  581MPD2     C 8664   1.419   2.370  14.820  0.0633 -0.3855 -0.0328
  581MPD2    C1 8665   1.331   2.329  14.915 -0.3753 -0.4030 -0.7255
  581MPD2    C2 8666   1.203   2.390  14.918 -0.2799  0.2981  0.3827
  581MPD2    C3 8667   1.178   2.502  14.838 -0.5393  0.2563  0.0198
  581MPD2    C4 8668   1.282   2.549  14.755  0.0003 -1.0762 -0.9309
  581MPD2    C5 8669   1.397   2.484  14.741  0.4196 -0.3953 -0.1738
  581MPD2     H 8670   1.127   2.356  14.988 -2.8653  0.1622 -2.5006
  581MPD2    H1 8671   1.273   2.643  14.702 -0.9224 -1.2134 -1.0257
  581MPD2    H2 8672   1.517   2.324  14.812 -0.7064 -1.9209 -0.7583
  581MPD2    H3 8673   1.473   2.520  14.673  2.6406 -0.3971  2.3280
  581MPD2     N 8674   1.055   2.570  14.832 -1.0306 -0.0311  0.0191
  581MPD2    H5 8675   1.050   2.653  14.773  0.9024  0.6773  0.8543
  581MPD2    N1 8676   1.370   2.229  14.996  0.3114 -0.2905 -0.1697
  581MPD2    H7 8677   1.464   2.193  14.984  1.7981  2.9021  2.0184
  582TMC3    C1 8678   1.347   2.057  15.150 -0.5127  0.6198  0.5627
  582TMC3    C2 8679   1.429   2.101  15.253 -0.3496 -0.0898 -0.5493
  582TMC3    C3 8680   1.417   2.043  15.377 -0.2546  0.2686  0.0205
  582TMC3    C4 8681   1.267   1.945  15.162  0.4112 -0.0350 -0.6471
  582TMC3    C5 8682   1.249   1.897  15.288 -0.0206 -0.0609  0.3472
  582TMC3    C6 8683   1.324   1.941  15.399 -0.0621 -0.3329 -0.4955
  582TMC3     C 8684   1.287   2.169  15.085 -0.5869  0.2577 -0.1741
  582TMC3     O 8685   1.171   2.183  15.112  0.2156  0.6976 -0.3438
  582TMC3     H 8686   1.483   2.195  15.256  0.1503 -0.4152  0.8073
  582TMC3    H1 8687   1.199   1.908  15.086  0.0134 -0.5807 -0.0295
  582TMC3    H2 8688   1.303   1.905  15.499  0.8247  0.8103  0.1089
  582TMC3    C7 8689   1.108   1.885  15.325 -0.0366  0.2756  0.1504
  582TMC3    C8 8690   1.443   2.122  15.492 -0.3535 -0.0832 -0.6206
  582TMC3    O1 8691   1.072   1.802  15.409 -0.1322  0.3801  0.2406
  582TMC3    O2 8692   1.435   2.244  15.479  1.3033  0.0479  0.5847
  583MPD2     C 8693   1.594   3.986  16.619  0.4962  0.1755 -0.1073
  583MPD2    C1 8694   1.529   4.059  16.523  0.8116  0.0978 -0.6960
  583MPD2    C2 8695   1.450   4.167  16.565  0.4259  0.3495 -0.7108
  583MPD2    C3 8696   1.439   4.203  16.704 -0.4407 -0.4542  0.0228
  583MPD2    C4 8697   1.494   4.111  16.791  0.1882 -0.8772 -0.2090
  583MPD2    C5 8698   1.571   4.013  16.749  0.1517  1.7889 -0.0035
  583MPD2     H 8699   1.404   4.230  16.489 -1.4533  0.8905  0.8811
  583MPD2    H1 8700   1.482   4.117  16.898 -1.7475 -2.9588 -0.3063
  583MPD2    H2 8701   1.663   3.906  16.597 -0.3430 -0.5165 -0.2469
  583MPD2    H3 8702   1.615   3.942  16.818 -4.4481 -0.9864  0.0819
  583MPD2     N 8703   1.347   4.301  16.753  0.1503 -0.5256 -0.2787
  583MPD2    H5 8704   1.299   4.351  16.679  1.2638  0.2831 -0.4484
  583MPD2    N1 8705   1.559   4.048  16.392 -0.2636 -0.2556 -0.1277
  583MPD2    H7 8706   1.505   4.104  16.327 -0.7664 -0.7308 -0.1203
  584TMC3    C1 8707   1.239   4.450  16.914  0.0365  0.9155  0.3278
  584TMC3    C2 8708   1.237   4.553  16.822  0.3874 -0.6019  0.1456
  584TMC3    C3 8709   1.207   4.679  16.884  0.3702  0.1444  0.8386
  584TMC3    C4 8710   1.206   4.456  17.046 -0.0191 -0.6366 -0.0370
  584TMC3    C5 8711   1.170   4.576  17.097 -0.5725  0.5356  0.4658
  584TMC3    C6 8712   1.173   4.690  17.015 -0.2302 -0.3242 -0.3992
  584TMC3     C 8713   1.333   4.338  16.884  0.6957 -0.2019 -0.2445
  584TMC3     O 8714   1.391   4.294  16.983 -0.0625  0.0677 -0.4566
  584TMC3     H 8715   1.273   4.558  16.720  0.6549 -1.1854  0.2125
  584TMC3    H1 8716   1.201   4.364  17.102  2.1096 -0.6362  0.1773
  584TMC3    H2 8717   1.131   0.049  17.044 -3.7681 -1.2971 -2.2583
  584TMC3    C7 8718   1.153   4.578  17.236 -0.3402  0.1999  0.5009
  584TMC3    C8 8719   1.248   0.058  16.809 -0.2843  0.5843  0.3118
  584TMC3    O1 8720   1.133   4.476  17.297  0.2437 -0.2920  0.0546
  584TMC3    O2 8721   1.257   0.043  16.690 -0.1702  0.1019  0.7443
  585MPD2     C 8722   1.132   3.464   0.070  0.0035 -0.5041 -0.5530
  585MPD2    C1 8723   1.072   3.521  17.706 -0.1071 -0.5962 -0.0079
  585MPD2    C2 8724   0.955   3.472  17.667  0.0996 -0.4188 -0.0310
  585MPD2    C3 8725   0.894   3.366  17.732  0.0402 -0.4195  0.9201
  585MPD2    C4 8726   0.955   3.323   0.102 -0.7494  0.1261  0.3021
  585MPD2    C5 8727   1.074   3.363   0.146  0.6302  0.3888 -0.4918
  585MPD2     H 8728   0.911   3.514  17.577 -1.9160 -0.2089  1.0520
  585MPD2    H1 8729   0.904   3.248   0.162 -1.6741  0.3656 -0.2048
  585MPD2    H2 8730   1.218   3.514   0.113 -2.3264 -0.5915  4.1798
  585MPD2    H3 8731   1.109   3.318   0.238 -3.9415  0.1014  1.1011
  585MPD2     N 8732   0.766   3.316  17.697 -0.4939  0.1309  0.1416
  585MPD2    H5 8733   0.719   3.265   0.026  1.0154 -1.0090  0.2981
  585MPD2    N1 8734   1.134   3.621  17.622 -0.3210 -0.2925 -0.3169
  585MPD2    H7 8735   1.076   3.654  17.546  0.4189  0.7068 -0.4477
  586TMC3    C1 8736   0.620   3.221  17.542 -0.8545 -0.1158 -0.5141
  586TMC3    C2 8737   0.648   3.145  17.431  0.4603  0.0129  1.0282
  586TMC3    C3 8738   0.573   3.034  17.413  0.0287 -0.0560  0.1517
  586TMC3    C4 8739   0.525   3.185  17.637  0.1005  0.4698 -0.6078
  586TMC3    C5 8740   0.448   3.073  17.612  0.4821 -0.5928 -0.3906
  586TMC3    C6 8741   0.478   2.993  17.501 -0.7040  0.3155 -0.3880
  586TMC3     C 8742   0.710   3.329  17.568 -0.0934 -0.4240 -1.0125
  586TMC3     O 8743   0.747   3.388  17.466  0.2598  0.3478  0.1633
  586TMC3     H 8744   0.740   3.167  17.378  1.6475 -2.0625  2.2689
  586TMC3    H1 8745   0.516   3.245  17.726 -1.7221 -0.9104  0.1409
  586TMC3    H2 8746   0.419   2.906  17.475  0.6443 -0.6404 -0.2158
  586TMC3    C7 8747   0.360   3.013  17.708  0.5889 -0.0131 -0.0489
  586TMC3    C8 8748   0.646   2.925  17.359  0.0819  0.5893  0.5594
  586TMC3    O1 8749   0.321   2.901  17.687 -0.4943 -0.2753  0.3845
  586TMC3    O2 8750   0.630   2.824  17.425 -0.7857 -0.0094  0.3639
  587TMC3    C1 8751   2.712   1.611  16.526 -0.1584  0.2433 -1.0972
  587TMC3    C2 8752   2.731   1.632  16.661 -0.2526 -0.1319 -0.1554
  587TMC3    C3 8753   2.857   1.632  16.711 -0.0843 -0.1146 -0.0581
  587TMC3    C4 8754   2.813   1.602  16.433  0.3313  0.1814 -0.0544
  587TMC3    C5 8755   2.942   1.608  16.482 -0.1380  0.9694  0.7877
  587TMC3    C6 8756   2.960   1.626  16.614  0.2355 -0.0703 -0.1196
  587TMC3     C 8757   2.577   1.573  16.488 -0.0323 -0.3485  0.2004
  587TMC3     O 8758   2.503   1.539  16.582 -0.1572  0.0856 -0.0540
  587TMC3     H 8759   2.645   1.638  16.727 -0.3855  1.0976 -0.4327
  587TMC3    H1 8760   2.801   1.597  16.325 -0.0933 -2.2189  0.0935
  587TMC3    H2 8761   3.062   1.611  16.648  0.7352 -0.0637 -1.6098
  587TMC3    C7 8762   3.056   1.637  16.395 -0.5982 -0.1129  0.4597
  587TMC3    C8 8763   2.876   1.705  16.842  0.7747  0.2043 -0.4989
  587TMC3    O1 8764   3.167   1.635  16.440  0.0484  0.0114  0.0429
  587TMC3    O2 8765   2.970   1.674  16.914 -0.3227  0.2535 -0.0989
  588TMC3    C1 8766   0.986   0.336   9.996 -0.4700 -0.3872 -0.6450
  588TMC3    C2 8767   0.906   0.231   9.980  0.0414  0.0705 -0.1948
  588TMC3    C3 8768   0.934   0.113  10.041 -0.1125  0.6946 -0.5530
  588TMC3    C4 8769   1.101   0.326  10.073 -0.8127 -0.3188 -0.4545
  588TMC3    C5 8770   1.125   0.207  10.141 -0.5989  0.6229  0.1459
  588TMC3    C6 8771   1.040   0.104  10.130  0.8586 -0.7233  0.0699
  588TMC3     C 8772   0.933   0.467   9.942  0.1435  0.3120 -0.5626
  588TMC3     O 8773   0.826   0.474   9.887  0.0731 -0.1047 -0.7450
  588TMC3     H 8774   0.823   0.245   9.912  0.3655 -2.1548 -1.0470
  588TMC3    H1 8775   1.189   0.387  10.053  0.0009 -0.6233  2.2637
  588TMC3    H2 8776   1.062   0.012  10.183  1.4779 -1.3383 -1.2753
  588TMC3    C7 8777   1.207   0.224  10.260 -0.4505 -0.2864  0.1517
  588TMC3    C8 8778   0.847   0.001  10.014 -0.0072 -0.5936  0.0495
  588TMC3    O1 8779   1.216   0.128  10.332 -0.0879  0.1220 -0.5350
  588TMC3    O2 8780   0.744   0.022   9.949  0.1300  0.1378 -0.1114
  589TMC3    C1 8781   0.029   1.356   1.278 -0.2615  0.1339  0.4564
  589TMC3    C2 8782   0.131   1.344   1.368  0.5999 -0.5745 -0.4023
  589TMC3    C3 8783   0.199   1.226   1.374  0.0927 -0.3043 -0.1940
  589TMC3    C4 8784   4.721   1.250   1.201  0.2662  0.2658 -0.3313
  589TMC3    C5 8785   0.057   1.139   1.208 -0.3408 -0.3200  0.3095
  589TMC3    C6 8786   0.170   1.121   1.289  0.3597 -0.3278  0.0689
  589TMC3     C 8787   4.702   1.483   1.266 -0.5570  0.3991 -0.5703
  589TMC3     O 8788   4.589   1.478   1.231  0.5038 -0.2716 -0.3213
  589TMC3     H 8789   0.172   1.425   1.427  1.0770  0.8567 -2.6796
  589TMC3    H1 8790   4.629   1.255   1.145 -1.7177 -0.2120  2.8890
  589TMC3    H2 8791   0.209   1.023   1.315 -0.3529 -0.4422  0.7059
  589TMC3    C7 8792   4.734   1.014   1.153  0.2225 -0.3891  0.2713
  589TMC3    C8 8793   0.317   1.220   1.445  0.1556  0.4502  0.2888
  589TMC3    O1 8794   4.613   1.000   1.159 -0.0365  0.3505  0.3275
  589TMC3    O2 8795   0.326   1.302   1.536 -0.7945  0.3960  0.9886
  590MPD2     C 8796   3.770   0.268  16.551  0.1950  0.3653  0.5225
  590MPD2    C1 8797   3.709   0.380  16.496  0.0979 -0.3570  0.8035
  590MPD2    C2 8798   3.781   0.483  16.439  0.7590 -0.9555  0.4045
  590MPD2    C3 8799   3.922   0.478  16.444  0.2997  0.5478 -0.7168
  590MPD2    C4 8800   3.982   0.368  16.499 -0.2242  0.4570 -0.2367
  590MPD2    C5 8801   3.903   0.267  16.552 -0.5020  0.6329 -0.1448
  590MPD2     H 8802   3.737   0.576  16.405  0.9910 -1.0286 -0.0928
  590MPD2    H1 8803   4.090   0.359  16.493 -0.2576  1.1975 -2.1659
  590MPD2    H2 8804   3.716   0.191  16.606  0.8868 -1.3532 -1.2291
  590MPD2    H3 8805   3.951   0.197  16.619 -0.8222  1.3025  0.7932
  590MPD2     N 8806   3.998   0.586  16.385  0.1029 -0.0927 -0.2901
  590MPD2    H5 8807   3.943   0.662  16.348 -1.4725 -0.5288  1.1315
  590MPD2    N1 8808   3.572   0.376  16.492  0.0396  0.0626 -0.5860
  590MPD2    H7 8809   3.523   0.297  16.533  1.4325 -0.8336 -0.6432
  591TMC3    C1 8810   4.195   0.699  16.317  0.2754  0.5514  0.6343
  591TMC3    C2 8811   4.315   0.675  16.255  0.5398  0.2770 -0.2861
  591TMC3    C3 8812   4.370   0.779  16.190  0.0087 -0.0930 -0.3745
  591TMC3    C4 8813   4.137   0.823  16.328 -0.4913  0.2231 -0.3528
  591TMC3    C5 8814   4.199   0.927  16.264  0.0530  0.0845  0.3619
  591TMC3    C6 8815   4.320   0.908  16.195 -0.1290 -0.8504  0.1270
  591TMC3     C 8816   4.133   0.576  16.358 -0.0004 -0.1551 -0.6091
  591TMC3     O 8817   4.200   0.473  16.339 -0.6679 -0.0639  0.0291
  591TMC3     H 8818   4.353   0.574  16.244  1.1311  0.5145 -0.4296
  591TMC3    H1 8819   4.051   0.837  16.393 -1.3614 -1.4171 -1.1390
  591TMC3    H2 8820   4.356   0.976  16.118  0.3784 -1.9999 -0.6475
  591TMC3    C7 8821   4.153   1.066  16.273 -0.2173  0.0375 -0.6297
  591TMC3    C8 8822   4.429   0.725  16.066 -0.1115  0.1733  0.3323
  591TMC3    O1 8823   4.053   1.086  16.337  0.2360  0.2897 -0.0878
  591TMC3    O2 8824   4.388   0.615  16.031 -0.6593  0.0979  0.0395
  592MPD2     C 8825   4.618   2.849  11.829  0.3977 -0.1883 -0.0602
  592MPD2    C1 8826   4.506   2.847  11.903 -0.5938  0.2325 -0.5931
  592MPD2    C2 8827   4.470   2.731  11.969 -0.0057 -0.6770 -0.0282
  592MPD2    C3 8828   4.548   2.613  11.955 -0.4082  0.1463 -0.2555
  592MPD2    C4 8829   4.662   2.614  11.872 -0.0134  0.3629 -0.3254
  592MPD2    C5 8830   4.694   2.735  11.812 -0.2108 -0.2951  0.4048
  592MPD2     H 8831   4.383   2.727  12.034  0.2482  0.8165  0.4100
  592MPD2    H1 8832   4.735   2.535  11.859  0.6599  0.2786  3.9343
  592MPD2    H2 8833   4.655   2.941  11.786  0.8610 -0.2370  0.2268
  592MPD2    H3 8834   0.052   2.739  11.759 -0.4512 -0.7786 -0.0578
  592MPD2     N 8835   4.511   2.500  12.018  0.4907 -0.8090  0.0904
  592MPD2    H5 8836   4.423   2.503  12.069 -0.6560  1.4512 -2.0199
  592MPD2    N1 8837   4.450   2.973  11.919  0.4034  0.0188  1.0978
  592MPD2    H7 8838   4.486   3.053  11.867  0.7918  1.0888  3.0178
  593TMC3    C1 8839   4.304   3.140  12.007 -0.8678 -0.0087 -0.1782
  593TMC3    C2 8840   4.289   3.187  12.136  0.1844  0.4588  0.2177
  593TMC3    C3 8841   4.309   3.319  12.160  0.4490 -0.3022 -0.3212
  593TMC3    C4 8842   4.323   3.220  11.901 -0.3110 -0.1514 -0.0048
  593TMC3    C5 8843   4.319   3.355  11.925 -0.1348 -0.1006  0.0399
  593TMC3    C6 8844   4.318   3.411  12.057 -0.0616  0.7763 -0.1735
  593TMC3     C 8845   4.347   3.001  12.008 -1.1979  0.2618  0.6370
  593TMC3     O 8846   4.287   2.927  12.084  0.2905  0.3234 -0.5223
  593TMC3     H 8847   4.304   3.122  12.222  1.7368 -0.8224 -1.0322
  593TMC3    H1 8848   4.339   3.175  11.803 -0.0105 -1.4583  0.6509
  593TMC3    H2 8849   4.331   3.517  12.071  1.4808  0.7937 -1.7642
  593TMC3    C7 8850   4.405   3.431  11.834  0.4764  0.3795  0.5199
  593TMC3    C8 8851   4.350   3.349  12.291  0.0594  0.4206 -0.3065
  593TMC3    O1 8852   4.486   3.509  11.886  0.0265 -0.2065 -0.1741
  593TMC3    O2 8853   4.311   3.277  12.383  0.0779 -0.0131 -0.3982
  594MPD2     C 8854   3.516   1.091  15.048 -0.1105 -1.2704 -0.7118
  594MPD2    C1 8855   3.451   1.136  14.938 -0.6303  0.6469 -0.2349
  594MPD2    C2 8856   3.502   1.241  14.865  0.1831 -0.0905 -0.3162
  594MPD2    C3 8857   3.627   1.283  14.894 -0.0693  0.3712  0.0131
  594MPD2    C4 8858   3.699   1.229  15.001 -0.0988  0.1822 -0.1724
  594MPD2    C5 8859   3.641   1.136  15.078  0.3462 -0.9320  0.1769
  594MPD2     H 8860   3.455   1.285  14.777 -0.9926  0.4697  0.5931
  594MPD2    H1 8861   3.805   1.252  15.011  0.0835  0.0077 -1.7334
  594MPD2    H2 8862   3.491   1.002  15.105 -2.4056 -0.6380 -0.7339
  594MPD2    H3 8863   3.691   1.095  15.165  0.1069 -1.6692 -0.0411
  594MPD2     N 8864   3.680   1.377  14.805 -0.0912  0.2301  0.3966
  594MPD2    H5 8865   3.611   1.411  14.739  0.5056 -0.4162 -0.5505
  594MPD2    N1 8866   3.325   1.073  14.902  0.2238  0.3379  0.3050
  594MPD2    H7 8867   3.295   0.999  14.964 -0.5677  1.6198  1.4654
  595TMC3    C1 8868   3.972   1.700  14.641  0.1326  0.1857 -0.0188
  595TMC3    C2 8869   3.948   1.587  14.714 -0.8311 -0.0320 -0.3015
  595TMC3    C3 8870   3.821   1.555  14.736  0.7057 -0.3953  0.0062
  595TMC3    C4 8871   3.868   1.787  14.598  0.5579  0.3461  0.7052
  595TMC3    C5 8872   3.743   1.744  14.616  0.6002  0.3592  0.4716
  595TMC3    C6 8873   3.722   1.633  14.685  0.2085 -0.2060  0.6212
  595TMC3     C 8874   4.104   1.748  14.634  0.4935 -0.3415 -0.4221
  595TMC3     O 8875   4.169   1.756  14.739 -0.5685  0.0776  0.6617
  595TMC3     H 8876   4.034   1.546  14.766 -1.5885  0.4099  1.2880
  595TMC3    H1 8877   3.887   1.880  14.545 -0.5675 -0.5198 -1.2128
  595TMC3    H2 8878   3.617   1.613  14.705  0.2084  0.1352  0.9658
  595TMC3    C7 8879   3.631   1.827  14.585  0.6183  0.0824  0.3909
  595TMC3    C8 8880   3.803   1.435  14.812  0.5562  0.0078 -0.2814
  595TMC3    O1 8881   3.526   1.777  14.550  0.0081  0.3986 -0.6141
  595TMC3    O2 8882   3.895   1.411  14.883  0.4370  0.7454  0.2925
  596MPD2     C 8883   2.303   4.020  16.576  0.0792 -0.5035  0.5322
  596MPD2    C1 8884   2.244   4.116  16.491 -0.1024  0.2106 -0.2390
  596MPD2    C2 8885   2.252   4.100  16.354  0.7712  0.2948 -0.7946
  596MPD2    C3 8886   2.316   3.987  16.303 -0.0094  0.0492  0.2895
  596MPD2    C4 8887   2.364   3.886  16.388  0.4270  0.2020  0.5188
  596MPD2    C5 8888   2.362   3.912  16.522 -0.7606 -0.0868  0.1045
  596MPD2     H 8889   2.201   4.171  16.291  0.1803  0.9264  0.3888
  596MPD2    H1 8890   2.411   3.801  16.339 -3.3515 -1.2136 -0.6077
  596MPD2    H2 8891   2.299   4.029  16.684  0.3113 -1.3182  0.6051
  596MPD2    H3 8892   2.415   3.844  16.588 -0.2255 -0.5774 -0.8418
  596MPD2     N 8893   2.340   3.962  16.164 -0.0162  0.0844  0.3187
  596MPD2    H5 8894   2.379   3.871  16.142 -0.6818  0.0770 -0.8738
  596MPD2    N1 8895   2.190   4.233  16.541 -0.6484 -0.1789 -0.1940
  596MPD2    H7 8896   2.170   4.307  16.474 -2.3424 -1.7503 -1.4025
  597TMC3    C1 8897   2.124   4.405  16.675  0.1162 -0.4841  0.0978
  597TMC3    C2 8898   2.146   4.490  16.569  0.6306  0.5683  0.3098
  597TMC3    C3 8899   2.082   4.608  16.573  0.9094  0.2877  0.3885
  597TMC3    C4 8900   2.036   4.434  16.775  0.8140 -0.1839 -0.6463
  597TMC3    C5 8901   1.969   4.555  16.772  0.2198  0.0598 -0.1977
  597TMC3    C6 8902   1.995   4.645  16.670 -0.2238  0.1483 -0.3506
  597TMC3     C 8903   2.177   4.270  16.668 -0.0979 -0.0367  0.2574
  597TMC3     O 8904   2.171   4.205  16.770  0.2419 -0.2523  0.4038
  597TMC3     H 8905   2.219   4.465  16.493  1.8184  1.5511  1.1237
  597TMC3    H1 8906   2.019   4.363  16.856 -2.3153  0.9192 -0.3427
  597TMC3    H2 8907   1.944   0.003  16.664  0.4646  0.6661  1.9934
  597TMC3    C7 8908   1.904   4.598  16.894 -0.3739  1.2662  1.0061
  597TMC3    C8 8909   2.127   4.714  16.483  0.4515  0.1545  0.0194
  597TMC3    O1 8910   1.871   4.511  16.975  0.0077 -0.3588 -0.3344
  597TMC3    O2 8911   2.060   0.083  16.485 -0.1967  0.2503  0.2767
  598TMC3    C1 8912   0.412   0.845  15.204 -0.1520  0.4455 -0.0257
  598TMC3    C2 8913   0.296   0.783  15.186  0.5745 -0.1495 -0.0389
  598TMC3    C3 8914   0.190   0.863  15.161 -0.4618  0.1178  0.2534
  598TMC3    C4 8915   0.434   0.976  15.192 -0.4463 -1.1644  0.5338
  598TMC3    C5 8916   0.325   1.053  15.150 -0.2502  0.6677 -0.3467
  598TMC3    C6 8917   0.204   0.997  15.147  0.2669  0.6281  0.2700
  598TMC3     C 8918   0.514   0.774  15.276 -0.0086  0.1837 -0.5443
  598TMC3     O 8919   0.632   0.803  15.255  0.3030  0.5111  0.2766
  598TMC3     H 8920   0.290   0.675  15.187 -0.5007 -0.0749  1.2455
  598TMC3    H1 8921   0.536   1.014  15.199 -0.6823 -0.8354  2.2803
  598TMC3    H2 8922   0.116   1.056  15.123  1.2059  1.9719  0.1630
  598TMC3    C7 8923   0.344   1.133  15.036 -0.2198  0.0366 -0.0018
  598TMC3    C8 8924   0.081   0.795  15.090  0.0508  0.0624  0.8716
  598TMC3    O1 8925   0.283   1.103  14.933 -0.1045  0.3372  0.4485
  598TMC3    O2 8926   0.031   0.689  15.123 -0.3268  0.4796  0.1667
  599MPD2     C 8927   0.348   3.219  15.828 -0.3929  0.2473  0.7013
  599MPD2    C1 8928   0.386   3.182  15.955 -0.2252  0.1517  0.6323
  599MPD2    C2 8929   0.309   3.224  16.056  0.4158 -0.1532 -0.0911
  599MPD2    C3 8930   0.196   3.299  16.032 -0.6154 -0.9497  0.6853
  599MPD2    C4 8931   0.154   3.337  15.904 -0.1548  0.0366 -0.0534
  599MPD2    C5 8932   0.228   3.292  15.804  0.8859  0.2023 -0.4479
  599MPD2     H 8933   0.332   3.203  16.160  1.8223  0.8767 -0.1867
  599MPD2    H1 8934   0.072   3.404  15.884 -0.3318 -0.1957 -0.1077
  599MPD2    H2 8935   0.403   3.205  15.735  1.5403  3.1678  1.3878
  599MPD2    H3 8936   0.208   3.324  15.702 -2.2973  1.5676  0.6283
  599MPD2     N 8937   0.123   3.369  16.133 -0.2670 -0.2155  0.0305
  599MPD2    H5 8938   0.043   3.428  16.111 -0.1573  0.5042  1.5243
  599MPD2    N1 8939   0.486   3.088  15.969  0.2384 -0.8251 -0.1073
  599MPD2    H7 8940   0.517   3.050  15.880  1.3691  0.1776 -0.1424
  600TMC3    C1 8941   0.077   3.434  16.364  0.0852 -0.6908  0.4062
  600TMC3    C2 8942   0.045   3.387  16.495  0.0391 -0.2982 -0.0725
  600TMC3    C3 8943   0.014   3.493  16.581  0.5821 -0.1617 -0.4491
  600TMC3    C4 8944   0.094   3.568  16.338 -0.0465 -0.4276  0.0994
  600TMC3    C5 8945   0.071   3.667  16.431  0.0133  0.4027 -0.4330
  600TMC3    C6 8946   0.036   3.628  16.556 -0.6867  0.0732 -0.7078
  600TMC3     C 8947   0.126   3.334  16.268 -0.2525 -0.1352  0.2113
  600TMC3     O 8948   0.149   3.226  16.319 -0.0366 -0.1051  0.5009
  600TMC3     H 8949   0.041   3.282  16.520  2.7128  0.2147  2.4084
  600TMC3    H1 8950   0.120   3.603  16.239 -1.1905  0.9240  0.2760
  600TMC3    H2 8951   0.024   3.692  16.642 -1.0674  1.1124 -1.5359
  600TMC3    C7 8952   0.076   3.806  16.406  0.6491  0.1439 -0.1209
  600TMC3    C8 8953   4.683   3.451  16.699 -0.3137  0.0135  0.0580
  600TMC3    O1 8954   0.029   3.873  16.497  0.1164  0.8926 -0.2454
  600TMC3    O2 8955   4.697   3.525  16.797 -0.4264 -0.0627 -0.2981
  601MPD2     C 8956   2.115   1.649   0.285 -0.3344 -0.2952 -0.4103
  601MPD2    C1 8957   2.092   1.548   0.198  0.3636  0.0650 -0.6482
  601MPD2    C2 8958   2.093   1.419   0.250 -1.0896  0.5215  0.1069
  601MPD2    C3 8959   2.139   1.397   0.384  0.3218  0.0321 -0.8721
  601MPD2    C4 8960   2.166   1.505   0.463  0.5468 -0.2270 -0.9557
  601MPD2    C5 8961   2.158   1.627   0.410 -0.6096 -0.0054  0.2351
  601MPD2     H 8962   2.058   1.337   0.189 -1.4479  1.1308 -0.5115
  601MPD2    H1 8963   2.188   1.494   0.569  1.0163 -2.9556 -1.3331
  601MPD2    H2 8964   2.104   1.751   0.253  0.2733 -0.1399 -0.1310
  601MPD2    H3 8965   2.185   1.714   0.468 -1.5110 -1.6861  3.1885
  601MPD2     N 8966   2.128   1.273   0.458 -0.1386  0.3556 -0.0027
  601MPD2    H5 8967   2.158   1.280   0.554  1.1921 -4.5767 -0.0824
  601MPD2    N1 8968   2.044   1.559   0.063  0.1341  0.6537  0.1289
  601MPD2    H7 8969   2.021   1.472   0.016  1.9365  1.7034 -2.7384
  602TMC3    C1 8970   1.989   1.674  17.605  0.0733 -0.3775 -0.2177
  602TMC3    C2 8971   1.939   1.783  17.552  0.2027  0.0461 -0.0009
  602TMC3    C3 8972   1.932   1.802  17.417 -0.4147  0.2554  0.2142
  602TMC3    C4 8973   2.021   1.570  17.520  0.2963 -0.9575 -0.6541
  602TMC3    C5 8974   2.015   1.588  17.388  0.3818 -0.7971  0.1484
  602TMC3    C6 8975   1.975   1.705  17.330  1.1285  0.1331  0.0497
  602TMC3     C 8976   2.030   1.677  17.741  0.3560  0.2274 -0.7861
  602TMC3     O 8977   2.049   1.793   0.034  0.2462  0.0128  0.6810
  602TMC3     H 8978   1.889   1.854  17.617 -0.2181 -1.7096  1.5953
  602TMC3    H1 8979   2.059   1.476  17.558  1.8393 -0.4700 -1.0049
  602TMC3    H2 8980   1.945   1.705  17.225 -1.4504  0.7500  0.8037
  602TMC3    C7 8981   2.081   1.487  17.309 -0.9083 -0.3201  0.4331
  602TMC3    C8 8982   1.915   1.935  17.368  0.6528  0.0356 -0.8347
  602TMC3    O1 8983   2.093   1.373  17.351  0.3927 -0.1772 -0.0425
  602TMC3    O2 8984   1.835   2.014  17.421 -0.2804 -0.2949  0.5306
  603TMC3    C1 8985   1.035   2.141  11.296  0.6825 -0.8237  0.0528
  603TMC3    C2 8986   1.040   2.162  11.432 -0.7144 -0.2224 -0.2874
  603TMC3    C3 8987   1.048   2.286  11.478  0.8939 -0.4884  0.0097
  603TMC3    C4 8988   1.029   2.248  11.205  0.4579 -0.4159 -0.3046
  603TMC3    C5 8989   1.035   2.372  11.256 -0.2321 -0.9272 -0.2582
  603TMC3    C6 8990   1.036   2.394  11.394  0.6431 -0.0144  0.3059
  603TMC3     C 8991   0.985   2.014  11.258  0.2248 -0.3384 -0.2655
  603TMC3     O 8992   1.026   1.918  11.320 -0.2301 -0.2047 -0.0132
  603TMC3     H 8993   1.050   2.084  11.506 -1.7225  0.6307  0.7483
  603TMC3    H1 8994   1.042   2.228  11.099 -0.0062  0.2809 -0.4945
  603TMC3    H2 8995   1.065   2.494  11.422 -0.1982  0.2825  0.1100
  603TMC3    C7 8996   1.005   2.471  11.158 -0.4602  0.4730 -0.0810
  603TMC3    C8 8997   1.079   2.305  11.622 -0.3233 -0.0300 -0.8313
  603TMC3    O1 8998   1.023   2.444  11.039 -0.0491  0.6001  0.1659
  603TMC3    O2 8999   1.114   2.205  11.685  0.4909  0.3730  0.4452
  604MPD2     C 9000   1.412   0.837  16.029 -0.2205 -0.5462 -0.0047
  604MPD2    C1 9001   1.331   0.730  16.026  0.1755  0.2250 -0.3670
  604MPD2    C2 9002   1.338   0.634  15.921 -0.2116  0.0672 -0.3049
  604MPD2    C3 9003   1.429   0.664  15.817 -0.6851  0.2238 -0.2961
  604MPD2    C4 9004   1.493   0.785  15.818  1.0762 -0.2539 -0.1640
  604MPD2    C5 9005   1.491   0.872  15.925 -0.2175 -0.1657 -0.5353
  604MPD2     H 9006   1.276   0.545  15.920  1.1212 -0.8451 -0.8682
  604MPD2    H1 9007   1.562   0.800  15.735  1.5961  0.0064  0.3137
  604MPD2    H2 9008   1.406   0.909  16.109  2.1277 -1.5638  1.0759
  604MPD2    H3 9009   1.538   0.969  15.919 -1.5652  0.4553 -1.1220
  604MPD2     N 9010   1.466   0.567  15.718 -0.0300  0.1407  0.3537
  604MPD2    H5 9011   1.557   0.589  15.681  0.4466 -0.3888  1.2062
  604MPD2    N1 9012   1.246   0.712  16.128  0.0701  0.0230  0.6499
  604MPD2    H7 9013   1.262   0.778  16.204  2.8588 -0.6096  0.6104
  605TMC3    C1 9014   1.057   0.666  16.240  0.8781 -0.3792  0.0937
  605TMC3    C2 9015   1.128   0.689  16.351  0.1774 -0.6135  0.1675
  605TMC3    C3 9016   1.087   0.788  16.440 -0.0366 -0.6809  0.0911
  605TMC3    C4 9017   0.933   0.712  16.232 -0.1968  0.3217  0.4164
  605TMC3    C5 9018   0.891   0.807  16.325  0.1854  0.7907 -0.0517
  605TMC3    C6 9019   0.971   0.853  16.422  0.0927  0.0221 -0.5837
  605TMC3     C 9020   1.126   0.661  16.118 -0.3757 -0.2516 -0.6596
  605TMC3     O 9021   1.064   0.624  16.018  0.0602 -1.0847 -0.0659
  605TMC3     H 9022   1.227   0.644  16.357  2.1046  3.5310 -0.1374
  605TMC3    H1 9023   0.877   0.689  16.142 -0.2816 -0.4109  0.6515
  605TMC3    H2 9024   0.947   0.940  16.482 -0.2473 -1.7268  1.8120
  605TMC3    C7 9025   0.783   0.895  16.294 -0.1531  0.7067  0.3699
  605TMC3    C8 9026   1.177   0.830  16.542  0.7516 -0.1210 -0.4770
  605TMC3    O1 9027   0.729   0.966  16.377 -0.5337 -0.4093 -0.2317
  605TMC3    O2 9028   1.286   0.776  16.548 -0.0090 -0.0352 -0.3079
  606TMC3    C1 9029   2.163   4.286  17.200 -0.9645 -0.3109  0.2900
  606TMC3    C2 9030   2.142   4.268  17.340 -0.1112 -0.4482  0.3595
  606TMC3    C3 9031   2.146   4.143  17.392 -0.2676 -0.3920  0.2964
  606TMC3    C4 9032   2.175   4.185  17.111 -0.0883  0.3322 -0.1343
  606TMC3    C5 9033   2.168   4.060  17.174  0.0027 -0.0860  0.7348
  606TMC3    C6 9034   2.169   4.038  17.309 -0.2751 -0.1506  0.2165
  606TMC3     C 9035   2.195   4.413  17.148  0.1998 -0.2844  0.3659
  606TMC3     O 9036   2.163   4.515  17.209 -0.0466 -0.1035  0.1340
  606TMC3     H 9037   2.129   4.355  17.403 -1.3539 -1.5245  1.5580
  606TMC3    H1 9038   2.180   4.188  17.003 -1.1480  0.2294 -0.1866
  606TMC3    H2 9039   2.164   3.936  17.346  0.7582  0.1077  1.0601
  606TMC3    C7 9040   2.202   3.944  17.094  0.3490 -0.3769 -0.5993
  606TMC3    C8 9041   2.165   4.129  17.537  0.4012  0.2593  0.1317
  606TMC3    O1 9042   2.275   3.974  17.001  0.1757 -0.0835 -0.2648
  606TMC3    O2 9043   2.157   4.234  17.602 -0.1296 -0.0072 -0.6091
  607MPD2     C 9044   0.179   1.922  11.751  0.8311 -0.1661  0.0766
  607MPD2    C1 9045   0.122   2.024  11.823 -0.5187 -0.4751  0.0089
  607MPD2    C2 9046   0.044   1.989  11.929  0.1458  0.0930  0.2530
  607MPD2    C3 9047   0.034   1.854  11.973 -0.2126  0.0140  0.5436
  607MPD2    C4 9048   0.099   1.753  11.903 -0.3553 -0.4125 -0.3444
  607MPD2    C5 9049   0.168   1.793  11.790 -0.3161  0.7527  0.0107
  607MPD2     H 9050   0.004   2.067  11.993  0.9101  0.2970  0.4866
  607MPD2    H1 9051   0.113   1.653  11.943  1.3382  0.2128  0.6373
  607MPD2    H2 9052   0.244   1.942  11.666 -1.0807  0.8724 -1.1473
  607MPD2    H3 9053   0.222   1.712  11.743  0.2898 -0.2579  2.4536
  607MPD2     N 9054   4.712   1.835  12.102  0.2607 -0.3845 -0.3257
  607MPD2    H5 9055   4.672   1.920  12.140 -1.1554 -2.1248  2.0172
  607MPD2    N1 9056   0.142   2.163  11.800  0.3472 -0.2888 -0.4547
  607MPD2    H7 9057   0.089   2.218  11.867  1.4486 -1.0029  1.0073
  608TMC3    C1 9058   0.259   2.361  11.761  0.1661  0.4955  0.1520
  608TMC3    C2 9059   0.252   2.388  11.897  0.0609  0.8790  0.8262
  608TMC3    C3 9060   0.273   2.518  11.936  0.4462 -0.0740  0.0827
  608TMC3    C4 9061   0.297   2.459  11.671  0.1206 -0.0952  0.0439
  608TMC3    C5 9062   0.317   2.584  11.715 -0.4392 -0.0901  0.5693
  608TMC3    C6 9063   0.309   2.618  11.850  0.0198  0.0013  1.2251
  608TMC3     C 9064   0.232   2.219  11.717 -0.3950  0.7552  0.1209
  608TMC3     O 9065   0.290   2.167  11.620 -0.5764 -0.5639 -0.0054
  608TMC3     H 9066   0.233   2.309  11.970 -0.9127 -1.1420 -1.6209
  608TMC3    H1 9067   0.310   2.431  11.567 -0.9697 -1.7125  0.3322
  608TMC3    H2 9068   0.323   2.719  11.886  0.0271  0.3991  0.1088
  608TMC3    C7 9069   0.359   2.685  11.613  0.4480  0.6944 -0.1005
  608TMC3    C8 9070   0.214   2.560  12.064 -0.0390 -0.5469 -0.1795
  608TMC3    O1 9071   0.348   2.657  11.498  0.0071 -0.3998 -0.6505
  608TMC3    O2 9072   0.201   2.676  12.086 -0.4426 -0.0297  0.0838
  609TMC3    C1 9073   3.067   2.003   8.907 -0.2012  0.1760 -0.4589
  609TMC3    C2 9074   3.084   2.130   8.862  0.3192 -0.4572 -0.7386
  609TMC3    C3 9075   3.195   2.152   8.788 -0.1009 -0.5697  0.0777
  609TMC3    C4 9076   3.157   1.904   8.892  0.5721  0.1934  0.5172
  609TMC3    C5 9077   3.271   1.932   8.826 -0.2919  0.1251  0.0937
  609TMC3    C6 9078   3.286   2.053   8.767  0.3218  0.6006  0.0128
  609TMC3     C 9079   2.965   1.979   9.019 -0.0625  0.1973  0.1773
  609TMC3     O 9080   2.990   1.883   9.085 -0.1412 -0.2477  0.3743
  609TMC3     H 9081   3.003   2.201   8.851  0.6537  0.2544  1.3493
  609TMC3    H1 9082   3.160   1.816   8.956  0.0113 -0.3052 -0.1426
  609TMC3    H2 9083   3.366   2.069   8.696  1.0092  1.1150  0.9015
  609TMC3    C7 9084   3.393   1.883   8.895  0.2909  0.2998  1.4512
  609TMC3    C8 9085   3.197   2.266   8.686  1.0399  0.4733 -0.1103
  609TMC3    O1 9086   3.386   1.888   9.016  0.0417  0.2563 -0.7382
  609TMC3    O2 9087   3.283   2.262   8.600 -0.1174  0.4640  0.2150
  610TMC3    C1 9088   4.349   2.125  13.098 -0.5637  0.6114 -0.1183
  610TMC3    C2 9089   4.429   2.231  13.134 -0.1657 -0.6263  0.4859
  610TMC3    C3 9090   4.557   2.228  13.088 -0.3781 -0.4198 -0.7961
  610TMC3    C4 9091   4.396   2.018  13.029  0.2708 -0.2466 -0.5127
  610TMC3    C5 9092   4.523   2.020  12.977  0.1207  0.1104 -0.6157
  610TMC3    C6 9093   4.606   2.125  13.004 -0.6721  0.3798 -0.2381
  610TMC3     C 9094   4.223   2.106  13.164 -0.2782 -0.3331 -0.3764
  610TMC3     O 9095   4.167   1.993  13.156 -0.1241  0.5382  0.2515
  610TMC3     H 9096   4.408   2.291  13.222 -1.0401  1.9703 -1.4754
  610TMC3    H1 9097   4.337   1.927  13.018 -1.2045  0.6397  0.0710
  610TMC3    H2 9098   4.697   2.131  12.946 -0.5626 -0.2226 -0.1283
  610TMC3    C7 9099   4.575   1.911  12.899 -0.3751 -0.5923 -0.6469
  610TMC3    C8 9100   4.661   2.319  13.130  0.3373  0.1936  0.2172
  610TMC3    O1 9101   4.697   1.901  12.903 -0.2425 -0.0438  0.2184
  610TMC3    O2 9102   4.636   2.430  13.177 -0.5541  0.0139  0.0695
  611MPD2     C 9103   4.481   2.619  10.730  0.0150 -0.4808 -0.0168
  611MPD2    C1 9104   4.521   2.614  10.600  0.4901 -0.5911  0.8652
  611MPD2    C2 9105   4.651   2.644  10.570  0.6761  0.0402  0.0451
  611MPD2    C3 9106   0.010   2.664  10.671  0.3296 -0.3693 -0.0345
  611MPD2    C4 9107   4.702   2.661  10.797  0.8857  0.1829 -0.2959
  611MPD2    C5 9108   4.571   2.646  10.828 -0.4665 -0.2212 -0.3181
  611MPD2     H 9109   4.685   2.645  10.467 -1.7461  1.5425 -0.7561
  611MPD2    H1 9110   0.030   2.686  10.880  0.7665 -0.1065 -0.1156
  611MPD2    H2 9111   4.377   2.614  10.757 -0.0302 -1.6326 -0.4130
  611MPD2    H3 9112   4.539   2.657  10.931  1.4667  2.1542  0.0084
  611MPD2     N 9113   0.149   2.700  10.648  0.3621  0.3483 -0.4605
  611MPD2    H5 9114   0.205   2.697  10.733  2.4605  0.8146 -1.8288
  611MPD2    N1 9115   4.419   2.584  10.500  0.7213  0.1511 -0.3459
  611MPD2    H7 9116   4.323   2.577  10.534  1.8308  0.3600  2.8563
  612TMC3    C1 9117   0.361   2.719  10.539  0.0443 -0.3884  0.7535
  612TMC3    C2 9118   0.413   2.796  10.640 -0.0721  0.1078 -1.2547
  612TMC3    C3 9119   0.550   2.769  10.658  0.2687  0.4880 -0.2694
  612TMC3    C4 9120   0.431   2.654  10.442  0.8043 -0.0250  0.0435
  612TMC3    C5 9121   0.563   2.633  10.467 -0.0322 -0.1973 -0.5917
  612TMC3    C6 9122   0.622   2.687  10.574 -0.2657  0.2783  0.2804
  612TMC3     C 9123   0.215   2.703  10.530  0.1295 -0.1415 -0.0662
  612TMC3     O 9124   0.167   2.687  10.421  0.6897  0.1241  0.6885
  612TMC3     H 9125   0.357   2.856  10.711 -0.9099 -2.8119  0.5245
  612TMC3    H1 9126   0.384   2.625  10.348 -0.8251 -0.9169  1.1225
  612TMC3    H2 9127   0.730   2.697  10.580 -0.1877  1.0648 -2.1260
  612TMC3    C7 9128   0.649   2.562  10.372 -0.1877 -0.8762  0.0540
  612TMC3    C8 9129   0.613   2.837  10.765  0.0123 -0.3387  0.2307
  612TMC3    O1 9130   0.770   2.552  10.405  0.1175 -0.7733  0.0063
  612TMC3    O2 9131   0.567   2.941  10.799 -0.8068  0.2564  0.0040
  613MPD2     C 9132   3.902   4.135  16.930 -0.4126 -0.3083  0.3247
  613MPD2    C1 9133   3.800   4.202  16.856  0.9459  0.8383  0.0931
  613MPD2    C2 9134   3.688   4.132  16.805  0.9559 -0.1282 -1.1144
  613MPD2    C3 9135   3.682   3.989  16.820  0.6829  1.2425 -0.0911
  613MPD2    C4 9136   3.786   3.929  16.889 -0.4542  0.1473  0.2646
  613MPD2    C5 9137   3.896   3.997  16.937 -0.5998 -0.5206  0.6081
  613MPD2     H 9138   3.613   4.188  16.750 -0.0140  1.0874  1.4353
  613MPD2    H1 9139   3.790   3.821  16.904 -0.6640 -0.3274 -3.0479
  613MPD2    H2 9140   3.996   4.179  16.964  0.5424 -1.4787 -0.7943
  613MPD2    H3 9141   3.980   3.958  16.994  1.4693  2.2354 -0.5866
  613MPD2     N 9142   3.589   3.905  16.754 -0.5327 -0.0087 -0.1123
  613MPD2    H5 9143   3.592   3.806  16.777 -0.8422  0.3528  1.4710
  613MPD2    N1 9144   3.834   4.340  16.837  0.0568  0.0654 -0.0176
  613MPD2    H7 9145   3.903   4.388  16.894  0.8842 -2.1867  0.8713
  614TMC3    C1 9146   3.707   4.373  16.633 -0.7366  0.4905  0.2617
  614TMC3    C2 9147   3.759   4.272  16.562 -0.4380  0.6716 -0.3221
  614TMC3    C3 9148   3.702   4.251  16.437  0.3490 -0.4364  0.5070
  614TMC3    C4 9149   3.605   4.448  16.586 -0.3111 -0.3005  0.4178
  614TMC3    C5 9150   3.555   4.424  16.462 -0.3504  0.0699  0.1523
  614TMC3    C6 9151   3.592   4.313  16.392 -0.3882  0.5170 -0.3592
  614TMC3     C 9152   3.773   4.427  16.747  0.1247 -0.5472 -0.3348
  614TMC3     O 9153   3.766   4.551  16.757 -0.1017  0.0861  0.4306
  614TMC3     H 9154   3.839   4.207  16.596 -1.1169  0.0852  0.1339
  614TMC3    H1 9155   3.579   4.543  16.631  0.2471 -0.8252  1.8592
  614TMC3    H2 9156   3.551   4.286  16.296 -1.3937  2.4383 -0.4665
  614TMC3    C7 9157   3.481   4.533  16.401  0.3299  0.5513  1.1138
  614TMC3    C8 9158   3.718   4.114  16.392 -0.5323  0.2595 -0.2612
  614TMC3    O1 9159   3.444   4.628  16.469  0.0055  0.3497  0.4356
  614TMC3    O2 9160   3.752   4.026  16.473 -0.2770  0.7511  0.0798
  615MPD2     C 9161   3.477   0.777  16.608  0.3054  0.4348 -0.2325
  615MPD2    C1 9162   3.364   0.822  16.665 -0.4684 -0.2716 -0.5157
  615MPD2    C2 9163   3.261   0.867  16.588 -0.0643  0.8428 -0.1052
  615MPD2    C3 9164   3.271   0.875  16.452  0.0948  0.0359  0.0594
  615MPD2    C4 9165   3.390   0.833  16.395 -0.0613 -0.4522 -0.2375
  615MPD2    C5 9166   3.489   0.778  16.472  0.5781 -0.7396  0.1883
  615MPD2     H 9167   3.176   0.911  16.639 -0.0722 -1.5134  1.9025
  615MPD2    H1 9168   3.397   0.839  16.287  0.5526 -0.0549 -0.1784
  615MPD2    H2 9169   3.562   0.746  16.668  2.0986  0.6791 -2.6500
  615MPD2    H3 9170   3.572   0.728  16.424  0.5676  2.5560 -3.2957
  615MPD2     N 9171   3.175   0.930  16.364 -0.3576 -0.1069 -0.0717
  615MPD2    H5 9172   3.199   0.937  16.265  0.1974 -1.1892 -0.0142
  615MPD2    N1 9173   3.340   0.829  16.806 -0.3533 -0.1464 -0.7232
  615MPD2    H7 9174   3.266   0.892  16.837  0.7499  0.1296  1.3125
  616TMC3    C1 9175   3.409   0.850  17.027  0.6575 -0.2032 -0.3286
  616TMC3    C2 9176   3.416   0.993  17.020  0.6378 -0.1509 -0.8953
  616TMC3    C3 9177   3.421   1.056  17.142 -0.1406 -0.6806 -0.2296
  616TMC3    C4 9178   3.404   0.786  17.147  0.2773 -0.1907  0.6645
  616TMC3    C5 9179   3.406   0.855  17.265  0.2911 -0.1999  0.0585
  616TMC3    C6 9180   3.403   0.990  17.261 -0.4699 -0.3505 -0.1441
  616TMC3     C 9181   3.421   0.778  16.904 -0.2053 -0.1237 -0.1812
  616TMC3     O 9182   3.503   0.685  16.894 -0.3545  0.4404 -0.2843
  616TMC3     H 9183   3.424   1.042  16.924  0.2007  0.8404 -0.4321
  616TMC3    H1 9184   3.398   0.679  17.138  0.9945 -0.1035 -0.7290
  616TMC3    H2 9185   3.398   1.048  17.353 -1.8377  0.6399 -0.8362
  616TMC3    C7 9186   3.356   0.794  17.385 -0.4234  0.1117 -0.5825
  616TMC3    C8 9187   3.473   1.192  17.145  0.8445  0.4725 -0.0542
  616TMC3    O1 9188   3.382   0.677  17.412  0.0281 -0.6341 -0.3057
  616TMC3    O2 9189   3.476   1.254  17.253 -0.3697 -0.5921 -0.4713
  617MPD2     C 9190   1.106   3.845  13.690 -0.3315 -0.7825  0.0089
  617MPD2    C1 9191   1.150   3.791  13.810 -0.2990  0.3911  0.5965
  617MPD2    C2 9192   1.056   3.755  13.904 -0.1425 -0.5497  0.0333
  617MPD2    C3 9193   0.920   3.804  13.897 -0.0853  0.2771 -0.1604
  617MPD2    C4 9194   0.881   3.866  13.778  0.1235 -0.0814  0.5076
  617MPD2    C5 9195   0.978   3.897  13.681  0.5321  0.1404  0.4803
  617MPD2     H 9196   1.095   3.691  13.982 -0.4161 -2.4150 -1.3734
  617MPD2    H1 9197   0.782   3.907  13.762  0.0669  0.0787  1.2388
  617MPD2    H2 9198   1.170   3.860  13.604  1.0155  2.7978  1.6216
  617MPD2    H3 9199   0.957   3.964  13.599 -1.5746  0.3877  1.2168
  617MPD2     N 9200   0.825   3.777  14.001 -0.1619 -0.1110  0.0139
  617MPD2    H5 9201   0.729   3.810  13.997 -0.0447  0.3112  0.8674
  617MPD2    N1 9202   1.283   3.735  13.819 -0.4492  0.1412  0.2892
  617MPD2    H7 9203   1.335   3.788  13.750  1.3350  0.4753  1.8908
  618TMC3    C1 9204   1.482   3.663  13.917 -0.7273 -0.0052  0.2003
  618TMC3    C2 9205   1.553   3.547  13.939  0.0817 -0.5369  0.5402
  618TMC3    C3 9206   1.686   3.562  13.961  0.2891  0.7655  0.0039
  618TMC3    C4 9207   1.529   3.793  13.913  0.4122 -0.5487  0.0657
  618TMC3    C5 9208   1.667   3.799  13.929 -0.3599 -0.1153  0.3460
  618TMC3    C6 9209   1.742   3.686  13.958  0.7097  0.6051 -0.1408
  618TMC3     C 9210   1.336   3.654  13.918  0.1419  0.6064 -0.4002
  618TMC3     O 9211   1.287   3.579  14.007 -0.2573 -0.9761 -0.1004
  618TMC3     H 9212   1.501   3.453  13.951 -0.7739 -0.1214  0.0822
  618TMC3    H1 9213   1.478   3.886  13.891  0.5809 -0.4357  0.1548
  618TMC3    H2 9214   1.847   3.697  13.984  0.6704  0.5214  0.0520
  618TMC3    C7 9215   1.735   3.923  13.880 -0.3544 -0.0831  0.3776
  618TMC3    C8 9216   1.762   3.438  13.956  0.0737 -0.3273 -0.2170
  618TMC3    O1 9217   1.708   4.024  13.949  0.4931 -0.5432  0.3923
  618TMC3    O2 9218   1.703   3.337  13.924  0.0099  0.0400 -0.5881
  619MPD2     C 9219   2.601   0.151  13.882 -0.3440 -0.3564  0.3261
  619MPD2    C1 9220   2.562   0.258  13.807 -0.2307 -0.2081 -0.6767
  619MPD2    C2 9221   2.426   0.288  13.792 -0.7152  0.1196  0.1445
  619MPD2    C3 9222   2.328   0.205  13.841  0.5986  0.3030  0.5848
  619MPD2    C4 9223   2.366   0.105  13.931  0.1238  0.3801 -0.7905
  619MPD2    C5 9224   2.498   0.081  13.946 -0.1327  0.2005 -0.3672
  619MPD2     H 9225   2.400   0.366  13.721  0.4990 -0.0426 -0.4819
  619MPD2    H1 9226   2.294   0.028  13.956  0.5961  0.0735 -0.3855
  619MPD2    H2 9227   2.700   0.124  13.915 -0.0221 -0.2849 -0.5788
  619MPD2    H3 9228   2.522   4.727  14.001 -1.5529 -1.3382 -2.2697
  619MPD2     N 9229   2.194   0.210  13.807  0.0915 -0.6233  0.2476
  619MPD2    H5 9230   2.134   0.133  13.835 -0.4625  0.7853  2.9000
  619MPD2    N1 9231   2.662   0.336  13.748 -0.1070  0.2743 -0.3926
  619MPD2    H7 9232   2.635   0.425  13.709  1.6730  1.3624  0.8547
  620TMC3    C1 9233   2.869   0.412  13.659  0.1748  1.4329  0.4512
  620TMC3    C2 9234   2.817   0.421  13.534  0.4654 -0.1275 -0.4116
  620TMC3    C3 9235   2.876   0.518  13.452  0.1128 -0.0170  0.2835
  620TMC3    C4 9236   2.978   0.486  13.704  1.0839 -0.4674  0.4492
  620TMC3    C5 9237   3.028   0.591  13.627 -0.3364 -0.7492 -0.5139
  620TMC3    C6 9238   2.987   0.598  13.497  0.2660 -0.0703 -0.5089
  620TMC3     C 9239   2.798   0.325  13.754 -0.0590 -0.0977 -0.3696
  620TMC3     O 9240   2.866   0.235  13.804 -0.2611 -0.0315 -0.1259
  620TMC3     H 9241   2.740   0.348  13.511  1.4846 -0.6971 -2.0010
  620TMC3    H1 9242   3.010   0.481  13.807  0.1802 -0.3383  0.7409
  620TMC3    H2 9243   3.014   0.686  13.439 -1.4815  1.3153  0.8011
  620TMC3    C7 9244   3.042   0.711  13.704  0.0846 -0.1483 -0.1958
  620TMC3    C8 9245   2.775   0.602  13.399  0.1917 -0.0862 -0.2453
  620TMC3    O1 9246   3.107   0.708  13.807 -0.0151  0.1187  0.0630
  620TMC3    O2 9247   2.771   0.715  13.445  0.1266  0.3366  0.7433
  621MPD2     C 9248   2.686   0.988   9.911  0.1460 -0.5128  0.2241
  621MPD2    C1 9249   2.784   0.945   9.827 -0.5388 -0.5809 -0.3055
  621MPD2    C2 9250   2.851   1.052   9.766 -0.0325 -0.5919  0.1902
  621MPD2    C3 9251   2.836   1.185   9.786  0.1221  0.0747  0.8192
  621MPD2    C4 9252   2.748   1.224   9.883 -0.7990 -0.1940  0.2668
  621MPD2    C5 9253   2.671   1.122   9.938 -0.0708  0.1111 -0.1744
  621MPD2     H 9254   2.931   1.031   9.696  1.0092 -0.5873  1.3791
  621MPD2    H1 9255   2.720   1.325   9.907  1.5580  0.7847 -1.0657
  621MPD2    H2 9256   2.614   0.918   9.953 -0.6071  0.3152  0.3153
  621MPD2    H3 9257   2.595   1.145  10.011 -0.3189 -1.3125  0.0103
  621MPD2     N 9258   2.916   1.279   9.710 -0.0558  0.2244  0.2019
  621MPD2    H5 9259   2.981   1.246   9.639 -3.4841 -1.4165 -2.1804
  621MPD2    N1 9260   2.816   0.810   9.801 -0.2458  0.4213  1.2944
  621MPD2    H7 9261   2.888   0.790   9.732  0.1171  0.8296  1.5555
  622TMC3    C1 9262   2.800   0.578   9.812 -0.1187 -0.0098 -0.0049
  622TMC3    C2 9263   2.768   0.474   9.891 -0.5374  0.4424  0.7456
  622TMC3    C3 9264   2.677   0.379   9.850 -0.3556 -0.1496 -0.3049
  622TMC3    C4 9265   2.761   0.578   9.679  0.4568 -0.3511 -0.0349
  622TMC3    C5 9266   2.681   0.480   9.639 -0.6674  0.6500  0.0615
  622TMC3    C6 9267   2.639   0.375   9.718 -0.4013 -0.0088  0.3297
  622TMC3     C 9268   2.782   0.707   9.882 -0.3825 -0.3100 -0.3221
  622TMC3     O 9269   2.715   0.697   9.979  0.2427  0.4127 -0.5251
  622TMC3     H 9270   2.789   0.465   9.997  0.7012 -1.5958  0.3264
  622TMC3    H1 9271   2.789   0.662   9.616  0.8089  0.4377  1.1655
  622TMC3    H2 9272   2.572   0.298   9.680  0.9580 -0.4193 -1.2180
  622TMC3    C7 9273   2.674   0.455   9.503  0.1179 -0.5043  0.5530
  622TMC3    C8 9274   2.579   0.347   9.951  0.6868 -0.4996 -0.5149
  622TMC3    O1 9275   2.664   0.338   9.463  0.9665  0.3638  0.9321
  622TMC3    O2 9276   2.521   0.240   9.933 -0.0300 -0.4707 -0.2668
  623MPD2     C 9277   1.555   1.201  16.033 -0.8513 -0.2311 -0.0003
  623MPD2    C1 9278   1.473   1.152  16.132  0.3081  0.4433 -0.0421
  623MPD2    C2 9279   1.530   1.100  16.243  0.1125 -0.5327 -0.7202
  623MPD2    C3 9280   1.665   1.097  16.264 -0.7055 -0.6960 -0.5811
  623MPD2    C4 9281   1.752   1.142  16.164 -0.2443 -0.4563 -0.0902
  623MPD2    C5 9282   1.696   1.192  16.050  0.0118 -0.7157 -0.6237
  623MPD2     H 9283   1.470   1.065  16.326  1.2681  2.1621  1.2824
  623MPD2    H1 9284   1.860   1.139  16.176 -0.0927  0.2684 -1.2895
  623MPD2    H2 9285   1.516   1.238  15.939  2.0672 -0.5993 -1.3464
  623MPD2    H3 9286   1.760   1.215  15.966  1.9979  0.7225  1.2740
  623MPD2     N 9287   1.718   1.044  16.381 -0.3030 -0.0577  0.0931
  623MPD2    H5 9288   1.644   0.994  16.429 -0.0372 -0.3710  0.1831
  623MPD2    N1 9289   1.335   1.168  16.114  0.4586  0.0711  0.2838
  623MPD2    H7 9290   1.295   1.214  16.033  2.3404  0.1373 -0.6072
  624TMC3    C1 9291   1.935   0.801  16.682  0.4526 -0.3723  0.5202
  624TMC3    C2 9292   1.846   0.839  16.778  0.2648  0.2093  0.3885
  624TMC3    C3 9293   1.765   0.946  16.761  0.8538  0.0922  0.2595
  624TMC3    C4 9294   1.943   0.870  16.560 -0.9986  0.5557 -0.2076
  624TMC3    C5 9295   1.853   0.971  16.544  0.4690 -0.0329 -0.3858
  624TMC3    C6 9296   1.755   0.998  16.636 -0.0666 -0.4864  0.4542
  624TMC3     C 9297   2.027   0.705  16.734 -0.0810  0.1222 -0.9455
  624TMC3     O 9298   2.035   0.694  16.857 -0.7434 -0.2685 -0.1487
  624TMC3     H 9299   1.837   0.788  16.874  0.5138  1.7982  1.2647
  624TMC3    H1 9300   2.028   0.852  16.495  0.8690  0.7712  2.1691
  624TMC3    H2 9301   1.676   1.065  16.602  1.1800  0.5068 -0.4739
  624TMC3    C7 9302   1.848   1.030  16.415 -0.7561  0.2668 -0.3386
  624TMC3    C8 9303   1.631   0.932  16.810 -0.2431 -0.0638  0.2447
  624TMC3    O1 9304   1.953   1.055  16.356  0.2000 -0.5859 -0.0656
  624TMC3    O2 9305   1.585   0.819  16.820  0.3429  0.0041 -0.9139
  625MPD2     C 9306   1.702   1.756   0.513  0.4068  0.2053 -0.3276
  625MPD2    C1 9307   1.671   1.866   0.588 -0.3098  1.2192 -0.6309
  625MPD2    C2 9308   1.757   1.906   0.683 -0.5186  0.1758  0.7116
  625MPD2    C3 9309   1.882   1.853   0.710  0.0539 -0.2144  0.1030
  625MPD2    C4 9310   1.914   1.735   0.629 -0.3318  0.0621 -0.3747
  625MPD2    C5 9311   1.830   1.697   0.523 -0.1869 -0.3788 -0.5593
  625MPD2     H 9312   1.746   2.003   0.729  2.4851  0.5059  0.7653
  625MPD2    H1 9313   2.012   1.688   0.633 -0.2955  0.0905 -0.9390
  625MPD2    H2 9314   1.637   1.716   0.436  2.4888 -0.7129 -1.6112
  625MPD2    H3 9315   1.867   1.611   0.468  2.1568  1.3212 -1.6606
  625MPD2     N 9316   1.980   1.918   0.794  0.3738  0.0059 -0.3264
  625MPD2    H5 9317   1.953   2.005   0.837  1.4184 -0.5343  1.4315
  625MPD2    N1 9318   1.554   1.942   0.571  0.3565  0.1700  0.0378
  625MPD2    H7 9319   1.548   2.022   0.634 -1.9339 -0.0005  0.0536
  626TMC3    C1 9320   1.355   2.025   0.478 -0.1256  0.7137  0.1605
  626TMC3    C2 9321   1.348   2.109   0.367 -1.1301  0.1900 -0.6124
  626TMC3    C3 9322   1.245   2.197   0.359  0.9286  0.1828 -0.2517
  626TMC3    C4 9323   1.264   2.032   0.583 -0.4526  0.5470 -0.1516
  626TMC3    C5 9324   1.171   2.128   0.573  0.3383  0.5554  0.1531
  626TMC3    C6 9325   1.161   2.214   0.462  0.4862 -0.7356 -0.2478
  626TMC3     C 9326   1.450   1.918   0.478  0.2611  0.3221  0.0808
  626TMC3     O 9327   1.448   1.833   0.395 -0.0013  0.6365 -0.3140
  626TMC3     H 9328   1.430   2.099   0.297  0.7447 -3.6341  2.0721
  626TMC3    H1 9329   1.273   1.961   0.665 -1.3183 -1.0692 -1.4481
  626TMC3    H2 9330   1.086   2.292   0.462 -0.0850 -1.2820  0.9550
  626TMC3    C7 9331   1.051   2.131   0.655 -0.1272  0.0413 -0.4973
  626TMC3    C8 9332   1.235   2.286   0.246  0.4782 -0.0452 -0.0153
  626TMC3    O1 9333   0.950   2.194   0.613 -0.7019 -0.0387  0.4390
  626TMC3    O2 9334   1.344   2.315   0.196  0.4202 -0.1731 -1.0313
  627MPD2     C 9335   0.281   2.478  14.536  0.4585 -0.1506 -0.7993
  627MPD2    C1 9336   0.418   2.456  14.512 -0.1909 -0.4972 -0.4517
  627MPD2    C2 9337   0.446   2.353  14.429  0.3506  0.0567 -0.2411
  627MPD2    C3 9338   0.343   2.272  14.381 -0.1289 -0.4033  0.1020
  627MPD2    C4 9339   0.212   2.297  14.415 -0.2344 -0.3158  0.6076
  627MPD2    C5 9340   0.179   2.402  14.489  0.3795 -0.6228 -0.2851
  627MPD2     H 9341   0.550   2.339  14.404  0.3337 -3.1068  1.4070
  627MPD2    H1 9342   0.131   2.229  14.392  0.4385 -1.0885  0.5515
  627MPD2    H2 9343   0.248   2.555  14.605 -0.0510 -2.2096  1.2520
  627MPD2    H3 9344   0.076   2.423  14.515  1.5786  0.9679  3.2757
  627MPD2     N 9345   0.391   2.172  14.296 -0.2411 -0.2042 -0.5016
  627MPD2    H5 9346   0.491   2.157  14.291 -0.2151  0.3146 -1.5084
  627MPD2    N1 9347   0.517   2.533  14.579 -0.2312  0.4352 -0.8066
  627MPD2    H7 9348   0.615   2.514  14.566 -0.4419 -1.3166  0.2194
  628TMC3    C1 9349   0.615   2.676  14.732 -1.1543  0.0705  0.3473
  628TMC3    C2 9350   0.712   2.582  14.760 -0.1004 -0.8325 -0.2057
  628TMC3    C3 9351   0.830   2.619  14.823  0.7571  0.8037 -0.0361
  628TMC3    C4 9352   0.647   2.807  14.760 -0.0009 -0.5517  0.1300
  628TMC3    C5 9353   0.768   2.836  14.820  0.0263 -0.8156  0.0645
  628TMC3    C6 9354   0.861   2.743  14.856  0.0624 -0.3093 -0.1571
  628TMC3     C 9355   0.495   2.635  14.669 -0.0845  0.3824  0.2875
  628TMC3     O 9356   0.389   2.695  14.699  0.3977  0.4325  0.2960
  628TMC3     H 9357   0.693   2.477  14.742 -0.1506 -1.2442  2.3370
  628TMC3    H1 9358   0.572   2.884  14.745 -0.3014 -1.1558 -1.4384
  628TMC3    H2 9359   0.938   2.764  14.929 -0.3267  0.4199  0.0474
  628TMC3    C7 9360   0.805   2.978  14.840 -0.1954 -0.2026 -0.6683
  628TMC3    C8 9361   0.934   2.526  14.871  0.0316  0.6051 -0.4784
  628TMC3    O1 9362   0.916   2.988  14.893  0.6440  0.4198 -0.5929
  628TMC3    O2 9363   0.902   2.414  14.913  0.1929 -0.3529  0.1994
  629MPD2     C 9364   3.749   1.549  16.915 -0.4077 -0.2846  0.6957
  629MPD2    C1 9365   3.786   1.425  16.871 -0.3605  0.2498  0.2126
  629MPD2    C2 9366   3.713   1.319  16.922  0.2747 -0.2401  0.4326
  629MPD2    C3 9367   3.625   1.330  17.022  0.0598 -0.1897  0.0565
  629MPD2    C4 9368   3.586   1.450  17.072 -0.1712  0.0324 -0.2996
  629MPD2    C5 9369   3.648   1.562  17.013  0.8729  0.3345  0.0463
  629MPD2     H 9370   3.745   1.219  16.894 -1.4087 -1.2035  1.9408
  629MPD2    H1 9371   3.505   1.457  17.143  0.1728 -1.6783  0.2453
  629MPD2    H2 9372   3.793   1.639  16.873  1.8547 -2.0488 -0.7540
  629MPD2    H3 9373   3.624   1.664  17.040  2.7998  0.9948 -0.6995
  629MPD2     N 9374   3.560   1.206  17.046 -0.4415 -0.5498 -0.6777
  629MPD2    H5 9375   3.592   1.126  16.993  3.1383 -0.4004  1.2445
  629MPD2    N1 9376   3.898   1.417  16.781 -0.1171 -0.2166 -0.4802
  629MPD2    H7 9377   3.958   1.498  16.771 -1.2261  0.4381 -1.8456
  630TMC3    C1 9378   4.035   1.329  16.611  0.5189 -0.0359  0.2037
  630TMC3    C2 9379   4.072   1.453  16.569  0.3113 -0.2065  0.0467
  630TMC3    C3 9380   4.196   1.469  16.511 -0.2786  0.1395 -0.2867
  630TMC3    C4 9381   4.116   1.217  16.598  0.1384 -0.2866 -0.8970
  630TMC3    C5 9382   4.250   1.250  16.561  0.2648 -0.5241  0.5927
  630TMC3    C6 9383   4.289   1.371  16.497  0.2927  0.0073 -0.0201
  630TMC3     C 9384   3.933   1.302  16.711 -0.2786 -0.2395  0.6020
  630TMC3     O 9385   3.890   1.189  16.714  0.2489 -0.1512  0.0629
  630TMC3     H 9386   4.004   1.537  16.581 -0.6855 -0.7084 -2.1523
  630TMC3    H1 9387   4.101   1.129  16.660 -2.0909  0.2863 -0.6371
  630TMC3    H2 9388   4.376   1.388  16.434 -0.7098 -0.0848 -1.4326
  630TMC3    C7 9389   4.330   1.235  16.676 -0.2977 -0.2012 -0.3210
  630TMC3    C8 9390   4.260   1.599  16.534 -0.3122 -0.1367  0.3891
  630TMC3    O1 9391   4.315   1.129  16.741 -0.7343  0.6152 -0.1401
  630TMC3    O2 9392   4.375   1.590  16.570 -0.1366  0.4505 -0.0670
  631MPD2     C 9393   3.018   1.320  15.482  0.3352 -0.3819  0.1353
  631MPD2    C1 9394   2.883   1.297  15.518  0.0464  0.3127  0.4094
  631MPD2    C2 9395   2.863   1.233  15.635  0.5513  0.2147  0.5178
  631MPD2    C3 9396   2.970   1.207  15.719  0.1052 -0.8094 -0.0018
  631MPD2    C4 9397   3.100   1.225  15.679  0.7885 -0.6623 -0.2609
  631MPD2    C5 9398   3.124   1.286  15.560 -0.7217  0.5355 -0.7852
  631MPD2     H 9399   2.770   1.204  15.683 -1.2997  1.2776 -2.5042
  631MPD2    H1 9400   3.190   1.184  15.723 -0.1104 -1.0022  1.2369
  631MPD2    H2 9401   3.045   1.336  15.378  0.8802 -0.5845  0.2495
  631MPD2    H3 9402   3.226   1.298  15.526  0.2569 -0.2955  1.8307
  631MPD2     N 9403   2.940   1.161  15.850 -0.7319  0.4728  0.7828
  631MPD2    H5 9404   2.843   1.163  15.880  0.2857 -2.9530  4.2896
  631MPD2    N1 9405   2.780   1.333  15.421 -0.3227  0.8097  0.3417
  631MPD2    H7 9406   2.807   1.385  15.337  1.5266 -0.3441  0.2300
  632TMC3    C1 9407   2.565   1.382  15.337 -0.1358 -0.7283 -0.2706
  632TMC3    C2 9408   2.427   1.374  15.358  0.8942 -0.4051  0.0851
  632TMC3    C3 9409   2.343   1.449  15.279 -0.1013 -0.2888 -0.2276
  632TMC3    C4 9410   2.618   1.445  15.231  0.0834  0.4932  0.7546
  632TMC3    C5 9411   2.522   1.513  15.150  0.4598  0.2828 -0.4202
  632TMC3    C6 9412   2.390   1.523  15.178 -0.2253 -0.8663 -0.7197
  632TMC3     C 9413   2.650   1.313  15.435 -0.1911  1.3438  0.2703
  632TMC3     O 9414   2.593   1.260  15.528 -0.1510 -0.0442 -0.4964
  632TMC3     H 9415   2.395   1.343  15.457  1.0694 -2.8676 -0.6376
  632TMC3    H1 9416   2.717   1.422  15.195 -0.6328 -0.0568 -0.8538
  632TMC3    H2 9417   2.320   1.564  15.106 -0.2839  0.6518  0.2119
  632TMC3    C7 9418   2.568   1.576  15.029 -0.3370 -0.6616 -0.3767
  632TMC3    C8 9419   2.220   1.493  15.335  0.2592 -0.0148  0.3264
  632TMC3    O1 9420   2.686   1.559  15.001 -0.4468  0.4691 -0.2890
  632TMC3    O2 9421   2.158   1.416  15.412  0.1069 -0.4091  0.2530
  633MPD2     C 9422   1.863   3.934  17.283  0.0307  0.4966 -0.5126
  633MPD2    C1 9423   1.819   3.853  17.177  1.0355  0.3319  0.6551
  633MPD2    C2 9424   1.776   3.725  17.206 -1.1470  0.1448 -0.6654
  633MPD2    C3 9425   1.774   3.672  17.332  0.1417  0.2154 -0.0563
  633MPD2    C4 9426   1.820   3.755  17.434  0.3605 -0.3193  0.3891
  633MPD2    C5 9427   1.865   3.882  17.408 -0.3792 -0.4574 -0.5045
  633MPD2     H 9428   1.765   3.658  17.122  0.7038  1.0098 -1.6106
  633MPD2    H1 9429   1.805   3.721  17.535 -1.3364 -2.8254 -0.7123
  633MPD2    H2 9430   1.903   4.034  17.275  0.3414  0.3902 -0.3243
  633MPD2    H3 9431   1.908   3.936  17.492  0.4774  0.2079 -1.3693
  633MPD2     N 9432   1.728   3.544  17.364  0.0020  0.6012  0.4683
  633MPD2    H5 9433   1.749   3.507  17.456  2.8312  0.5836 -0.1680
  633MPD2    N1 9434   1.847   3.872  17.041 -0.0896  0.2224  0.6932
  633MPD2    H7 9435   1.826   3.794  16.980  2.2821 -0.6475  0.9486
  634TMC3    C1 9436   1.894   4.008  16.851 -0.3267 -0.3389  0.5272
  634TMC3    C2 9437   1.930   3.894  16.786  0.3079 -0.0207  0.0851
  634TMC3    C3 9438   1.960   3.905  16.654  0.5760  0.0554  0.5097
  634TMC3    C4 9439   1.877   4.128  16.786 -0.1272 -0.4295  0.3319
  634TMC3    C5 9440   1.888   4.132  16.652 -1.0619  0.0932 -0.6731
  634TMC3    C6 9441   1.925   4.019  16.585  0.1528 -0.1466 -0.2776
  634TMC3     C 9442   1.870   4.002  16.997 -0.0238 -0.2507 -0.2191
  634TMC3     O 9443   1.856   4.109  17.052  0.2527  0.4533  0.0643
  634TMC3     H 9444   1.945   3.797  16.832 -2.2786  0.2885  1.5672
  634TMC3    H1 9445   1.862   4.214  16.850 -2.5614 -0.0148 -0.7975
  634TMC3    H2 9446   1.927   4.022  16.476  1.3692  0.3026 -0.2329
  634TMC3    C7 9447   1.821   4.239  16.576 -0.6359  0.0993  0.2518
  634TMC3    C8 9448   2.026   3.795  16.582  0.6090 -0.3986  0.1644
  634TMC3    O1 9449   1.849   4.242  16.462 -0.0966  0.6231 -0.6809
  634TMC3    O2 9450   2.073   3.699  16.638  0.0247 -0.3264  0.2417
  635TMC3    C1 9451   1.889   0.078   0.369 -0.9910 -0.1742 -0.4404
  635TMC3    C2 9452   1.840   0.040   0.251  0.7073  0.0825  0.2319
  635TMC3    C3 9453   1.737   4.685   0.248  0.3483  1.1056 -0.0775
  635TMC3    C4 9454   1.858   0.018   0.490 -0.0536  0.0294  0.4313
  635TMC3    C5 9455   1.759   4.663   0.476  0.6245  0.9295 -0.5934
  635TMC3    C6 9456   1.692   4.625   0.361 -0.2156  0.3447  0.1879
  635TMC3     C 9457   1.980   0.183   0.386 -0.2265  0.1228 -0.1960
  635TMC3     O 9458   1.982   0.235   0.496  0.0638  0.7302 -0.8983
  635TMC3     H 9459   1.885   0.077   0.160 -0.5773  0.0291 -0.4297
  635TMC3    H1 9460   1.900   0.048   0.585 -0.5425  2.8069 -0.2251
  635TMC3    H2 9461   1.607   4.558   0.351 -1.7559  2.2024  0.7512
  635TMC3    C7 9462   1.705   4.614   0.607 -0.0371  0.9689 -0.5828
  635TMC3    C8 9463   1.707   4.611   0.129 -0.1276  0.8874  0.3439
  635TMC3    O1 9464   1.777   4.622   0.706 -0.1110  0.4331  0.1146
  635TMC3    O2 9465   1.650   4.504   0.134 -0.8091  0.0389  0.5834
  636MPD2     C 9466   2.998   4.348  16.145 -0.0050 -0.6514 -0.1522
  636MPD2    C1 9467   3.064   4.377  16.260 -0.8739 -0.7187  0.9839
  636MPD2    C2 9468   3.130   4.276  16.331  0.3636 -0.0829  0.2289
  636MPD2    C3 9469   3.141   4.148  16.282 -0.1072 -0.0575  0.0319
  636MPD2    C4 9470   3.087   4.124  16.155  0.8750  0.2723  0.7087
  636MPD2    C5 9471   3.014   4.222  16.095 -0.2162  0.0859  0.0985
  636MPD2     H 9472   3.177   4.297  16.426 -0.3951 -0.1770  0.6281
  636MPD2    H1 9473   3.096   4.031  16.100  0.1823  0.5106  0.1973
  636MPD2    H2 9474   2.937   4.416  16.087  0.8039 -0.1313 -0.3875
  636MPD2    H3 9475   2.972   4.202  15.997 -4.8665  1.4496  1.8314
  636MPD2     N 9476   3.216   4.052  16.356  0.4516 -0.3934 -0.4312
  636MPD2    H5 9477   3.257   4.079  16.445  1.5696  1.7875 -1.5994
  636MPD2    N1 9478   3.071   4.511  16.324  0.2467 -0.6618 -0.1306
  636MPD2    H7 9479   3.142   4.514  16.397 -0.9536  0.3272  0.9832
  637TMC3    C1 9480   3.321   3.850  16.392  0.4668  0.2951  0.1496
  637TMC3    C2 9481   3.336   3.896  16.518 -0.0977  0.3402 -0.1018
  637TMC3    C3 9482   3.432   3.836  16.597 -0.1560  0.0241  0.5856
  637TMC3    C4 9483   3.399   3.763  16.328 -0.8280  0.0277  0.0477
  637TMC3    C5 9484   3.497   3.709  16.409  0.8242 -0.2402 -0.1205
  637TMC3    C6 9485   3.514   3.732  16.548  0.1454  0.0262 -0.9205
  637TMC3     C 9486   3.229   3.920  16.311  0.3667 -0.4277 -0.0257
  637TMC3     O 9487   3.185   3.859  16.214  0.3158  0.1071 -0.0956
  637TMC3     H 9488   3.262   3.958  16.566  0.1942 -0.2578  1.1169
  637TMC3    H1 9489   3.371   3.727  16.229 -1.1632  0.4660 -0.0165
  637TMC3    H2 9490   3.602   3.687  16.594  0.7069  0.5717 -1.4617
  637TMC3    C7 9491   3.584   3.606  16.354 -0.1129  0.9312 -0.7889
  637TMC3    C8 9492   3.499   3.944  16.657  0.2915  0.1539  1.1781
  637TMC3    O1 9493   3.588   3.507  16.425  0.4153  0.3559 -0.3192
  637TMC3    O2 9494   3.472   4.060  16.633 -0.1624  0.0569  0.7969
  638MPD2     C 9495   2.729   3.183  14.993  0.3447 -0.3741 -0.0860
  638MPD2    C1 9496   2.715   3.092  14.893  0.6701  0.0787 -0.2313
  638MPD2    C2 9497   2.694   2.958  14.927 -0.3802  0.2846 -0.2948
  638MPD2    C3 9498   2.718   2.924  15.055  0.4268  0.4736 -0.3998
  638MPD2    C4 9499   2.733   3.008  15.160 -0.0946  0.2826  0.1794
  638MPD2    C5 9500   2.732   3.146  15.129 -0.0784 -0.0419  0.4243
  638MPD2     H 9501   2.668   2.882  14.853 -3.7792 -0.1032  1.3203
  638MPD2    H1 9502   2.735   2.975  15.263  1.5770  1.9649  0.6759
  638MPD2    H2 9503   2.740   3.289  14.975 -0.4401 -0.2203  0.3334
  638MPD2    H3 9504   2.731   3.224  15.204 -1.2785 -0.4734  0.8473
  638MPD2     N 9505   2.707   2.780  15.074  0.1713 -1.4050 -0.6739
  638MPD2    H5 9506   2.718   2.735  14.983 -2.6652  0.3819 -1.8919
  638MPD2    N1 9507   2.725   3.130  14.756 -0.3514  0.1082  0.2307
  638MPD2    H7 9508   2.735   3.231  14.745  2.4780 -0.0980  0.8951
  639TMC3    C1 9509   2.761   2.574  15.146 -0.3863  0.0414 -0.5509
  639TMC3    C2 9510   2.670   2.527  15.054 -0.1550  0.5137  0.0305
  639TMC3    C3 9511   2.705   2.424  14.974  0.8713 -0.3674  0.2964
  639TMC3    C4 9512   2.884   2.522  15.164 -0.6694  0.1300 -0.4954
  639TMC3    C5 9513   2.918   2.419  15.077  0.0423  0.4605  0.1740
  639TMC3    C6 9514   2.834   2.368  14.981 -0.5533  0.5486 -0.6126
  639TMC3     C 9515   2.747   2.714  15.179 -0.3393 -0.1381  0.4112
  639TMC3     O 9516   2.818   2.752  15.269  0.2764  0.0057 -0.5475
  639TMC3     H 9517   2.586   2.590  15.028 -0.9398 -0.8409 -0.7033
  639TMC3    H1 9518   2.955   2.569  15.231 -2.1720  1.9488 -0.1825
  639TMC3    H2 9519   2.863   2.296  14.905  0.6523 -1.6827  1.9352
  639TMC3    C7 9520   3.051   2.361  15.076  0.3355 -0.0837  0.1750
  639TMC3    C8 9521   2.621   2.402  14.863  0.0417  0.0263 -0.2936
  639TMC3    O1 9522   3.054   2.242  15.083  0.1712 -0.1061 -0.3121
  639TMC3    O2 9523   2.674   2.375  14.756  0.4438  0.2022  0.0232
  640MPD2     C 9524   3.338   2.553  10.251 -0.1540 -0.2334  0.3612
  640MPD2    C1 9525   3.355   2.633  10.141  0.4193 -0.1623 -0.0917
  640MPD2    C2 9526   3.349   2.772  10.161 -0.0768 -0.2211  0.4974
  640MPD2    C3 9527   3.317   2.821  10.290  0.5842 -0.0430 -0.1672
  640MPD2    C4 9528   3.309   2.738  10.397  0.1356  0.3128 -0.8869
  640MPD2    C5 9529   3.329   2.608  10.376  0.3749  0.2322 -0.5897
  640MPD2     H 9530   3.389   2.842  10.089 -0.3614 -0.9579 -0.3830
  640MPD2    H1 9531   3.290   2.780  10.495 -0.9812  1.1848 -1.4826
  640MPD2    H2 9532   3.346   2.445  10.246 -0.6243 -0.1891 -1.3389
  640MPD2    H3 9533   3.327   2.535  10.457  1.1739 -2.0071 -2.6058
  640MPD2     N 9534   3.286   2.953  10.319  0.2886  0.1168 -0.2459
  640MPD2    H5 9535   3.275   2.973  10.418  0.5013  1.4787 -0.4992
  640MPD2    N1 9536   3.377   2.575  10.011 -0.6597  0.5871 -0.3412
  640MPD2    H7 9537   3.376   2.474  10.012  0.1144  0.5963  1.0865
  641TMC3    C1 9538   3.420   2.556   9.781  0.0681  0.2068 -0.2268
  641TMC3    C2 9539   3.488   2.440   9.796 -0.0276 -0.2996 -0.4620
  641TMC3    C3 9540   3.548   2.381   9.685  0.5980 -0.0775 -0.1642
  641TMC3    C4 9541   3.397   2.599   9.650  0.1118 -0.8662  0.2586
  641TMC3    C5 9542   3.450   2.537   9.536  0.0256 -0.2287 -1.0414
  641TMC3    C6 9543   3.535   2.423   9.554 -0.4848 -0.2381 -0.1717
  641TMC3     C 9544   3.383   2.647   9.894  0.2914 -0.3450  0.2137
  641TMC3     O 9545   3.345   2.762   9.874 -0.1492 -0.2318  0.1259
  641TMC3     H 9546   3.518   2.407   9.896  0.1150  1.1736 -0.0229
  641TMC3    H1 9547   3.330   2.684   9.652 -0.0584 -1.0050  0.4649
  641TMC3    H2 9548   3.586   2.360   9.481  1.2427  0.3377  0.5452
  641TMC3    C7 9549   3.376   2.577   9.420 -0.0340 -0.1198 -0.7934
  641TMC3    C8 9550   3.602   2.249   9.704 -0.2975 -0.7882  0.7849
  641TMC3    O1 9551   3.332   2.689   9.423  0.2338 -0.0825  0.1675
  641TMC3    O2 9552   3.681   2.210   9.620  0.3405  0.0083  0.4892
  642TMC3    C1 9553   4.068   3.206  12.577 -0.1579 -0.5662 -0.1871
  642TMC3    C2 9554   4.128   3.263  12.683 -0.5095 -0.1467  0.0465
  642TMC3    C3 9555   4.216   3.184  12.750  0.0961 -0.3953 -0.3733
  642TMC3    C4 9556   4.077   3.074  12.541 -0.6000  0.0166  0.3322
  642TMC3    C5 9557   4.164   2.999  12.610  0.2264  0.0069 -0.4719
  642TMC3    C6 9558   4.239   3.052  12.723  0.3631 -0.0819  0.3207
  642TMC3     C 9559   3.949   3.279  12.528  0.5507  0.1817 -0.6128
  642TMC3     O 9560   3.862   3.197  12.502 -0.4870 -0.7229 -0.1442
  642TMC3     H 9561   4.125   3.371  12.695 -1.9671 -0.0486 -1.1744
  642TMC3    H1 9562   4.003   3.023  12.480  0.2954 -0.4218 -0.3730
  642TMC3    H2 9563   4.312   2.989  12.773  3.3706  2.7277 -0.4389
  642TMC3    C7 9564   4.184   2.861  12.565 -0.0202 -0.0818 -0.3726
  642TMC3    C8 9565   4.295   3.256  12.856 -0.8362 -0.3526  0.9683
  642TMC3    O1 9566   4.176   2.839  12.445  0.0311 -0.5492  0.4251
  642TMC3    O2 9567   4.388   3.194  12.903  0.4561  0.3181 -0.4845
  643TMC3    C1 9568   3.663   1.543   0.552  0.2121  0.2711  0.0502
  643TMC3    C2 9569   3.574   1.563   0.449 -0.4200 -0.2272 -0.7036
  643TMC3    C3 9570   3.600   1.496   0.330  0.4227  0.1035  0.0702
  643TMC3    C4 9571   3.783   1.483   0.534 -0.0676  0.0840  0.4781
  643TMC3    C5 9572   3.807   1.424   0.415  0.6716  0.2199  0.2482
  643TMC3    C6 9573   3.711   1.419   0.316  0.1218 -0.4917  0.3919
  643TMC3     C 9574   3.671   1.664   0.629  0.1126  0.2090  0.4014
  643TMC3     O 9575   3.653   1.763   0.560  0.2103 -0.0641  0.0819
  643TMC3     H 9576   3.487   1.625   0.466 -1.9831 -2.3615 -0.8781
  643TMC3    H1 9577   3.863   1.485   0.608  0.2368  2.3275  0.0851
  643TMC3    H2 9578   3.748   1.395   0.217 -0.0859 -1.0080  0.4435
  643TMC3    C7 9579   3.939   1.439   0.356  0.6307 -0.3026 -0.2217
  643TMC3    C8 9580   3.558   1.574   0.213  0.0976  0.9750 -0.9393
  643TMC3    O1 9581   3.969   1.381   0.256 -0.2005  0.3864  0.1518
  643TMC3    O2 9582   3.547   1.517   0.106 -0.1523  0.5181 -0.0032
  644MPD2     C 9583   3.725   2.307  10.179  0.1835 -0.2483 -0.0952
  644MPD2    C1 9584   3.805   2.289  10.070 -0.0736  0.1135 -0.8935
  644MPD2    C2 9585   3.823   2.396   9.992  0.1780  0.7117 -0.2717
  644MPD2    C3 9586   3.766   2.523  10.013 -0.0481  0.7131 -0.3103
  644MPD2    C4 9587   3.682   2.539  10.119  0.3418  0.5233 -0.5035
  644MPD2    C5 9588   3.662   2.430  10.201 -0.4366 -0.1394 -0.6199
  644MPD2     H 9589   3.889   2.384   9.907  0.1606  0.5880 -0.2673
  644MPD2    H1 9590   3.632   2.633  10.139 -1.8652 -1.0901  1.5775
  644MPD2    H2 9591   3.704   2.223  10.244  0.8323  1.5675  2.4502
  644MPD2    H3 9592   3.594   2.445  10.284  0.4461 -1.0843  0.2780
  644MPD2     N 9593   3.780   2.624   9.914  0.2810  0.7559  0.3534
  644MPD2    H5 9594   3.839   2.613   9.832 -2.8779 -0.9419 -1.6551
  644MPD2    N1 9595   3.855   2.160  10.045 -0.0614  0.1554  0.0552
  644MPD2    H7 9596   3.823   2.086  10.106 -0.4597  0.5444  0.3168
  645TMC3    C1 9597   3.777   2.840   9.816  0.1233  0.1476  0.3481
  645TMC3    C2 9598   3.831   2.960   9.843 -0.0304  0.0447 -0.2946
  645TMC3    C3 9599   3.854   3.051   9.746 -0.8657  0.2727 -0.1507
  645TMC3    C4 9600   3.738   2.792   9.693 -0.8009 -0.2811 -0.4378
  645TMC3    C5 9601   3.766   2.884   9.595  0.1099  0.2874 -0.0908
  645TMC3    C6 9602   3.825   3.008   9.622  0.4529  0.0583  0.5173
  645TMC3     C 9603   3.755   2.758   9.935 -1.2646 -0.3944 -0.4433
  645TMC3     O 9604   3.683   2.812  10.015 -0.4189 -0.4428  0.1364
  645TMC3     H 9605   3.878   2.979   9.939 -0.4281 -0.0448 -0.0832
  645TMC3    H1 9606   3.701   2.691   9.676  0.3097 -0.8124  0.2615
  645TMC3    H2 9607   3.845   3.075   9.539  1.3616 -0.6557  0.1553
  645TMC3    C7 9608   3.776   2.830   9.460  0.3513 -0.5010  0.3012
  645TMC3    C8 9609   3.961   3.147   9.763  0.3117  0.9246 -0.3962
  645TMC3    O1 9610   3.762   2.909   9.371 -0.0872  0.2598 -0.4095
  645TMC3    O2 9611   4.037   3.152   9.669  0.5451  0.0847 -0.2559
  646MPD2     C 9612   3.141   1.958  14.337 -0.4416 -0.0165  0.0478
  646MPD2    C1 9613   3.049   1.866  14.374 -0.4917 -0.4076 -0.0562
  646MPD2    C2 9614   2.917   1.886  14.336  0.5089  0.1176  0.7358
  646MPD2    C3 9615   2.875   1.996  14.259  0.0790  0.2889 -0.5998
  646MPD2    C4 9616   2.969   2.088  14.227  0.0007  0.3677  0.8535
  646MPD2    C5 9617   3.103   2.064  14.261  0.9919 -0.3942  0.2435
  646MPD2     H 9618   2.840   1.823  14.379  0.3371 -1.4941 -1.9126
  646MPD2    H1 9619   2.937   2.176  14.172 -2.2821 -0.1890  1.2766
  646MPD2    H2 9620   3.239   1.971  14.382 -0.5075 -0.8092  0.4224
  646MPD2    H3 9621   3.174   2.144  14.241  0.4457 -0.7059 -2.8738
  646MPD2     N 9622   2.742   2.013  14.235 -0.0310 -0.0368 -0.1498
  646MPD2    H5 9623   2.674   1.953  14.281 -1.4863  1.9373  0.2709
  646MPD2    N1 9624   3.091   1.770  14.469 -0.6847  0.1466 -0.4444
  646MPD2    H7 9625   3.192   1.762  14.479 -0.9186 -0.1186  1.7837
  647TMC3    C1 9626   3.088   1.584  14.618 -0.5346  0.7295 -0.4269
  647TMC3    C2 9627   3.019   1.482  14.668  0.1204 -0.3516 -0.4196
  647TMC3    C3 9628   3.070   1.402  14.769  0.4768 -0.2159  0.4190
  647TMC3    C4 9629   3.214   1.618  14.675  0.1720  0.1358 -0.1369
  647TMC3    C5 9630   3.253   1.548  14.785  0.2552 -0.0643  0.2098
  647TMC3    C6 9631   3.198   1.427  14.814 -0.2576  0.5533  1.0166
  647TMC3     C 9632   3.019   1.670  14.525  0.0471 -0.1953  0.4287
  647TMC3     O 9633   2.904   1.638  14.493  0.5639 -0.3398  0.0406
  647TMC3     H 9634   2.917   1.471  14.631 -0.3598  1.1523  0.4237
  647TMC3    H1 9635   3.269   1.709  14.654 -0.1731  0.5138  0.5850
  647TMC3    H2 9636   3.234   1.357  14.889 -1.1458 -0.6737  0.3007
  647TMC3    C7 9637   3.365   1.573  14.866 -0.2636  0.2492 -0.6578
  647TMC3    C8 9638   2.982   1.314  14.855  0.2023 -0.1817  0.2222
  647TMC3    O1 9639   3.398   1.485  14.946  0.6690  0.1313 -0.5202
  647TMC3    O2 9640   3.037   1.260  14.950  0.0272 -0.4935 -0.3221
  648TMC3    C1 9641   2.324   4.011  15.925  0.1501 -0.0292 -0.7689
  648TMC3    C2 9642   2.384   3.894  15.880  0.0916  0.6369  0.3188
  648TMC3    C3 9643   2.381   3.876  15.744  0.1897  0.6515  0.8788
  648TMC3    C4 9644   2.263   4.101  15.844 -0.0168  0.6572  0.4964
  648TMC3    C5 9645   2.254   4.077  15.713  1.0174 -0.0598 -0.4058
  648TMC3    C6 9646   2.323   3.968  15.661  0.9756 -0.5328 -0.1214
  648TMC3     C 9647   2.312   4.050  16.066 -0.1780 -0.2441  0.4692
  648TMC3     O 9648   2.273   4.164  16.079  0.6777  0.1251 -0.5110
  648TMC3     H 9649   2.445   3.832  15.945 -1.0313 -0.3506  0.4326
  648TMC3    H1 9650   2.244   4.203  15.876  0.2368  0.8710 -0.0316
  648TMC3    H2 9651   2.325   3.956  15.553 -1.4040 -0.3167 -0.1947
  648TMC3    C7 9652   2.167   4.163  15.625  0.3740 -0.0069 -0.3685
  648TMC3    C8 9653   2.482   3.792  15.687 -1.1669  0.6586  0.3861
  648TMC3    O1 9654   2.196   4.153  15.507  0.7140  0.1850  0.6906
  648TMC3    O2 9655   2.546   3.732  15.772  0.2008 -0.2991  0.1384
  649TMC3    C1 9656   0.676   0.372  12.747 -0.8766 -0.8380 -0.7254
  649TMC3    C2 9657   0.782   0.453  12.740 -0.1592  0.0633 -0.0625
  649TMC3    C3 9658   0.909   0.418  12.786 -0.7008 -0.5334 -0.3115
  649TMC3    C4 9659   0.693   0.243  12.788  0.2359  0.3090  0.5595
  649TMC3    C5 9660   0.814   0.203  12.815 -0.2993 -1.1846 -0.1825
  649TMC3    C6 9661   0.926   0.286  12.810 -0.5326  0.0334 -0.2999
  649TMC3     C 9662   0.541   0.426  12.749 -0.4701  0.2836  0.1431
  649TMC3     O 9663   0.541   0.549  12.763  0.2010  0.3264  0.5240
  649TMC3     H 9664   0.755   0.553  12.705 -0.9339 -0.0460  0.2281
  649TMC3    H1 9665   0.607   0.185  12.817  0.8591 -0.3839  1.0151
  649TMC3    H2 9666   1.018   0.243  12.846 -0.0776  0.5876 -0.7867
  649TMC3    C7 9667   0.820   0.111  12.923 -1.1697  0.4174  0.8669
  649TMC3    C8 9668   0.996   0.524  12.844  0.1746 -0.3593  0.5164
  649TMC3    O1 9669   0.893   0.146  13.012 -1.0191 -0.0806  0.2376
  649TMC3    O2 9670   0.955   0.643  12.841  1.0215 -0.3561  0.1024
  650TMC3    C1 9671   3.895   2.452  12.562  0.2070 -0.0866 -0.2009
  650TMC3    C2 9672   3.825   2.564  12.589 -0.0267 -0.2151 -0.4902
  650TMC3    C3 9673   3.778   2.640  12.480  0.2396 -0.2645 -0.3863
  650TMC3    C4 9674   3.946   2.437  12.436 -0.0227 -0.3030 -0.3348
  650TMC3    C5 9675   3.914   2.522  12.333 -0.1076  0.4286  0.3248
  650TMC3    C6 9676   3.822   2.618  12.348  0.5597 -0.2721 -0.1175
  650TMC3     C 9677   3.914   2.358  12.664 -0.4027 -0.2876  0.0824
  650TMC3     O 9678   3.914   2.403  12.778  0.2814 -0.2593 -0.4637
  650TMC3     H 9679   3.774   2.577  12.684  2.6239 -1.2120  1.0882
  650TMC3    H1 9680   4.022   2.361  12.421  0.1846  0.1273 -1.4340
  650TMC3    H2 9681   3.765   2.659  12.265 -0.3609 -1.3055 -0.0076
  650TMC3    C7 9682   3.943   2.464  12.203 -0.6720 -0.3328  0.4699
  650TMC3    C8 9683   3.665   2.726  12.501 -0.1166  0.6916 -0.4395
  650TMC3    O1 9684   3.988   2.351  12.202  0.5163  0.2974  0.1094
  650TMC3    O2 9685   3.657   2.816  12.415  0.1373  0.2309 -0.4862
  651MPD2     C 9686   2.899   0.189  10.070  0.0989  0.1962 -0.1754
  651MPD2    C1 9687   2.927   0.211  10.200 -0.5712 -0.2711 -0.0665
  651MPD2    C2 9688   3.056   0.226  10.242  0.5050  0.1549  0.5639
  651MPD2    C3 9689   3.154   0.253  10.150 -0.9411  0.1637 -0.1442
  651MPD2    C4 9690   3.122   0.245  10.018  0.3374 -0.1370  0.6188
  651MPD2    C5 9691   2.997   0.216   9.977  0.3496 -0.3415  0.9031
  651MPD2     H 9692   3.072   0.217  10.348  2.0672 -0.9367  0.2351
  651MPD2    H1 9693   3.187   0.269   9.934 -0.4530 -1.4663 -0.3613
  651MPD2    H2 9694   2.800   0.163  10.036 -0.3598  0.3893  1.0210
  651MPD2    H3 9695   2.977   0.236   9.872  0.7773 -0.9414  0.7075
  651MPD2     N 9696   3.284   0.278  10.195 -0.1553 -0.2023 -0.2681
  651MPD2    H5 9697   3.299   0.296  10.293  0.3456 -0.1581 -0.3521
  651MPD2    N1 9698   2.826   0.186  10.297 -0.2270 -0.2054 -0.3689
  651MPD2    H7 9699   2.853   0.196  10.395 -0.6807 -2.5878 -0.0202
  652TMC3    C1 9700   3.691   0.216  10.314 -0.5248 -0.8630  0.3084
  652TMC3    C2 9701   3.559   0.208  10.270 -0.0788 -0.1074  0.5014
  652TMC3    C3 9702   3.516   0.313  10.194 -0.0871  0.1953 -0.1001
  652TMC3    C4 9703   3.771   0.323  10.285  0.1190  0.0966  0.2152
  652TMC3    C5 9704   3.726   0.419  10.202  0.5986  0.0923 -0.4816
  652TMC3    C6 9705   3.593   0.421  10.161 -0.1789 -0.1132  0.1724
  652TMC3     C 9706   3.764   0.093  10.331  0.2685  0.4780 -0.5561
  652TMC3     O 9707   3.772   0.047  10.444 -0.4154  0.1811 -0.5111
  652TMC3     H 9708   3.504   0.119  10.295 -0.1464  0.2969  1.8095
  652TMC3    H1 9709   3.875   0.303  10.309 -0.6777 -2.9034  1.1880
  652TMC3    H2 9710   3.558   0.504  10.100  2.5537  0.2300 -0.8987
  652TMC3    C7 9711   3.825   0.519  10.155 -0.1317 -1.1637 -0.0491
  652TMC3    C8 9712   3.394   0.291  10.114  0.7458 -0.9394  0.2799
  652TMC3    O1 9713   3.926   0.539  10.227  0.2097 -0.0605  0.2102
  652TMC3    O2 9714   3.406   0.292   9.992  0.1684 -0.2262  0.1876
  653MPD2     C 9715   1.471   4.120  17.507  0.3606  0.4991 -0.2668
  653MPD2    C1 9716   1.388   4.202  17.433 -0.3576  0.8063  0.2417
  653MPD2    C2 9717   1.340   4.164  17.309  0.1326 -0.4467 -0.2567
  653MPD2    C3 9718   1.391   4.052  17.243 -0.1749  0.3866 -0.0858
  653MPD2    C4 9719   1.493   3.985  17.310 -0.4832 -0.0487  1.0314
  653MPD2    C5 9720   1.517   4.007  17.445 -0.3280  0.3366  0.4424
  653MPD2     H 9721   1.277   4.233  17.255  0.5744 -0.0529 -0.2717
  653MPD2    H1 9722   1.539   3.894  17.274  0.3956  0.7358  0.1585
  653MPD2    H2 9723   1.516   4.142  17.603  1.5980 -0.8782 -0.5352
  653MPD2    H3 9724   1.576   3.934  17.500  0.7596  0.7087 -0.2354
  653MPD2     N 9725   1.336   4.018  17.122  0.4361  0.4782  0.1884
  653MPD2    H5 9726   1.248   4.064  17.102  0.6500  0.6100 -0.4494
  653MPD2    N1 9727   1.353   4.330  17.463 -0.3037 -0.3529  0.5577
  653MPD2    H7 9728   1.294   4.387  17.404 -2.3323 -0.8205  2.1148
  654TMC3    C1 9729   1.253   3.871  16.952  0.9575 -0.3362 -0.3281
  654TMC3    C2 9730   1.181   3.969  16.887  0.2773 -0.7972  0.0530
  654TMC3    C3 9731   1.095   3.933  16.791  0.1535 -0.4294 -0.3138
  654TMC3    C4 9732   1.241   3.736  16.922  0.2968  0.4994  0.3149
  654TMC3    C5 9733   1.145   3.706  16.826  0.4908  0.7994 -0.6737
  654TMC3    C6 9734   1.082   3.800  16.755  0.2962 -0.5722 -0.5879
  654TMC3     C 9735   1.361   3.904  17.048  0.2299  0.2962 -0.1946
  654TMC3     O 9736   1.451   3.824  17.065 -0.7516  0.3294 -0.2286
  654TMC3     H 9737   1.203   4.073  16.908  3.6381 -1.8686  1.9229
  654TMC3    H1 9738   1.305   3.669  16.979 -0.9877 -0.2568  0.8733
  654TMC3    H2 9739   1.002   3.775  16.687  0.3604 -0.0630 -0.8553
  654TMC3    C7 9740   1.117   3.568  16.781  0.5668  0.9568 -1.3445
  654TMC3    C8 9741   1.072   4.026  16.685  0.1354 -0.0766  0.0393
  654TMC3    O1 9742   1.067   3.560  16.670 -0.5632  0.2273  0.1087
  654TMC3    O2 9743   1.075   4.147  16.711  0.4285  0.2196  0.0975
  655MPD2     C 9744   3.021   4.483  15.819 -0.0555 -0.1252  0.1196
  655MPD2    C1 9745   2.903   4.460  15.746  0.5663 -0.1378  0.0994
  655MPD2    C2 9746   2.896   4.350  15.654  0.0357 -0.7868 -0.8521
  655MPD2    C3 9747   2.999   4.248  15.651  0.4042  0.1203  0.2450
  655MPD2    C4 9748   3.113   4.277  15.728 -0.3979  0.4667  0.3142
  655MPD2    C5 9749   3.120   4.384  15.816 -0.2140 -0.4015 -0.3973
  655MPD2     H 9750   2.797   4.341  15.612 -0.9303  1.6904  0.9272
  655MPD2    H1 9751   3.201   4.215  15.717 -1.0969 -0.6621  1.0422
  655MPD2    H2 9752   3.037   4.567  15.885 -1.1976 -0.0771  0.3497
  655MPD2    H3 9753   3.205   4.391  15.883 -1.0118  0.8164  0.4849
  655MPD2     N 9754   2.999   4.141  15.558 -0.1425  0.4360  0.3023
  655MPD2    H5 9755   3.091   4.100  15.543 -0.8824 -0.9454 -0.5582
  655MPD2    N1 9756   2.789   4.537  15.765  0.3828 -0.0647  0.6137
  655MPD2    H7 9757   2.701   4.505  15.727  0.2436  0.3345  0.6035
  656TMC3    C1 9758   2.640   4.688  15.843  0.1991 -0.0105 -0.3240
  656TMC3    C2 9759   2.535   4.601  15.859  0.3117  0.0525 -0.0597
  656TMC3    C3 9760   2.406   4.651  15.844  0.1783 -0.1777 -0.5620
  656TMC3    C4 9761   2.618   0.078  15.795 -0.2270 -0.0124  0.1565
  656TMC3    C5 9762   2.489   0.115  15.761 -0.8483  0.6684 -0.0930
  656TMC3    C6 9763   2.379   0.036  15.788 -0.1132  0.4518 -0.1182
  656TMC3     C 9764   2.777   4.643  15.847 -0.2294 -0.0986 -0.1371
  656TMC3     O 9765   2.865   4.719  15.894 -0.9581 -0.3940  0.2457
  656TMC3     H 9766   2.554   4.505  15.904  1.8138  1.3668  2.1256
  656TMC3    H1 9767   2.699   0.150  15.784  0.6681 -1.3328 -1.6819
  656TMC3    H2 9768   2.277   0.062  15.762 -0.0678  0.3524 -0.3939
  656TMC3    C7 9769   2.476   0.205  15.643  0.1832  0.1581 -0.2158
  656TMC3    C8 9770   2.292   4.577  15.888 -0.4952  0.0341 -0.2338
  656TMC3    O1 9771   2.572   0.215  15.567 -0.8931 -0.4363 -0.3536
  656TMC3    O2 9772   2.317   4.463  15.923 -0.1846  0.5833  0.5224
  657TMC3    C1 9773   1.855   3.503  14.624 -0.0195 -0.1338  0.7931
  657TMC3    C2 9774   1.724   3.538  14.616  0.2304 -0.3705 -0.2435
  657TMC3    C3 9775   1.700   3.667  14.628  1.0958 -0.1219  0.6549
  657TMC3    C4 9776   1.960   3.594  14.646 -0.1593  0.0772  0.0365
  657TMC3    C5 9777   1.925   3.723  14.679  0.0543  0.5345  0.3398
  657TMC3    C6 9778   1.792   3.762  14.662 -0.5841 -0.4921  0.5441
  657TMC3     C 9779   1.885   3.362  14.621  0.3479 -0.6148 -0.2151
  657TMC3     O 9780   1.816   3.296  14.546  0.2772  0.5670  0.8138
  657TMC3     H 9781   1.647   3.463  14.606  1.0174 -0.6720 -4.0836
  657TMC3    H1 9782   2.061   3.557  14.634 -0.3801 -0.0248 -1.5178
  657TMC3    H2 9783   1.763   3.854  14.711  0.6769  1.7144 -2.8116
  657TMC3    C7 9784   2.031   3.812  14.668 -0.1142 -0.1612 -0.2967
  657TMC3    C8 9785   1.556   3.700  14.648  0.0478 -0.6211  0.1862
  657TMC3    O1 9786   2.142   3.779  14.706  0.2847 -0.0382  0.3029
  657TMC3    O2 9787   1.477   3.611  14.677 -0.1847 -0.1166 -0.6926
  658MPD2     C 9788   3.359   4.363  15.074  0.2663 -0.4056  0.3232
  658MPD2    C1 9789   3.237   4.311  15.038  0.4427 -0.7696 -0.4584
  658MPD2    C2 9790   3.191   4.349  14.908 -0.2632 -0.0018  0.5072
  658MPD2    C3 9791   3.269   4.431  14.826  0.9712  0.0490 -1.0332
  658MPD2    C4 9792   3.389   4.483  14.871 -0.8918  0.7139 -0.2737
  658MPD2    C5 9793   3.435   4.443  14.991 -0.1386  0.5956 -0.4546
  658MPD2     H 9794   3.089   4.332  14.875 -0.2921 -0.1544  0.6758
  658MPD2    H1 9795   3.453   4.542  14.807  1.5820 -2.5655 -0.8143
  658MPD2    H2 9796   3.394   4.338  15.173  0.7045 -0.2972  0.1920
  658MPD2    H3 9797   3.526   4.483  15.034 -0.0637  1.1376 -1.0968
  658MPD2     N 9798   3.211   4.463  14.701 -0.0014  0.1823 -0.0248
  658MPD2    H5 9799   3.128   4.420  14.663 -1.3082  2.2995  0.4266
  658MPD2    N1 9800   3.158   4.236  15.126 -0.5409 -0.0836  0.1431
  658MPD2    H7 9801   3.185   4.236  15.224  1.4768  0.6853 -0.4036
  659TMC3    C1 9802   2.957   4.108  15.173 -0.7500  0.4870 -0.2318
  659TMC3    C2 9803   2.993   4.071  15.298  0.0327  0.4441 -0.2321
  659TMC3    C3 9804   2.897   4.015  15.384  0.6391  0.5644 -0.3763
  659TMC3    C4 9805   2.833   4.078  15.124  0.3844 -0.7821 -0.1520
  659TMC3    C5 9806   2.743   4.018  15.205 -0.5125  0.3594 -0.0814
  659TMC3    C6 9807   2.775   3.977  15.335 -0.2513  0.2520 -0.1265
  659TMC3     C 9808   3.050   4.164  15.070  0.5928  0.1070 -0.1450
  659TMC3     O 9809   3.026   4.141  14.954 -0.1913 -0.0944  0.1857
  659TMC3     H 9810   3.093   4.096  15.332  0.0862  1.6167 -1.2531
  659TMC3    H1 9811   2.802   4.104  15.024 -1.1277  3.0844  1.3244
  659TMC3    H2 9812   2.700   3.940  15.403 -1.4952  0.3234 -1.4601
  659TMC3    C7 9813   2.597   4.042  15.191  0.0594  0.4138  0.6448
  659TMC3    C8 9814   2.881   4.096  15.502  0.5837  0.2175 -0.0171
  659TMC3    O1 9815   2.522   3.956  15.236 -0.2580 -0.5919 -0.4982
  659TMC3    O2 9816   2.765   4.129  15.526 -0.3739 -0.4440  0.0354
  660MPD2     C 9817   0.796   3.381  12.720  0.2776  0.8769  0.6684
  660MPD2    C1 9818   0.670   3.432  12.747  0.4433 -0.3197 -0.3170
  660MPD2    C2 9819   0.609   3.393  12.867  0.0679  0.4924  0.1068
  660MPD2    C3 9820   0.664   3.293  12.944 -0.1679 -0.2134 -0.5219
  660MPD2    C4 9821   0.794   3.253  12.922  0.0992  0.2521  0.1572
  660MPD2    C5 9822   0.856   3.301  12.809 -0.1428  0.6749 -0.5433
  660MPD2     H 9823   0.517   3.443  12.893 -0.5820  0.1868 -1.5752
  660MPD2    H1 9824   0.849   3.192  12.992  0.8051 -0.0030 -0.6289
  660MPD2    H2 9825   0.850   3.414  12.632 -0.0521  1.5636  0.7264
  660MPD2    H3 9826   0.960   3.273  12.793 -0.8485 -2.1623 -0.1506
  660MPD2     N 9827   0.595   3.241  13.060  0.2452  0.4519  0.3152
  660MPD2    H5 9828   0.651   3.182  13.120 -0.7609 -0.2472  0.5715
  660MPD2    N1 9829   0.617   3.537  12.667  0.6904 -0.3848 -0.0220
  660MPD2    H7 9830   0.677   3.574  12.595 -0.0929 -1.9994 -1.5027
  661TMC3    C1 9831   0.462   3.694  12.596 -0.1707  0.0079 -0.0015
  661TMC3    C2 9832   0.501   3.683  12.464  0.1608  0.0018  0.1517
  661TMC3    C3 9833   0.423   3.733  12.375  0.3053 -0.1623 -0.2462
  661TMC3    C4 9834   0.336   3.747  12.622 -0.4017 -0.6479  0.7927
  661TMC3    C5 9835   0.254   3.797  12.525  0.7153 -0.3428  0.0096
  661TMC3    C6 9836   0.301   3.795  12.398  0.1777 -0.5468 -0.7736
  661TMC3     C 9837   0.486   3.585  12.681 -0.1128  0.5974  1.0584
  661TMC3     O 9838   0.387   3.542  12.739 -0.1826  0.2073  0.2261
  661TMC3     H 9839   0.577   3.612  12.433  0.6195  0.9032 -0.7837
  661TMC3    H1 9840   0.291   3.748  12.721 -1.4591 -1.7216  0.3267
  661TMC3    H2 9841   0.238   3.842  12.324 -0.1745  0.8628  0.4266
  661TMC3    C7 9842   0.109   3.809  12.550  0.2328  0.2620 -0.6875
  661TMC3    C8 9843   0.485   3.777  12.256  0.3858  0.9201  0.2399
  661TMC3    O1 9844   0.083   3.835  12.664 -0.4643  0.5410 -0.5295
  661TMC3    O2 9845   0.408   3.786  12.164 -0.0503 -0.0459  0.4226
  662MPD2     C 9846   0.978   2.691  17.042  0.5066  0.2930 -0.1412
  662MPD2    C1 9847   0.950   2.663  17.176 -0.2688 -0.2584  0.2624
  662MPD2    C2 9848   0.863   2.750  17.239  0.6622  0.0910  0.7765
  662MPD2    C3 9849   0.801   2.861  17.182  0.3240 -0.3123  0.3717
  662MPD2    C4 9850   0.842   2.892  17.056  0.0483  0.2020  0.7903
  662MPD2    C5 9851   0.934   2.811  16.999  0.6564  0.0995 -0.6090
  662MPD2     H 9852   0.823   2.712  17.333 -0.0357  1.7658  1.1650
  662MPD2    H1 9853   0.798   2.974  17.002  0.4128  0.8826  1.5358
  662MPD2    H2 9854   1.033   2.621  16.979  2.3269  2.1151 -0.5708
  662MPD2    H3 9855   0.966   2.838  16.899  1.9267  1.9028  0.2911
  662MPD2     N 9856   0.711   2.948  17.239 -0.0929  0.0434  0.6795
  662MPD2    H5 9857   0.684   3.024  17.177 -1.4152  0.3835  1.6541
  662MPD2    N1 9858   0.989   2.549  17.242 -0.0831 -0.0387 -0.1781
  662MPD2    H7 9859   0.941   2.530  17.329  0.7851 -1.9566 -0.1157
  663TMC3    C1 9860   1.105   2.359  17.307  0.8746 -0.3486 -0.8327
  663TMC3    C2 9861   1.036   2.363  17.424 -1.0071  0.6559 -0.4621
  663TMC3    C3 9862   1.011   2.244  17.489  1.0204  0.3229 -0.8093
  663TMC3    C4 9863   1.120   2.241  17.245 -0.5689 -0.1842 -1.2897
  663TMC3    C5 9864   1.079   2.118  17.298  0.1408 -0.2254 -0.4081
  663TMC3    C6 9865   1.031   2.120  17.426 -0.9107 -0.6079  1.1058
  663TMC3     C 9866   1.099   2.472  17.213  0.0770 -0.0169  0.4453
  663TMC3     O 9867   1.173   2.468  17.112 -0.3251 -0.4300  0.2639
  663TMC3     H 9868   1.032   2.451  17.487 -2.0304  0.0883  0.2598
  663TMC3    H1 9869   1.171   2.244  17.149 -0.6030  1.5074 -1.2481
  663TMC3    H2 9870   0.966   2.044  17.467 -1.0843  0.6050  3.0983
  663TMC3    C7 9871   1.021   2.027  17.201  0.0751  0.5812  0.3881
  663TMC3    C8 9872   0.883   2.250  17.564  0.6042  0.2549  0.5549
  663TMC3    O1 9873   0.983   2.079  17.099  0.4550  0.3220  0.2526
  663TMC3    O2 9874   0.816   2.347  17.522  0.0016  0.0774 -0.3002
  664MPD2     C 9875   4.067   0.667  17.427  0.0738 -0.5505  0.5926
  664MPD2    C1 9876   4.126   0.729  17.534 -0.3411  0.3571 -0.1404
  664MPD2    C2 9877   4.089   0.697  17.660 -0.0859 -0.2668  0.9580
  664MPD2    C3 9878   3.987   0.607  17.678 -0.3193 -0.5080  0.1321
  664MPD2    C4 9879   3.928   0.535  17.576  0.2075  0.4218  0.7783
  664MPD2    C5 9880   3.970   0.569  17.446 -0.6832  0.3291  0.0692
  664MPD2     H 9881   4.146   0.741  17.741  1.4345  0.9267 -0.7575
  664MPD2    H1 9882   3.864   0.450  17.594 -1.0233  1.1495 -0.1893
  664MPD2    H2 9883   4.103   0.675  17.325 -1.3361  1.3973  0.2469
  664MPD2    H3 9884   3.937   0.496  17.373  0.4964  0.8675 -0.9961
  664MPD2     N 9885   3.954   0.584   0.069 -0.2524 -0.0411  0.3224
  664MPD2    H5 9886   4.003   0.643   0.136  0.9722  1.1079 -1.5719
  664MPD2    N1 9887   4.234   0.816  17.515  0.2953 -0.0934 -0.2706
  664MPD2    H7 9888   4.268   0.858  17.601 -2.2367  1.1291  0.1492
  665TMC3    C1 9889   3.827   0.541   0.259  0.2022 -0.3982  0.0302
  665TMC3    C2 9890   3.705   0.520   0.308  0.5762 -0.1929 -0.0782
  665TMC3    C3 9891   3.685   0.552   0.446  0.1509 -0.6544 -0.8202
  665TMC3    C4 9892   3.920   0.614   0.330  0.5671 -0.6613 -0.0907
  665TMC3    C5 9893   3.897   0.644   0.462 -0.1528  0.4326 -0.1708
  665TMC3    C6 9894   3.785   0.603   0.527 -0.0919  0.1325 -0.4946
  665TMC3     C 9895   3.855   0.506   0.117  0.4862  0.1772 -0.3126
  665TMC3     O 9896   3.768   0.448   0.051 -0.0327  0.1847 -0.1418
  665TMC3     H 9897   3.631   0.491   0.235 -1.3935  0.5777  1.5990
  665TMC3    H1 9898   4.012   0.652   0.287  0.5273 -0.7464 -0.2519
  665TMC3    H2 9899   3.777   0.629   0.632 -2.3695  0.7244 -0.8147
  665TMC3    C7 9900   4.012   0.705   0.541  0.3294 -0.5889  0.0820
  665TMC3    C8 9901   3.551   0.520   0.506  0.0795 -0.5380  0.0662
  665TMC3    O1 9902   4.113   0.714   0.473 -0.3136 -0.4943  0.4231
  665TMC3    O2 9903   3.544   0.548   0.623  0.3221 -0.0680  0.2999
  666TMC3    C1 9904   2.997   1.483   9.626  0.3907  0.2823  0.1980
  666TMC3    C2 9905   3.066   1.422   9.524 -0.0973 -0.3705  0.7013
  666TMC3    C3 9906   3.131   1.499   9.435 -0.6450 -0.2397  0.2763
  666TMC3    C4 9907   2.985   1.619   9.624 -0.2202 -0.0332  0.3291
  666TMC3    C5 9908   3.042   1.688   9.525  0.5242  0.2450  0.4266
  666TMC3    C6 9909   3.112   1.633   9.423 -0.7168  0.1269 -0.0839
  666TMC3     C 9910   2.908   1.414   9.718  0.1563 -0.3351  0.1167
  666TMC3     O 9911   2.825   1.478   9.785  0.3341  0.3377 -0.2335
  666TMC3     H 9912   3.085   1.315   9.521 -0.7661 -0.4723  0.1771
  666TMC3    H1 9913   2.942   1.674   9.707 -0.4061  1.9044 -1.0484
  666TMC3    H2 9914   3.174   1.691   9.357 -0.6519  0.6277  0.4214
  666TMC3    C7 9915   3.049   1.835   9.545  0.9936  0.5400  0.5661
  666TMC3    C8 9916   3.246   1.428   9.375  0.0183  0.3411 -0.8895
  666TMC3    O1 9917   3.020   1.867   9.660 -0.0349  0.2396 -0.4142
  666TMC3    O2 9918   3.288   1.340   9.444 -0.0279 -0.1597 -0.1538
  667MPD2     C 9919   0.161   1.175  14.426  0.2588 -0.7459 -0.1791
  667MPD2    C1 9920   0.060   1.237  14.492 -0.2942  0.1580  0.0961
  667MPD2    C2 9921   4.671   1.192  14.471  0.5451 -0.0961  0.4189
  667MPD2    C3 9922   4.642   1.102  14.376 -0.2484 -0.4704 -0.4800
  667MPD2    C4 9923   0.005   1.067  14.287  0.0324  0.2255  0.0856
  667MPD2    C5 9924   0.133   1.098  14.317 -0.4400 -0.6426  0.6885
  667MPD2     H 9925   4.596   1.228  14.540  0.2787  0.5439 -0.2076
  667MPD2    H1 9926   4.718   0.994  14.211  1.3799 -1.7876  1.5806
  667MPD2    H2 9927   0.264   1.183  14.460 -0.1868  0.2750  0.9358
  667MPD2    H3 9928   0.217   1.056  14.261 -1.0024 -0.5235 -0.2481
  667MPD2     N 9929   4.506   1.030  14.364  0.2294  0.4320  0.9363
  667MPD2    H5 9930   4.499   0.950  14.302  0.4962  1.7891 -0.8236
  667MPD2    N1 9931   0.091   1.329  14.593 -0.5525  0.0987 -0.2143
  667MPD2    H7 9932   0.016   1.357  14.655 -0.0320 -0.3278  0.6044
  668TMC3    C1 9933   0.226   1.456  14.732  0.0419  0.0926  0.6180
  668TMC3    C2 9934   0.318   1.560  14.747  0.4120  0.3515  0.6213
  668TMC3    C3 9935   0.324   1.634  14.865 -0.5155 -0.2120  0.3631
  668TMC3    C4 9936   0.145   1.423  14.836  0.0953  0.5138 -0.4479
  668TMC3    C5 9937   0.147   1.504  14.952  0.1480 -0.0789 -0.3612
  668TMC3    C6 9938   0.244   1.601  14.972  0.2892  0.1617 -0.0974
  668TMC3     C 9939   0.222   1.375  14.610  0.0098 -0.5639 -0.6428
  668TMC3     O 9940   0.312   1.385  14.531  0.1273 -0.1860 -0.2516
  668TMC3     H 9941   0.370   1.585  14.656  1.5750  1.5734  1.6155
  668TMC3    H1 9942   0.086   1.333  14.832  0.5976  0.2236 -1.2925
  668TMC3    H2 9943   0.236   1.653  15.067  1.0269  0.4715 -0.2082
  668TMC3    C7 9944   0.104   1.433  15.072 -0.1093  0.2487 -0.3524
  668TMC3    C8 9945   0.415   1.742  14.877  0.0346 -0.2695  0.4569
  668TMC3    O1 9946   0.185   1.432  15.167 -0.3538  0.4106 -0.3735
  668TMC3    O2 9947   0.407   1.802  14.982  0.0393 -0.0964 -0.2314
  669TMC3    C1 9948   2.939   0.918  14.905 -0.1916  0.7310 -0.4067
  669TMC3    C2 9949   2.857   0.941  14.798  0.2394 -0.2094 -0.1139
  669TMC3    C3 9950   2.914   0.988  14.683 -0.6301  0.0619 -0.1002
  669TMC3    C4 9951   3.067   0.968  14.902 -0.0937  0.0192 -0.4652
  669TMC3    C5 9952   3.123   1.005  14.785  0.6452 -0.1525 -0.0697
  669TMC3    C6 9953   3.050   1.011  14.673 -0.0644  0.4620  0.3798
  669TMC3     C 9954   2.889   0.825  15.007  0.1112  0.3065  0.1337
  669TMC3     O 9955   2.771   0.811  15.030  0.0797 -0.3203 -0.2317
  669TMC3     H 9956   2.754   0.907  14.805  0.1051  0.3046  0.4089
  669TMC3    H1 9957   3.118   0.978  14.997  1.3566  0.4256 -1.2953
  669TMC3    H2 9958   3.103   1.032  14.581  3.2737  0.9421  2.4190
  669TMC3    C7 9959   3.253   1.083  14.784  0.7840  1.1995 -0.4262
  669TMC3    C8 9960   2.836   0.989  14.558  0.7375  0.3948  0.6763
  669TMC3    O1 9961   3.270   1.152  14.684  0.8014  0.5423 -0.0321
  669TMC3    O2 9962   2.736   0.919  14.551 -0.4743  0.1402  0.5413
  670MPD2     C 9963   0.894   3.393  13.817 -0.5206  0.1851 -0.7457
  670MPD2    C1 9964   0.981   3.307  13.863  0.5433 -0.5293 -0.1938
  670MPD2    C2 9965   0.962   3.243  13.981  0.0833 -0.5786 -0.6331
  670MPD2    C3 9966   0.839   3.266  14.046 -0.1245 -0.4950 -0.4991
  670MPD2    C4 9967   0.748   3.359  13.996 -0.1302 -0.3161 -0.0148
  670MPD2    C5 9968   0.781   3.422  13.881  0.4875 -0.0042 -0.1827
  670MPD2     H 9969   1.036   3.175  14.021 -0.9925 -2.5616 -2.0606
  670MPD2    H1 9970   0.655   3.383  14.047  0.1023 -0.1466  0.3315
  670MPD2    H2 9971   0.916   3.457  13.732  0.4278 -1.6832 -1.9174
  670MPD2    H3 9972   0.722   3.497  13.830 -0.6270 -1.7608 -1.5118
  670MPD2     N 9973   0.810   3.192  14.161  0.6426 -0.9059  0.4607
  670MPD2    H5 9974   0.891   3.140  14.194  0.2808 -2.8825 -1.8080
  670MPD2    N1 9975   1.104   3.277  13.802  0.7178 -0.1335 -0.3888
  670MPD2    H7 9976   1.177   3.236  13.859 -0.6426 -2.9333 -0.6408
  671TMC3    C1 9977   0.687   3.088  14.335 -0.5441 -0.1900 -0.1979
  671TMC3    C2 9978   0.806   3.026  14.369 -0.6236  0.1250 -0.2378
  671TMC3    C3 9979   0.792   2.891  14.403  0.6499 -0.2888  0.2665
  671TMC3    C4 9980   0.566   3.033  14.364  0.1815 -0.2858 -0.0463
  671TMC3    C5 9981   0.560   2.896  14.388 -0.8439  0.0163 -0.5538
  671TMC3    C6 9982   0.676   2.823  14.406 -0.0425  0.2385 -1.0184
  671TMC3     C 9983   0.693   3.182  14.231  0.3618 -0.0894  0.1991
  671TMC3     O 9984   0.594   3.249  14.211  0.0633 -0.7331 -0.3662
  671TMC3     H 9985   0.903   3.057  14.332 -0.1382  0.0672  0.9744
  671TMC3    H1 9986   0.475   3.081  14.330 -0.0594 -0.7373 -0.0474
  671TMC3    H2 9987   0.665   2.716  14.422  0.8550 -0.1386 -2.8353
  671TMC3    C7 9988   0.454   2.822  14.326 -0.0694  0.3082 -0.4798
  671TMC3    C8 9989   0.905   2.806  14.429 -0.3002 -0.2483  0.0446
  671TMC3    O1 9990   0.497   2.737  14.245  0.4894  0.2100  0.5742
  671TMC3    O2 9991   0.884   2.685  14.440  0.1256  0.8407  0.1853
  672MPD2     C 9992   0.731   3.832   0.874  0.1028  0.1347  0.1845
  672MPD2    C1 9993   0.849   3.763   0.888  0.1734  0.5394  0.0840
  672MPD2    C2 9994   0.925   3.791   1.000  0.1214 -0.2542 -0.0890
  672MPD2    C3 9995   0.878   3.888   1.092  0.0099  0.1730 -0.2008
  672MPD2    C4 9996   0.761   3.952   1.071  0.7473 -0.3704  0.2398
  672MPD2    C5 9997   0.686   3.922   0.965  0.0643 -0.7983  0.2492
  672MPD2     H 9998   1.020   3.741   1.016 -0.2696 -1.2594 -0.9066
  672MPD2    H1 9999   0.730   4.031   1.139  0.3971 -0.2836 -0.0196
  672MPD2    H210000   0.663   3.828   0.789  0.4811 -2.2905 -0.0043
  672MPD2    H310001   0.592   3.972   0.946  0.1416 -0.0572  1.7625
  672MPD2     N10002   0.949   3.928   1.211 -1.1533 -0.3484  0.1294
  672MPD2    H510003   0.915   4.010   1.260  0.4050  0.2851  0.1480
  672MPD2    N110004   0.897   3.676   0.786  0.2817  0.6078  0.0205
  672MPD2    H710005   0.989   3.634   0.795 -0.3223 -0.5594  0.7238
  673TMC3    C110006   0.929   3.594   0.571 -0.3275 -1.0904 -0.7255
  673TMC3    C210007   1.017   3.503   0.623  0.8151  0.1397 -0.2222
  673TMC3    C310008   1.120   3.471   0.537 -0.0889  0.8343  0.3390
  673TMC3    C410009   0.929   3.639   0.446  0.0624  0.2801  0.2624
  673TMC3    C510010   1.034   3.608   0.368  0.3718 -0.2095 -0.0148
  673TMC3    C610011   1.131   3.530   0.418 -0.5852 -0.0500  0.2720
  673TMC3     C10012   0.841   3.659   0.663 -0.1792  0.1103 -0.5584
  673TMC3     O10013   0.749   3.724   0.613 -0.6213 -0.3943  0.1086
  673TMC3     H10014   0.986   3.448   0.712  1.7289  0.8341  0.5165
  673TMC3    H110015   0.853   3.706   0.409 -2.3902 -2.3235  0.5552
  673TMC3    H210016   1.218   3.509   0.357  0.5952  2.2162  1.1663
  673TMC3    C710017   1.081   3.725   0.288 -0.3987 -0.0038  0.0698
  673TMC3    C810018   1.198   3.358   0.571 -0.4755 -0.1227  0.7401
  673TMC3    O110019   1.203   3.750   0.290  0.2446 -0.2856 -0.3609
  673TMC3    O210020   1.277   3.315   0.485 -0.6040  0.2812 -0.1505
  674MPD2     C10021   0.990   3.120  17.378  0.8363 -0.0198  0.0439
  674MPD2    C110022   1.077   3.145  17.481  0.3819 -0.4632  0.0462
  674MPD2    C210023   1.161   3.252  17.484  0.6301  0.1189  0.4830
  674MPD2    C310024   1.167   3.326  17.369 -0.4733  1.2670  0.6651
  674MPD2    C410025   1.078   3.303  17.265  0.1214 -0.2874  0.1824
  674MPD2    C510026   0.984   3.203  17.273  0.3962 -0.3733  0.3171
  674MPD2     H10027   1.223   3.278  17.569  0.0003 -2.0641  1.6070
  674MPD2    H110028   1.078   3.369  17.179 -2.1062  0.4815  0.7812
  674MPD2    H210029   0.924   3.035  17.365 -0.4896  1.0691 -0.3985
  674MPD2    H310030   0.916   3.199  17.189  1.7866  0.2161 -0.8369
  674MPD2     N10031   1.251   3.443  17.368 -0.1575  0.4081 -0.4959
  674MPD2    H510032   1.284   3.468  17.460 -1.1689  0.3597 -0.1135
  674MPD2    N110033   1.075   3.052  17.589  0.2896 -0.0816  0.2795
  674MPD2    H710034   1.019   2.967  17.583 -0.5840  0.4777  0.5016
  675TMC3    C110035   1.117   2.949   0.045  0.0960 -0.7562  0.6728
  675TMC3    C210036   0.984   2.925   0.058 -0.7637 -0.0755 -0.2991
  675TMC3    C310037   0.939   2.852   0.161 -0.3296 -0.3192  0.4499
  675TMC3    C410038   1.201   2.906   0.140 -0.6001  1.3060  0.1967
  675TMC3    C510039   1.159   2.825   0.247  0.1891  0.2101  0.0761
  675TMC3    C610040   1.025   2.789   0.246 -0.0344 -0.0198  0.5377
  675TMC3     C10041   1.157   3.059  17.700  0.0250  0.1293 -0.1269
  675TMC3     O10042   1.254   3.122  17.743  0.0689 -0.1418  0.6362
  675TMC3     H10043   0.904   2.955  17.736 -1.4440  0.9869  0.9902
  675TMC3    H110044   1.307   2.915   0.119 -0.3759 -0.0820  0.7693
  675TMC3    H210045   0.983   2.718   0.316 -2.2103 -0.7825 -1.5303
  675TMC3    C710046   1.259   2.745   0.314  0.6135  0.3428  0.2787
  675TMC3    C810047   0.798   2.855   0.186 -0.2657 -0.5859  0.9504
  675TMC3    O110048   1.382   2.748   0.287 -0.3645  0.2842  0.3893
  675TMC3    O210049   0.725   2.923   0.114  0.4770  0.6901  0.4000
  676MPD2     C10050   4.179   2.423  10.745  0.0639 -0.3713  0.1070
  676MPD2    C110051   4.242   2.402  10.865 -0.0672 -0.3710 -0.2801
  676MPD2    C210052   4.311   2.280  10.871  0.1312  0.1746 -0.1713
  676MPD2    C310053   4.320   2.191  10.767 -0.1766  0.7391 -0.1039
  676MPD2    C410054   4.265   2.220  10.643 -0.1797 -0.3906  0.2328
  676MPD2    C510055   4.186   2.329  10.645 -0.2419  0.6941 -0.2619
  676MPD2     H10056   4.356   2.260  10.967  1.2397  0.2352 -0.6784
  676MPD2    H110057   4.260   2.141  10.569  1.8731  2.0643 -2.5359
  676MPD2    H210058   4.106   2.503  10.748 -0.3515 -0.7435 -0.0873
  676MPD2    H310059   4.116   2.345  10.564 -0.4121 -4.0285 -1.0065
  676MPD2     N10060   4.389   2.065  10.786 -0.4807  0.2320 -0.6146
  676MPD2    H510061   4.419   2.011  10.705  0.1841 -2.3086  1.3455
  676MPD2    N110062   4.230   2.476  10.982  0.1484  0.4532 -0.4237
  676MPD2    H710063   4.287   2.443  11.060  0.4321 -0.0673 -0.8514
  677TMC3    C110064   4.170   2.644  11.136  0.1285  0.1680 -0.5611
  677TMC3    C210065   4.149   2.554  11.232 -0.0825 -0.0673  0.4004
  677TMC3    C310066   4.120   2.602  11.360  0.6522  0.2588  0.8012
  677TMC3    C410067   4.170   2.776  11.157 -0.2400 -0.2441  0.1015
  677TMC3    C510068   4.149   2.823  11.285 -0.5937  0.4739 -0.2542
  677TMC3    C610069   4.128   2.735  11.387 -0.3278 -0.3451 -0.8233
  677TMC3     C10070   4.174   2.599  11.001 -0.1638  0.4527  0.0472
  677TMC3     O10071   4.148   2.686  10.919 -0.5895 -0.3490  0.3691
  677TMC3     H10072   4.159   2.449  11.208  2.5155 -0.2925  2.4461
  677TMC3    H110073   4.181   2.851  11.080  0.0998 -0.4369 -0.0375
  677TMC3    H210074   4.123   2.775  11.487  1.0428 -0.7571 -0.5902
  677TMC3    C710075   4.093   2.955  11.306  0.2633  0.1583 -0.1505
  677TMC3    C810076   4.154   2.507  11.468 -0.0044  0.5457  0.8164
  677TMC3    O110077   4.013   2.970  11.397 -0.4350 -0.6764  0.2416
  677TMC3    O210078   4.222   2.554  11.558  0.2600 -0.3463  0.2384
  678MPD2     C10079   0.794   1.073   1.520 -0.1659  0.4344 -0.0751
  678MPD2    C110080   0.771   1.047   1.385 -0.0862  0.1781  0.2908
  678MPD2    C210081   0.644   1.069   1.339 -0.3456  1.1795  0.0830
  678MPD2    C310082   0.545   1.131   1.425 -0.5194  0.0122 -0.0710
  678MPD2    C410083   0.576   1.164   1.553 -0.4075  0.0498  0.1228
  678MPD2    C510084   0.697   1.132   1.600 -0.2793 -0.2189  0.1525
  678MPD2     H10085   0.620   1.059   1.234  1.2414 -0.0475 -0.1522
  678MPD2    H110086   0.503   1.208   1.619  0.5001 -0.2948  1.3660
  678MPD2    H210087   0.882   1.039   1.571 -1.3651  1.7007  2.8461
  678MPD2    H310088   0.718   1.143   1.705 -1.9461 -1.5287  0.6175
  678MPD2     N10089   0.416   1.146   1.379  0.3915  0.0962  0.3104
  678MPD2    H510090   0.404   1.107   1.286 -0.6130 -0.0610  0.5142
  678MPD2    N110091   0.872   1.003   1.287 -0.4641 -1.0307  0.1282
  678MPD2    H710092   0.845   0.998   1.189  0.8023  0.5310 -0.3051
  679TMC3    C110093   1.311   0.937   1.137  1.0445  0.3584 -0.0020
  679TMC3    C210094   1.207   0.915   1.225  0.1347 -0.2554 -0.3857
  679TMC3    C310095   1.092   0.977   1.201 -0.6732  0.1950  0.5807
  679TMC3    C410096   1.297   1.024   1.035 -0.0493  0.7812  0.4905
  679TMC3    C510097   1.182   1.088   1.015  0.3027  0.4809 -0.0184
  679TMC3    C610098   1.073   1.057   1.096 -0.2614 -0.1191  0.0007
  679TMC3     C10099   1.445   0.871   1.141 -0.5017 -0.4156 -0.1330
  679TMC3     O10100   1.529   0.901   1.061  0.1402  0.1800 -0.0724
  679TMC3     H10101   1.211   0.848   1.310  3.3566  1.3334  0.7032
  679TMC3    H110102   1.385   1.052   0.979  1.2530  1.6601  2.9664
  679TMC3    H210103   0.985   1.120   1.091  0.8887  1.3724 -1.3314
  679TMC3    C710104   1.175   1.207   0.940  0.4668  0.1667  0.0137
  679TMC3    C810105   1.003   0.993   1.315  0.4848  0.7494 -0.6012
  679TMC3    O110106   1.108   1.297   0.988  0.6879  0.2411  0.2076
  679TMC3    O210107   1.048   0.965   1.422  0.0712  0.2088 -0.1659
  680MPD2     C10108   0.382   0.656  13.458  0.2526  0.5776  0.5327
  680MPD2    C110109   0.499   0.596  13.498  0.3414  1.2675 -0.1368
  680MPD2    C210110   0.619   0.669  13.506  0.2552 -0.4261  0.4617
  680MPD2    C310111   0.616   0.806  13.484  0.3565 -0.5961  0.0261
  680MPD2    C410112   0.499   0.862  13.434  1.0651 -0.2260 -0.1633
  680MPD2    C510113   0.384   0.792  13.432 -0.3272  1.0599  0.8035
  680MPD2     H10114   0.709   0.629  13.552 -0.6812 -0.5446  2.1921
  680MPD2    H110115   0.488   0.969  13.418 -1.4110 -0.3922  0.4114
  680MPD2    H210116   0.287   0.604  13.456  0.6589 -0.2152  1.6614
  680MPD2    H310117   0.290   0.841  13.411 -0.0042  0.3166 -2.4584
  680MPD2     N10118   0.726   0.886  13.510  0.2905  0.3290  0.2216
  680MPD2    H510119   0.699   0.982  13.492 -1.4186  0.0978  1.5081
  680MPD2    N110120   0.510   0.458  13.539 -0.4464 -0.6323  0.5358
  680MPD2    H710121   0.595   0.405  13.557  1.1860  1.2514 -1.5852
  681TMC3    C110122   0.430   0.243  13.596  0.5344  0.0265  0.6406
  681TMC3    C210123   0.381   0.210  13.720  0.0407 -0.4520  0.2476
  681TMC3    C310124   0.404   0.080  13.756 -0.4589 -0.1648 -0.1961
  681TMC3    C410125   0.501   0.165  13.517 -0.2841  0.1619  0.4530
  681TMC3    C510126   0.528   0.042  13.555  0.0990 -0.4634 -0.1392
  681TMC3    C610127   0.476   4.732  13.672  0.6562  0.0920  0.1666
  681TMC3     C10128   0.399   0.380  13.560 -0.3674 -0.1915  0.0404
  681TMC3     O10129   0.278   0.406  13.569  0.7055  0.3448 -0.2596
  681TMC3     H10130   0.311   0.272  13.774 -0.3483 -1.4136  0.8432
  681TMC3    H110131   0.535   0.205  13.422  0.9254 -5.6859 -1.6379
  681TMC3    H210132   0.487   4.625  13.688 -0.3851 -0.1750 -0.8965
  681TMC3    C710133   0.534   4.672  13.459 -0.5981 -0.0560  0.2525
  681TMC3    C810134   0.403   0.038  13.892  0.6145  0.2554 -0.0397
  681TMC3    O110135   0.449   4.582  13.457  0.2090  0.2677  0.5973
  681TMC3    O210136   0.443   4.660  13.917 -1.1047 -0.4693 -0.0686
  682MPD2     C10137   2.868   3.032  10.179 -0.1786 -0.1393  0.0958
  682MPD2    C110138   2.948   2.932  10.230 -0.3532 -0.8920 -0.4969
  682MPD2    C210139   2.982   2.932  10.363 -0.5290 -0.1586 -0.3626
  682MPD2    C310140   2.926   3.021  10.450  0.2830 -0.7834  0.5171
  682MPD2    C410141   2.841   3.124  10.404  0.7630 -0.0650  0.9388
  682MPD2    C510142   2.816   3.127  10.270  0.8013 -0.5126  0.8778
  682MPD2     H10143   3.052   2.862  10.408 -1.1247 -0.6151 -0.1494
  682MPD2    H110144   2.784   3.172  10.483 -0.4785 -1.1409  0.6963
  682MPD2    H210145   2.841   3.035  10.074  0.0694  0.8200  0.0603
  682MPD2    H310146   2.737   3.196  10.243  0.2971 -0.7153  1.8108
  682MPD2     N10147   2.950   3.014  10.591 -0.1343  0.1107  0.4454
  682MPD2    H510148   2.886   3.057  10.658  0.3603 -0.1083  1.0530
  682MPD2    N110149   3.000   2.828  10.153  0.4946  0.3435  0.4952
  682MPD2    H710150   3.046   2.757  10.208  1.5000  1.9590  1.7220
  683TMC3    C110151   2.912   2.776  10.929  0.1125 -0.1714  0.1637
  683TMC3    C210152   2.987   2.664  10.920  0.4041  0.6505 -0.1576
  683TMC3    C310153   3.092   2.655  10.828 -0.0762 -0.2947  0.0947
  683TMC3    C410154   2.939   2.879  10.843  0.1535 -0.0206  0.0152
  683TMC3    C510155   3.039   2.865  10.749 -0.5776 -0.0035  0.9566
  683TMC3    C610156   3.126   2.756  10.747  0.0420  0.4325 -0.1141
  683TMC3     C10157   2.889   2.820  11.066  0.2961 -0.0647  0.0948
  683TMC3     O10158   2.904   2.942  11.091  0.1779 -0.1888  0.1065
  683TMC3     H10159   2.988   2.590  10.999  3.0846  0.1530 -0.6393
  683TMC3    H110160   2.876   2.967  10.841  0.8709  0.5406  1.6491
  683TMC3    H210161   3.206   2.735  10.677  0.8650  4.2040 -0.3316
  683TMC3    C710162   3.060   2.954  10.639 -0.6743 -0.0525  0.0587
  683TMC3    C810163   3.096   2.522  10.754 -0.4951  0.5390  0.0881
  683TMC3    O110164   3.169   2.954  10.587 -0.4607 -0.2676  0.8005
  683TMC3    O210165   3.113   2.529  10.635 -0.0240  0.2865  0.3239
  684MPD2     C10166   0.949   1.450  16.667  0.4132 -0.0406  0.2174
  684MPD2    C110167   0.929   1.483  16.537  0.1589 -0.1277 -0.2824
  684MPD2    C210168   0.977   1.606  16.493  0.0119 -0.2563 -0.0156
  684MPD2    C310169   1.049   1.689  16.574  0.2503 -0.3623  0.0472
  684MPD2    C410170   1.072   1.648  16.698 -0.0377 -0.3973  0.2952
  684MPD2    C510171   1.020   1.532  16.749  0.2832  0.3317  0.3176
  684MPD2     H10172   0.948   1.638  16.393 -0.6489  2.1800  0.9625
  684MPD2    H110173   1.125   1.716  16.763  0.0356  0.0225 -0.2034
  684MPD2    H210174   0.914   1.354  16.704 -1.0390  0.9946  1.5092
  684MPD2    H310175   1.053   1.512  16.851  0.9593 -0.2192 -0.0120
  684MPD2     N10176   1.102   1.808  16.529  0.3042 -0.0401 -0.4867
  684MPD2    H510177   1.182   1.853  16.573 -1.9173  3.0614  0.3572
  684MPD2    N110178   0.867   1.392  16.443  0.3006  0.1071 -0.1546
  684MPD2    H710179   0.851   1.430  16.350 -0.2610  0.1829 -0.0295
  685TMC3    C110180   0.920   1.214  16.312 -0.5087  0.3155 -0.9207
  685TMC3    C210181   0.850   1.238  16.197  0.2646  0.3049  0.3514
  685TMC3    C310182   0.924   1.242  16.079  0.4073  0.2021  0.1715
  685TMC3    C410183   1.051   1.188  16.311 -0.0591  0.1518 -0.2924
  685TMC3    C510184   1.118   1.184  16.195  0.2880  0.5578 -0.5422
  685TMC3    C610185   1.059   1.215  16.079 -0.2652 -0.5335 -0.2834
  685TMC3     C10186   0.877   1.256  16.447  1.2954 -0.1142 -0.2458
  685TMC3     O10187   0.919   1.183  16.538 -0.4066 -0.3186  0.2126
  685TMC3     H10188   0.747   1.274  16.200 -0.4365 -1.6277 -0.4906
  685TMC3    H110189   1.112   1.185  16.401  1.5385 -2.1260 -1.4355
  685TMC3    H210190   1.107   1.201  15.982  0.4413 -1.1268  0.1556
  685TMC3    C710191   1.248   1.117  16.201 -0.0048 -0.4356 -0.0408
  685TMC3    C810192   0.866   1.283  15.949  0.0919  0.4526 -0.1401
  685TMC3    O110193   1.249   1.024  16.278  0.0448  0.3736 -0.8736
  685TMC3    O210194   0.921   1.252  15.844  0.0567 -0.1959 -0.3908
  686MPD2     C10195   2.242   1.158  16.463  0.2123  0.4410  0.1397
  686MPD2    C110196   2.290   1.129  16.336 -0.7096 -0.2390 -0.5106
  686MPD2    C210197   2.418   1.167  16.295  0.1276  0.2176  0.2385
  686MPD2    C310198   2.501   1.216  16.397 -0.4559  0.1918  0.1655
  686MPD2    C410199   2.454   1.237  16.529  0.3545 -0.2171  0.9343
  686MPD2    C510200   2.327   1.206  16.558  0.1036  0.2228  0.0128
  686MPD2     H10201   2.460   1.135  16.200 -0.7660  1.9023 -0.7189
  686MPD2    H110202   2.525   1.250  16.610  0.3058 -0.5994  1.0378
  686MPD2    H210203   2.141   1.134  16.495 -0.2578 -1.2919 -2.6510
  686MPD2    H310204   2.293   1.229  16.659  0.8793 -1.5704  0.6649
  686MPD2     N10205   2.640   1.238  16.370 -0.0472  0.1675  0.6397
  686MPD2    H510206   2.700   1.244  16.452  2.4447 -2.0110 -1.0235
  686MPD2    N110207   2.202   1.067  16.240 -0.1327 -0.1548  0.7771
  686MPD2    H710208   2.107   1.054  16.273 -0.2903  0.8016  0.7129
  687TMC3    C110209   2.825   1.190  16.233 -1.6664  0.5303 -0.0552
  687TMC3    C210210   2.873   1.182  16.102  0.6317 -0.2419 -0.9563
  687TMC3    C310211   2.986   1.105  16.075 -0.5021  0.0067  0.0234
  687TMC3    C410212   2.883   1.116  16.336 -0.2338 -0.2452  0.0792
  687TMC3    C510213   2.983   1.030  16.288  0.0164 -0.1494  0.2317
  687TMC3    C610214   3.039   1.025  16.165 -0.8300  0.6974  0.0591
  687TMC3     C10215   2.694   1.251  16.245  0.3479 -0.1450  0.3268
  687TMC3     O10216   2.641   1.269  16.136 -0.2089  0.8208 -0.5409
  687TMC3     H10217   2.841   1.255  16.028  1.6687  2.0745  0.8926
  687TMC3    H110218   2.860   1.120  16.442  1.7006 -3.3956  0.6282
  687TMC3    H210219   3.105   0.945  16.134 -3.8443 -2.1957  1.0552
  687TMC3    C710220   3.048   0.966  16.401 -0.1293 -0.6824 -1.1402
  687TMC3    C810221   3.033   1.116  15.942 -0.5805 -0.1294  0.1881
  687TMC3    O110222   2.987   0.954  16.508 -0.2598 -0.0696  0.0436
  687TMC3    O210223   3.145   1.075  15.927  0.3893  0.0751 -0.0432
  688MPD2     C10224   1.603   0.196  17.156  0.0048 -0.5263 -0.1138
  688MPD2    C110225   1.623   0.063  17.180 -0.0998  0.3789  0.0949
  688MPD2    C210226   1.721   4.731  17.102 -0.4968  0.0297 -0.5016
  688MPD2    C310227   1.782   0.060  16.999 -0.6227 -0.1900  0.2204
  688MPD2    C410228   1.757   0.187  16.981 -0.3794 -0.5524  0.0553
  688MPD2    C510229   1.669   0.255  17.052 -0.0337  0.5490 -0.2360
  688MPD2     H10230   1.730   4.624  17.116 -1.8151 -0.4723 -3.5072
  688MPD2    H110231   1.795   0.234  16.891  2.1621 -0.9228  0.9342
  688MPD2    H210232   1.543   0.270  17.208 -1.6343 -1.4819 -0.6274
  688MPD2    H310233   1.654   0.362  17.048 -0.5673  0.4984  0.4674
  688MPD2     N10234   1.864   4.732  16.899  0.7367  0.7236 -0.0445
  688MPD2    H510235   1.904   0.058  16.829  0.9997 -1.5516 -1.9425
  688MPD2    N110236   1.560   0.002  17.292  0.0209  0.3987  0.2789
  688MPD2    H710237   1.579   4.640  17.302 -0.8632  0.0694 -1.3117
  689TMC3    C110238   1.432   4.717  17.496  0.2744 -0.6105 -0.4531
  689TMC3    C210239   1.430   0.049  17.608 -0.3891 -0.2910 -0.4013
  689TMC3    C310240   1.398   4.707  17.718  0.4352  0.3492 -0.1097
  689TMC3    C410241   1.394   4.589  17.477  0.0072 -0.1138  0.2759
  689TMC3    C510242   1.357   4.518  17.585  0.7162  0.0051 -0.0802
  689TMC3    C610243   1.358   4.575  17.707  0.8397 -0.1522  0.5918
  689TMC3     C10244   1.477   0.065  17.386  0.0275 -0.0969  0.1208
  689TMC3     O10245   1.457   0.184  17.413 -0.1536  0.2077 -0.5804
  689TMC3     H10246   1.450   0.153  17.631  2.1416 -1.2711  1.9103
  689TMC3    H110247   1.393   4.546  17.378 -2.3961  0.0626  0.2303
  689TMC3    H210248   1.329   4.517   0.048 -0.5589 -0.5689 -0.1626
  689TMC3    C710249   1.376   4.380  17.586 -0.2273 -0.1985 -0.5756
  689TMC3    C810250   1.380   0.027   0.108 -0.0904 -0.2820 -0.1523
  689TMC3    O110251   1.421   4.333  17.689  0.8427  0.1966  0.1303
  689TMC3    O210252   1.317   4.695   0.183 -0.4657  0.1757  0.3024
  690MPD2     C10253   3.853   1.711  15.964 -0.1777  0.0021  0.9100
  690MPD2    C110254   3.870   1.747  15.835 -0.0896 -0.3463  0.0166
  690MPD2    C210255   3.922   1.872  15.799  0.2593  0.4287 -0.6572
  690MPD2    C310256   3.995   1.947  15.895  0.6557 -0.3121 -0.7384
  690MPD2    C410257   3.986   1.898  16.026 -0.2079 -0.3895  0.4501
  690MPD2    C510258   3.904   1.791  16.061  0.5777  0.4778 -0.7278
  690MPD2     H10259   3.923   1.919  15.702 -0.5416 -0.9769 -1.3442
  690MPD2    H110260   4.036   1.948  16.108 -0.3755  2.3857 -1.1257
  690MPD2    H210261   3.808   1.619  16.000  0.7967 -0.4049  1.0737
  690MPD2    H310262   3.888   1.761  16.164 -0.3503 -0.9798 -1.2937
  690MPD2     N10263   4.074   2.057  15.852 -0.0495  0.5150 -1.4058
  690MPD2    H510264   4.053   2.086  15.757 -2.1146 -1.3042 -1.5093
  690MPD2    N110265   3.822   1.671  15.728  0.3361  0.1537 -0.5449
  690MPD2    H710266   3.819   1.714  15.637 -1.4986 -0.6789 -0.8777
  691TMC3    C110267   3.757   1.493  15.598 -0.3750  0.7092  0.0840
  691TMC3    C210268   3.694   1.582  15.510 -0.6158  1.0516  0.7583
  691TMC3    C310269   3.676   1.541  15.382  0.7429 -0.2698 -0.6850
  691TMC3    C410270   3.799   1.369  15.565 -0.0038 -0.4479 -0.1612
  691TMC3    C510271   3.764   1.325  15.445 -0.4281  0.1283 -1.1476
  691TMC3    C610272   3.711   1.407  15.348 -0.6807 -0.6723  0.0836
  691TMC3     C10273   3.795   1.534  15.730 -0.0747  0.3795  0.0012
  691TMC3     O10274   3.802   1.452  15.822 -0.3000  0.0845 -1.3801
  691TMC3     H10275   3.660   1.678  15.549 -1.2491  1.2074 -0.1505
  691TMC3    H110276   3.851   1.311  15.640  1.3502  1.2159  0.1982
  691TMC3    H210277   3.684   1.375  15.248  0.4285 -0.9887 -0.1065
  691TMC3    C710278   3.719   1.192  15.440 -0.0214  0.4434 -0.7942
  691TMC3    C810279   3.542   1.566  15.321 -0.1721 -0.2199  0.3945
  691TMC3    O110280   3.771   1.125  15.528 -0.3492  0.4468 -0.5637
  691TMC3    O210281   3.471   1.465  15.303  0.7306 -0.3223  0.7065
  692TMC3    C110282   0.664   2.975  16.083 -1.0080 -0.5795  0.3771
  692TMC3    C210283   0.734   2.966  16.199 -0.5249  0.3142 -0.8910
  692TMC3    C310284   0.864   2.932  16.197 -0.2961 -0.9312 -0.2474
  692TMC3    C410285   0.720   2.942  15.966 -0.6135  0.2799 -0.5860
  692TMC3    C510286   0.842   2.875  15.969  0.1847  0.0150 -0.6779
  692TMC3    C610287   0.923   2.885  16.079  0.5361 -0.0912  0.6203
  692TMC3     C10288   0.550   3.062  16.089 -0.5070  0.6343  0.0998
  692TMC3     O10289   0.529   3.121  16.194  0.0060 -0.3867 -0.5173
  692TMC3     H10290   0.697   3.011  16.291 -0.7087  0.7397 -1.1684
  692TMC3    H110291   0.667   2.950  15.872  0.5752  2.4240 -1.0781
  692TMC3    H210292   1.014   2.829  16.097  0.6102  1.1295  4.1678
  692TMC3    C710293   0.848   2.759  15.884 -0.3882  0.1735  0.7313
  692TMC3    C810294   0.894   2.831  16.295  0.0861  0.2418  0.6260
  692TMC3    O110295   0.755   2.765  15.808  0.0220 -0.9060  0.2052
  692TMC3    O210296   0.934   2.721  16.265  0.2667  0.6745 -0.4097
  693MPD2     C10297   0.835   1.017  10.618 -0.0485  0.7494  0.1646
  693MPD2    C110298   0.768   0.971  10.732  0.1855  1.1351  0.5972
  693MPD2    C210299   0.849   0.919  10.833 -0.4662  0.9618  0.3026
  693MPD2    C310300   0.988   0.929  10.808 -0.4174  0.4602 -1.3279
  693MPD2    C410301   1.042   1.001  10.703 -0.6782  0.1126 -0.1650
  693MPD2    C510302   0.964   1.046  10.606  0.0618 -0.0471  0.7258
  693MPD2     H10303   0.810   0.871  10.922 -0.4618 -1.9599 -1.2818
  693MPD2    H110304   1.149   1.010  10.684 -0.7178  0.7412 -0.0841
  693MPD2    H210305   0.776   1.065  10.541  1.9902  0.9771 -1.2425
  693MPD2    H310306   1.010   1.108  10.529  0.7786  0.5832  1.6654
  693MPD2     N10307   1.087   0.871  10.890 -0.1924 -0.8486 -0.0865
  693MPD2    H510308   1.184   0.877  10.861 -0.0497 -0.9727  0.3562
  693MPD2    N110309   0.628   0.951  10.747 -0.2309  0.6674 -0.1118
  693MPD2    H710310   0.595   0.913  10.836  1.3672 -1.5600 -0.4656
  694TMC3    C110311   0.406   0.953  10.683 -0.2475  0.1048 -0.5529
  694TMC3    C210312   0.313   0.917  10.589 -0.0087 -0.4106  0.7154
  694TMC3    C310313   0.185   0.902  10.629 -0.6608  0.3524  0.5274
  694TMC3    C410314   0.374   0.983  10.815 -0.2399  0.6958  0.0711
  694TMC3    C510315   0.243   0.959  10.844  0.5346  0.1338  0.3076
  694TMC3    C610316   0.147   0.917  10.757  0.0412  0.1845  0.1752
  694TMC3     C10317   0.541   0.959  10.642 -0.1215 -0.3666 -1.3262
  694TMC3     O10318   0.564   0.955  10.521  0.6045 -0.2802 -0.1228
  694TMC3     H10319   0.347   0.882  10.493 -1.0473  0.0289  0.1877
  694TMC3    H110320   0.443   1.035  10.879 -0.6188  0.7060  0.4743
  694TMC3    H210321   0.042   0.922  10.783  0.0150  0.3284  0.0464
  694TMC3    C710322   0.215   0.982  10.980 -0.0169  0.6446  0.2532
  694TMC3    C810323   0.095   0.839  10.534 -1.2339  0.0466  0.0424
  694TMC3    O110324   0.285   1.054  11.046  0.0663 -0.5995 -1.0397
  694TMC3    O210325   0.023   0.750  10.581  0.4931 -0.6321 -0.2624
  695MPD2     C10326   1.279   2.858  13.505  0.2788 -0.7743 -0.6138
  695MPD2    C110327   1.208   2.824  13.615  0.6898  0.5587 -0.6231
  695MPD2    C210328   1.098   2.897  13.658 -0.0067 -0.2687  0.2861
  695MPD2    C310329   1.046   2.996  13.574  0.3162 -0.2828  0.7086
  695MPD2    C410330   1.115   3.025  13.458 -0.3208  0.8731 -0.5890
  695MPD2    C510331   1.229   2.959  13.431 -0.5755 -0.1824  0.0747
  695MPD2     H10332   1.043   2.872  13.748 -0.9836 -0.7608 -0.4522
  695MPD2    H110333   1.080   3.103  13.391 -1.1173  0.7616 -0.2980
  695MPD2    H210334   1.367   2.804  13.473  1.6786  0.5793  0.9887
  695MPD2    H310335   1.284   2.981  13.340 -0.1913  1.6786  0.7695
  695MPD2     N10336   0.916   3.042  13.607  0.7239 -0.5611 -0.3023
  695MPD2    H510337   0.885   3.008  13.697  0.5030  1.8947  0.5462
  695MPD2    N110338   1.246   2.727  13.705  0.0695  0.0085  0.4165
  695MPD2    H710339   1.194   2.721  13.792 -0.0528  2.2311  0.4813
  696TMC3    C110340   0.721   3.166  13.583 -0.3153  0.2903  0.4812
  696TMC3    C210341   0.672   3.087  13.680 -0.1165  0.2051 -0.1256
  696TMC3    C310342   0.568   3.143  13.758 -0.6050  0.9123  0.1106
  696TMC3    C410343   0.679   3.289  13.550  0.6193 -0.4058  0.2574
  696TMC3    C510344   0.581   3.339  13.628 -0.5546 -0.3245 -0.3749
  696TMC3    C610345   0.525   3.277  13.734  0.0069  0.0575 -0.3533
  696TMC3     C10346   0.841   3.122  13.523  0.5466 -0.4163 -0.3185
  696TMC3     O10347   0.875   3.168  13.417  0.0212 -0.3511 -0.2041
  696TMC3     H10348   0.707   2.987  13.704  2.5112  1.0737 -0.3767
  696TMC3    H110349   0.725   3.347  13.471  0.6311 -2.2064 -1.0362
  696TMC3    H210350   0.435   3.305  13.788  0.4141 -0.8390  0.7903
  696TMC3    C710351   0.558   3.480  13.619  0.2995  0.3856  0.6939
  696TMC3    C810352   0.497   3.050  13.843 -0.6348  0.3506  0.1442
  696TMC3    O110353   0.601   3.533  13.515 -0.1597 -0.5549 -0.5461
  696TMC3    O210354   0.565   2.953  13.878 -0.0027  0.1582  0.1488
  697MPD2     C10355   0.660   0.088  15.383 -0.3472 -0.1667 -0.1772
  697MPD2    C110356   0.576   0.021  15.300  1.0566  0.2415  0.2344
  697MPD2    C210357   0.510   0.087  15.202  0.0798  0.4122  0.2206
  697MPD2    C310358   0.513   0.224  15.186  0.5554  0.1627 -0.3332
  697MPD2    C410359   0.608   0.293  15.264 -0.2547 -0.6304  0.4444
  697MPD2    C510360   0.684   0.222  15.356  0.1775 -0.0061 -1.0241
  697MPD2     H10361   0.434   0.033  15.146  2.4141 -0.9056 -1.6518
  697MPD2    H110362   0.612   0.401  15.256  0.5094 -0.4740  2.7301
  697MPD2    H210363   0.709   0.038  15.465  0.0093  2.6140  1.2945
  697MPD2    H310364   0.755   0.283  15.412  2.2361 -1.7208 -1.7961
  697MPD2     N10365   0.431   0.280  15.084  0.1091  0.0517  0.2183
  697MPD2    H510366   0.362   0.219  15.042  0.7669  0.6241 -1.6698
  697MPD2    N110367   0.559   4.618  15.302  0.1249  0.8812  0.4208
  697MPD2    H710368   0.499   4.574  15.233  2.0318  1.3786 -1.5801
  698TMC3    C110369   0.350   0.463  14.945  0.5579 -0.0785  0.0463
  698TMC3    C210370   0.356   0.595  14.921 -0.3151 -0.7389 -0.0055
  698TMC3    C310371   0.269   0.648  14.829  0.0863 -0.1935 -0.2890
  698TMC3    C410372   0.251   0.378  14.892 -0.2694 -0.2898  0.1091
  698TMC3    C510373   0.164   0.439  14.809  0.5686  0.0723  0.1678
  698TMC3    C610374   0.181   0.568  14.767 -0.1028 -0.4763  0.0954
  698TMC3     C10375   0.445   0.407  15.037  0.1521 -0.5264 -0.7812
  698TMC3     O10376   0.536   0.487  15.070  1.2170 -0.3861  0.1181
  698TMC3     H10377   0.430   0.657  14.972  0.2771 -0.5847 -1.0540
  698TMC3    H110378   0.243   0.274  14.921  1.5597 -0.3136  0.5239
  698TMC3    H210379   0.100   0.615  14.712  0.0952 -0.9251 -0.5750
  698TMC3    C710380   0.114   0.352  14.707  0.1121  0.0831 -0.0424
  698TMC3    C810381   0.311   0.764  14.742 -0.6289  0.2732  0.1497
  698TMC3    O110382   0.103   0.387  14.589 -0.2250  0.2196  0.3636
  698TMC3    O210383   0.235   0.796  14.653 -0.0191 -0.3577  0.7703
  699TMC3    C110384   0.423   3.195  13.210 -0.2095  0.2752  0.0021
  699TMC3    C210385   0.486   3.075  13.230  0.3123 -0.1790  0.4410
  699TMC3    C310386   0.466   3.016  13.356 -0.3754  0.1307 -0.0224
  699TMC3    C410387   0.357   3.262  13.304  0.6252 -0.1148  0.1255
  699TMC3    C510388   0.342   3.203  13.427  0.4426  0.4466  0.4678
  699TMC3    C610389   0.385   3.077  13.452 -0.1666  0.5527  0.3108
  699TMC3     C10390   0.467   3.276  13.103  0.7095 -0.7086  0.1022
  699TMC3     O10391   0.389   3.358  13.059 -0.1884 -0.1925 -0.4302
  699TMC3     H10392   0.533   3.021  13.149  1.4267 -0.8652  1.5348
  699TMC3    H110393   0.335   3.367  13.295 -0.9457 -0.4703 -0.2186
  699TMC3    H210394   0.365   3.037  13.551  0.8528  1.5234  0.9171
  699TMC3    C710395   0.271   3.270  13.536 -0.4841 -0.1481 -0.5055
  699TMC3    C810396   0.530   2.890  13.398 -0.3311 -0.0916  0.1856
  699TMC3    O110397   0.244   3.196  13.630 -0.2089 -0.1187  0.0235
  699TMC3    O210398   0.514   2.854  13.515 -0.5888 -0.3328  0.2234
  700TMC3    C110399   4.245   0.206  16.883 -0.1916 -0.4372  1.0096
  700TMC3    C210400   4.352   0.156  16.807  0.1013 -0.1939 -0.2801
  700TMC3    C310401   4.418   0.052  16.862 -0.4931 -0.8800  0.7512
  700TMC3    C410402   4.204   0.147  17.004  0.3265  0.5984  0.0924
  700TMC3    C510403   4.278   0.044  17.063  0.0031 -0.6121  0.0241
  700TMC3    C610404   4.393   0.002  16.990 -0.1872 -0.0914  0.9018
  700TMC3     C10405   4.176   0.322  16.849  0.5960 -0.1993 -0.2501
  700TMC3     O10406   4.073   0.345  16.905 -0.3418  0.7262  0.4649
  700TMC3     H10407   4.385   0.188  16.709  2.6914  0.6940  0.8912
  700TMC3    H110408   4.124   0.194  17.061  1.8747  1.8433  1.2397
  700TMC3    H210409   4.468   4.689  17.050  0.6856 -1.5776 -1.4306
  700TMC3    C710410   4.294   0.063  17.204  0.1813 -0.0452  0.5885
  700TMC3    C810411   4.534   4.734  16.790 -0.1140  0.2657 -0.1440
  700TMC3    O110412   4.240   0.161  17.253  0.2087 -0.6824 -0.5898
  700TMC3    O210413   4.585   0.065  16.705  0.4773 -0.3835 -0.5252
  701TMC3    C110414   4.553   3.920  15.562 -0.8091 -0.4741 -0.0340
  701TMC3    C210415   4.566   3.847  15.446 -0.0976  0.3780 -0.2389
  701TMC3    C310416   4.660   3.894  15.356  0.0424 -0.0354  0.2549
  701TMC3    C410417   4.596   4.050  15.569  0.6284  0.4876 -0.9601
  701TMC3    C510418   4.682   4.099  15.479  0.0130 -0.1554 -0.6025
  701TMC3    C610419   4.712   4.017  15.374 -0.3613 -0.1737  0.1160
  701TMC3     C10420   4.452   3.878  15.659 -0.4162 -0.1103 -0.1423
  701TMC3     O10421   4.422   3.960  15.746 -0.6280 -0.1907  0.6950
  701TMC3     H10422   4.516   3.752  15.429  0.9624 -0.5844  2.0344
  701TMC3    H110423   4.542   4.117  15.634  0.5208 -1.1965  0.7147
  701TMC3    H210424   0.038   4.064  15.298 -0.9660 -1.7832 -1.3649
  701TMC3    C710425   4.708   4.238  15.472 -0.0466  0.6697  0.5218
  701TMC3    C810426   4.629   3.860  15.213  0.9467 -0.8944 -0.7499
  701TMC3    O110427   4.735   4.298  15.370 -0.2554 -0.7143  0.2939
  701TMC3    O210428   4.708   3.901  15.129  0.2817  0.0371  0.1541
  702MPD2     C10429   4.393   1.728  10.203  0.5219 -0.7582 -0.4652
  702MPD2    C110430   4.377   1.809  10.310  0.3250 -0.2256 -0.4214
  702MPD2    C210431   4.324   1.933  10.305  0.1131 -0.8011  0.6582
  702MPD2    C310432   4.302   1.981  10.179 -0.4524 -0.1693 -0.6804
  702MPD2    C410433   4.334   1.912  10.068  0.1354 -0.6494 -0.5106
  702MPD2    C510434   4.367   1.782  10.086 -0.9965  0.1730 -0.3199
  702MPD2     H10435   4.314   1.999  10.391  0.4031 -1.3376  1.1083
  702MPD2    H110436   4.317   1.953   9.969  0.6078  0.1860 -0.2471
  702MPD2    H210437   4.427   1.625  10.215  0.1011 -1.1805 -2.8550
  702MPD2    H310438   4.389   1.719  10.000 -1.3378 -0.4380  0.0399
  702MPD2     N10439   4.265   2.118  10.164 -0.5034  0.0168 -0.1937
  702MPD2    H510440   4.279   2.167  10.076 -0.2993 -0.7782 -0.5963
  702MPD2    N110441   4.419   1.759  10.433  0.0054 -0.0658 -0.3808
  702MPD2    H710442   4.419   1.661  10.457 -2.3547  0.1311  0.4680
  703TMC3    C110443   4.191   2.327  10.262 -0.2683  0.3072  0.9889
  703TMC3    C210444   4.082   2.382  10.321  0.6335 -0.0984  0.4950
  703TMC3    C310445   4.089   2.509  10.357 -0.1593  0.7660  0.3395
  703TMC3    C410446   4.309   2.397  10.250  0.2425  0.4733  0.4907
  703TMC3    C510447   4.314   2.522  10.304 -0.2154 -0.1923 -0.2697
  703TMC3    C610448   4.204   2.582  10.353 -0.2840  0.0982 -0.3990
  703TMC3     C10449   4.200   2.181  10.269 -0.1030  0.1371 -0.3985
  703TMC3     O10450   4.134   2.133  10.360  0.3335 -0.2579  0.0533
  703TMC3     H10451   3.983   2.340  10.308  0.5896  0.1043  0.1935
  703TMC3    H110452   4.399   2.342  10.226 -0.6002  0.0230 -1.6542
  703TMC3    H210453   4.215   2.679  10.401 -1.0423  0.2198 -0.4775
  703TMC3    C710454   4.440   2.548  10.370  0.5328  0.1055  0.0189
  703TMC3    C810455   3.975   2.587  10.403 -0.1978 -0.5033 -0.6472
  703TMC3    O110456   4.541   2.523  10.311 -0.3402 -0.5248  0.1159
  703TMC3    O210457   3.990   2.706  10.392 -0.5541  0.2952  0.4716
  704TMC3    C110458   1.628   4.699  12.456  0.1727  0.1016 -0.3825
  704TMC3    C210459   1.750   4.709  12.396  0.6522  0.3120  0.7705
  704TMC3    C310460   1.855   4.642  12.455  0.5228  0.6419 -0.0756
  704TMC3    C410461   1.605   4.618  12.565  0.3636  0.5224  0.2109
  704TMC3    C510462   1.712   4.557  12.621 -0.4009  0.1578  0.3301
  704TMC3    C610463   1.834   4.558  12.564 -1.0468  0.2330  0.0610
  704TMC3     C10464   1.521   0.052  12.422  0.1814 -0.1024 -0.2028
  704TMC3     O10465   1.412   0.033  12.475 -0.1798 -0.4715 -0.1826
  704TMC3     H10466   1.761   0.030  12.305 -2.9148  0.5217  0.4531
  704TMC3    H110467   1.505   4.616  12.606  0.9654 -3.3217  1.4505
  704TMC3    H210468   1.917   4.497  12.596  0.0337  1.3404 -0.6281
  704TMC3    C710469   1.693   4.436  12.702 -0.2532  0.5189  0.2101
  704TMC3    C810470   1.950   4.581  12.365 -0.0477 -0.4227 -0.0406
  704TMC3    O110471   1.583   4.378  12.705  0.2723  0.2011 -0.7022
  704TMC3    O210472   1.943   4.462  12.347  0.0290  0.3826 -0.4556
  705MPD2     C10473   1.181   2.173  16.674  0.1636  0.0905  0.1409
  705MPD2    C110474   1.121   2.252  16.568 -0.2154 -0.3307  0.1476
  705MPD2    C210475   0.977   2.258  16.563 -0.2805  0.4087 -0.9579
  705MPD2    C310476   0.903   2.191  16.658  0.1693 -0.0212  0.1886
  705MPD2    C410477   0.963   2.120  16.766 -0.8071 -0.1773 -0.1535
  705MPD2    C510478   1.104   2.121  16.771 -0.5238  0.2471  0.9130
  705MPD2     H10479   0.929   2.319  16.487  2.5328  2.6887 -0.9079
  705MPD2    H110480   0.907   2.079  16.849  0.1522 -1.1721  0.0048
  705MPD2    H210481   1.287   2.158  16.688 -0.1264 -1.0616  1.0449
  705MPD2    H310482   1.163   2.062  16.840 -0.0065  0.2340  0.4526
  705MPD2     N10483   0.769   2.217  16.671  0.3224 -0.1111 -0.2404
  705MPD2    H510484   0.719   2.200  16.757 -0.9719  0.2486 -0.9172
  705MPD2    N110485   1.193   2.325  16.470  0.4175 -0.0221 -0.0672
  705MPD2    H710486   1.143   2.389  16.409 -0.3699 -0.3571  0.2346
  706TMC3    C110487   1.504   2.444  16.174 -0.7537  0.1445 -0.3482
  706TMC3    C210488   1.419   2.535  16.118 -0.0690 -0.0412  0.4678
  706TMC3    C310489   1.304   2.570  16.184  0.2242 -0.3771  0.3219
  706TMC3    C410490   1.479   2.376  16.284 -0.1718  0.0098 -0.0854
  706TMC3    C510491   1.368   2.419  16.350 -0.2349 -0.4711 -0.1829
  706TMC3    C610492   1.275   2.510  16.303 -0.3212 -0.4187  0.6798
  706TMC3     C10493   1.606   2.380  16.095 -0.5040  0.1205  0.3053
  706TMC3     O10494   1.699   2.330  16.160  0.0477  0.1793  0.3424
  706TMC3     H10495   1.463   2.587  16.033  1.7866 -2.9628 -0.3593
  706TMC3    H110496   1.552   2.307  16.324 -3.2880 -2.7802  0.8060
  706TMC3    H210497   1.191   2.535  16.366 -0.8580  0.3827 -0.3480
  706TMC3    C710498   1.330   2.339  16.460 -0.1171  0.3868 -0.3983
  706TMC3    C810499   1.260   2.707  16.166 -0.2580  1.0769 -0.5422
  706TMC3    O110500   1.414   2.272  16.520 -0.4119 -0.0818 -0.1418
  706TMC3    O210501   1.239   2.737  16.053 -0.1768 -0.0606  0.1151
  707TMC3    C110502   2.682   1.329   0.614  0.3716 -0.1951 -0.1806
  707TMC3    C210503   2.603   1.227   0.645  0.4198  0.2517  0.2467
  707TMC3    C310504   2.505   1.202   0.550  0.2756 -0.1115  0.5441
  707TMC3    C410505   2.667   1.413   0.507  0.3595  0.6030 -0.9946
  707TMC3    C510506   2.562   1.397   0.426 -0.4019  0.1160 -0.3893
  707TMC3    C610507   2.484   1.286   0.443  0.7035 -0.0570 -0.5508
  707TMC3     C10508   2.795   1.367   0.702  0.1300 -0.0877  0.2818
  707TMC3     O10509   2.774   1.346   0.822  0.2806 -0.3685  0.1761
  707TMC3     H10510   2.629   1.176   0.737 -0.8390 -1.5171 -0.3953
  707TMC3    H110511   2.731   1.499   0.489  4.4660 -1.2834  4.6326
  707TMC3    H210512   2.394   1.275   0.384  1.1499 -1.7732 -0.8916
  707TMC3    C710513   2.572   1.465   0.303 -0.5548  0.1665 -0.2411
  707TMC3    C810514   2.461   1.067   0.530 -0.4116 -0.9558  0.0167
  707TMC3    O110515   2.637   1.569   0.302  0.0023 -0.1413 -0.5008
  707TMC3    O210516   2.376   1.043   0.448 -0.0584 -0.4452  0.3301
  708MPD2     C10517   4.422   1.961  13.802 -0.4527 -0.5155 -0.4229
  708MPD2    C110518   4.351   1.842  13.792 -0.1926  0.2081  0.0403
  708MPD2    C210519   4.380   1.728  13.868 -0.0876  0.7917  0.5274
  708MPD2    C310520   4.474   1.736  13.970 -0.1138  0.4383  0.1779
  708MPD2    C410521   4.533   1.859  13.989  0.0602  0.5151  0.3871
  708MPD2    C510522   4.501   1.968  13.912 -0.0079 -0.9923 -0.0447
  708MPD2     H10523   4.336   1.634  13.838  1.9204 -0.2970  0.9992
  708MPD2    H110524   4.605   1.869  14.070 -0.5131  1.1734  0.8141
  708MPD2    H210525   4.393   2.053  13.753 -1.3848  0.7538  2.4854
  708MPD2    H310526   4.549   2.061  13.940  0.9630 -1.3447 -0.5144
  708MPD2     N10527   4.524   1.630  14.046 -0.3459  0.3858  0.0038
  708MPD2    H510528   4.599   1.653  14.111 -1.8218 -0.6133  2.0526
  708MPD2    N110529   4.246   1.843  13.700 -0.1533  0.1396 -0.6371
  708MPD2    H710530   4.228   1.927  13.646 -0.3156  0.2362 -0.4360
  709TMC3    C110531   4.038   1.777  13.599  0.4412  0.4452  0.3518
  709TMC3    C210532   4.003   1.691  13.495  0.0587  0.0606 -0.6717
  709TMC3    C310533   3.875   1.642  13.503 -0.2653  0.3941 -0.1817
  709TMC3    C410534   3.946   1.817  13.690  0.5565 -0.1914 -0.3178
  709TMC3    C510535   3.818   1.768  13.689 -0.7912  0.4807  0.3862
  709TMC3    C610536   3.780   1.680  13.594  0.9610 -0.2113  0.3179
  709TMC3     C10537   4.157   1.739  13.672  0.5604 -0.2709  0.3853
  709TMC3     O10538   4.159   1.617  13.704  0.4109  0.1421  0.1181
  709TMC3     H10539   4.083   1.656  13.430  0.4012  3.8418 -2.3024
  709TMC3    H110540   3.986   1.871  13.775  0.3921  1.9618 -1.5991
  709TMC3    H210541   3.684   1.631  13.597  0.9322 -0.1883 -0.1821
  709TMC3    C710542   3.776   1.723  13.823 -0.1430 -0.2938 -0.8708
  709TMC3    C810543   3.844   1.523  13.419 -0.5547  0.4638  0.2389
  709TMC3    O110544   3.660   1.701  13.850  0.1605 -0.3896 -0.4279
  709TMC3    O210545   3.756   1.449  13.469  0.2949  0.4491 -0.5229
  710TMC3    C110546   0.657   1.847   0.712 -0.0074 -0.7474  0.2373
  710TMC3    C210547   0.682   1.923   0.603  0.0437  0.3162  0.5561
  710TMC3    C310548   0.793   1.896   0.530 -0.4136 -0.7572  0.1657
  710TMC3    C410549   0.748   1.750   0.745 -0.4410 -0.1527  0.1980
  710TMC3    C510550   0.857   1.729   0.674 -0.0883  0.2722  0.3382
  710TMC3    C610551   0.886   1.798   0.561 -0.2935 -0.1801 -0.3622
  710TMC3     C10552   0.524   1.847   0.779  0.1394 -0.0497 -0.4264
  710TMC3     O10553   0.516   1.754   0.861 -0.0870  0.0585 -0.2747
  710TMC3     H10554   0.621   2.012   0.591  1.0096  0.6057 -2.2761
  710TMC3    H110555   0.751   1.696   0.839  1.2316 -1.5438 -0.6750
  710TMC3    H210556   0.952   1.759   0.484  0.6937  0.2784  0.2406
  710TMC3    C710557   0.947   1.623   0.717  0.2511 -0.0340  0.0619
  710TMC3    C810558   0.810   1.953   0.395 -0.3044 -0.1090  0.1683
  710TMC3    O110559   0.915   1.564   0.817  0.0387  0.2517  0.1375
  710TMC3    O210560   0.907   1.917   0.333 -0.3185 -0.8815 -0.2260
  711TMC3    C110561   0.521   3.711  14.958  0.7408  0.2063  0.2338
  711TMC3    C210562   0.553   3.782  15.069  1.0314 -0.1561 -0.2414
  711TMC3    C310563   0.642   3.732  15.159  0.1964  0.7149 -0.1708
  711TMC3    C410564   0.583   3.586  14.946  0.6237 -0.1074  0.5089
  711TMC3    C510565   0.675   3.542  15.038  0.5832  0.0179 -0.8738
  711TMC3    C610566   0.710   3.619  15.144  0.2384 -0.6696 -0.5111
  711TMC3     C10567   0.376   3.674  14.962  0.4234 -0.6747 -0.1476
  711TMC3     O10568   0.346   3.596  14.871 -0.1405  0.0760  0.4867
  711TMC3     H10569   0.496   3.872  15.091  1.7403  0.7019 -1.9228
  711TMC3    H110570   0.561   3.534  14.854 -1.5621  0.7293  0.5521
  711TMC3    H210571   0.758   3.560  15.221  1.1316  1.3100  0.4453
  711TMC3    C710572   0.679   3.400  15.066  0.4117  0.2713  0.1277
  711TMC3    C810573   0.636   3.792  15.296 -0.1047 -0.5219 -0.6390
  711TMC3    O110574   0.768   3.357  15.134  0.0118 -0.0583 -0.1154
  711TMC3    O210575   0.543   3.868  15.326 -0.1348 -0.2311  0.1489
  712MPD2     C10576   1.654   4.422  14.122  0.0324 -0.2427  0.6013
  712MPD2    C110577   1.612   4.443  13.992  0.0170  0.8326 -0.1871
  712MPD2    C210578   1.648   4.562  13.923  0.0039  0.3087 -0.3827
  712MPD2    C310579   1.717   4.661  13.995 -0.2884 -0.0979  0.1170
  712MPD2    C410580   1.758   4.640  14.126 -0.4699  0.2869 -0.1797
  712MPD2    C510581   1.721   4.519  14.188  0.1659  0.0301  0.1602
  712MPD2     H10582   1.620   4.569  13.818  1.2395  3.7079 -0.4906
  712MPD2    H110583   1.832   4.698  14.180 -0.1872  0.0073 -0.2648
  712MPD2    H210584   1.640   4.328  14.174 -0.4683 -1.4915 -1.8030
  712MPD2    H310585   1.755   4.497  14.288  1.2640  2.8057  0.4120
  712MPD2     N10586   1.757   0.053  13.934 -0.1912 -0.6139 -0.3713
  712MPD2    H510587   1.834   0.103  13.977  0.9684 -1.1190 -1.8511
  712MPD2    N110588   1.536   4.344  13.914  0.6268 -0.3269  0.2226
  712MPD2    H710589   1.530   4.362  13.815  1.7266  2.3768  0.6358
  713TMC3    C110590   1.781   0.208  13.766  0.1991  0.3726  0.2348
  713TMC3    C210591   1.921   0.206  13.788 -0.4534 -0.1852 -0.1103
  713TMC3    C310592   1.988   0.313  13.740 -0.0292  0.6843  0.5918
  713TMC3    C410593   1.714   0.309  13.702  0.1009  0.0775  0.1057
  713TMC3    C510594   1.788   0.419  13.664 -0.3283  0.1077 -0.3553
  713TMC3    C610595   1.926   0.421  13.676 -0.0693 -0.3302 -0.1938
  713TMC3     C10596   1.711   0.096  13.813  0.4619  0.0718 -0.5731
  713TMC3     O10597   1.625   0.045  13.742 -0.1851  0.4011  0.1161
  713TMC3     H10598   1.968   0.117  13.827 -1.1727  0.4890  2.3188
  713TMC3    H110599   1.605   0.303  13.699  0.3284 -3.1305 -1.2522
  713TMC3    H210600   1.970   0.508  13.628  1.0585 -1.5142 -1.2901
  713TMC3    C710601   1.725   0.548  13.632  0.8564  0.2660  0.2509
  713TMC3    C810602   2.132   0.324  13.759  0.6598 -0.5636 -0.2067
  713TMC3    O110603   1.801   0.647  13.640  0.0830 -0.5030 -0.0238
  713TMC3    O210604   2.177   0.431  13.717  0.0294 -0.2011 -0.0872
  714MPD2     C10605   3.515   3.095   1.204  0.0466 -0.2249 -0.2176
  714MPD2    C110606   3.521   2.977   1.140  0.1829  0.3273 -0.0291
  714MPD2    C210607   3.408   2.930   1.079 -0.4079 -0.2812  0.2071
  714MPD2    C310608   3.285   2.993   1.096  0.0569  0.1827 -0.3546
  714MPD2    C410609   3.281   3.106   1.171 -0.4557  0.0203 -0.5896
  714MPD2    C510610   3.396   3.153   1.219 -1.0319 -0.2668 -0.1129
  714MPD2     H10611   3.423   2.846   1.012 -0.0890 -0.2061  0.1828
  714MPD2    H110612   3.192   3.167   1.177  0.2591  1.3031 -2.7346
  714MPD2    H210613   3.601   3.137   1.254  1.1719 -0.5392 -1.8970
  714MPD2    H310614   3.396   3.247   1.273 -0.1618 -0.2399 -0.1586
  714MPD2     N10615   3.170   2.936   1.031  0.3050  0.2062 -0.2788
  714MPD2    H510616   3.172   2.843   0.992  1.2750  0.1186 -0.0233
  714MPD2    N110617   3.643   2.913   1.129 -0.1605 -0.1855 -0.2673
  714MPD2    H710618   3.719   2.954   1.183  1.3364 -1.3315 -1.5025
  715TMC3    C110619   3.820   2.790   1.045 -0.1638  0.5774  0.3412
  715TMC3    C210620   3.875   2.664   1.048 -0.1897 -0.0736 -0.3689
  715TMC3    C310621   4.009   2.652   1.068  0.0252  0.4340 -0.3767
  715TMC3    C410622   3.892   2.902   1.052 -0.6515  0.9733 -0.0421
  715TMC3    C510623   4.030   2.883   1.060  0.5420 -0.3217 -0.8489
  715TMC3    C610624   4.090   2.763   1.065 -0.0909  0.1479 -0.2544
  715TMC3     C10625   3.676   2.807   1.058  0.0314  0.2645 -0.2847
  715TMC3     O10626   3.618   2.702   1.021  0.0198  0.2779  0.0149
  715TMC3     H10627   3.810   2.578   1.052 -0.9892  0.4889 -1.2289
  715TMC3    H110628   3.844   2.994   1.019 -0.2698  1.3463  0.4441
  715TMC3    H210629   4.198   2.768   1.064 -0.0569 -0.4851  0.6824
  715TMC3    C710630   4.116   2.995   1.065 -0.5318 -0.3533 -0.1419
  715TMC3    C810631   4.058   2.523   1.119 -0.3975  0.2676  0.9327
  715TMC3    O110632   4.238   2.990   1.048 -0.3219 -0.0581 -0.3296
  715TMC3    O210633   3.972   2.451   1.153 -0.2274  0.1379 -0.6438
  716MPD2     C10634   3.548   2.009   9.977 -0.7284 -0.7863 -0.0918
  716MPD2    C110635   3.575   2.045   9.848  0.4091 -1.2725 -0.6079
  716MPD2    C210636   3.631   1.955   9.758  0.6941  0.5860  0.2805
  716MPD2    C310637   3.665   1.829   9.813  0.2566 -0.1678  0.6588
  716MPD2    C410638   3.628   1.788   9.936 -0.2534  0.5062  0.0679
  716MPD2    C510639   3.576   1.879  10.021  0.0608 -0.0490  0.2010
  716MPD2     H10640   3.657   1.971   9.654 -1.6986 -0.5651 -0.4841
  716MPD2    H110641   3.643   1.687   9.972  0.4552  1.8992  3.7000
  716MPD2    H210642   3.521   2.082  10.053 -0.5844  1.0718 -1.8067
  716MPD2    H310643   3.548   1.859  10.124  1.7513 -0.7800  0.5170
  716MPD2     N10644   3.719   1.740   9.722  0.2928 -0.0635  0.1701
  716MPD2    H510645   3.713   1.772   9.625 -1.5202 -1.4652 -0.1788
  716MPD2    N110646   3.555   2.183   9.819 -0.1369 -0.1610  0.1881
  716MPD2    H710647   3.499   2.235   9.885 -1.5425  1.7090 -2.4644
  717TMC3    C110648   3.782   1.546   9.600 -0.0158  0.9653 -0.2343
  717TMC3    C210649   3.722   1.600   9.489 -0.4723  0.1439  0.6270
  717TMC3    C310650   3.768   1.555   9.369 -0.2102 -0.2910 -0.4583
  717TMC3    C410651   3.866   1.445   9.595  0.2198  0.3298  0.1798
  717TMC3    C510652   3.917   1.412   9.471  0.1074  0.0948  0.0580
  717TMC3    C610653   3.869   1.461   9.354 -0.3485 -0.5378 -0.3632
  717TMC3     C10654   3.758   1.609   9.733  0.1368 -0.3250 -0.3646
  717TMC3     O10655   3.789   1.549   9.835  0.3266  0.2365  0.3998
  717TMC3     H10656   3.628   1.654   9.499 -0.4793  0.2902 -0.2508
  717TMC3    H110657   3.898   1.395   9.686 -0.0654 -2.8874 -1.4871
  717TMC3    H210658   3.921   1.441   9.260  1.5598 -1.3463  0.8587
  717TMC3    C710659   4.024   1.308   9.467 -0.2683 -0.1291  0.3841
  717TMC3    C810660   3.718   1.618   9.254 -1.0211  0.2931 -0.1798
  717TMC3    O110661   4.031   1.258   9.353  0.5820 -0.0651  0.2328
  717TMC3    O210662   3.622   1.693   9.269  0.4196  0.1179  0.3813
  718MPD2     C10663   3.337   0.062  12.956 -0.5620 -0.2995 -0.2960
  718MPD2    C110664   3.259   0.076  12.847 -0.1028 -0.0169  0.2311
  718MPD2    C210665   3.126   0.022  12.846  0.1936 -0.0955 -0.1702
  718MPD2    C310666   3.068   4.714  12.965  0.6245 -0.4564 -0.1904
  718MPD2    C410667   3.142   4.712  13.082 -0.0163 -0.1477 -0.2773
  718MPD2    C510668   3.276   0.014  13.071  0.2000  0.0696  1.0676
  718MPD2     H10669   3.062   0.012  12.759 -0.7356  0.7114  0.4121
  718MPD2    H110670   3.105   4.695  13.182  1.2787 -0.0634  0.2205
  718MPD2    H210671   3.437   0.105  12.952 -1.2291  1.2338 -0.3854
  718MPD2    H310672   3.348   0.006  13.152 -0.9153  2.2058  2.2567
  718MPD2     N10673   2.928   4.679  12.951  0.4498 -0.0936  0.1894
  718MPD2    H510674   2.889   4.700  12.860 -1.1165 -0.8886  0.6772
  718MPD2    N110675   3.305   0.082  12.712 -0.1892 -0.0152 -0.4814
  718MPD2    H710676   3.240   0.060  12.637 -1.4801  2.6862 -0.1540
  719TMC3    C110677   3.447   0.084  12.529 -0.5063 -0.9204  0.2291
  719TMC3    C210678   3.348   0.005  12.478  0.5479 -0.2835  0.2116
  719TMC3    C310679   3.271   0.049  12.372  0.2301  0.0061  0.7178
  719TMC3    C410680   3.458   0.215  12.484  0.2303  0.1972  0.1858
  719TMC3    C510681   3.392   0.251  12.372  0.4705 -0.0233  0.0968
  719TMC3    C610682   3.292   0.173  12.318 -0.2509 -0.2813  0.0599
  719TMC3     C10683   3.443   0.090  12.674  0.1831 -0.3656 -0.3442
  719TMC3     O10684   3.543   0.124  12.735  0.3009 -0.3334  0.1158
  719TMC3     H10685   3.343   4.639  12.511  3.0941 -0.3242  0.5335
  719TMC3    H110686   3.530   0.272  12.542  2.2509 -0.5973 -1.5575
  719TMC3    H210687   3.236   0.205  12.231 -0.6065  0.3700  0.5305
  719TMC3    C710688   3.429   0.372  12.308  0.6481  0.7032  0.3167
  719TMC3    C810689   3.130   0.033  12.399  0.4426 -1.0825  0.3981
  719TMC3    O110690   3.550   0.390  12.286 -0.3955  0.0586  0.1018
  719TMC3    O210691   3.112   0.027  12.518  0.1848 -0.1344 -0.7983
  720MPD2     C10692   1.960   1.286  13.931 -1.0264  0.0118  0.6733
  720MPD2    C110693   1.984   1.411  13.895 -0.8195  0.1790  0.1096
  720MPD2    C210694   2.109   1.468  13.927  0.2058  0.4963 -0.5888
  720MPD2    C310695   2.202   1.392  13.995  0.0497 -0.0902  0.2486
  720MPD2    C410696   2.170   1.254  14.028 -0.6262 -0.5178 -0.4890
  720MPD2    C510697   2.048   1.203  13.993 -0.0279  0.3333  0.5257
  720MPD2     H10698   2.126   1.570  13.897 -1.3147  0.9745  0.1546
  720MPD2    H110699   2.233   1.186  14.083  0.5181  0.0779 -1.0668
  720MPD2    H210700   1.865   1.237  13.915 -0.4199 -1.0876  0.4638
  720MPD2    H310701   2.020   1.100  14.010 -0.7771  0.6976  1.4674
  720MPD2     N10702   2.328   1.447  14.029 -0.4355  0.1782 -0.2423
  720MPD2    H510703   2.356   1.531  13.980  0.9841 -0.2599 -0.2005
  720MPD2    N110704   1.900   1.479  13.796  0.3576 -0.8348 -0.5362
  720MPD2    H710705   1.925   1.573  13.767 -1.3655  0.0328  0.8281
  721TMC3    C110706   2.526   1.469  14.149  0.0306 -0.1554  0.1311
  721TMC3    C210707   2.572   1.479  14.275 -0.0092  0.2041 -0.9363
  721TMC3    C310708   2.680   1.559  14.285  0.2417  0.3721 -1.1064
  721TMC3    C410709   2.592   1.530  14.039  0.0336 -0.2049  0.0833
  721TMC3    C510710   2.712   1.588  14.051 -0.3804  0.8356 -0.2150
  721TMC3    C610711   2.755   1.605  14.177  0.7194  0.3954 -0.4204
  721TMC3     C10712   2.404   1.398  14.131  0.6083  0.6559  0.7616
  721TMC3     O10713   2.374   1.317  14.213  0.6235  0.7815  0.6290
  721TMC3     H10714   2.513   1.448  14.360  0.5240  1.5131 -0.0970
  721TMC3    H110715   2.550   1.522  13.939 -0.7844 -0.5914  0.4542
  721TMC3    H210716   2.846   1.660  14.195 -0.1577  1.7692 -0.2173
  721TMC3    C710717   2.808   1.634  13.948  0.1409 -0.5166  0.1137
  721TMC3    C810718   2.637   1.674  14.365  0.1432  0.0769 -0.5877
  721TMC3    O110719   2.888   1.716  13.991 -0.3679 -1.1214 -0.5007
  721TMC3    O210720   2.613   1.779  14.308 -0.4502  0.4718 -0.1068
  722MPD2     C10721   0.593   0.305  13.137 -0.6691 -0.1991 -0.4302
  722MPD2    C110722   0.558   0.441  13.162  0.2995  0.2183  1.0318
  722MPD2    C210723   0.424   0.479  13.151 -0.4969 -0.7087 -0.5620
  722MPD2    C310724   0.327   0.388  13.117  0.0807  0.0571  0.2256
  722MPD2    C410725   0.362   0.255  13.092 -0.4112  0.1044 -0.0006
  722MPD2    C510726   0.493   0.209  13.098 -0.0211 -0.2958  0.0597
  722MPD2     H10727   0.397   0.581  13.175  0.5297 -0.9038  1.4233
  722MPD2    H110728   0.284   0.182  13.070  0.2849 -0.1511 -1.6384
  722MPD2    H210729   0.693   0.269  13.158 -0.2835 -0.0418 -2.0248
  722MPD2    H310730   0.502   0.104  13.074 -0.0999  0.0335 -1.4004
  722MPD2     N10731   0.191   0.446  13.114  0.0291  0.5821 -0.0556
  722MPD2    H510732   0.172   0.543  13.136 -2.9814  0.2099 -1.0435
  722MPD2    N110733   0.653   0.540  13.200  0.2387 -0.0021 -0.1695
  722MPD2    H710734   0.610   0.627  13.230  1.2045  0.8575 -1.2853
  723TMC3    C110735   4.694   0.444  13.075  0.6292  0.3732  0.3412
  723TMC3    C210736   4.598   0.381  13.013 -0.5394 -0.2412 -0.1164
  723TMC3    C310737   4.476   0.442  13.006  0.0938 -0.6813 -0.2287
  723TMC3    C410738   4.682   0.571  13.128  0.4974 -0.2192  0.5860
  723TMC3    C510739   4.561   0.635  13.114  0.1317  0.1583  0.2191
  723TMC3    C610740   4.455   0.573  13.051  0.0508 -0.4934 -0.3732
  723TMC3     C10741   0.078   0.371  13.108 -0.1670  0.4855  0.5613
  723TMC3     O10742   0.067   0.250  13.120 -0.0031 -0.0468  0.2290
  723TMC3     H10743   4.618   0.278  12.985  2.8278 -0.4436  3.0285
  723TMC3    H110744   0.026   0.613  13.187  1.9634 -1.9831 -0.1440
  723TMC3    H210745   4.365   0.622  13.016 -0.3859 -0.6492  0.5351
  723TMC3    C710746   4.562   0.777  13.117 -0.4356 -0.2053 -0.6720
  723TMC3    C810747   4.374   0.387  12.915 -0.2067  0.6361  0.4085
  723TMC3    O110748   4.667   0.836  13.126 -0.2667 -0.1121  0.0337
  723TMC3    O210749   4.268   0.451  12.915  0.6313  0.1003  0.2251
  724TMC3    C110750   1.558   3.775  10.218 -0.1406  0.1994  0.3514
  724TMC3    C210751   1.604   3.819  10.091  0.4270  0.6131  0.7552
  724TMC3    C310752   1.634   3.953  10.072  0.2204 -0.6982  0.5903
  724TMC3    C410753   1.546   3.876  10.313 -0.0811 -0.4560 -0.4985
  724TMC3    C510754   1.578   4.012  10.288 -0.8177 -0.1273 -0.2732
  724TMC3    C610755   1.625   4.053  10.169  0.6596 -0.7311  0.5435
  724TMC3     C10756   1.498   3.643  10.240 -0.0246  0.2982 -0.1818
  724TMC3     O10757   1.441   3.619  10.345  0.2242  0.4200  0.2846
  724TMC3     H10758   1.595   3.754  10.004 -2.3395  1.4899  0.3906
  724TMC3    H110759   1.509   3.850  10.411  0.9301  2.6068  0.7129
  724TMC3    H210760   1.650   4.157  10.156  1.2018 -1.2440 -2.5330
  724TMC3    C710761   1.578   4.115  10.392  0.3893  0.7339  0.6451
  724TMC3    C810762   1.681   3.997   9.935  0.9983  0.3906  0.0415
  724TMC3    O110763   1.647   4.212  10.380  0.1107  0.0869  0.0545
  724TMC3    O210764   1.706   3.909   9.853 -0.0507 -0.2720 -0.4193
  725TMC3    C110765   2.320   2.619  12.368  0.6476  0.1716  0.1803
  725TMC3    C210766   2.322   2.642  12.235 -0.6675 -0.2995  1.0045
  725TMC3    C310767   2.246   2.561  12.158  0.1752 -0.3399  0.4064
  725TMC3    C410768   2.242   2.521  12.420  0.0802 -0.3594  0.5584
  725TMC3    C510769   2.182   2.430  12.339 -0.5358  0.0303 -0.6263
  725TMC3    C610770   2.177   2.453  12.202  0.5241 -0.4630 -0.1443
  725TMC3     C10771   2.442   2.633  12.441 -0.6964  0.0617  0.6478
  725TMC3     O10772   2.498   2.740  12.455  0.1112 -0.0013  0.4013
  725TMC3     H10773   2.379   2.723  12.191 -2.0285  0.4206  0.5506
  725TMC3    H110774   2.238   2.516  12.528  1.4559  0.8581  0.6598
  725TMC3    H210775   2.114   2.394  12.136  1.6365 -1.1137 -0.6221
  725TMC3    C710776   2.244   2.298  12.339  0.1460  0.0327  0.1840
  725TMC3    C810777   2.274   2.548  12.016  0.3940 -0.2036  1.0076
  725TMC3    O110778   2.310   2.272  12.235  0.2113 -0.0727 -0.0373
  725TMC3    O210779   2.258   2.434  11.970  0.3348  0.4153  0.3348
  726MPD2     C10780   0.208   4.430   9.758  0.5164  0.1222  0.4418
  726MPD2    C110781   0.227   4.398   9.892 -0.1650 -0.0466 -0.3148
  726MPD2    C210782   0.226   4.270   9.930  0.6840  0.7654  0.3333
  726MPD2    C310783   0.201   4.167   9.843  0.2165  0.3849 -0.1410
  726MPD2    C410784   0.191   4.195   9.709 -0.1750 -0.4492  0.0316
  726MPD2    C510785   0.194   4.323   9.669  0.3122 -0.2836 -0.0096
  726MPD2     H10786   0.243   4.245  10.034  0.8732  1.9790  0.5873
  726MPD2    H110787   0.171   4.128   9.626  1.6649  2.0948 -2.4771
  726MPD2    H210788   0.229   4.528   9.717 -1.7017  0.5046  0.2495
  726MPD2    H310789   0.201   4.342   9.563  0.3419 -1.8998 -0.2918
  726MPD2     N10790   0.200   4.028   9.886  0.1438  0.0760 -0.0327
  726MPD2    H510791   0.183   3.957   9.816  2.0399  0.6347 -1.0748
  726MPD2    N110792   0.253   4.501   9.988  0.1230 -0.4512  0.0859
  726MPD2    H710793   0.306   4.481  10.072  0.0848 -0.5173  0.0945
  727TMC3    C110794   0.297   4.729  10.044 -1.1227 -0.6015  0.4574
  727TMC3    C210795   0.414   4.704  10.110  0.0441  0.9583 -0.6630
  727TMC3    C310796   0.470   0.071  10.177  0.3821 -0.1396 -0.1030
  727TMC3    C410797   0.222   0.110  10.066  0.5179  0.0594 -0.0690
  727TMC3    C510798   0.275   0.197  10.149 -0.1798 -0.1153 -0.0584
  727TMC3    C610799   0.406   0.193  10.195  0.2074  1.3404 -0.1802
  727TMC3     C10800   0.220   4.633   9.967 -1.1109  0.2383  0.1774
  727TMC3     O10801   0.142   4.679   9.878  0.0726  0.3186  0.1803
  727TMC3     H10802   0.468   4.611  10.095 -0.4225  1.1341 -3.4188
  727TMC3    H110803   0.124   0.119  10.020  1.2356  2.3923 -1.1639
  727TMC3    H210804   0.448   0.257  10.272  0.1320  2.0259 -0.7036
  727TMC3    C710805   0.192   0.283  10.224  0.5802  1.0820 -0.0035
  727TMC3    C810806   0.582   0.041  10.264  0.1911  0.0067  0.0625
  727TMC3    O110807   0.249   0.380  10.276 -0.7955 -0.1008  0.0067
  727TMC3    O210808   0.586   4.667  10.309 -0.0021 -0.0427 -0.0324
  728TMC3    C110809   4.224   2.236  15.864 -0.2929 -0.2176 -0.2542
  728TMC3    C210810   4.362   2.248  15.894 -0.3271  0.4916 -0.0180
  728TMC3    C310811   4.452   2.273  15.795 -0.5647 -0.0678  0.0332
  728TMC3    C410812   4.188   2.250  15.732  0.4185  0.4744 -0.4668
  728TMC3    C510813   4.278   2.296  15.642  0.8411  0.2776  0.9945
  728TMC3    C610814   4.411   2.305  15.670  0.4184  0.2981  0.2419
  728TMC3     C10815   4.153   2.129  15.934  0.0390 -0.2580 -0.1929
  728TMC3     O10816   4.198   2.103  16.047  0.0604 -0.3654 -0.2339
  728TMC3     H10817   4.394   2.228  15.996 -1.8838 -2.4522 -0.0906
  728TMC3    H110818   4.085   2.244  15.699  0.2441  2.7195 -0.3572
  728TMC3    H210819   4.482   2.334  15.593  1.4785 -2.1726  0.2691
  728TMC3    C710820   4.227   2.335  15.516 -0.1768 -0.1813  0.2980
  728TMC3    C810821   4.583   2.212  15.819  0.3007 -0.3286  0.3998
  728TMC3    O110822   4.125   2.282  15.477 -0.7365 -0.2010 -0.4016
  728TMC3    O210823   4.588   2.120  15.901 -0.3782 -0.0640  0.7561
  729MPD2     C10824   1.596   3.275  16.561  0.3748 -0.5414  0.1101
  729MPD2    C110825   1.669   3.171  16.610 -0.7281 -0.3818  0.0273
  729MPD2    C210826   1.649   3.143  16.746 -0.5780 -0.9925 -0.1435
  729MPD2    C310827   1.569   3.226  16.827 -0.1773 -0.4515  0.1606
  729MPD2    C410828   1.493   3.324  16.769  0.6885 -0.2556 -0.1252
  729MPD2    C510829   1.507   3.348  16.635  0.1217 -0.1880  0.0838
  729MPD2     H10830   1.710   3.063  16.788  1.7136 -0.7815 -3.1317
  729MPD2    H110831   1.420   3.386  16.818 -0.8260 -2.2971  0.1831
  729MPD2    H210832   1.616   3.294  16.457  0.1080 -0.7350  0.0235
  729MPD2    H310833   1.445   3.421  16.586  0.2782  0.3701  0.7248
  729MPD2     N10834   1.567   3.219  16.970 -0.0975  0.0513 -0.0716
  729MPD2    H510835   1.548   3.304  17.022 -2.2900 -0.0048 -0.7697
  729MPD2    N110836   1.761   3.110  16.521  0.0800  0.0749  0.2167
  729MPD2    H710837   1.752   3.139  16.424  1.0207 -2.8356 -0.7331
  730TMC3    C110838   1.661   3.137  17.166 -0.1474 -0.2641 -0.0536
  730TMC3    C210839   1.792   3.111  17.187 -0.0454 -0.2731 -0.0018
  730TMC3    C310840   1.867   3.195  17.253 -0.6485 -0.4940  0.1222
  730TMC3    C410841   1.608   3.249  17.217 -0.0142  0.3391 -0.2139
  730TMC3    C510842   1.678   3.321  17.309 -0.2898 -0.5245  0.3525
  730TMC3    C610843   1.812   3.285  17.340  0.5123 -0.1768 -0.0475
  730TMC3     C10844   1.615   3.108  17.035 -0.4740  0.8861  0.9814
  730TMC3     O10845   1.635   2.996  16.998 -0.5456  0.3523  0.9195
  730TMC3     H10846   1.835   3.032  17.126  0.6422 -0.3193  0.5528
  730TMC3    H110847   1.504   3.278  17.207 -0.0307  0.6349  0.7764
  730TMC3    H210848   1.874   3.337  17.412 -1.2406  1.1716  0.4854
  730TMC3    C710849   1.675   3.462  17.268 -0.1118  0.1604 -0.3308
  730TMC3    C810850   1.979   3.245  17.178 -0.5233  0.1828 -0.2358
  730TMC3    O110851   1.620   3.475  17.161 -0.4383 -0.8975 -0.0793
  730TMC3    O210852   2.021   3.165  17.096 -0.0820 -0.3342 -0.4797
  731MPD2     C10853   1.726   2.056  12.322 -0.0998  0.4500 -0.0748
  731MPD2    C110854   1.855   2.019  12.283 -0.3076 -0.3454  0.3693
  731MPD2    C210855   1.938   1.973  12.388  0.6943  0.1748  0.7285
  731MPD2    C310856   1.889   1.952  12.517  0.6634 -0.2301  0.3660
  731MPD2    C410857   1.770   1.997  12.549 -0.3186  0.1236  0.8379
  731MPD2    C510858   1.691   2.042  12.450 -0.2913 -0.0935  0.0155
  731MPD2     H10859   2.035   1.929  12.368  1.3487  1.8679  0.1750
  731MPD2    H110860   1.736   1.987  12.651  0.5022 -0.4576  1.0602
  731MPD2    H210861   1.658   2.105  12.253 -2.6247 -0.5142  1.6974
  731MPD2    H310862   1.595   2.088  12.466  0.4108  1.4034 -0.1122
  731MPD2     N10863   1.975   1.900  12.616  0.8037 -0.1920 -0.5621
  731MPD2    H510864   2.072   1.878  12.595  0.6626  0.5069 -1.9255
  731MPD2    N110865   1.897   2.032  12.152  0.2746  0.1709 -0.0448
  731MPD2    H710866   1.826   2.049  12.082 -0.2378 -2.4477 -0.1654
  732TMC3    C110867   2.030   2.052  11.964  0.8810 -1.3112 -0.1706
  732TMC3    C210868   1.942   1.984  11.885 -0.2971 -0.3023 -0.1728
  732TMC3    C310869   1.948   2.009  11.750 -0.2946 -0.1329  0.1032
  732TMC3    C410870   2.124   2.141  11.917  0.2505 -0.1464  0.4484
  732TMC3    C510871   2.133   2.162  11.780  0.6704  0.5527 -0.4620
  732TMC3    C610872   2.047   2.095  11.697  0.2776  0.5153 -0.4015
  732TMC3     C10873   2.028   2.023  12.106  0.2585  0.0154  0.6827
  732TMC3     O10874   2.130   2.004  12.164  0.5511 -0.7251 -0.2312
  732TMC3     H10875   1.872   1.920  11.938  1.9372 -1.6935  1.0496
  732TMC3    H110876   2.186   2.198  11.986  0.7757  2.0967 -1.8704
  732TMC3    H210877   2.057   2.110  11.591  2.4918  1.4462 -0.0622
  732TMC3    C710878   2.260   2.202  11.718  0.6394  0.3295  0.1185
  732TMC3    C810879   1.884   1.916  11.663 -0.0113 -0.1943 -0.2402
  732TMC3    O110880   2.277   2.194  11.598  0.8081 -0.1731 -0.1484
  732TMC3    O210881   1.954   1.868  11.572 -0.0706  0.0073 -0.7983
  733TMC3    C110882   2.485   4.593  12.994 -0.4228 -0.4556  0.1235
  733TMC3    C210883   2.603   4.583  13.057  0.1243 -0.0305  0.3992
  733TMC3    C310884   2.719   4.585  12.975  0.1482  0.0031 -0.0855
  733TMC3    C410885   2.461   4.588  12.860  0.7027 -0.0687  0.1218
  733TMC3    C510886   2.582   4.580  12.785  0.2026 -0.3878  0.2209
  733TMC3    C610887   2.710   4.589  12.838  0.3049 -0.8996 -0.1893
  733TMC3     C10888   2.376   4.615  13.084 -0.0027  0.1019  0.2737
  733TMC3     O10889   2.286   4.692  13.045 -0.1140  0.4955 -1.0271
  733TMC3     H10890   2.603   4.609  13.162  1.5863 -1.3657  0.7392
  733TMC3    H110891   2.359   4.577  12.826  1.7506 -2.7534 -2.1700
  733TMC3    H210892   2.794   4.566  12.773  0.0485  1.4071 -1.3600
  733TMC3    C710893   2.568   4.588  12.641 -0.1722  0.0251  0.0825
  733TMC3    C810894   2.843   4.622  13.042  0.4942  0.2040  0.4089
  733TMC3    O110895   2.460   4.558  12.589  0.2522 -0.0437  0.4183
  733TMC3    O210896   2.854   4.585  13.160  0.1553 -0.5148 -0.2474
  734MPD2     C10897   4.728   2.412  12.494  1.1006 -1.0959 -0.4418
  734MPD2    C110898   4.721   2.307  12.409 -0.0267 -0.2293  0.3243
  734MPD2    C210899   0.034   2.332  12.280 -0.1408  0.1060 -0.1905
  734MPD2    C310900   0.094   2.450  12.248  1.1726  0.1517 -1.1282
  734MPD2    C410901   0.097   2.553  12.335 -0.1573 -0.2614  0.3436
  734MPD2    C510902   0.049   2.531  12.463 -0.6490  0.3963 -0.5913
  734MPD2     H10903   0.032   2.255  12.204 -1.4453  0.2490 -0.2982
  734MPD2    H110904   0.117   2.652  12.296  3.4086 -1.0269  0.1548
  734MPD2    H210905   4.689   2.405  12.595  2.3951  1.5877  0.2569
  734MPD2    H310906   0.045   2.616  12.531 -1.0093 -0.6549  0.6901
  734MPD2     N10907   0.152   2.459  12.121  0.0629 -0.2757  0.0482
  734MPD2    H510908   0.122   2.384  12.060 -0.7652 -0.7039  0.9804
  734MPD2    N110909   4.656   2.186  12.441 -0.1919 -0.1538  0.3030
  734MPD2    H710910   4.609   2.172  12.530 -1.3145 -0.8718 -0.4125
  735TMC3    C110911   4.591   1.953  12.409  0.2890 -0.4768 -0.4808
  735TMC3    C210912   4.579   1.870  12.304 -0.2070  0.9228  0.0141
  735TMC3    C310913   4.642   1.748  12.308  0.5001 -0.3123 -0.7444
  735TMC3    C410914   4.670   1.916  12.517 -0.7271 -0.5165  0.3865
  735TMC3    C510915   0.010   1.805  12.513  0.5658  0.0328 -0.2101
  735TMC3    C610916   4.735   1.720  12.408  0.2667 -0.3092 -0.5237
  735TMC3     C10917   4.633   2.082  12.354  0.4377 -0.1830  0.6443
  735TMC3     O10918   4.647   2.076  12.231 -0.1431 -0.1944  0.4562
  735TMC3     H10919   4.508   1.890  12.224 -0.7790  0.6473  0.4536
  735TMC3    H110920   4.678   1.983  12.602 -0.4007 -1.7209  1.2988
  735TMC3    H210921   0.055   1.628  12.398 -1.3620 -1.3570 -0.1053
  735TMC3    C710922   0.154   1.824  12.544 -0.3789 -0.0408 -0.3735
  735TMC3    C810923   4.704   1.724  12.179 -0.2602  0.2973 -0.2199
  735TMC3    O110924   0.225   1.773  12.457  0.0368  0.2449 -0.1123
  735TMC3    O210925   0.035   1.622  12.163 -0.4834 -0.1798  0.5027
  736MPD2     C10926   0.308   2.039  12.794  0.5683 -0.0667  0.1827
  736MPD2    C110927   0.291   1.978  12.669 -0.3735  0.4868  0.0996
  736MPD2    C210928   0.396   1.967  12.585 -0.6570 -0.4223 -0.3959
  736MPD2    C310929   0.518   2.018  12.623  0.0100 -0.1629 -0.2364
  736MPD2    C410930   0.531   2.064  12.749  0.3495 -0.2143  0.1980
  736MPD2    C510931   0.425   2.078  12.832 -0.0379  0.3667  0.4834
  736MPD2     H10932   0.378   1.919  12.490 -0.4628  0.4986 -0.8955
  736MPD2    H110933   0.624   2.105  12.786  1.4263 -0.5060 -2.1450
  736MPD2    H210934   0.227   2.052  12.865  0.1876 -0.2175 -0.2228
  736MPD2    H310935   0.435   2.123  12.931  3.2764 -1.7101  1.0812
  736MPD2     N10936   0.632   2.010  12.534  0.0463 -0.4569  0.2937
  736MPD2    H510937   0.715   2.056  12.571  0.0235 -0.2930  0.1374
  736MPD2    N110938   0.169   1.906  12.652 -0.3697 -0.4110 -0.1784
  736MPD2    H710939   0.094   1.918  12.718 -1.3287 -0.7585 -1.2049
  737TMC3    C110940   0.740   1.978  12.331  0.3157 -0.2669 -1.1156
  737TMC3    C210941   0.805   2.095  12.356  0.2124  0.2326 -0.5463
  737TMC3    C310942   0.915   2.110  12.275  0.5389  0.0326  0.3308
  737TMC3    C410943   0.782   1.877  12.252 -0.0579  0.3133 -0.6142
  737TMC3    C510944   0.899   1.899  12.182 -0.2266  0.0375 -0.3323
  737TMC3    C610945   0.972   2.014  12.194 -0.0584 -0.0140  0.6985
  737TMC3     C10946   0.630   1.939  12.419  0.5074 -0.9111  0.0414
  737TMC3     O10947   0.570   1.839  12.386  0.0441 -0.1184 -0.6001
  737TMC3     H10948   0.763   2.177  12.413  0.8695  1.1806 -1.4188
  737TMC3    H110949   0.723   1.787  12.236 -1.6075  1.1661  0.3318
  737TMC3    H210950   1.077   2.013  12.169 -0.3166  1.0618 -0.4255
  737TMC3    C710951   0.909   1.818  12.070  1.0330  0.0986 -0.1382
  737TMC3    C810952   0.945   2.247  12.230  0.6773  0.5192  0.0180
  737TMC3    O110953   0.862   1.705  12.064  0.0541 -0.3437 -0.1455
  737TMC3    O210954   0.923   2.340  12.306  0.1664 -0.0632  0.1756
  738MPD2     C10955   0.448   0.985  14.606 -0.7995  0.0852 -0.9828
  738MPD2    C110956   0.509   0.903  14.690  0.0786 -0.0729 -0.4852
  738MPD2    C210957   0.647   0.924  14.703  0.3373 -0.4149  0.3811
  738MPD2    C310958   0.721   1.018  14.635 -0.5599  0.2324 -0.3212
  738MPD2    C410959   0.651   1.104  14.553 -0.5829 -0.4889 -0.7112
  738MPD2    C510960   0.516   1.080  14.531  0.0004 -0.4325 -0.2800
  738MPD2     H10961   0.694   0.857  14.773 -0.1986 -1.1957 -0.0063
  738MPD2    H110962   0.707   1.175  14.493  1.1775 -2.0535 -0.9048
  738MPD2    H210963   0.341   0.982  14.587 -0.6915 -1.3413 -1.4088
  738MPD2    H310964   0.457   1.150  14.473 -1.0292 -1.1500 -0.0915
  738MPD2     N10965   0.857   1.032  14.641 -0.4444 -0.2970  0.0744
  738MPD2    H510966   0.900   1.114  14.599 -0.7872  0.4315  1.1412
  738MPD2    N110967   0.446   0.797  14.760 -0.0940 -0.2506  0.0372
  738MPD2    H710968   0.508   0.738  14.815  1.0644  1.1810  0.2627
  739TMC3    C110969   1.084   0.974  14.645 -0.2676 -0.2471  0.7691
  739TMC3    C210970   1.112   1.039  14.530 -1.0225  0.0756 -0.0139
  739TMC3    C310971   1.243   1.045  14.486  0.0800  0.0009  0.4258
  739TMC3    C410972   1.185   0.922  14.714  0.6384 -1.0912 -0.3734
  739TMC3    C510973   1.315   0.932  14.674  0.9219  0.5223  0.7392
  739TMC3    C610974   1.351   0.996  14.560 -0.0834  0.3932 -0.2535
  739TMC3     C10975   0.953   0.947  14.692  0.0969  0.4912 -0.1220
  739TMC3     O10976   0.934   0.844  14.758  0.2931 -0.6205  0.3763
  739TMC3     H10977   1.033   1.078  14.466 -0.2506  0.1796 -0.8982
  739TMC3    H110978   1.164   0.869  14.805  1.1564  0.6088  0.7492
  739TMC3    H210979   1.453   1.005  14.525 -0.5835  0.5617 -1.6454
  739TMC3    C710980   1.414   0.905  14.775  0.4517  0.4407 -0.0830
  739TMC3    C810981   1.255   1.076  14.348 -0.2573  0.4674  0.8768
  739TMC3    O110982   1.377   0.836  14.871  0.0655  0.3084 -0.2912
  739TMC3    O210983   1.157   1.057  14.283  1.0253 -0.2263 -0.4574
  740TMC3    C110984   1.592   2.092  14.332 -0.2607 -0.1669 -0.1942
  740TMC3    C210985   1.655   2.090  14.452 -0.1340 -0.0365 -0.1964
  740TMC3    C310986   1.782   2.038  14.473  0.4934 -0.6679 -0.1842
  740TMC3    C410987   1.658   2.061  14.215  0.2061 -0.6372  0.0199
  740TMC3    C510988   1.787   2.012  14.241  0.2964  1.1082  0.0416
  740TMC3    C610989   1.853   2.000  14.364 -0.0352  0.0860  0.9045
  740TMC3     C10990   1.458   2.149  14.330 -0.1041  0.1471  0.4411
  740TMC3     O10991   1.420   2.198  14.223  0.1879 -0.3965  0.3819
  740TMC3     H10992   1.598   2.136  14.532  0.4257  0.0519  0.1491
  740TMC3    H110993   1.604   2.058  14.120  0.4492 -0.9112 -0.1092
  740TMC3    H210994   1.960   1.981  14.374  0.0559  2.0651  3.7619
  740TMC3    C710995   1.873   1.974  14.127 -0.4025 -0.3883 -0.2557
  740TMC3    C810996   1.840   2.009  14.606 -0.5344  0.3994  0.8262
  740TMC3    O110997   1.965   1.897  14.154  0.1659 -0.2213 -0.4165
  740TMC3    O210998   1.816   2.076  14.704  0.1385 -0.5897  0.1174
  741TMC3    C110999   0.970   1.489  13.925 -0.2394 -0.2113  0.6612
  741TMC3    C211000   0.884   1.413  13.848 -0.3223  0.0744 -0.0898
  741TMC3    C311001   0.831   1.304  13.919 -0.4064  0.3730  0.1997
  741TMC3    C411002   1.014   1.457  14.050 -0.1609 -0.0893  0.4638
  741TMC3    C511003   0.952   1.357  14.118  0.9560 -0.0021 -0.0810
  741TMC3    C611004   0.864   1.274  14.050  0.6570 -0.3767  0.1296
  741TMC3     C11005   1.005   1.621  13.874 -0.7393  0.1033  0.0681
  741TMC3     O11006   1.038   1.705  13.955 -0.3769 -0.5360 -0.6116
  741TMC3     H11007   0.847   1.440  13.750 -0.9939  0.2401  0.2153
  741TMC3    H111008   1.092   1.519  14.093 -0.0065  0.6458 -0.8583
  741TMC3    H211009   0.817   1.197  14.110  1.9087 -1.6123 -0.4721
  741TMC3    C711010   0.952   1.350  14.261  0.7014  0.5852 -0.1303
  741TMC3    C811011   0.758   1.210  13.846 -0.1280  0.9211  0.4730
  741TMC3    O111012   0.868   1.283  14.317  0.1464  0.0856 -0.2498
  741TMC3    O211013   0.703   1.247  13.745  0.3136  0.4943  0.6440
  742TMC3    C111014   1.029   0.031  15.341 -0.4028 -0.3268 -0.3169
  742TMC3    C211015   0.958   0.008  15.225 -0.0167 -0.3808 -0.0125
  742TMC3    C311016   0.953   4.611  15.185  0.0756 -0.3799  0.2929
  742TMC3    C411017   1.093   4.672  15.411 -0.1096  0.5173  0.0219
  742TMC3    C511018   1.079   4.541  15.365 -0.2047 -0.1637 -0.0164
  742TMC3    C611019   1.021   4.512  15.249  0.7555  0.3442  0.0997
  742TMC3     C11020   1.046   0.165  15.393 -0.5118 -0.2074 -0.0750
  742TMC3     O11021   1.070   0.175  15.511 -0.6930 -0.1694 -0.0384
  742TMC3     H11022   0.879   0.079  15.206  1.5159  0.9319 -1.4976
  742TMC3    H111023   1.169   4.704  15.482 -2.2474  1.8368  1.6869
  742TMC3    H211024   1.001   4.411  15.213 -0.9612  0.4796  0.6338
  742TMC3    C711025   1.172   4.448  15.417  0.5432  0.6334  0.0223
  742TMC3    C811026   0.873   4.576  15.073  0.1164  0.1799  0.1412
  742TMC3    O111027   1.194   4.349  15.349 -0.1862  0.0146 -0.0808
  742TMC3    O211028   0.876   4.458  15.040  0.3994  0.3694  0.8940
  743MPD2     C11029   2.923   0.796   1.565  0.4973 -0.1188  0.1011
  743MPD2    C111030   3.021   0.760   1.485 -0.0852 -0.6520  0.0496
  743MPD2    C211031   3.148   0.803   1.512  0.0688  0.5008  0.4593
  743MPD2    C311032   3.170   0.879   1.625 -0.4997 -0.1244 -0.8138
  743MPD2    C411033   3.071   0.901   1.719  0.3129  0.2541  0.1956
  743MPD2    C511034   2.941   0.857   1.686 -0.1804 -0.6280 -0.5318
  743MPD2     H11035   3.236   0.782   1.452 -0.3186 -1.7357  0.6776
  743MPD2    H111036   3.088   0.935   1.821  0.1790 -0.4557  0.4549
  743MPD2    H211037   2.821   0.765   1.546  1.0036 -0.6382 -1.7397
  743MPD2    H311038   2.863   0.872   1.760  0.9650  0.0556  0.5334
  743MPD2     N11039   3.305   0.917   1.636  0.2682  0.7915 -0.5888
  743MPD2    H511040   3.370   0.888   1.563 -0.8205 -0.6343 -0.9753
  743MPD2    N111041   2.993   0.686   1.366  0.3947  0.2507 -0.3705
  743MPD2    H711042   2.894   0.676   1.347  0.3204 -1.5262  0.9436
  744TMC3    C111043   3.028   0.575   1.157 -0.5734 -0.1855  0.3863
  744TMC3    C211044   2.894   0.594   1.120  0.0296 -0.0872 -0.0369
  744TMC3    C311045   2.845   0.551   0.998 -0.2712 -0.0632 -0.1607
  744TMC3    C411046   3.107   0.511   1.069 -0.5668  0.2730  0.9130
  744TMC3    C511047   3.055   0.461   0.950  0.0094 -0.1153  0.1658
  744TMC3    C611048   2.935   0.500   0.908 -0.3471 -0.2245  0.0611
  744TMC3     C11049   3.087   0.644   1.277  0.2169 -0.0038 -0.6268
  744TMC3     O11050   3.194   0.611   1.314  0.3911 -0.4756 -0.1962
  744TMC3     H11051   2.824   0.648   1.183  1.4438  2.1745 -0.4287
  744TMC3    H111052   3.208   0.480   1.091 -0.9725 -0.3121  1.9606
  744TMC3    H211053   2.906   0.480   0.805 -3.5507 -0.7507  1.0671
  744TMC3    C711054   3.152   0.411   0.850  0.3991 -0.1765 -0.0540
  744TMC3    C811055   2.755   0.646   0.942  0.4833  0.3734 -0.3000
  744TMC3    O111056   3.274   0.434   0.863  0.2751  0.4946  0.8211
  744TMC3    O211057   2.764   0.763   0.983  0.4757  0.1025 -0.3076
  745TMC3    C111058   1.425   4.156  13.860  0.1305  0.8420 -0.0234
  745TMC3    C211059   1.289   4.127  13.884  0.0057 -0.4805  1.1540
  745TMC3    C311060   1.201   4.150  13.780 -0.0230  0.0361 -0.0490
  745TMC3    C411061   1.467   4.208  13.745 -0.1661 -0.9964  0.0359
  745TMC3    C511062   1.378   4.216  13.643  0.1833  0.6770 -0.4897
  745TMC3    C611063   1.244   4.195  13.659  0.3962  0.1328 -0.1324
  745TMC3     C11064   1.485   4.225  13.961  0.1341  0.2953  0.1159
  745TMC3     O11065   1.460   4.184  14.071  0.0421 -0.5210  0.0218
  745TMC3     H11066   1.257   4.083  13.979 -0.7828  0.0840  1.1460
  745TMC3    H111067   1.573   4.205  13.727 -0.1672 -0.9277  0.0177
  745TMC3    H211068   1.168   4.216  13.585  3.5034  3.1097 -2.4540
  745TMC3    C711069   1.418   4.314  13.538  0.1543  0.3314 -0.2077
  745TMC3    C811070   1.102   4.246  13.828  0.0528  0.3736 -0.6061
  745TMC3    O111071   1.505   4.392  13.565  0.2741 -0.0995  0.7135
  745TMC3    O211072   1.004   4.275  13.764 -0.1080 -0.9658 -0.1934
  746TMC3    C111073   4.432   1.860  10.877  0.3774  0.6988  0.3668
  746TMC3    C211074   4.505   1.843  10.764 -0.0287  0.5201 -0.0065
  746TMC3    C311075   4.450   1.770  10.661 -0.9520  0.1051 -0.0229
  746TMC3    C411076   4.323   1.785  10.910 -0.1153 -0.3005 -0.8029
  746TMC3    C511077   4.273   1.709  10.808  0.3805 -0.3021  0.1857
  746TMC3    C611078   4.333   1.702  10.684  0.0201  0.1533  0.2307
  746TMC3     C11079   4.406   1.999  10.901  0.4009 -0.0076 -0.4333
  746TMC3     O11080   4.355   2.026  11.011  0.6102 -0.2062 -0.1521
  746TMC3     H11081   4.591   1.907  10.750 -1.3225  2.6120  1.6018
  746TMC3    H111082   4.264   1.804  11.000  1.7136  0.4304  0.2277
  746TMC3    H211083   4.296   1.635  10.608 -1.5169  1.4963 -0.2027
  746TMC3    C711084   4.126   1.704  10.791  0.5732 -0.0645 -0.5193
  746TMC3    C811085   4.453   1.841  10.538 -0.4276  0.5971 -0.1259
  746TMC3    O111086   4.086   1.725  10.680  0.1403 -0.9538  0.5067
  746TMC3    O211087   4.491   1.959  10.543 -0.4641  0.2999  0.2342
  747TMC3    C111088   1.663   2.054  11.384  0.8687 -0.2511  0.3189
  747TMC3    C211089   1.572   1.958  11.426  0.4012  0.1155  0.1734
  747TMC3    C311090   1.466   2.004  11.500  0.0614 -0.1908 -0.6264
  747TMC3    C411091   1.641   2.188  11.415  0.0172 -0.2172  0.9018
  747TMC3    C511092   1.536   2.222  11.493 -0.0188 -0.1420 -0.2290
  747TMC3    C611093   1.445   2.133  11.536 -0.5440 -0.9471  1.1236
  747TMC3     C11094   1.781   2.036  11.299  0.4473 -0.5298  0.3219
  747TMC3     O11095   1.868   2.121  11.311  0.7415 -0.0137  0.6977
  747TMC3     H11096   1.595   1.853  11.412 -0.3025  0.0442 -0.4867
  747TMC3    H111097   1.724   2.258  11.410  0.3458 -0.7033 -0.3011
  747TMC3    H211098   1.370   2.156  11.610 -2.0278  2.8924 -1.5991
  747TMC3    C711099   1.528   2.362  11.532 -0.7116  0.4714  0.1389
  747TMC3    C811100   1.358   1.911  11.517  0.4996  0.6395  0.9496
  747TMC3    O111101   1.464   2.385  11.632  0.4298  0.2508 -0.2937
  747TMC3    O211102   1.352   1.815  11.438  0.1220 -0.0821  0.0142
  748MPD2     C11103   2.728   2.256   1.610 -0.5118  0.7828 -0.1409
  748MPD2    C111104   2.704   2.121   1.589 -0.0425  0.0202  0.8779
  748MPD2    C211105   2.799   2.051   1.513 -0.1270  0.3705 -0.6629
  748MPD2    C311106   2.905   2.117   1.455  0.0248 -0.7941  0.4387
  748MPD2    C411107   2.922   2.248   1.488 -0.0933 -0.3764  0.4602
  748MPD2    C511108   2.840   2.319   1.568 -0.2858 -0.3474 -0.7117
  748MPD2     H11109   2.785   1.945   1.498 -2.4459  0.1581  2.9323
  748MPD2    H111110   3.009   2.307   1.461 -0.4513 -0.2388 -0.4061
  748MPD2    H211111   2.656   2.322   1.657 -0.2004 -0.3619  1.9457
  748MPD2    H311112   2.854   2.425   1.587 -1.2762 -0.3113 -0.2415
  748MPD2     N11113   2.996   2.053   1.368 -0.0231  0.0988 -0.9631
  748MPD2    H511114   2.977   1.956   1.343 -1.0259  0.5031 -1.7676
  748MPD2    N111115   2.588   2.063   1.654  0.2322 -0.1884 -0.1506
  748MPD2    H711116   2.534   2.135   1.701 -0.7514 -2.3454  2.0758
  749TMC3    C111117   3.158   2.029   1.206 -0.8631 -0.1957  0.1755
  749TMC3    C211118   3.210   1.908   1.241 -0.7058 -0.7598 -0.1060
  749TMC3    C311119   3.314   1.859   1.165  0.6376  0.9252  0.5746
  749TMC3    C411120   3.191   2.088   1.085  0.2261 -0.1244  0.3141
  749TMC3    C511121   3.285   2.033   1.003 -0.3479 -0.3481 -0.0570
  749TMC3    C611122   3.344   1.912   1.042 -0.4784 -0.4255  0.3061
  749TMC3     C11123   3.096   2.117   1.300  0.7967 -0.1693 -0.3842
  749TMC3     O11124   3.121   2.238   1.278  0.6149  0.6389 -0.0980
  749TMC3     H11125   3.171   1.856   1.328 -1.8844  0.1051 -0.1053
  749TMC3    H111126   3.134   2.170   1.043 -0.8109 -1.0903 -0.1984
  749TMC3    H211127   3.430   1.875   0.988 -2.5021 -1.3773 -2.2830
  749TMC3    C711128   3.332   2.123   0.903 -0.0445  0.3437 -0.1446
  749TMC3    C811129   3.398   1.762   1.223 -0.6816 -0.6248  0.2102
  749TMC3    O111130   3.292   2.240   0.917 -0.2145  0.4522  0.0177
  749TMC3    O211131   3.462   1.686   1.148  0.1108  0.2647  0.4096
  750MPD2     C11132   4.026   4.018  11.203 -0.0123 -0.1251 -0.5155
  750MPD2    C111133   3.962   3.918  11.272  0.5351 -0.2350  0.2367
  750MPD2    C211134   3.910   3.811  11.206  0.0958 -0.3006  0.2521
  750MPD2    C311135   3.906   3.807  11.068  0.1482  0.0624  0.4993
  750MPD2    C411136   3.959   3.914  10.998 -0.4037  1.0112  0.7052
  750MPD2    C511137   4.020   4.016  11.068  0.5193 -0.3264 -0.6716
  750MPD2     H11138   3.852   3.739  11.263  0.5448 -0.6811  0.2317
  750MPD2    H111139   3.969   3.912  10.891 -1.4820 -1.5994  0.6530
  750MPD2    H211140   4.072   4.102  11.255 -0.5356 -0.5456  0.6136
  750MPD2    H311141   4.068   4.094  11.011 -0.4061 -0.6959 -1.9799
  750MPD2     N11142   3.856   3.700  10.992  0.0544 -0.4122 -0.4323
  750MPD2    H511143   3.863   3.711  10.891  0.1984 -0.0766 -0.3854
  750MPD2    N111144   3.948   3.944  11.412  0.4034 -0.3864  0.5923
  750MPD2    H711145   3.999   4.023  11.450 -0.6059  0.2484  0.5997
  751TMC3    C111146   3.760   3.480  10.958  0.8879 -0.1094 -0.9506
  751TMC3    C211147   3.672   3.388  11.011  0.1133 -0.1943  0.2502
  751TMC3    C311148   3.590   3.319  10.933  0.1067 -0.5363  0.1114
  751TMC3    C411149   3.780   3.491  10.824 -1.0864  0.1914 -0.1692
  751TMC3    C511150   3.709   3.402  10.744  1.1007 -0.1744  0.5301
  751TMC3    C611151   3.617   3.310  10.798 -0.6202  0.1373  0.5132
  751TMC3     C11152   3.797   3.585  11.046  0.0830 -0.3945  0.1298
  751TMC3     O11153   3.771   3.567  11.164  0.1581 -0.1660 -0.5828
  751TMC3     H11154   3.649   3.384  11.117 -1.3218  2.2262  0.0328
  751TMC3    H111155   3.868   3.540  10.783 -2.1163  0.6868 -1.7920
  751TMC3    H211156   3.542   3.256  10.742  0.0983  0.9045 -1.1867
  751TMC3    C711157   3.788   3.335  10.638 -0.2810  1.0910  0.1781
  751TMC3    C811158   3.476   3.236  10.983  0.3179 -0.6231 -0.1081
  751TMC3    O111159   3.907   3.357  10.638 -0.2312  0.0733 -0.4053
  751TMC3    O211160   3.428   3.149  10.913 -0.0018 -0.0294 -0.2696
  752TMC3    C111161   2.343   2.724  17.370 -0.4127 -0.1056 -0.3966
  752TMC3    C211162   2.375   2.614  17.442 -0.4765  0.2080 -0.5548
  752TMC3    C311163   2.293   2.585  17.549 -0.0305  0.6603  0.2696
  752TMC3    C411164   2.237   2.804  17.405  0.1526  0.3699  0.1919
  752TMC3    C511165   2.160   2.774  17.509  0.7619 -0.5130  0.3513
  752TMC3    C611166   2.186   2.666  17.591  0.2442  0.0448  0.0596
  752TMC3     C11167   2.407   2.731  17.237  0.3509  0.3362  0.1765
  752TMC3     O11168   2.513   2.661  17.231 -0.4461 -0.0311 -0.0608
  752TMC3     H11169   2.462   2.552  17.420 -0.8359  0.6265 -3.1190
  752TMC3    H111170   2.219   2.882  17.333  0.6820  1.1684  0.9202
  752TMC3    H211171   2.128   2.639  17.679 -0.8917  0.5642 -0.5325
  752TMC3    C711172   2.034   2.843  17.507  0.0316  0.3784  0.0787
  752TMC3    C811173   2.335   2.487  17.648  0.1447  0.8815 -0.6624
  752TMC3    O111174   2.054   2.965  17.487  0.3396  0.8047  0.0356
  752TMC3    O211175   2.284   2.482   0.017  0.5690  0.6972 -0.9969
  753TMC3    C111176   4.300   4.285  13.054 -0.5876 -0.0401 -0.2378
  753TMC3    C211177   4.358   4.252  13.175 -0.2622 -0.1266 -0.1021
  753TMC3    C311178   4.314   4.132  13.227  0.1151 -0.5910 -0.0146
  753TMC3    C411179   4.238   4.196  12.972 -0.3652  0.6590  0.0749
  753TMC3    C511180   4.184   4.091  13.040 -0.3284 -0.8362 -0.0592
  753TMC3    C611181   4.228   4.048  13.160  0.0481  0.4433 -0.5193
  753TMC3     C11182   4.268   4.430  13.036 -0.0120 -0.0814  0.2747
  753TMC3     O11183   4.214   4.468  12.933  0.2730 -0.4171  0.3875
  753TMC3     H11184   4.420   4.314  13.239  0.2051 -1.9515  1.1791
  753TMC3    H111185   4.193   4.234  12.880 -1.6125  0.5466  0.6342
  753TMC3    H211186   4.201   3.950  13.198  0.6865  0.1207 -0.8899
  753TMC3    C711187   4.106   4.003  12.957  1.2257 -0.2042  0.0295
  753TMC3    C811188   4.360   4.075  13.358  0.4164  0.6230  0.2990
  753TMC3    O111189   4.129   4.012  12.840 -0.0698  0.6541 -0.3112
  753TMC3    O211190   4.384   3.954  13.369  0.1331  0.5074  0.2056
  754MPD2     C11191   3.517   3.325  12.774 -0.5454  0.4628  0.5323
  754MPD2    C111192   3.536   3.187  12.799 -0.4525 -0.5897 -0.2701
  754MPD2    C211193   3.427   3.102  12.824  0.5809 -0.5706  0.4142
  754MPD2    C311194   3.303   3.149  12.838  0.5408 -0.0146  0.5440
  754MPD2    C411195   3.288   3.286  12.838  0.6059 -0.0493  0.3625
  754MPD2    C511196   3.387   3.376  12.805 -0.4105 -0.0643  0.4175
  754MPD2     H11197   3.441   2.995  12.837  0.2765 -0.6860 -0.2148
  754MPD2    H111198   3.192   3.327  12.868  0.7808  1.1671 -0.7287
  754MPD2    H211199   3.608   3.380  12.754 -0.6392  0.0166 -1.0854
  754MPD2    H311200   3.375   3.483  12.793 -4.6113 -0.4214  1.6624
  754MPD2     N11201   3.198   3.066  12.880 -0.1351  0.3274  0.8154
  754MPD2    H511202   3.109   3.114  12.894 -0.4239  0.3605 -1.0771
  754MPD2    N111203   3.671   3.131  12.779 -1.1166  0.3407 -0.5758
  754MPD2    H711204   3.728   3.188  12.717 -0.9160 -1.9489 -2.4965
  755MPD2     C11205   3.033   3.108  13.742  0.5402 -0.3936  0.0689
  755MPD2    C111206   2.928   3.158  13.664  0.2021  0.1382  0.4073
  755MPD2    C211207   2.894   3.103  13.539 -0.5561 -0.3598  0.4995
  755MPD2    C311208   2.982   3.012  13.481 -0.2977 -0.4320 -0.5077
  755MPD2    C411209   3.090   2.969  13.551  0.3116 -0.3872  0.2295
  755MPD2    C511210   3.104   3.001  13.683 -0.2888  0.0665 -0.1771
  755MPD2     H11211   2.803   3.132  13.487 -0.0945  0.7808  0.3394
  755MPD2    H111212   3.153   2.888  13.516 -1.4623 -0.8238 -1.9638
  755MPD2    H211213   3.056   3.136  13.844 -2.0004 -0.5014  0.6844
  755MPD2    H311214   3.186   2.954  13.736  0.0913 -0.6118 -1.3623
  755MPD2     N11215   2.966   2.958  13.354 -0.7237 -0.8274  0.0035
  755MPD2    H511216   3.041   2.898  13.320 -1.1952 -1.0035 -0.7195
  755MPD2    N111217   2.845   3.271  13.701  0.4640  0.2762  0.4687
  755MPD2    H711218   2.767   3.296  13.641  1.1094  1.8839  0.2759
  756MPD2     C11219   3.660   4.494   9.594 -0.5952  0.5009  0.3182
  756MPD2    C111220   3.557   4.482   9.680  0.6011  0.4116  0.0663
  756MPD2    C211221   3.425   4.473   9.633 -0.5694 -0.7359  0.1489
  756MPD2    C311222   3.395   4.484   9.501 -0.3358  0.3428 -0.6124
  756MPD2    C411223   3.504   4.506   9.414 -0.2571  0.5131  0.3507
  756MPD2    C511224   3.636   4.497   9.457  0.4173 -0.5274 -0.0427
  756MPD2     H11225   3.351   4.468   9.712  0.2212  1.2254  1.0036
  756MPD2    H111226   3.496   4.503   9.306  0.7431 -0.7382  0.3062
  756MPD2    H211227   3.765   4.494   9.622  0.2814  3.0413 -2.9404
  756MPD2    H311228   3.715   4.491   9.384  1.4583 -1.2592  1.1579
  756MPD2     N11229   3.257   4.475   9.469  0.2874 -0.5566 -0.2528
  756MPD2    H511230   3.196   4.447   9.545 -0.5459  2.1580  0.0860
  756MPD2    N111231   3.575   4.465   9.820  0.0774 -0.1152  0.1797
  756MPD2    H711232   3.494   4.477   9.880 -0.7483 -1.1141 -0.7287
  757MPD2     C11233   2.577   4.003   9.744 -0.2295 -0.1969 -0.3657
  757MPD2    C111234   2.716   3.985   9.735 -0.3332 -0.7036 -0.0723
  757MPD2    C211235   2.789   4.088   9.678 -0.3504  0.0302  0.7659
  757MPD2    C311236   2.728   4.209   9.639  0.0654  0.0057 -0.6056
  757MPD2    C411237   2.598   4.225   9.679 -0.5305 -0.0337 -0.3723
  757MPD2    C511238   2.520   4.121   9.712 -1.1260  0.3146 -0.7290
  757MPD2     H11239   2.892   4.080   9.644 -0.0716  1.0095  1.4010
  757MPD2    H111240   2.548   4.319   9.658 -0.9249  0.2200  1.7559
  757MPD2    H211241   2.522   3.915   9.777 -0.0929 -1.0211 -2.3329
  757MPD2    H311242   2.417   4.146   9.733 -0.0365  1.5906  3.1452
  757MPD2     N11243   2.802   4.302   9.562 -0.1814 -0.1920 -0.1287
  757MPD2    H511244   2.896   4.277   9.533 -0.0418  1.3276 -0.9599
  757MPD2    N111245   2.771   3.864   9.763  0.4339  0.8520  0.3560
  757MPD2    H711246   2.716   3.783   9.789  0.2609 -0.3406 -3.8128
  758MPD2     C11247   3.371   2.292  16.064  0.2480 -0.1359 -0.5873
  758MPD2    C111248   3.458   2.214  16.140 -0.4201 -0.0110  0.0046
  758MPD2    C211249   3.409   2.136  16.244 -0.3293 -0.3472  0.7369
  758MPD2    C311250   3.270   2.133  16.269 -0.9792  0.1070  0.2105
  758MPD2    C411251   3.196   2.226  16.202  0.4175 -0.7019  0.3536
  758MPD2    C511252   3.241   2.303  16.098  0.1465  0.5760 -0.0079
  758MPD2     H11253   3.475   2.075  16.304 -1.7817 -2.3194  0.3263
  758MPD2    H111254   3.090   2.237  16.224  1.0055  0.4792  2.5655
  758MPD2    H211255   3.413   2.348  15.981 -2.9947  1.5886 -1.0285
  758MPD2    H311256   3.175   2.360  16.035  0.4582 -0.4462 -1.2582
  758MPD2     N11257   3.214   2.056  16.373  0.5735 -0.3719  0.1040
  758MPD2    H511258   3.114   2.049  16.381  0.3482  2.3700 -0.3137
  758MPD2    N111259   3.601   2.227  16.112  0.5549  0.1780  0.3558
  758MPD2    H711260   3.616   2.306  16.050 -0.5297  1.4235  1.6636
  759MPD2     C11261   2.692   1.313  10.377 -0.5917 -0.1116 -0.1290
  759MPD2    C111262   2.570   1.297  10.319 -0.6943  0.5560  0.0957
  759MPD2    C211263   2.528   1.367  10.209 -0.2076  0.2682  0.1791
  759MPD2    C311264   2.620   1.458  10.155  0.4511 -0.4226 -0.3967
  759MPD2    C411265   2.749   1.476  10.216  0.0451  0.5679  0.4023
  759MPD2    C511266   2.779   1.409  10.331  0.4132 -0.0895  0.0202
  759MPD2     H11267   2.429   1.363  10.164 -0.0945  0.6162 -0.1009
  759MPD2    H111268   2.821   1.549  10.180  1.7271 -0.4960  1.6225
  759MPD2    H211269   2.727   1.268  10.469 -1.6787 -0.1641  0.2556
  759MPD2    H311270   2.870   1.440  10.380 -0.3787  1.1110  0.7444
  759MPD2     N11271   2.586   1.526  10.030  0.1840 -0.5352  0.4244
  759MPD2    H511272   2.495   1.497   9.994 -0.0417  0.1728  0.4381
  759MPD2    N111273   2.475   1.204  10.368 -0.0717 -0.0976  0.4614
  759MPD2    H711274   2.385   1.212  10.322  0.4952 -0.5892 -0.7219
  760MPD2     C11275   2.021   3.680  11.546 -0.3697 -0.1135  0.3255
  760MPD2    C111276   2.144   3.703  11.607  0.4392  0.2972 -0.2241
  760MPD2    C211277   2.234   3.601  11.608 -0.8119  0.0488  0.0464
  760MPD2    C311278   2.199   3.478  11.557  0.1749  0.1295 -0.4277
  760MPD2    C411279   2.068   3.456  11.514 -0.6552 -0.4192  0.6778
  760MPD2    C511280   1.974   3.555  11.500  0.7385 -1.1821 -0.0795
  760MPD2     H11281   2.330   3.620  11.655 -1.6349  0.4007  1.5759
  760MPD2    H111282   2.037   3.358  11.477 -1.1218  0.0620 -0.2001
  760MPD2    H211283   1.960   3.769  11.540  0.2743  0.2902 -0.3067
  760MPD2    H311284   1.882   3.541  11.446  1.5624 -0.9890 -1.5342
  760MPD2     N11285   2.297   3.382  11.522  0.5181 -0.6308 -0.1561
  760MPD2    H511286   2.261   3.294  11.486 -2.2774  0.5161 -0.1578
  760MPD2    N111287   2.173   3.817  11.685  0.4118 -0.2135  0.4359
  760MPD2    H711288   2.248   3.817  11.753  1.9305 -0.0052 -1.2189
  761MPD2     C11289   3.253   2.981  11.366  0.4390  0.8847 -0.1796
  761MPD2    C111290   3.298   2.941  11.245  0.1113  0.4301  0.6035
  761MPD2    C211291   3.354   3.030  11.155  0.1811 -0.0686 -0.5741
  761MPD2    C311292   3.369   3.163  11.189 -0.2437  0.3177  0.2395
  761MPD2    C411293   3.326   3.198  11.315 -0.1780  0.2229  0.7693
  761MPD2    C511294   3.271   3.111  11.404  0.5985  0.6853 -0.1470
  761MPD2     H11295   3.400   2.992  11.065 -0.3461  0.6121 -1.1255
  761MPD2    H111296   3.342   3.296  11.357 -1.0845  0.0446  1.5394
  761MPD2    H211297   3.222   2.914  11.446 -1.6198 -0.4135 -2.0601
  761MPD2    H311298   3.224   3.137  11.498 -0.3858  0.8933 -0.6958
  761MPD2     N11299   3.440   3.256  11.115  0.3400 -0.4706  0.1135
  761MPD2    H511300   3.461   3.345  11.159  1.7282 -0.2278 -1.0288
  761MPD2    N111301   3.288   2.801  11.221  0.4234 -0.0761  0.3253
  761MPD2    H711302   3.260   2.743  11.299 -1.1501  0.0081 -0.1887
  762MPD2     C11303   3.570   2.710  10.671  0.8580 -0.0083  0.1159
  762MPD2    C111304   3.611   2.586  10.715  0.2122  0.4402 -0.0379
  762MPD2    C211305   3.707   2.510  10.639  0.1552  0.4027 -0.0015
  762MPD2    C311306   3.769   2.576  10.534  0.3444 -0.1227 -0.3348
  762MPD2    C411307   3.732   2.707  10.505 -0.4432  0.1914 -0.4773
  762MPD2    C511308   3.632   2.766  10.562 -0.8357  0.0997 -0.3718
  762MPD2     H11309   3.755   2.416  10.664 -1.0871 -0.3215 -0.3369
  762MPD2    H111310   3.772   2.757  10.418 -2.8156  0.8647 -1.1808
  762MPD2    H211311   3.494   2.768  10.721 -0.8830 -0.5624 -1.8933
  762MPD2    H311312   3.602   2.867  10.538  0.8617  0.5387 -0.6785
  762MPD2     N11313   3.886   2.516  10.474  0.0142  0.7476 -0.0826
  762MPD2    H511314   3.894   2.416  10.490 -2.4942  0.7150  0.8976
  762MPD2    N111315   3.565   2.548  10.844 -0.2245 -0.0320 -0.0712
  762MPD2    H711316   3.495   2.612  10.879  1.6444  0.3968  2.8103
  763MPD2     C11317   0.557   2.490  16.102  0.5816  0.2719  0.3295
  763MPD2    C111318   0.461   2.587  16.086 -0.0570  0.4054  0.0512
  763MPD2    C211319   0.441   2.684  16.187  0.7051  0.7085  0.4406
  763MPD2    C311320   0.509   2.669  16.306 -0.0308  0.0083  0.4202
  763MPD2    C411321   0.607   2.563  16.318 -0.0231 -0.4632 -0.0273
  763MPD2    C511322   0.622   2.472  16.220  0.3073 -1.0850  0.0096
  763MPD2     H11323   0.375   2.767  16.164  0.2238 -0.1803 -1.3822
  763MPD2    H111324   0.661   2.550  16.411  1.1175  0.3678 -0.5834
  763MPD2    H211325   0.591   2.419  16.028 -2.4762 -0.2199 -0.6249
  763MPD2    H311326   0.702   2.399  16.222  0.4968 -0.8331  1.2255
  763MPD2     N11327   0.492   2.755  16.418 -0.1551  0.4534  0.9248
  763MPD2    H511328   0.553   2.739  16.497  0.8890 -2.5604 -0.5181
  763MPD2    N111329   0.404   2.611  15.960 -0.4399 -0.0573  0.1741
  763MPD2    H711330   0.356   2.698  15.940  2.0230  0.9816 -1.1781
  764MPD2     C11331   2.928   3.696  17.244  0.5908 -0.3506 -0.4504
  764MPD2    C111332   2.836   3.594  17.215 -0.3728  0.0753 -0.1029
  764MPD2    C211333   2.775   3.529  17.319 -0.4183  0.3074  0.2934
  764MPD2    C311334   2.796   3.555  17.453 -0.3716  0.2074  0.0936
  764MPD2    C411335   2.891   3.654  17.480 -0.4417 -0.0693  0.2059
  764MPD2    C511336   2.956   3.715  17.381  0.4836  0.3847  0.0799
  764MPD2     H11337   2.696   3.456  17.303  3.0289 -2.8694 -2.1659
  764MPD2    H111338   2.923   3.692  17.576 -1.7310  0.2112  0.5286
  764MPD2    H211339   2.985   3.756  17.174  0.3998 -0.2669 -0.5324
  764MPD2    H311340   3.033   3.784  17.413  2.3059 -1.3171 -0.7033
  764MPD2     N11341   2.729   3.481  17.557 -0.1847 -0.5008 -0.7741
  764MPD2    H511342   2.658   3.420  17.519  0.9765 -0.9110 -2.3136
  764MPD2    N111343   2.796   3.550  17.086  0.0832  0.6718 -0.0053
  764MPD2    H711344   2.745   3.463  17.075 -0.6984  1.0655  0.4980
  765MPD2     C11345   3.163   1.896  15.173 -0.0482  0.1781 -0.1961
  765MPD2    C111346   3.251   1.961  15.252  0.2791 -0.3615  0.0342
  765MPD2    C211347   3.362   1.892  15.306 -0.5081 -0.3201 -0.3849
  765MPD2    C311348   3.391   1.762  15.270 -0.0467 -0.1081  0.1267
  765MPD2    C411349   3.301   1.694  15.195 -0.6502 -0.3725 -0.6223
  765MPD2    C511350   3.192   1.763  15.144  0.3517  0.4871  0.1324
  765MPD2     H11351   3.436   1.947  15.364  0.2004  0.2562 -1.8328
  765MPD2    H111352   3.310   1.589  15.169  0.2012 -0.5756  0.4877
  765MPD2    H211353   3.072   1.944  15.139  0.1873 -1.3900 -3.0161
  765MPD2    H311354   3.123   1.703  15.086  1.1407  0.5464 -0.8738
  765MPD2     N11355   3.509   1.706  15.328 -0.1457  0.2861 -0.1365
  765MPD2    H511356   3.572   1.775  15.369 -2.0035  1.3290  0.9679
  765MPD2    N111357   3.228   2.096  15.271  0.5385 -0.1285  0.0110
  765MPD2    H711358   3.147   2.135  15.223 -0.6842 -0.8025  1.5348
  766MPD2     C11359   2.583   2.251  15.293  0.2475 -0.7555 -0.2489
  766MPD2    C111360   2.707   2.195  15.269 -0.1278  0.9326  0.4369
  766MPD2    C211361   2.719   2.113  15.162  0.2266 -0.4462 -0.0958
  766MPD2    C311362   2.614   2.086  15.080  0.0102  0.4158 -0.8632
  766MPD2    C411363   2.493   2.138  15.112  0.2284 -0.1567  0.0489
  766MPD2    C511364   2.477   2.219  15.222  0.2850 -0.3202 -0.3632
  766MPD2     H11365   2.821   2.081  15.147 -0.1299 -1.1055 -1.0949
  766MPD2    H111366   2.415   2.113  15.042 -0.6670  2.3788  0.1279
  766MPD2    H211367   2.576   2.316  15.380  2.1817 -0.2607 -0.4732
  766MPD2    H311368   2.380   2.265  15.240 -0.0586 -1.3875  0.4936
  766MPD2     N11369   2.637   2.022  14.955  0.2274 -0.4496  0.2336
  766MPD2    H511370   2.566   2.034  14.883  0.2118 -2.2576 -0.0644
  766MPD2    N111371   2.823   2.225  15.341 -0.5742  0.0112 -0.1836
  766MPD2    H711372   2.903   2.176  15.303  1.0533  2.7254 -0.2058
  767MPD2     C11373   2.261   2.310  14.856 -0.7074  0.1620 -0.2438
  767MPD2    C111374   2.393   2.326  14.809 -0.3958  0.2988  0.3476
  767MPD2    C211375   2.413   2.283  14.676 -0.1258 -0.6750  0.2058
  767MPD2    C311376   2.311   2.215  14.606  0.1925 -0.4299  0.3890
  767MPD2    C411377   2.189   2.190  14.666  0.0687 -0.1349 -0.3217
  767MPD2    C511378   2.168   2.236  14.792 -0.4626  0.3152  0.4990
  767MPD2     H11379   2.504   2.305  14.620 -0.4648  0.3851  0.0720
  767MPD2    H111380   2.116   2.129  14.615 -0.5306 -0.2252  0.6351
  767MPD2    H211381   2.243   2.343  14.958 -2.9392  1.9351 -1.2291
  767MPD2    H311382   2.079   2.218  14.852 -0.6558  0.0702  0.1353
  767MPD2     N11383   2.347   2.175  14.472 -0.2698 -0.2669  0.6716
  767MPD2    H511384   2.448   2.185  14.461 -0.6881  2.0862 -0.9239
  767MPD2    N111385   2.485   2.387  14.898  0.2949  0.4167  0.2228
  767MPD2    H711386   2.449   2.426  14.985  0.0005  1.7754 -0.5216
  768MPD2     C11387   3.765   1.413  10.156 -0.2672  0.2843  0.1019
  768MPD2    C111388   3.716   1.386  10.283  0.0781  0.3816  0.4331
  768MPD2    C211389   3.787   1.301  10.368 -0.1573 -0.0873  0.3641
  768MPD2    C311390   3.902   1.236  10.326 -0.7698 -0.7500  0.1427
  768MPD2    C411391   3.947   1.263  10.196 -0.1276  0.5154  0.0889
  768MPD2    C511392   3.876   1.351  10.116 -0.5893  0.0090 -0.4079
  768MPD2     H11393   3.743   1.289  10.466  0.3598  0.4496  0.6674
  768MPD2    H111394   4.041   1.220  10.162 -0.8492 -3.3674  3.0019
  768MPD2    H211395   3.736   1.493  10.090 -0.7719 -0.5153 -0.6401
  768MPD2    H311396   3.921   1.383  10.022  0.5085  1.9737  0.8061
  768MPD2     N11397   3.986   1.153  10.406  0.3765 -0.3884 -0.4998
  768MPD2    H511398   4.080   1.136  10.372  1.2207  1.9793  0.6264
  768MPD2    N111399   3.618   1.468  10.338 -0.2576 -0.7924 -0.5438
  768MPD2    H711400   3.601   1.449  10.436  4.1332 -2.0225  0.0041
  769MPD2     C11401   4.318   3.774  14.838  0.5358 -0.1419 -0.3862
  769MPD2    C111402   4.240   3.798  14.952  0.3026  0.2047 -0.4656
  769MPD2    C211403   4.302   3.809  15.070 -0.5494 -0.0678  0.5186
  769MPD2    C311404   4.440   3.815  15.079 -0.3979 -0.7060 -0.0132
  769MPD2    C411405   4.518   3.785  14.966 -0.3153 -0.2411 -0.4433
  769MPD2    C511406   4.454   3.751  14.853  0.2931 -0.1604  0.0323
  769MPD2     H11407   4.246   3.811  15.163 -0.6441 -2.2508  0.5077
  769MPD2    H111408   4.625   3.770  14.963 -0.2637 -0.1433  1.2800
  769MPD2    H211409   4.270   3.729  14.751  1.4310 -1.9314  0.0363
  769MPD2    H311410   4.522   3.713  14.777  1.5060 -1.5781  1.8045
  769MPD2     N11411   4.499   3.839  15.199 -0.4877  0.0262  0.6154
  769MPD2    H511412   4.436   3.848  15.278  0.4347  0.2670  1.3301
  769MPD2    N111413   4.099   3.792  14.939  0.5216  0.3775 -0.4514
  769MPD2    H711414   4.064   3.793  14.844  0.0147  0.0756 -0.2735
  770MPD2     C11415   3.465   3.225  15.096 -0.7397  0.2534  0.4990
  770MPD2    C111416   3.591   3.236  15.152 -0.6878  0.5026 -0.2673
  770MPD2    C211417   3.626   3.363  15.195 -0.1767 -0.7917  0.0014
  770MPD2    C311418   3.553   3.472  15.177  0.1376  0.0671  0.2894
  770MPD2    C411419   3.425   3.463  15.114  0.4475  0.8795 -0.5666
  770MPD2    C511420   3.382   3.339  15.071  0.2723  0.4548  0.1765
  770MPD2     H11421   3.725   3.384  15.234 -0.2633  2.1749 -1.3995
  770MPD2    H111422   3.365   3.546  15.079  0.8280  1.0045 -0.9224
  770MPD2    H211423   3.432   3.129  15.058  0.1538  0.3437 -0.5101
  770MPD2    H311424   3.283   3.328  15.029 -0.4951 -0.1885  2.1328
  770MPD2     N11425   3.624   3.588  15.202  0.2227  0.5594  0.2327
  770MPD2    H511426   3.725   3.583  15.209  0.3875 -2.0402 -4.1119
  770MPD2    N111427   3.668   3.120  15.171 -0.9802  0.6075 -0.3643
  770MPD2    H711428   3.622   3.032  15.151 -0.7510 -0.5336  3.9362
  771MPD2     C11429   0.536   1.585  13.687 -0.7921 -0.1657  0.4059
  771MPD2    C111430   0.519   1.696  13.601  0.0191  0.0882 -0.2801
  771MPD2    C211431   0.436   1.690  13.498  0.3289 -0.2106 -0.1106
  771MPD2    C311432   0.363   1.576  13.471 -0.3720 -0.1074 -0.7206
  771MPD2    C411433   0.379   1.459  13.548 -0.0944  0.9237 -0.1930
  771MPD2    C511434   0.468   1.467  13.651  0.1553  0.2464  0.4988
  771MPD2     H11435   0.418   1.778  13.436 -1.0798 -1.0177 -0.8449
  771MPD2    H111436   0.326   1.367  13.525 -2.0494  2.1621 -0.6352
  771MPD2    H211437   0.594   1.589  13.779  0.8771 -1.8935 -0.5696
  771MPD2    H311438   0.461   1.378  13.711  1.6159 -0.1971  0.0135
  771MPD2     N11439   0.272   1.587  13.368 -0.3719  0.4017  0.7369
  771MPD2    H511440   0.273   1.672  13.314  1.4541  0.9787  1.6709
  771MPD2    N111441   0.583   1.824  13.618  0.2346 -0.1084  0.8652
  771MPD2    H711442   0.566   1.901  13.553 -2.0681  0.4278  2.0792
  772MPD2     C11443   0.372   2.448  14.089 -0.2849 -0.8146  0.4294
  772MPD2    C111444   0.346   2.378  13.969  1.5890  0.2282 -0.0596
  772MPD2    C211445   0.220   2.401  13.914 -0.5848  0.6526 -0.7954
  772MPD2    C311446   0.139   2.491  13.969 -0.5842  0.1411 -0.4215
  772MPD2    C411447   0.169   2.562  14.081 -0.1769 -0.1519  0.4460
  772MPD2    C511448   0.286   2.538  14.137 -0.3458  0.4807  0.0171
  772MPD2     H11449   0.197   2.361  13.816  1.6187  1.4587 -1.6270
  772MPD2    H111450   0.102   2.629  14.132  0.6674  0.2474  1.0317
  772MPD2    H211451   0.464   2.435  14.144  0.3323  0.1553 -0.3731
  772MPD2    H311452   0.311   2.590  14.229  0.9038  0.2430 -0.1987
  772MPD2     N11453   0.007   2.509  13.914  0.0683 -0.1504  0.4637
  772MPD2    H511454   4.688   2.579  13.962  1.8223  1.9812 -0.6373
  772MPD2    N111455   0.438   2.295  13.901 -0.1386  0.0092  0.8404
  772MPD2    H711456   0.406   2.266  13.809  0.3549  0.3102  0.5784
  773MPD2     C11457   3.867   2.368   0.714 -0.0042  0.0598 -0.6524
  773MPD2    C111458   3.937   2.302   0.615  0.0021 -0.5058  0.2715
  773MPD2    C211459   4.017   2.194   0.646  1.0103  0.7803 -0.2886
  773MPD2    C311460   4.020   2.146   0.775 -0.8820 -0.4108  0.1627
  773MPD2    C411461   3.935   2.207   0.873  0.2420  0.1402  0.9963
  773MPD2    C511462   3.866   2.321   0.839 -0.4645  0.4310  0.4877
  773MPD2     H11463   4.064   2.151   0.558  1.3888 -2.1615  1.3783
  773MPD2    H111464   3.926   2.165   0.972  3.7329 -0.2624  1.1656
  773MPD2    H211465   3.813   2.460   0.694  0.0092  0.2601  0.2677
  773MPD2    H311466   3.824   2.387   0.914  0.2647  0.4656  0.8615
  773MPD2     N11467   4.095   2.031   0.810  0.2816 -0.1423 -0.3529
  773MPD2    H511468   4.134   1.975   0.735 -2.2203 -1.3388 -0.7856
  773MPD2    N111469   3.924   2.343   0.479 -0.0195 -0.4234  0.1049
  773MPD2    H711470   3.981   2.299   0.407  1.1920  3.1138 -1.1248
  774MPD2     C11471   3.267   2.166  13.075 -0.6379 -0.5633 -0.7097
  774MPD2    C111472   3.299   2.236  13.190  0.2363 -0.6266 -0.4155
  774MPD2    C211473   3.370   2.352  13.177  0.1626 -0.2595 -0.3731
  774MPD2    C311474   3.406   2.407  13.054  0.2371 -0.1806  0.8825
  774MPD2    C411475   3.378   2.337  12.939 -0.2004 -0.4315  0.2400
  774MPD2    C511476   3.300   2.222  12.956  0.6627 -0.4625  0.9465
  774MPD2     H11477   3.404   2.405  13.266 -0.6454 -2.7454  1.4372
  774MPD2    H111478   3.400   2.378  12.841  0.4608 -3.5187 -0.9337
  774MPD2    H211479   3.216   2.070  13.074 -2.3267  0.3181  3.5439
  774MPD2    H311480   3.257   2.175  12.868  0.9617  3.2026 -1.1473
  774MPD2     N11481   3.479   2.528  13.058  0.0602  0.5503  0.1570
  774MPD2    H511482   3.490   2.570  13.150  1.2058  1.4222 -0.3761
  774MPD2    N111483   3.278   2.181  13.318 -0.3277  0.0937 -0.1230
  774MPD2    H711484   3.257   2.082  13.310 -0.4413  0.1377 -0.3585
  775MPD2     C11485   0.162   3.720  15.692 -0.2688  0.0978  0.8291
  775MPD2    C111486   0.134   3.854  15.727  0.6488 -0.8502  0.5213
  775MPD2    C211487   0.205   3.954  15.665  0.0644 -0.1410 -0.2652
  775MPD2    C311488   0.309   3.919  15.578 -0.6628  0.5551 -0.8408
  775MPD2    C411489   0.335   3.793  15.543  0.2507 -0.3577 -1.1414
  775MPD2    C511490   0.261   3.693  15.605 -0.0314  0.0136  0.1855
  775MPD2     H11491   0.188   4.058  15.690  1.5798 -0.0646  0.4794
  775MPD2    H111492   0.415   3.767  15.474  1.0970  0.8344 -0.6176
  775MPD2    H211493   0.107   3.638  15.738  0.2242 -1.1764 -0.8343
  775MPD2    H311494   0.271   3.589  15.576 -0.6707 -0.2490  0.9063
  775MPD2     N11495   0.379   4.015  15.506 -0.1507  0.2165  0.7953
  775MPD2    H511496   0.435   3.983  15.428 -2.0347 -1.8803  0.3120
  775MPD2    N111497   0.032   3.873  15.823 -0.5435 -0.4356 -0.0199
  775MPD2    H711498   4.705   3.795  15.839 -1.3643 -0.3577 -2.9499
  776MPD2     C11499   3.433   4.490  11.744 -0.4801  0.4992 -0.3898
  776MPD2    C111500   3.556   4.452  11.703 -0.1713  0.5169 -0.6565
  776MPD2    C211501   3.643   4.552  11.650 -0.4820 -1.4378 -0.0021
  776MPD2    C311502   3.605   4.683  11.637  0.3131  0.7469 -0.2805
  776MPD2    C411503   3.478   4.713  11.674  0.1871 -0.1481  0.0307
  776MPD2    C511504   3.394   4.619  11.727  0.6191 -0.0649  0.2545
  776MPD2     H11505   3.744   4.531  11.616  0.3314 -0.6410  1.9084
  776MPD2    H111506   3.441   0.078  11.664  1.7312  0.3171 -0.8717
  776MPD2    H211507   3.359   4.416  11.774  0.7719  0.0468  1.6351
  776MPD2    H311508   3.297   4.649  11.765 -0.9988 -0.9803 -3.1909
  776MPD2     N11509   3.683   0.044  11.567  0.5042  0.1170  0.3406
  776MPD2    H511510   3.649   0.139  11.556  1.5322  0.5668  1.0156
  776MPD2    N111511   3.585   4.314  11.703 -0.1167 -0.0065  0.0807
  776MPD2    H711512   3.518   4.252  11.748 -0.3670  0.5696  0.4921
  777MPD2     C11513   4.271   0.906   0.928  0.1130  0.0347  0.4167
  777MPD2    C111514   4.131   0.921   0.954 -0.5377  0.1272  0.9849
  777MPD2    C211515   4.037   0.863   0.874  0.8655  0.1909 -0.2490
  777MPD2    C311516   4.082   0.802   0.756  0.0459  0.1358  0.1631
  777MPD2    C411517   4.223   0.793   0.726 -0.2155 -1.0567  0.2652
  777MPD2    C511518   4.318   0.843   0.815  0.0991  0.2088 -0.3933
  777MPD2     H11519   3.934   0.875   0.905  0.9475 -1.3750  0.6107
  777MPD2    H111520   4.252   0.724   0.648  0.2130 -1.2105  0.5595
  777MPD2    H211521   4.342   0.949   0.998 -0.2004  0.6888  0.3308
  777MPD2    H311522   4.424   0.825   0.801 -0.3167 -2.0888 -0.6549
  777MPD2     N11523   3.992   0.740   0.668  0.0516 -0.6442 -0.5714
  777MPD2    H511524   3.902   0.720   0.712  0.8590 -0.8827  0.9906
  777MPD2    N111525   4.104   1.003   1.067 -0.1079  0.1275 -0.5685
  777MPD2    H711526   4.179   1.037   1.125 -0.9110  0.3214  0.3583
  778MPD2     C11527   0.519   1.997  14.788  0.6650 -0.1592  1.0617
  778MPD2    C111528   0.569   1.878  14.739 -0.4585 -0.1794 -0.1934
  778MPD2    C211529   0.669   1.877  14.638  0.4746 -0.0715  0.3154
  778MPD2    C311530   0.710   1.995  14.579 -0.4988 -0.7675  0.5574
  778MPD2    C411531   0.647   2.110  14.626  1.2356 -0.4827 -0.4089
  778MPD2    C511532   0.559   2.108  14.731 -0.5257  0.4348  0.4662
  778MPD2     H11533   0.702   1.780  14.602 -1.4924 -0.8535  0.6092
  778MPD2    H111534   0.667   2.208  14.583 -1.3777  0.5552  0.7387
  778MPD2    H211535   0.453   2.016  14.872 -1.0196 -0.4086 -0.2016
  778MPD2    H311536   0.510   2.200  14.757 -0.4510  0.4685  0.4882
  778MPD2     N11537   0.805   1.991  14.477 -0.6688 -0.8563  0.0851
  778MPD2    H511538   0.859   1.905  14.464  1.3911  0.4480 -0.0509
  778MPD2    N111539   0.504   1.754  14.768 -0.5248 -0.6516  0.0260
  778MPD2    H711540   0.516   1.677  14.703  3.8549 -1.6159  1.9287
  779MPD2     C11541   4.473   0.336  13.534 -0.1606  0.1793  0.0032
  779MPD2    C111542   4.500   0.365  13.664  0.1371  0.1565 -0.1172
  779MPD2    C211543   4.545   0.486  13.705 -0.5940 -0.0611 -0.1326
  779MPD2    C311544   4.572   0.579  13.604 -0.2744 -0.1190 -0.2571
  779MPD2    C411545   4.559   0.540  13.471  0.2312 -0.6382  0.6791
  779MPD2    C511546   4.511   0.421  13.438  0.1385 -0.4506 -0.0158
  779MPD2     H11547   4.575   0.502  13.808  0.3601 -1.9800 -0.1223
  779MPD2    H111548   4.569   0.603  13.383  0.6008  0.7488  1.7138
  779MPD2    H211549   4.431   0.242  13.499 -0.3247  0.1625  0.2463
  779MPD2    H311550   4.505   0.402  13.332  0.9411 -1.7030  0.1715
  779MPD2     N11551   4.613   0.706  13.635  1.4183 -0.7264 -0.1094
  779MPD2    H511552   4.635   0.718  13.734 -0.2851 -2.0152  0.4332
  779MPD2    N111553   4.478   0.255  13.753 -0.2958 -0.4670  0.0606
  779MPD2    H711554   4.432   0.174  13.714  0.5897 -1.2365  0.6112
  780MPD2     C11555   4.223   4.471   0.979 -0.3362 -0.3810  0.1935
  780MPD2    C111556   4.123   4.498   0.890 -0.2859  0.3387 -0.4917
  780MPD2    C211557   4.148   4.587   0.792 -0.1023 -0.0565 -0.1231
  780MPD2    C311558   4.267   4.654   0.788  0.0986 -0.5384 -0.7372
  780MPD2    C411559   4.351   4.639   0.889 -0.1886  0.1058 -0.5426
  780MPD2    C511560   4.339   4.544   0.982  0.0497 -0.1248  0.9133
  780MPD2     H11561   4.072   4.603   0.717  1.8988  1.0209 -1.9352
  780MPD2    H111562   4.441   4.699   0.892 -0.7892  1.0464 -0.9888
  780MPD2    H211563   4.200   4.401   1.058 -0.6789 -2.6672 -1.9504
  780MPD2    H311564   4.410   4.537   1.063  1.3694 -0.9452 -0.3358
  780MPD2     N11565   4.304   4.735   0.676 -0.3489  0.0282 -0.4156
  780MPD2    H511566   4.235   4.735   0.601 -1.1632 -1.4874  0.3313
  780MPD2    N111567   4.023   4.402   0.883  0.3830  0.5622 -0.2180
  780MPD2    H711568   4.040   4.312   0.929  1.3633 -0.5288 -2.7392
  781MPD2     C11569   1.012   2.782  12.355 -0.2446  0.7227  0.3925
  781MPD2    C111570   1.134   2.724  12.387  0.0910  0.5025 -0.3276
  781MPD2    C211571   1.253   2.779  12.339  0.0591  0.1395  0.6943
  781MPD2    C311572   1.247   2.881  12.243  0.5216 -0.8357  0.7580
  781MPD2    C411573   1.123   2.925  12.203 -0.2936 -0.0254 -0.2813
  781MPD2    C511574   1.003   2.872  12.256  0.8276 -0.5443  0.2145
  781MPD2     H11575   1.350   2.747  12.374  1.2784  1.7130 -1.2438
  781MPD2    H111576   1.111   3.005  12.130  0.5119 -1.2144 -1.7213
  781MPD2    H211577   0.926   2.737  12.404  0.8608 -0.4087  1.3106
  781MPD2    H311578   0.911   2.918  12.220 -0.8866 -2.8825  1.6578
  781MPD2     N11579   1.362   2.942  12.188  0.5646  0.1339 -0.3007
  781MPD2    H511580   1.349   3.022  12.127  1.5000 -1.3416 -2.4428
  781MPD2    N111581   1.149   2.615  12.478 -0.1124  0.4415  0.4381
  781MPD2    H711582   1.243   2.585  12.503 -0.2478 -1.9968 -2.0078
  782MPD2     C11583   4.658   3.124   9.760  0.4975 -0.6830  0.1752
  782MPD2    C111584   4.661   3.160   9.890 -0.4350  0.6483 -0.2567
  782MPD2    C211585   4.729   3.277   9.929 -0.7303  0.8063 -0.1841
  782MPD2    C311586   0.071   3.350   9.833 -0.0287  0.1001 -0.4975
  782MPD2    C411587   0.065   3.308   9.704  0.1614  0.7038 -0.1070
  782MPD2    C511588   4.736   3.195   9.670 -0.1192  0.3888  0.2639
  782MPD2     H11589   4.735   3.309  10.033 -1.9714 -1.7585  0.6939
  782MPD2    H111590   0.115   3.364   9.625  1.3035  0.8400  0.7035
  782MPD2    H211591   4.594   3.044   9.726  1.2297 -1.2253  0.0684
  782MPD2    H311592   0.001   3.157   9.569  0.3299  0.1811  0.3489
  782MPD2     N11593   0.143   3.461   9.887 -0.0766  0.6390 -0.2653
  782MPD2    H511594   0.139   3.469   9.988  1.5993  2.9618 -0.3943
  782MPD2    N111595   4.598   3.097   9.996  0.4260  0.1186  0.2464
  782MPD2    H711596   4.624   3.111  10.093 -0.4711 -0.4645  0.5753
  783MPD2     C11597   3.661   3.112  10.379 -0.8629 -1.1788 -0.3610
  783MPD2    C111598   3.762   3.181  10.443 -0.0032  0.6679 -0.0113
  783MPD2    C211599   3.893   3.150  10.424  0.1645 -0.8658 -0.1579
  783MPD2    C311600   3.929   3.061  10.326  0.0564 -0.8868  0.1553
  783MPD2    C411601   3.830   2.985  10.267 -0.8512 -0.0747  0.5192
  783MPD2    C511602   3.696   3.011  10.291  0.0358 -0.2827 -0.1077
  783MPD2     H11603   3.969   3.201  10.483  0.2190  1.0089 -1.8545
  783MPD2    H111604   3.852   2.900  10.204 -2.0470  0.0595 -0.0911
  783MPD2    H211605   3.557   3.120  10.410 -0.5638  0.1295  0.3097
  783MPD2    H311606   3.610   2.953  10.260  1.5032 -1.3685 -2.1640
  783MPD2     N11607   4.066   3.026  10.307  0.2690 -0.3268 -0.4104
  783MPD2    H511608   4.134   3.060  10.374 -1.1273  2.1134 -0.2208
  783MPD2    N111609   3.713   3.268  10.547  0.3861  0.5322 -0.3906
  783MPD2    H711610   3.613   3.280  10.559  0.7562  2.3352  0.8674
  784MPD2     C11611   1.298   2.926   0.837 -0.3553  0.6587 -0.9088
  784MPD2    C111612   1.234   3.022   0.923 -0.7030 -0.0885 -0.3773
  784MPD2    C211613   1.202   3.147   0.874  0.1503 -0.2002 -0.5087
  784MPD2    C311614   1.219   3.182   0.739  0.0067 -0.4337 -0.0600
  784MPD2    C411615   1.292   3.088   0.661  0.2853  0.3596  0.7177
  784MPD2    C511616   1.321   2.960   0.711 -0.4645 -0.4923  0.3882
  784MPD2     H11617   1.156   3.224   0.936 -0.7746 -0.2454 -1.1456
  784MPD2    H111618   1.308   3.102   0.555  1.3039 -3.3428  0.3793
  784MPD2    H211619   1.333   2.830   0.873  0.9067  1.7654  0.8166
  784MPD2    H311620   1.359   2.887   0.641  3.2486  0.6562  1.2213
  784MPD2     N11621   1.165   3.300   0.692 -0.4137  0.6205 -0.1049
  784MPD2    H511622   1.137   3.373   0.757  1.5825  0.2745  1.1282
  784MPD2    N111623   1.226   3.007   1.066  0.1812 -0.4519  0.9388
  784MPD2    H711624   1.171   3.074   1.120 -1.8834  0.7503 -2.6650
  785MPD2     C11625   2.831   2.002  10.905  0.0946  0.7504 -0.4913
  785MPD2    C111626   2.716   2.076  10.871 -0.3064  0.3068 -0.2333
  785MPD2    C211627   2.626   2.008  10.796  0.4524 -0.2719 -0.3305
  785MPD2    C311628   2.638   1.873  10.758 -0.1578 -0.4218  0.6319
  785MPD2    C411629   2.747   1.801  10.797 -0.2341 -0.1397 -0.5684
  785MPD2    C511630   2.847   1.870  10.873  0.4977  0.2916  0.0871
  785MPD2     H11631   2.540   2.064  10.761  1.1771  0.8051 -0.3956
  785MPD2    H111632   2.762   1.698  10.767  1.7970 -0.4538  1.5144
  785MPD2    H211633   2.911   2.054  10.956  1.6544  0.2482 -2.3965
  785MPD2    H311634   2.934   1.809  10.897 -1.6586 -2.7933  0.0487
  785MPD2     N11635   2.527   1.816  10.686  0.1311 -0.1071 -0.1271
  785MPD2    H511636   2.443   1.872  10.687 -0.6686 -1.3280  1.7940
  785MPD2    N111637   2.694   2.201  10.924 -0.7111  0.5798 -0.3018
  785MPD2    H711638   2.768   2.247  10.976  1.6030  0.1060 -3.1592
  786MPD2     C11639   0.482   4.677  14.762  0.4294  0.8683 -0.1909
  786MPD2    C111640   0.548   4.555  14.775 -0.1945  0.0260  0.2279
  786MPD2    C211641   0.667   4.552  14.851 -0.3955 -0.3615 -0.2036
  786MPD2    C311642   0.715   4.669  14.909  0.0106 -0.2101 -0.7920
  786MPD2    C411643   0.641   0.050  14.891  0.5868 -0.0414 -0.6525
  786MPD2    C511644   0.532   0.054  14.810 -0.0256 -0.5309  0.1431
  786MPD2     H11645   0.722   4.459  14.864 -0.4896 -0.6997 -2.3223
  786MPD2    H111646   0.677   0.141  14.939  1.2075 -0.1608 -0.8838
  786MPD2    H211647   0.392   4.686  14.703  1.6341  0.7875 -2.0379
  786MPD2    H311648   0.477   0.144  14.788  0.0630 -0.7418 -0.9264
  786MPD2     N11649   0.816   4.681  15.006  0.1349 -0.0389  0.1077
  786MPD2    H511650   0.839   0.040  15.030 -0.5371 -0.3783  2.1323
  786MPD2    N111651   0.501   4.438  14.707 -0.6347  0.3225  0.1996
  786MPD2    H711652   0.558   4.354  14.704 -2.4213 -0.8744 -0.2513
  787MPD2     C11653   0.882   4.278  14.348  0.1553 -0.7288  0.0965
  787MPD2    C111654   0.812   4.157  14.341 -0.3490 -0.0870  0.0171
  787MPD2    C211655   0.874   4.037  14.304 -0.1925  0.1067 -0.2252
  787MPD2    C311656   1.007   4.039  14.264 -0.1256  1.0213  0.0354
  787MPD2    C411657   1.072   4.163  14.243 -0.2666 -0.0464  0.4038
  787MPD2    C511658   1.015   4.275  14.305  0.2621 -0.4932 -0.0142
  787MPD2     H11659   0.818   3.946  14.323 -1.1806  0.7078 -0.3140
  787MPD2    H111660   1.178   4.167  14.221 -0.3769  2.7955  0.4340
  787MPD2    H211661   0.837   4.372  14.377 -0.7185 -0.5706 -1.7978
  787MPD2    H311662   1.076   4.365  14.310 -0.7982  0.2447 -0.3748
  787MPD2     N11663   1.069   3.915  14.244 -0.1539  0.4568 -0.0132
  787MPD2    H511664   1.006   3.837  14.261 -1.0025  0.5803 -2.5713
  787MPD2    N111665   0.670   4.174  14.386  0.1874  0.1507  0.0306
  787MPD2    H711666   0.635   4.268  14.401  2.0970  0.6193  1.5910
  788MPD2     C11667   2.242   2.605   0.944  0.5023 -0.3201  0.3974
  788MPD2    C111668   2.310   2.536   0.845  0.5074 -0.1663  0.8612
  788MPD2    C211669   2.385   2.607   0.751  0.1303  0.8164 -0.3205
  788MPD2    C311670   2.374   2.740   0.739 -0.8951  0.9713  0.7087
  788MPD2    C411671   2.277   2.804   0.814 -0.4620  0.1673 -0.6532
  788MPD2    C511672   2.219   2.740   0.913  0.0705 -0.5055  0.0300
  788MPD2     H11673   2.437   2.544   0.679 -0.4838 -1.1088  0.9190
  788MPD2    H111674   2.263   2.911   0.803 -1.0815 -0.0218 -1.7382
  788MPD2    H211675   2.190   2.560   1.027  1.4341 -2.6391 -0.2856
  788MPD2    H311676   2.163   2.795   0.988 -1.1675 -1.8392  0.0775
  788MPD2     N11677   2.444   2.820   0.647 -0.7993  0.1342 -0.1378
  788MPD2    H511678   2.405   2.914   0.649  1.2814  0.9962 -0.0263
  788MPD2    N111679   2.315   2.391   0.843 -0.2122 -0.5375 -0.2392
  788MPD2    H711680   2.374   2.334   0.782 -0.1857  0.7652 -1.4318
  789MPD2     C11681   2.840   1.871  17.088  0.3647  0.4115 -0.1577
  789MPD2    C111682   2.774   1.891  16.964  0.0478  0.2664 -0.1764
  789MPD2    C211683   2.690   2.004  16.950 -0.1089 -0.2548  0.4635
  789MPD2    C311684   2.663   2.088  17.061  0.0452 -0.5321  0.2649
  789MPD2    C411685   2.723   2.058  17.181 -0.4704 -0.5959 -0.0567
  789MPD2    C511686   2.811   1.952  17.197 -0.6881  0.3136  0.7555
  789MPD2     H11687   2.667   2.041  16.851  2.4023 -2.2430 -0.8887
  789MPD2    H111688   2.697   2.116  17.268 -1.0072  2.2149 -2.0952
  789MPD2    H211689   2.907   1.786  17.101  0.9281  0.3624 -3.1964
  789MPD2    H311690   2.854   1.926  17.293 -0.2350  0.5153  0.6050
  789MPD2     N11691   2.570   2.193  17.059  0.3469 -0.2914  0.1036
  789MPD2    H511692   2.556   2.243  17.146  2.4422 -0.1252  0.3399
  789MPD2    N111693   2.794   1.814  16.851  0.7659 -0.6045  0.0868
  789MPD2    H711694   2.744   1.832  16.765 -0.4891 -3.4707  0.2065
  790MPD2     C11695   3.985   4.470  13.481  0.4560  0.1548 -0.3083
  790MPD2    C111696   3.859   4.415  13.500  0.1107 -0.9785  0.2259
  790MPD2    C211697   3.784   4.377  13.393  0.1405 -0.0999 -0.2817
  790MPD2    C311698   3.846   4.355  13.270  0.4543  0.1982 -0.4208
  790MPD2    C411699   3.978   4.399  13.256  0.3689 -0.2365 -0.1327
  790MPD2    C511700   4.044   4.459  13.359  0.1445 -0.0618 -0.1240
  790MPD2     H11701   3.686   4.329  13.398  0.9781 -2.1993 -4.0327
  790MPD2    H111702   4.027   4.410  13.160 -1.2469  4.1480 -0.4829
  790MPD2    H211703   4.043   4.516  13.561  0.2204  0.8293 -0.5296
  790MPD2    H311704   4.142   4.504  13.347  0.0763  0.0982 -0.0721
  790MPD2     N11705   3.778   4.299  13.160 -0.0773  0.4465  0.0459
  790MPD2    H511706   3.681   4.268  13.169  0.2339 -0.4946  0.2014
  790MPD2    N111707   3.805   4.421  13.634  0.2438  0.4036 -0.4776
  790MPD2    H711708   3.871   4.448  13.706 -0.9348  0.8155  0.4456
  791MPD2     C11709   3.164   4.176  13.109  0.4875 -0.6957  1.0367
  791MPD2    C111710   3.217   4.075  13.036  0.1756  0.4626 -0.0889
  791MPD2    C211711   3.164   3.947  13.016 -0.1844  0.3351 -0.7271
  791MPD2    C311712   3.040   3.921  13.080  0.2635  0.0145  0.3345
  791MPD2    C411713   2.980   4.026  13.147  0.5908  0.2934  1.0529
  791MPD2    C511714   3.044   4.150  13.155  0.1581 -0.6424  0.9228
  791MPD2     H11715   3.213   3.863  12.968 -1.0929 -0.9849  0.6813
  791MPD2    H111716   2.892   4.005  13.207 -0.4345 -0.3605 -0.6675
  791MPD2    H211717   3.202   4.278  13.111 -0.9455 -0.0923 -1.8935
  791MPD2    H311718   2.990   4.223  13.215 -0.5019 -0.0434 -0.3991
  791MPD2     N11719   2.991   3.787  13.071  0.1082  0.3466 -0.3588
  791MPD2    H511720   3.045   3.716  13.024 -2.4234  0.5934 -3.6440
  791MPD2    N111721   3.344   4.112  12.987 -0.0483  0.0023  0.7102
  791MPD2    H711722   3.382   4.201  13.018  1.1555 -0.6471  1.1075
  792MPD2     C11723   4.212   4.357  11.207  0.3452 -0.2245  0.1733
  792MPD2    C111724   4.165   4.405  11.088  0.3004  0.5208  1.1665
  792MPD2    C211725   4.040   4.461  11.101 -0.7373 -0.4315  0.0717
  792MPD2    C311726   3.969   4.465  11.226 -0.5422 -0.3352  0.4280
  792MPD2    C411727   4.029   4.422  11.339 -0.2937 -0.2065  0.3805
  792MPD2    C511728   4.145   4.357  11.326 -0.2353 -0.2172  0.5950
  792MPD2     H11729   3.991   4.500  11.012 -1.1391  0.2239  0.5791
  792MPD2    H111730   3.978   4.415  11.435  0.4942  1.9466  0.9352
  792MPD2    H211731   4.310   4.311  11.211  0.0774 -0.9953 -2.2827
  792MPD2    H311732   4.192   4.311  11.413 -1.3573  1.2697  1.9740
  792MPD2     N11733   3.840   4.525  11.236  0.5731 -0.1472  0.0051
  792MPD2    H511734   3.805   4.540  11.329  0.9264  0.8589 -0.0334
  792MPD2    N111735   4.244   4.396  10.972  0.1944  0.3097 -0.2778
  792MPD2    H711736   4.332   4.346  10.968  1.3118  2.4304 -2.2238
  793MPD2     C11737   3.308   0.018  10.461 -0.1661 -0.0488 -0.8876
  793MPD2    C111738   3.409   4.663  10.500 -1.1076  0.6419 -0.1721
  793MPD2    C211739   3.437   4.656  10.634 -1.0353  0.1649  0.2597
  793MPD2    C311740   3.379   4.730  10.731  0.1571  0.0504 -0.3777
  793MPD2    C411741   3.279   0.073  10.690  0.1388 -0.1983  0.5040
  793MPD2    C511742   3.234   0.076  10.560  0.2127  0.1140  0.4359
  793MPD2     H11743   3.516   4.587  10.662  0.1445  2.2931  2.2349
  793MPD2    H111744   3.221   0.133  10.759 -1.7615 -1.2484 -0.1580
  793MPD2    H211745   3.278   0.025  10.357  1.6147  0.8995 -1.3512
  793MPD2    H311746   3.150   0.137  10.529 -0.2121 -1.6126 -1.8190
  793MPD2     N11747   3.416   4.696  10.861 -0.2835 -0.0290 -0.7972
  793MPD2    H511748   3.491   4.627  10.865 -0.4119 -0.1561 -0.5771
  793MPD2    N111749   3.474   4.570  10.421  0.2159  0.0889 -0.1214
  793MPD2    H711750   3.542   4.515  10.474  0.1089  1.0332  1.0063
  794MPD2     C11751   3.519   2.873  17.662 -0.5152 -0.3387 -0.0100
  794MPD2    C111752   3.529   2.740  17.645 -0.7286 -0.6198 -0.3574
  794MPD2    C211753   3.463   2.679  17.537 -0.4609 -0.0030 -0.3635
  794MPD2    C311754   3.382   2.756  17.452 -0.1209 -0.4556  0.5766
  794MPD2    C411755   3.382   2.896  17.471 -0.0721 -0.4642 -0.1310
  794MPD2    C511756   3.448   2.953  17.579  0.1997 -0.1153  0.1044
  794MPD2     H11757   3.472   2.572  17.526 -0.3395  0.0542 -0.8135
  794MPD2    H111758   3.344   2.965  17.397 -0.2373  0.8039  1.1341
  794MPD2    H211759   3.583   2.929  17.730  0.6400  0.6717 -1.9315
  794MPD2    H311760   3.467   3.059  17.573  0.0299 -0.0550  0.6379
  794MPD2     N11761   3.323   2.710  17.331  0.3267  0.5073  0.1854
  794MPD2    H511762   3.291   2.782  17.266  0.6260  0.0965 -0.4153
  794MPD2    N111763   3.628   2.665  17.712  0.1380  0.2308 -0.1666
  794MPD2    H711764   3.636   2.566  17.688 -0.5531  0.2887 -0.6468
  795MPD2     C11765   1.360   0.871  13.538  0.5115  0.0505 -0.1201
  795MPD2    C111766   1.314   0.747  13.490 -0.2441 -0.0442 -0.6352
  795MPD2    C211767   1.394   0.638  13.519 -0.0674 -0.5090  0.2111
  795MPD2    C311768   1.517   0.649  13.591  0.0803 -0.6069  0.2681
  795MPD2    C411769   1.549   0.778  13.640  0.0610  0.3126 -0.1886
  795MPD2    C511770   1.466   0.885  13.624 -0.3897 -0.1315  0.2630
  795MPD2     H11771   1.361   0.544  13.476  1.1903 -0.9098  0.1324
  795MPD2    H111772   1.641   0.792  13.695 -0.9035 -0.3125  1.5579
  795MPD2    H211773   1.309   0.963  13.510  0.4032  0.6344  1.9748
  795MPD2    H311774   1.494   0.982  13.663  1.3312 -0.5919  0.1898
  795MPD2     N11775   1.590   0.539  13.613  0.5172  0.5441 -0.1680
  795MPD2    H511776   1.548   0.453  13.579 -1.1494  0.5956  1.7413
  795MPD2    N111777   1.199   0.733  13.406 -1.0245 -0.5340  0.0418
  795MPD2    H711778   1.169   0.637  13.392 -2.4156 -0.1120  0.1557
  796MPD2     C11779   0.866   2.255  15.884  0.3906  0.4579  0.0076
  796MPD2    C111780   0.978   2.301  15.953 -0.7418 -0.0911 -0.6939
  796MPD2    C211781   0.994   2.435  15.956 -0.3173 -0.6496  0.7249
  796MPD2    C311782   0.913   2.524  15.894 -0.0912 -0.1331  0.0320
  796MPD2    C411783   0.804   2.475  15.824 -0.2263 -0.0574 -0.2511
  796MPD2    C511784   0.786   2.341  15.813  0.3064 -0.5978 -0.5084
  796MPD2     H11785   1.079   2.481  16.005  0.8353 -1.5112 -0.4679
  796MPD2    H111786   0.738   2.542  15.770  0.6442 -1.0102 -2.4887
  796MPD2    H211787   0.869   2.148  15.866 -1.8456  0.5853 -1.1316
  796MPD2    H311788   0.721   2.297  15.738  0.3142  1.2098 -1.5908
  796MPD2     N11789   0.934   2.660  15.923 -0.0036  0.0812 -0.7200
  796MPD2    H511790   1.008   2.686  15.988  1.0614 -1.2162 -1.4159
  796MPD2    N111791   1.059   2.199  16.017  0.5455  0.3751 -0.2301
  796MPD2    H711792   1.026   2.103  16.010  0.4993  0.3802 -0.0664
  797MPD2     C11793   2.228   1.359  17.067  0.3990  0.2786  0.3262
  797MPD2    C111794   2.208   1.495  17.091 -0.3468 -0.1694  0.3495
  797MPD2    C211795   2.258   1.590  16.999  0.1333  0.2797  0.1090
  797MPD2    C311796   2.325   1.552  16.893  0.1713  0.4881  0.2936
  797MPD2    C411797   2.360   1.419  16.872  0.3037  0.4073 -0.1365
  797MPD2    C511798   2.304   1.325  16.956 -0.5293 -0.8684 -0.2678
  797MPD2     H11799   2.210   1.687  17.004 -2.1117 -0.8481  0.7497
  797MPD2    H111800   2.418   1.383  16.787  1.1811  0.2738  0.5240
  797MPD2    H211801   2.180   1.288  17.133  2.1868  0.3993  1.7335
  797MPD2    H311802   2.318   1.222  16.926  0.8273 -1.2626  1.6679
  797MPD2     N11803   2.356   1.639  16.787 -0.2075 -0.0290  0.3615
  797MPD2    H511804   2.395   1.602  16.701  0.3529 -2.0402  1.5009
  797MPD2    N111805   2.128   1.543  17.194  0.2786  0.4012  0.5920
  797MPD2    H711806   2.110   1.643  17.187 -0.1726  0.1521 -1.8479
  798MPD2     C11807   2.013   2.230  16.963 -0.0050 -0.1755 -0.2755
  798MPD2    C111808   2.101   2.127  16.968  0.2680 -0.0206  0.1785
  798MPD2    C211809   2.097   2.039  17.070  0.1225 -0.1254 -0.0714
  798MPD2    C311810   2.010   2.055  17.173 -0.1985  0.0968 -0.1912
  798MPD2    C411811   1.920   2.162  17.171  0.8990  0.1563  0.2957
  798MPD2    C511812   1.925   2.244  17.067  0.0982  0.4617 -0.7748
  798MPD2     H11813   2.163   1.954  17.058 -1.7470 -1.6610  0.5601
  798MPD2    H111814   1.839   2.172  17.242 -0.6078  2.0432 -1.6677
  798MPD2    H211815   2.012   2.302  16.882  0.2641 -0.6728 -0.7271
  798MPD2    H311816   1.849   2.321  17.064  2.1037  2.4424 -0.2332
  798MPD2     N11817   1.997   1.941  17.257  0.0059  0.5473  0.1800
  798MPD2    H511818   2.061   1.863  17.246  0.3060  0.9312 -0.8165
  798MPD2    N111819   2.196   2.097  16.864 -1.0130  0.6545 -0.2228
  798MPD2    H711820   2.266   2.027  16.887 -1.2999 -0.2259 -2.0621
  799MPD2     C11821   0.870   3.259  14.810 -0.7120 -0.0282  0.3848
  799MPD2    C111822   0.764   3.199  14.746 -0.1550 -0.1099 -0.6823
  799MPD2    C211823   0.700   3.279  14.652 -0.5872  0.0240 -0.3097
  799MPD2    C311824   0.745   3.409  14.627  0.6352 -0.1375  0.1312
  799MPD2    C411825   0.853   3.463  14.692 -0.3249 -0.6974  0.2992
  799MPD2    C511826   0.907   3.389  14.789  0.7319 -0.3316 -0.5219
  799MPD2     H11827   0.620   3.238  14.591  0.6017  0.1770 -1.9825
  799MPD2    H111828   0.896   3.560  14.669 -0.5774  0.1531  3.3569
  799MPD2    H211829   0.924   3.210  14.890  1.5930  2.3331  0.2812
  799MPD2    H311830   0.981   3.440  14.850 -1.4304  1.5079  0.5654
  799MPD2     N11831   0.691   3.491  14.524  0.1464 -0.1286 -0.1151
  799MPD2    H511832   0.756   3.566  14.501  1.2179 -1.0060  0.0143
  799MPD2    N111833   0.723   3.065  14.773 -0.0117  0.0145 -0.6226
  799MPD2    H711834   0.639   3.028  14.731 -0.1096  1.5719 -1.7948
  800MPD2     C11835   1.036   4.666  14.111  0.1589 -0.4198 -0.2081
  800MPD2    C111836   1.148   4.601  14.153 -0.3298 -0.4314 -0.3778
  800MPD2    C211837   1.183   4.487  14.087  0.1924 -0.8830  0.2072
  800MPD2    C311838   1.111   4.439  13.981  0.1494  0.1318 -0.1913
  800MPD2    C411839   0.992   4.505  13.947 -0.1637  0.1962  0.7353
  800MPD2    C511840   0.959   4.612  14.014 -0.4520 -0.4000 -0.8763
  800MPD2     H11841   1.265   4.430  14.129  0.0549 -1.4646 -0.3219
  800MPD2    H111842   0.928   4.466  13.869 -1.0201 -0.6118  1.8293
  800MPD2    H211843   0.992   0.007  14.172  1.2092  1.4792 -1.8527
  800MPD2    H311844   0.880   4.665  13.960 -2.0720 -1.3546  0.5600
  800MPD2     N11845   1.164   4.325  13.922  0.6010  0.0303 -0.2722
  800MPD2    H511846   1.249   4.286  13.961 -0.4327 -2.2333 -0.3187
  800MPD2    N111847   1.219   4.649  14.262 -0.7497 -0.0503 -0.1848
  800MPD2    H711848   1.180   0.001  14.294  0.8653  1.2771 -1.8522
  801MPD2     C11849   1.311   0.615  14.277  0.3611  0.2214  0.0687
  801MPD2    C111850   1.243   0.517  14.341  0.2144  0.3333  0.3964
  801MPD2    C211851   1.116   0.541  14.391 -0.4999  0.0523 -0.7756
  801MPD2    C311852   1.054   0.669  14.373 -0.3296  0.1626 -0.3269
  801MPD2    C411853   1.125   0.762  14.301 -0.0625  0.1490  0.7096
  801MPD2    C511854   1.251   0.736  14.259 -0.4710  0.2499  0.4379
  801MPD2     H11855   1.069   0.458  14.443  0.2951 -0.9291 -1.6410
  801MPD2    H111856   1.075   0.849  14.261  2.9610  0.9976 -1.2073
  801MPD2    H211857   1.408   0.609  14.229 -0.5015 -0.0874 -1.6362
  801MPD2    H311858   1.302   0.809  14.198  0.8207 -0.5963  0.5128
  801MPD2     N11859   0.923   0.711  14.420 -0.8174 -0.3982  0.2035
  801MPD2    H511860   0.882   0.798  14.389  0.9784  0.5564  0.4706
  801MPD2    N111861   1.301   0.387  14.360 -0.2369 -0.1901 -0.0836
  801MPD2    H711862   1.247   0.313  14.404  0.4643 -0.4075  0.4130
  802MPD2     C11863   0.400   0.758  17.381  0.2707  0.3773  0.7987
  802MPD2    C111864   0.509   0.737  17.462  0.4236 -0.0865 -0.7771
  802MPD2    C211865   0.590   0.629  17.435  0.3522  0.3408 -1.0897
  802MPD2    C311866   0.554   0.543  17.335 -0.7190  0.0106  0.1237
  802MPD2    C411867   0.442   0.568  17.253 -0.5997 -1.2464 -0.2351
  802MPD2    C511868   0.371   0.685  17.265  0.3578  0.1108  0.1649
  802MPD2     H11869   0.676   0.604  17.496 -0.3467  0.1197 -0.1949
  802MPD2    H111870   0.431   0.525  17.154 -3.2925  0.2690 -0.5853
  802MPD2    H211871   0.343   0.850  17.392  0.7039  0.4809  2.1994
  802MPD2    H311872   0.299   0.728  17.197 -0.5889  0.7682  1.5889
  802MPD2     N11873   0.644   0.440  17.309 -0.4931  0.2063 -0.3627
  802MPD2    H511874   0.730   0.435  17.361  0.5400 -1.0910 -2.1865
  802MPD2    N111875   0.522   0.805  17.581  0.4662 -0.6878  0.6441
  802MPD2    H711876   0.575   0.760  17.655  1.0744 -1.3404 -0.1794
  803MPD2     C11877   1.805   3.748  11.836  0.1695 -0.2472 -1.3212
  803MPD2    C111878   1.822   3.854  11.919 -0.2648  0.2401 -0.5811
  803MPD2    C211879   1.844   3.832  12.054  0.0393  0.4559  0.2170
  803MPD2    C311880   1.823   3.702  12.109  0.0985  0.0011 -0.2763
  803MPD2    C411881   1.816   3.595  12.021  0.0637  0.0410  0.3350
  803MPD2    C511882   1.798   3.619  11.887 -0.5916 -0.3175  0.2728
  803MPD2     H11883   1.870   3.917  12.116  0.0918  0.8279 -0.3130
  803MPD2    H111884   1.803   3.493  12.057 -4.3385 -0.1812 -1.8761
  803MPD2    H211885   1.799   3.760  11.729  0.4096 -1.1225 -1.4342
  803MPD2    H311886   1.794   3.534  11.818  2.2738  0.6846 -1.1040
  803MPD2     N11887   1.822   3.663  12.245  0.2528  0.1966 -0.0336
  803MPD2    H511888   1.809   3.565  12.267 -0.2080  0.2982  0.1504
  803MPD2    N111889   1.827   3.986  11.867 -0.4074  0.3189 -0.5446
  803MPD2    H711890   1.877   4.055  11.923  1.5948 -1.2852 -0.3874
  804MPD2     C11891   1.282   0.334  16.716  0.0521  0.2148 -0.6081
  804MPD2    C111892   1.304   0.293  16.850  0.0275 -0.2506 -0.2510
  804MPD2    C211893   1.337   0.384  16.943  0.1143  0.4541  0.1779
  804MPD2    C311894   1.389   0.508  16.901  0.1253  0.0742 -0.5315
  804MPD2    C411895   1.364   0.551  16.774  0.3537  0.1857 -0.4038
  804MPD2    C511896   1.306   0.461  16.684  0.5283 -0.8270  0.1404
  804MPD2     H11897   1.345   0.351  17.046 -0.5529  0.5401  0.2597
  804MPD2    H111898   1.378   0.655  16.747 -0.0007  0.1190 -0.8526
  804MPD2    H211899   1.246   0.266  16.640 -0.2228 -0.8337  0.4623
  804MPD2    H311900   1.294   0.498  16.583 -0.9105 -2.4568 -0.2926
  804MPD2     N11901   1.454   0.594  16.986 -1.2201  0.7604  0.0601
  804MPD2    H511902   1.491   0.677  16.942 -0.1077 -0.7424 -1.7902
  804MPD2    N111903   1.288   0.162  16.892 -0.0059 -0.5804  0.2077
  804MPD2    H711904   1.289   0.152  16.993  0.7021  0.8152  0.3437
  805MPD2     C11905   0.683   3.830  15.605  0.0796  0.4974  0.5046
  805MPD2    C111906   0.761   3.762  15.520  0.6112 -0.2880  0.3909
  805MPD2    C211907   0.883   3.704  15.560 -0.4443 -0.3353 -0.0022
  805MPD2    C311908   0.922   3.722  15.696  0.5280  0.4687  0.0962
  805MPD2    C411909   0.841   3.793  15.781 -0.1722 -0.3304 -0.4561
  805MPD2    C511910   0.726   3.854  15.732  0.1338 -0.1059 -0.5946
  805MPD2     H11911   0.950   3.655  15.490 -0.4940  2.7661 -2.2497
  805MPD2    H111912   0.863   3.812  15.885  0.7334 -1.3052 -0.4684
  805MPD2    H211913   0.598   3.887  15.568 -0.8444 -0.7014  0.8025
  805MPD2    H311914   0.678   3.918  15.805  0.4505 -1.1009  0.5010
  805MPD2     N11915   1.037   3.655  15.741  1.0078  0.8254  0.5768
  805MPD2    H511916   1.087   3.618  15.661  0.8006  0.4861  0.6039
  805MPD2    N111917   0.739   3.746  15.377  0.5028 -0.8919  0.3191
  805MPD2    H711918   0.810   3.698  15.322  0.4711  2.2014 -2.4418
  806MPD2     C11919   0.404   2.824   0.504  0.2573 -0.5545 -0.1083
  806MPD2    C111920   0.486   2.719   0.534 -0.2786  0.3147  0.1182
  806MPD2    C211921   0.596   2.697   0.462  0.5040 -0.1045 -0.3385
  806MPD2    C311922   0.633   2.792   0.366 -0.5340 -0.1826 -0.4897
  806MPD2    C411923   0.552   2.898   0.342 -0.1240 -0.0222  0.2492
  806MPD2    C511924   0.442   2.917   0.412  0.4115 -0.3457  0.0167
  806MPD2     H11925   0.653   2.606   0.481  0.5457  0.5253  2.4816
  806MPD2    H111926   0.587   2.982   0.282 -3.1759 -0.7004 -2.4706
  806MPD2    H211927   0.305   2.839   0.545  1.6180  1.4751  2.4303
  806MPD2    H311928   0.374   2.999   0.392  0.1568 -0.4452  0.4617
  806MPD2     N11929   0.755   2.786   0.300  0.1122 -0.5843 -0.1078
  806MPD2    H511930   0.821   2.722   0.342  1.6269  1.3121  0.3910
  806MPD2    N111931   0.455   2.641   0.650 -0.1355 -0.4069 -0.0997
  806MPD2    H711932   0.374   2.679   0.699  0.8366 -1.1787  2.0828
  807MPD2     C11933   0.511   2.839   1.381 -0.1725 -1.2935 -0.6601
  807MPD2    C111934   0.553   2.706   1.363 -0.0827  0.3869 -0.0373
  807MPD2    C211935   0.640   2.640   1.460  0.2468 -0.2699 -0.1041
  807MPD2    C311936   0.670   2.715   1.568 -0.2279 -0.5691  0.8430
  807MPD2    C411937   0.612   2.839   1.588 -0.1841  0.8285  0.3787
  807MPD2    C511938   0.544   2.906   1.492  0.0174  0.5339  0.0215
  807MPD2     H11939   0.688   2.544   1.445 -0.2740 -0.6667  0.7823
  807MPD2    H111940   0.639   2.895   1.677  0.0270  3.2120 -1.1702
  807MPD2    H211941   0.448   2.888   1.308 -1.2956 -2.0138 -0.1711
  807MPD2    H311942   0.513   3.010   1.500  1.4092  0.9796 -0.3255
  807MPD2     N11943   0.752   2.661   1.667  0.7347 -0.3093 -0.2068
  807MPD2    H511944   0.777   2.563   1.654  2.5441 -0.1259  1.8218
  807MPD2    N111945   0.529   2.625   1.249 -0.2161 -0.2470 -0.1798
  807MPD2    H711946   0.569   2.533   1.237 -0.0434 -0.3791  1.3662
  808MPD2     C11947   1.509   0.518   9.410  0.0880 -0.1799  0.4518
  808MPD2    C111948   1.599   0.535   9.510 -0.1741  1.3695  0.3123
  808MPD2    C211949   1.636   0.666   9.535  1.1748 -0.7323 -1.0073
  808MPD2    C311950   1.574   0.771   9.475  0.2412 -0.8566  0.4356
  808MPD2    C411951   1.477   0.750   9.386  0.6290  0.1430 -0.1783
  808MPD2    C511952   1.445   0.626   9.341 -0.9811 -0.1361  0.3149
  808MPD2     H11953   1.724   0.688   9.594  0.7403 -0.5359 -0.4341
  808MPD2    H111954   1.425   0.830   9.336  1.9949  0.7326 -0.6406
  808MPD2    H211955   1.497   0.414   9.379  0.4723 -0.1499  0.2002
  808MPD2    H311956   1.369   0.601   9.267  0.2715 -1.6860 -0.4440
  808MPD2     N11957   1.607   0.902   9.513  0.5656 -0.3018 -0.3627
  808MPD2    H511958   1.565   0.985   9.472  0.2836  0.2312  1.0223
  808MPD2    N111959   1.654   0.437   9.586  0.2834  0.4014  0.1974
  808MPD2    H711960   1.722   0.464   9.657  2.3960 -0.4210 -1.5271
  809MPD2     C11961   2.263   1.571   9.144 -0.3966  0.1963 -0.1993
  809MPD2    C111962   2.274   1.434   9.176  0.4485  0.8822  0.3218
  809MPD2    C211963   2.178   1.376   9.252 -0.8878  1.1264  0.5196
  809MPD2    C311964   2.084   1.455   9.324 -0.0490  1.0267  0.0531
  809MPD2    C411965   2.095   1.590   9.312 -0.1552 -0.6289  0.4676
  809MPD2    C511966   2.175   1.650   9.220 -0.0575 -0.5268 -0.8732
  809MPD2     H11967   2.184   1.269   9.265  0.8769  1.2689  0.8313
  809MPD2    H111968   2.025   1.651   9.368 -0.9569 -0.6616 -0.5222
  809MPD2    H211969   2.334   1.614   9.075  0.6628 -2.5490 -0.8444
  809MPD2    H311970   2.184   1.757   9.209 -3.2763 -0.2067 -0.4679
  809MPD2     N11971   1.982   1.394   9.405 -0.0723  0.0346  0.2090
  809MPD2    H511972   1.909   1.454   9.441 -1.5954 -0.0480 -2.7960
  809MPD2    N111973   2.372   1.348   9.109 -0.1264 -0.2716 -0.5279
  809MPD2    H711974   2.368   1.249   9.127  2.1605 -0.4874 -1.3285
  810MPD2     C11975   1.154   3.708  10.723 -0.2145  0.0280 -0.0245
  810MPD2    C111976   1.165   3.813  10.635  0.1698  0.3258 -0.1702
  810MPD2    C211977   1.131   3.940  10.677 -0.0738  0.0125  0.2698
  810MPD2    C311978   1.111   3.972  10.812  0.9530  0.4078 -0.4553
  810MPD2    C411979   1.117   3.861  10.904  0.2726  0.0093  0.1335
  810MPD2    C511980   1.132   3.738  10.852 -0.0259 -0.6600 -0.1754
  810MPD2     H11981   1.130   4.022  10.607  1.6525  0.2913  0.5506
  810MPD2    H111982   1.092   3.874  11.009  1.8306  0.1012  0.4892
  810MPD2    H211983   1.165   3.603  10.695  2.4550 -0.2087  1.8427
  810MPD2    H311984   1.125   3.659  10.927  0.0187  0.1224  0.6526
  810MPD2     N11985   1.090   4.109  10.853  0.5427  0.2511  0.1360
  810MPD2    H511986   1.101   4.125  10.953 -0.5938  0.5143  0.2190
  810MPD2    N111987   1.194   3.770  10.501  0.1071 -0.5081 -0.6160
  810MPD2    H711988   1.198   3.669  10.492 -1.8857 -0.5019 -1.4127
  811MPD2     C11989   0.702   4.241   9.950  0.2541  1.2249 -0.5404
  811MPD2    C111990   0.834   4.235   9.997  0.1490  1.1537 -0.2342
  811MPD2    C211991   0.896   4.356  10.027  0.9367  0.1213 -0.4770
  811MPD2    C311992   0.835   4.490  10.021 -0.2153  0.2192  0.2068
  811MPD2    C411993   0.702   4.481   9.976 -0.6692 -0.0878  0.5058
  811MPD2    C511994   0.642   4.365   9.941 -0.6203  1.0037  1.1023
  811MPD2     H11995   0.995   4.352  10.070  0.8764 -0.6957 -0.4142
  811MPD2    H111996   0.635   4.566   9.972 -0.9320 -0.1597  3.3908
  811MPD2    H211997   0.640   4.155   9.929  0.4586  0.1387  3.3352
  811MPD2    H311998   0.537   4.366   9.913 -0.7190 -0.3458  1.4443
  811MPD2     N11999   0.901   4.614  10.042 -0.3745 -0.3708 -0.6158
  811MPD2    H512000   1.000   4.610  10.064 -0.3599  0.7224 -0.4808
  811MPD2    N112001   0.896   4.106  10.018 -0.2956 -0.2100  0.0495
  811MPD2    H712002   0.826   4.034  10.005  0.1103 -0.2224 -2.0084
  812MPD2     C12003   4.558   3.924  11.726 -0.9649 -0.3031 -0.4740
  812MPD2    C112004   4.590   4.028  11.808 -0.1602  1.0374  0.3020
  812MPD2    C212005   4.564   4.020  11.947  0.5346 -0.0115  0.0602
  812MPD2    C312006   4.488   3.917  12.000  0.3126  0.5145 -0.6761
  812MPD2    C412007   4.461   3.811  11.912 -0.0161  0.1166  0.6167
  812MPD2    C512008   4.487   3.815  11.778 -0.7025 -0.0051 -0.0221
  812MPD2     H12009   4.589   4.100  12.015 -1.1117  1.7429 -1.4043
  812MPD2    H112010   4.406   3.725  11.950 -1.9008  0.1887 -1.9139
  812MPD2    H212011   4.583   3.920  11.621 -1.5141  0.5247 -0.6374
  812MPD2    H312012   4.468   3.727  11.718 -3.2701  1.4438 -1.3188
  812MPD2     N12013   4.452   3.925  12.140 -0.1393  0.1366 -0.5921
  812MPD2    H512014   4.468   4.012  12.189  1.7507  1.0772 -2.9126
  812MPD2    N112015   4.663   4.139  11.757 -0.5277  0.1265  0.0762
  812MPD2    H712016   4.663   4.130  11.656  0.1096 -2.6294  0.3346
  813MPD2     C12017   3.513   1.088  12.686 -0.7343 -0.7960 -0.1841
  813MPD2    C112018   3.591   1.188  12.731 -0.4674  0.2259  0.1478
  813MPD2    C212019   3.559   1.256  12.851  0.1171 -0.1507  0.2813
  813MPD2    C312020   3.439   1.223  12.914  0.6879 -0.3607  0.1647
  813MPD2    C412021   3.368   1.122  12.869  0.6946  0.1639 -0.3793
  813MPD2    C512022   3.397   1.059  12.750 -0.4626  0.3757  0.0358
  813MPD2     H12023   3.615   1.344  12.881 -1.5719  0.9050  0.3606
  813MPD2    H112024   3.272   1.090  12.906 -0.3324  1.2920 -2.0922
  813MPD2    H212025   3.538   1.026  12.601  0.5306  0.6115 -0.8407
  813MPD2    H312026   3.324   0.990  12.710 -1.7078  1.1559  0.9676
  813MPD2     N12027   3.396   1.305  13.025 -1.2399 -0.3105 -0.0876
  813MPD2    H512028   3.453   1.385  13.048 -0.4681 -1.2273  1.1992
  813MPD2    N112029   3.698   1.223  12.657 -0.2144  0.4092 -0.4186
  813MPD2    H712030   3.733   1.149  12.597  0.1165 -0.7509  1.2245
  814MPD2     C12031   4.259   2.365  12.652  1.0990 -0.3357 -0.6685
  814MPD2    C112032   4.278   2.439  12.536  0.7318  0.2351  0.3619
  814MPD2    C212033   4.270   2.578  12.544  0.5383  0.6421  0.1498
  814MPD2    C312034   4.231   2.641  12.662 -0.2054  0.1758 -0.6732
  814MPD2    C412035   4.216   2.565  12.779 -0.3433 -0.7428 -0.5526
  814MPD2    C512036   4.234   2.428  12.767 -0.1517  0.2211 -0.3064
  814MPD2     H12037   4.277   2.638  12.455 -1.1815 -0.3825 -0.6815
  814MPD2    H112038   4.172   2.598  12.872 -1.3139  0.4134 -1.4210
  814MPD2    H212039   4.276   2.259  12.665  0.9032 -0.0641  1.7273
  814MPD2    H312040   4.220   2.361  12.851  0.3820 -0.2504 -0.5946
  814MPD2     N12041   4.202   2.780  12.673 -0.4187  0.1834  0.2232
  814MPD2    H512042   4.170   2.814  12.763  0.9848 -0.0836  0.8223
  814MPD2    N112043   4.307   2.382  12.410  0.0002  0.5222 -0.0340
  814MPD2    H712044   4.339   2.448  12.340 -0.0750 -2.5216 -2.8817
  815MPD2     C12045   4.469   0.489  11.926  0.3658 -0.2289 -0.2483
  815MPD2    C112046   4.463   0.529  11.793 -0.0531 -0.0803  0.4050
  815MPD2    C212047   4.342   0.580  11.739 -0.4842  0.4176 -0.0412
  815MPD2    C312048   4.229   0.583  11.825  0.0320  0.4048 -0.1266
  815MPD2    C412049   4.243   0.541  11.956 -0.9196  0.1361 -0.0251
  815MPD2    C512050   4.363   0.493  12.006  0.1057 -0.0764 -0.2689
  815MPD2     H12051   4.332   0.593  11.632 -2.5261  1.0005  0.2206
  815MPD2    H112052   4.154   0.544  12.018 -0.2248  1.5085  0.8975
  815MPD2    H212053   4.559   0.442  11.964  2.2071  1.8956 -2.0223
  815MPD2    H312054   4.364   0.464  12.111  0.4414  1.6688  0.2033
  815MPD2     N12055   4.109   0.641  11.778  0.3145  0.2676 -0.1673
  815MPD2    H512056   4.118   0.670  11.681 -0.8050 -1.2027 -0.7008
  815MPD2    N112057   4.579   0.506  11.716 -0.7090 -0.4023  0.2205
  815MPD2    H712058   4.656   0.466  11.768 -0.1483 -0.7738 -0.8971
  816MPD2     C12059   4.641   4.399  16.804  0.0092 -0.1278  0.0153
  816MPD2    C112060   4.648   4.526  16.769 -0.4627 -0.3876 -0.7918
  816MPD2    C212061   0.014   4.562  16.682 -0.2268 -0.2332 -0.1232
  816MPD2    C312062   0.097   4.466  16.633 -0.3241  0.4391  0.3650
  816MPD2    C412063   0.072   4.332  16.660 -0.3803  0.5670 -0.8602
  816MPD2    C512064   4.714   4.298  16.751 -1.1726  0.1391  0.2571
  816MPD2     H12065   0.033   4.662  16.645  0.0485 -0.9702 -1.9891
  816MPD2    H112066   0.136   4.253  16.624  0.0596 -0.1620  1.5272
  816MPD2    H212067   4.571   4.356  16.874  0.5106  1.4695  1.5048
  816MPD2    H312068   4.701   4.198  16.790 -0.0225 -1.2018 -2.7885
  816MPD2     N12069   0.209   4.503  16.547  0.3043  0.4078 -0.6642
  816MPD2    H512070   0.223   4.600  16.523  2.5370  0.5147  1.0208
  816MPD2    N112071   4.550   4.610  16.830  0.4758 -0.1820  0.8848
  816MPD2    H712072   4.486   4.566  16.895  1.7007 -3.6242 -0.2472
  817MPD2     C12073   4.109   1.438  10.583  0.0321  0.6240  0.3240
  817MPD2    C112074   4.199   1.440  10.478 -0.2085  0.2112 -0.1927
  817MPD2    C212075   4.167   1.491  10.358 -0.4401  0.2063 -0.0123
  817MPD2    C312076   4.037   1.541  10.337  0.2306 -0.3438  0.5869
  817MPD2    C412077   3.946   1.538  10.440  0.2057 -0.2556 -0.2937
  817MPD2    C512078   3.984   1.480  10.555  0.0214 -0.1602 -0.0644
  817MPD2     H12079   4.236   1.483  10.274  1.6178 -1.2651  1.8253
  817MPD2    H112080   3.847   1.581  10.435  0.4714  0.4196  0.3371
  817MPD2    H212081   4.136   1.402  10.682 -2.6773  1.4283  1.3332
  817MPD2    H312082   3.912   1.465  10.635 -1.2942  0.1997 -1.1818
  817MPD2     N12083   4.016   1.604  10.215 -0.1373 -0.4899 -0.5680
  817MPD2    H512084   4.096   1.605  10.152  0.0261 -0.8164 -0.3670
  817MPD2    N112085   4.329   1.387  10.507 -0.2838  0.0243 -0.7147
  817MPD2    H712086   4.332   1.353  10.603 -0.5902 -3.2758 -1.8794
  818MPD2     C12087   3.126   2.316   9.417  0.8771 -0.5391 -0.2952
  818MPD2    C112088   3.069   2.263   9.533  0.2632 -0.3309 -0.5666
  818MPD2    C212089   3.056   2.125   9.542 -0.3934  0.4129  0.2636
  818MPD2    C312090   3.102   2.047   9.438  0.6008  0.1340  0.4250
  818MPD2    C412091   3.161   2.098   9.328 -0.6004  0.0405  0.1979
  818MPD2    C512092   3.171   2.232   9.316 -0.1623  0.0173 -0.1084
  818MPD2     H12093   3.004   2.094   9.632  0.3333 -0.3690  0.4194
  818MPD2    H112094   3.194   2.041   9.242  1.7252  2.3905 -0.4961
  818MPD2    H212095   3.136   2.424   9.409  0.0819 -0.1971  3.2451
  818MPD2    H312096   3.198   2.276   9.221  0.0503 -1.1122 -0.5709
  818MPD2     N12097   3.102   1.912   9.446  0.4373  0.1784  0.4030
  818MPD2    H512098   3.124   1.862   9.361 -1.9471  1.2379 -0.8284
  818MPD2    N112099   3.029   2.338   9.649  0.3305  0.0812  0.1496
  818MPD2    H712100   2.979   2.293   9.726 -2.2313 -0.8993 -2.0953
  819MPD2     C12101   1.233   3.077  15.725  0.7018 -0.3767 -0.3533
  819MPD2    C112102   1.222   2.942  15.719  0.2359  0.1236  0.6666
  819MPD2    C212103   1.321   2.864  15.775 -0.7422 -0.3492 -0.2590
  819MPD2    C312104   1.431   2.924  15.841 -0.1893  0.9464  0.0992
  819MPD2    C412105   1.436   3.061  15.840  0.3234 -0.6718  0.5323
  819MPD2    C512106   1.342   3.138  15.783 -0.2700 -0.2462  0.5630
  819MPD2     H12107   1.299   2.758  15.776  1.5237 -0.8546 -2.2246
  819MPD2    H112108   1.517   3.107  15.895  0.7028  0.6100 -1.1017
  819MPD2    H212109   1.154   3.147  15.700 -0.8932 -2.2830 -0.6081
  819MPD2    H312110   1.337   3.245  15.794  0.7953 -0.4676  3.0528
  819MPD2     N12111   1.536   2.838  15.887 -0.6211 -0.2123 -0.8247
  819MPD2    H512112   1.531   2.740  15.863  1.2000 -0.8778  1.5231
  819MPD2    N112113   1.117   2.881  15.651 -0.4060  0.6080 -0.0080
  819MPD2    H712114   1.040   2.944  15.628  0.1408  1.6792  1.0823
  820MPD2     C12115   0.417   3.156  14.984  0.0823  0.0277 -0.0788
  820MPD2    C112116   0.532   3.200  15.046  0.0415  0.4485  0.2262
  820MPD2    C212117   0.599   3.116  15.127 -0.1816  0.3152 -0.2931
  820MPD2    C312118   0.577   2.981  15.124  0.7698 -0.1721 -0.3977
  820MPD2    C412119   0.466   2.935  15.060  0.1076 -0.4747 -0.0161
  820MPD2    C512120   0.381   3.025  14.997  0.5077  0.2325 -0.6674
  820MPD2     H12121   0.672   3.160  15.194  0.5678 -0.2091 -0.7551
  820MPD2    H112122   0.445   2.829  15.055  1.4816 -0.6835 -1.6659
  820MPD2    H212123   0.362   3.211  14.909  1.7524 -0.0148 -1.3205
  820MPD2    H312124   0.293   2.989  14.946 -0.2688  1.1568  0.0308
  820MPD2     N12125   0.651   2.894  15.216 -0.0296 -0.7037 -0.3357
  820MPD2    H512126   0.619   2.798  15.220 -0.1877 -0.5829  1.3217
  820MPD2    N112127   0.563   3.336  15.021  0.0357 -0.9355 -0.0230
  820MPD2    H712128   0.497   3.391  14.968  0.6607  0.0903  0.2609
  821MPD2     C12129   1.348   4.329  13.179  0.0942  0.3359 -0.4722
  821MPD2    C112130   1.389   4.367  13.300  0.3229 -0.2191 -0.3426
  821MPD2    C212131   1.464   4.481  13.300  0.2436 -0.1984  0.0100
  821MPD2    C312132   1.512   4.545  13.184 -0.3587 -0.6419  0.7040
  821MPD2    C412133   1.475   4.495  13.063 -0.4602 -0.4077  0.4275
  821MPD2    C512134   1.394   4.382  13.062 -0.8474  0.5610 -0.1819
  821MPD2     H12135   1.476   4.531  13.395 -0.1726  0.3512 -0.2302
  821MPD2    H112136   1.515   4.529  12.968 -1.9236  0.2434  0.0364
  821MPD2    H212137   1.291   4.237  13.182  1.0455 -0.3051 -2.0298
  821MPD2    H312138   1.372   4.334  12.968 -0.1074 -1.0437  0.4698
  821MPD2     N12139   1.589   4.665  13.192  0.2696  0.6586  0.0053
  821MPD2    H512140   1.589   4.722  13.108  0.7385 -2.0690 -1.8563
  821MPD2    N112141   1.357   4.304  13.414  0.1195 -0.0449  0.1547
  821MPD2    H712142   1.306   4.217  13.403  3.1062 -1.6322 -1.1005
  822MPD2     C12143   1.985   4.375  15.490  0.2312 -0.2980 -0.3868
  822MPD2    C112144   2.006   4.351  15.623 -0.3890  0.1857 -0.8558
  822MPD2    C212145   1.916   4.417  15.707  0.2229 -0.1703 -0.3029
  822MPD2    C312146   1.809   4.491  15.664 -0.4465 -0.0431  0.6390
  822MPD2    C412147   1.796   4.525  15.532 -0.3987 -0.6717  0.3090
  822MPD2    C512148   1.885   4.466  15.452  0.0701  0.6738 -0.1352
  822MPD2     H12149   1.932   4.393  15.812  0.1341  1.0110 -0.0185
  822MPD2    H112150   1.713   4.578  15.488 -1.2141 -1.4697  0.8967
  822MPD2    H212151   2.028   4.325  15.404  1.0867 -0.7875  0.3211
  822MPD2    H312152   1.872   4.480  15.345 -0.5916 -3.8252 -0.6714
  822MPD2     N12153   1.729   4.540  15.764  0.4945 -0.2850 -0.1810
  822MPD2    H512154   1.733   4.482  15.847  1.4126 -0.9462 -0.6944
  822MPD2    N112155   2.086   4.255  15.686 -1.0247  0.1096 -0.1127
  822MPD2    H712156   2.082   4.247  15.787 -2.3082  1.1096 -0.0888
  823MPD2     C12157   1.523   4.657  16.554  0.0658 -0.4374 -0.1758
  823MPD2    C112158   1.564   4.575  16.451  0.4326 -0.4137  0.5603
  823MPD2    C212159   1.648   4.467  16.487 -0.3510  0.4283 -0.3234
  823MPD2    C312160   1.669   4.431  16.617 -0.6470  0.6613 -0.7045
  823MPD2    C412161   1.615   4.513  16.718 -0.5783 -0.6979  0.1033
  823MPD2    C512162   1.551   4.631  16.685 -0.0328  0.2363  0.3512
  823MPD2     H12163   1.699   4.410  16.410 -1.2940  0.1169 -0.7105
  823MPD2    H112164   1.634   4.502  16.824 -0.6399  0.2974  0.2186
  823MPD2    H212165   1.469   0.011  16.531  0.7692  0.2732  1.0065
  823MPD2    H312166   1.534   4.694  16.772  0.2434 -0.3544  0.8273
  823MPD2     N12167   1.745   4.319  16.660 -0.1472  0.3765 -0.4885
  823MPD2    H512168   1.725   4.294  16.756 -0.4724 -2.6860 -1.3785
  823MPD2    N112169   1.528   4.601  16.312  0.1523 -0.2652 -0.2851
  823MPD2    H712170   1.475   4.687  16.306 -2.2080 -1.6246  1.0533
  824MPD2     C12171   2.516   3.642  15.348 -0.5520  0.3143 -0.1885
  824MPD2    C112172   2.556   3.686  15.477 -0.4618  0.3327 -0.3135
  824MPD2    C212173   2.680   3.645  15.514  0.0944  0.2962 -0.0382
  824MPD2    C312174   2.760   3.558  15.439 -0.5648  1.1329 -0.7636
  824MPD2    C412175   2.724   3.517  15.317 -0.2901 -0.2334  0.4591
  824MPD2    C512176   2.597   3.556  15.274 -0.1566  0.0428 -0.6766
  824MPD2     H12177   2.720   3.677  15.609  0.2215  2.1164 -0.7032
  824MPD2    H112178   2.785   3.453  15.254 -0.5167 -0.9823  0.9984
  824MPD2    H212179   2.429   3.680  15.297 -1.1328  0.7135  1.0874
  824MPD2    H312180   2.569   3.528  15.173  1.0383  0.4086 -1.1075
  824MPD2     N12181   2.894   3.535  15.480  0.7529 -0.7759  0.0532
  824MPD2    H512182   2.922   3.592  15.559  0.4378 -0.9117  0.2640
  824MPD2    N112183   2.469   3.770  15.551  0.2524  0.1081  0.0193
  824MPD2    H712184   2.389   3.817  15.510 -0.1190 -1.1576 -0.6999
  825MPD2     C12185   3.641   3.923  15.615 -0.3742  0.0524  0.8248
  825MPD2    C112186   3.519   3.915  15.548 -0.2629  0.6643 -1.3127
  825MPD2    C212187   3.452   4.032  15.515 -0.2007  0.1130 -0.0756
  825MPD2    C312188   3.507   4.156  15.537  0.2698 -0.1312 -0.4806
  825MPD2    C412189   3.632   4.163  15.591 -0.2144  0.3492  0.3539
  825MPD2    C512190   3.693   4.050  15.629 -0.5997  0.4746 -0.0342
  825MPD2     H12191   3.353   4.023  15.471 -0.2442  0.7347 -0.1092
  825MPD2    H112192   3.689   4.253  15.612  0.7415 -0.1881  0.0615
  825MPD2    H212193   3.694   3.834  15.646  1.1498  0.6922  0.0538
  825MPD2    H312194   3.787   4.064  15.681 -1.3099  2.7101  0.6637
  825MPD2     N12195   3.445   4.279  15.505 -0.7610  0.0399  0.4924
  825MPD2    H512196   3.493   4.357  15.548  1.2792 -0.8812 -0.1187
  825MPD2    N112197   3.460   3.789  15.538 -0.0702 -0.2439  0.4029
  825MPD2    H712198   3.517   3.718  15.582 -0.1108 -0.3358  0.3068
  826MPD2     C12199   3.221   4.275  13.720 -0.1813  0.4949  0.1337
  826MPD2    C112200   3.152   4.164  13.670  0.7567 -0.1152 -0.2610
  826MPD2    C212201   3.018   4.143  13.706  0.3568 -0.2817  1.1225
  826MPD2    C312202   2.957   4.231  13.793 -0.1495 -0.0495  0.0239
  826MPD2    C412203   3.025   4.339  13.845 -0.6689 -0.1440  0.5045
  826MPD2    C512204   3.157   4.363  13.805  0.1658 -0.5013  0.0016
  826MPD2     H12205   2.969   4.054  13.667  1.7422 -0.9715  0.9868
  826MPD2    H112206   2.978   4.416  13.904  1.3405  1.4618 -0.0030
  826MPD2    H212207   3.320   4.303  13.684 -0.6750  2.0656  0.0132
  826MPD2    H312208   3.204   4.452  13.846  2.2984 -1.9879  0.7999
  826MPD2     N12209   2.818   4.225  13.821  0.1326  0.3411  0.2479
  826MPD2    H512210   2.778   4.303  13.871  2.9879  0.7350  1.9202
  826MPD2    N112211   3.226   4.083  13.582 -0.0517  0.3282 -0.4918
  826MPD2    H712212   3.324   4.106  13.581 -0.2227  1.0404 -0.5218
  827MPD2     C12213   4.109   0.470   9.464  0.0004  0.1026 -0.3336
  827MPD2    C112214   4.043   0.426   9.576 -0.4127  0.4667  0.4985
  827MPD2    C212215   3.907   0.419   9.575 -0.3127 -0.4018 -0.4455
  827MPD2    C312216   3.834   0.459   9.461 -0.2968  0.3386  0.0515
  827MPD2    C412217   3.902   0.500   9.353  0.0673 -0.1117  0.4891
  827MPD2    C512218   4.039   0.490   9.352  0.4364  0.5397  0.3325
  827MPD2     H12219   3.846   0.380   9.656 -0.9100  0.5973 -0.4115
  827MPD2    H112220   3.859   0.538   9.261  1.6097 -1.0247 -0.6294
  827MPD2    H212221   4.216   0.486   9.467 -0.0433 -0.0332  2.5610
  827MPD2    H312222   4.088   0.523   9.261 -1.7727  1.3509 -0.5727
  827MPD2     N12223   3.691   0.432   9.467 -0.3582  0.1469  0.4231
  827MPD2    H512224   3.651   0.410   9.558  0.1012  0.7448  0.7696
  827MPD2    N112225   4.114   0.406   9.696  0.1042 -0.3264  0.8410
  827MPD2    H712226   4.212   0.428   9.684 -0.2513 -0.6604 -2.7375
  828MPD2     C12227   2.212   0.115  12.641 -0.2654 -1.0883  0.1991
  828MPD2    C112228   2.135   0.170  12.545 -0.3872 -1.1111 -0.0385
  828MPD2    C212229   2.204   0.230  12.440  0.3340 -0.3275 -0.3893
  828MPD2    C312230   2.347   0.217  12.430  0.2112  0.9280  0.1651
  828MPD2    C412231   2.416   0.153  12.530 -0.2713  0.2467  0.7480
  828MPD2    C512232   2.351   0.105  12.643 -0.5677 -0.3493 -1.0694
  828MPD2     H12233   2.146   0.287  12.368 -0.6906 -0.4264  0.3533
  828MPD2    H112234   2.524   0.139  12.537 -0.6390 -2.3988  1.0725
  828MPD2    H212235   2.182   0.065  12.733 -3.9209  2.0367  0.7042
  828MPD2    H312236   2.398   0.061  12.731  2.3352  3.7996 -0.5503
  828MPD2     N12237   2.420   0.269  12.320  0.1157 -0.5557 -0.0407
  828MPD2    H512238   2.521   0.257  12.320  0.4742  2.3370  2.0645
  828MPD2    N112239   1.998   0.180  12.551  0.2666 -0.0645  0.1205
  828MPD2    H712240   1.960   0.233  12.473 -1.0270 -1.1423  0.0181
  829MPD2     C12241   1.565   0.845  12.189  0.3845  0.3028 -0.1614
  829MPD2    C112242   1.455   0.780  12.248 -0.7385  1.0283 -0.0119
  829MPD2    C212243   1.472   0.680  12.344  0.6504 -0.3123 -0.8853
  829MPD2    C312244   1.601   0.640  12.373  0.7179  0.1557 -0.7706
  829MPD2    C412245   1.703   0.689  12.295 -0.1688 -0.0087  0.8610
  829MPD2    C512246   1.685   0.797  12.215  0.2809  0.0054  0.0078
  829MPD2     H12247   1.388   0.623  12.383 -0.1273  0.9351 -0.7343
  829MPD2    H112248   1.800   0.643  12.299 -1.4588 -3.0074 -2.3650
  829MPD2    H212249   1.561   0.934  12.128 -4.2923  1.2263  1.4695
  829MPD2    H312250   1.769   0.825  12.153  0.5332  1.2210  0.8919
  829MPD2     N12251   1.642   0.540  12.464 -0.4547  0.2291  0.1149
  829MPD2    H512252   1.740   0.519  12.474 -0.2977  1.0799  0.3190
  829MPD2    N112253   1.329   0.836  12.221  0.1352  0.6107 -0.2053
  829MPD2    H712254   1.328   0.901  12.143 -0.4378  0.3093 -0.4474
  830MPD2     C12255   2.319   2.539  15.863  0.0967 -0.9305 -0.2572
  830MPD2    C112256   2.209   2.589  15.799  0.0198  0.5081 -0.4474
  830MPD2    C212257   2.216   2.685  15.700 -0.5365  0.2287 -0.5414
  830MPD2    C312258   2.340   2.730  15.654  0.0519  0.5849 -0.0310
  830MPD2    C412259   2.453   2.677  15.715  0.2242 -0.4826 -0.4534
  830MPD2    C512260   2.436   2.583  15.815 -0.6943  0.5681 -0.0431
  830MPD2     H12261   2.127   2.717  15.647 -1.1006  1.1958  0.9648
  830MPD2    H112262   2.553   2.711  15.690  1.2352 -1.4042  2.2973
  830MPD2    H212263   2.312   2.469  15.945  0.2785  1.7571  2.0456
  830MPD2    H312264   2.524   2.538  15.860 -2.5890 -1.1282  1.9342
  830MPD2     N12265   2.366   2.814  15.542  0.3808  0.2071  0.4848
  830MPD2    H512266   2.460   2.851  15.536  0.4902 -0.5864 -2.6850
  830MPD2    N112267   2.082   2.542  15.844  0.4764  0.0241 -0.4566
  830MPD2    H712268   2.090   2.486  15.928 -1.0783  2.7943  1.5084
  831MPD2     C12269   2.034   4.727  16.098  0.4064  0.2720  0.8495
  831MPD2    C112270   2.097   4.626  16.027 -0.5583  0.2013 -0.8020
  831MPD2    C212271   2.050   4.491  16.032  0.3312  0.6058  0.2612
  831MPD2    C312272   1.952   4.460  16.125  0.0503  0.3148  0.1540
  831MPD2    C412273   1.892   4.566  16.200 -0.9169  0.8643  0.1872
  831MPD2    C512274   1.936   4.695  16.183  0.5862  0.0083  0.6129
  831MPD2     H12275   2.084   4.421  15.956  1.7802  1.1994  0.3638
  831MPD2    H112276   1.808   4.554  16.269 -1.4665  0.4461 -0.5561
  831MPD2    H212277   2.062   0.095  16.094  1.5543 -0.1159 -1.3215
  831MPD2    H312278   1.883   0.030  16.245  1.1215 -2.6608  4.1642
  831MPD2     N12279   1.893   4.334  16.139 -0.5230  0.2443 -0.1469
  831MPD2    H512280   1.819   4.319  16.207 -1.2169 -1.8503 -1.3820
  831MPD2    N112281   2.199   4.660  15.949  0.0426 -0.2910 -0.5345
  831MPD2    H712282   2.217   0.021  15.930  1.6295 -0.3033  0.9344
  832MPD2     C12283   0.574   0.767  16.974 -0.1425 -0.5184  0.2700
  832MPD2    C112284   0.525   0.889  17.016  1.3805 -0.4548 -0.4265
  832MPD2    C212285   0.422   0.950  16.952  0.1723 -0.2600 -0.5449
  832MPD2    C312286   0.362   0.884  16.854 -0.5778  1.0802  0.1942
  832MPD2    C412287   0.414   0.768  16.797 -0.1096 -0.7504 -0.0163
  832MPD2    C512288   0.516   0.712  16.860 -0.2779  0.7026 -0.1698
  832MPD2     H12289   0.378   1.041  16.991 -1.4587 -0.8464 -1.0364
  832MPD2    H112290   0.385   0.721  16.704 -2.0212  0.6208 -0.1094
  832MPD2    H212291   0.661   0.722  17.021  0.0401 -0.2426  0.1937
  832MPD2    H312292   0.553   0.615  16.827 -2.1950 -0.1452  0.1888
  832MPD2     N12293   0.243   0.926  16.795 -0.0344 -0.0638 -0.3394
  832MPD2    H512294   0.197   0.859  16.733 -1.4827  1.1729 -0.6182
  832MPD2    N112295   0.597   0.944  17.122 -0.3411 -0.0603  0.6023
  832MPD2    H712296   0.674   0.892  17.163  0.9987  3.0925  2.0192
  833MPD2     C12297   2.844   2.823  12.421  0.3594  0.1277  0.3019
  833MPD2    C112298   2.804   2.952  12.399 -0.1287 -0.2209 -0.1518
  833MPD2    C212299   2.865   3.028  12.299 -0.0427  0.4584 -0.5508
  833MPD2    C312300   2.969   2.976  12.228 -0.3371  0.0864  0.3597
  833MPD2    C412301   2.999   2.844  12.241  0.3058 -0.3704  0.1897
  833MPD2    C512302   2.942   2.774  12.346 -0.7293 -0.1071  0.3020
  833MPD2     H12303   2.829   3.129  12.284  1.0654  1.3175  2.5482
  833MPD2    H112304   3.076   2.791  12.185  0.9956 -3.1083  3.7564
  833MPD2    H212305   2.806   2.759  12.499  1.8168  0.0716  0.9685
  833MPD2    H312306   2.979   2.673  12.361  1.6677  0.3461 -2.4177
  833MPD2     N12307   3.041   3.050  12.132  0.0072  0.4524  0.0585
  833MPD2    H512308   3.115   3.002  12.081 -1.1093 -1.1541 -0.0427
  833MPD2    N112309   2.698   3.005  12.475  0.3112 -0.4160 -0.4059
  833MPD2    H712310   2.644   2.944  12.535 -2.2037  1.4501 -0.7904
  834MPD2     C12311   2.848   2.611  11.358  0.0006  0.0369  0.7321
  834MPD2    C112312   2.875   2.729  11.294  0.6019 -0.1318  0.5369
  834MPD2    C212313   2.917   2.840  11.364 -0.2859  0.1063 -0.2604
  834MPD2    C312314   2.925   2.841  11.499  0.3866 -0.4642  0.0168
  834MPD2    C412315   2.894   2.719  11.567  0.4991 -0.0957 -0.2625
  834MPD2    C512316   2.858   2.608  11.496  0.1029  0.3674 -0.5168
  834MPD2     H12317   2.943   2.927  11.304 -0.6504 -1.1238 -2.1909
  834MPD2    H112318   2.896   2.715  11.676 -0.9771 -0.3060 -0.2314
  834MPD2    H212319   2.811   2.523  11.307 -0.7712  1.4923 -1.2231
  834MPD2    H312320   2.829   2.520  11.552 -0.8417  1.0810  0.1354
  834MPD2     N12321   2.971   2.960  11.566  0.0230 -0.2744 -0.8098
  834MPD2    H512322   2.986   3.043  11.509  1.0291  0.2987  0.2827
  834MPD2    N112323   2.870   2.718  11.151 -0.3502  0.6936 -0.2606
  834MPD2    H712324   2.839   2.628  11.115 -2.6285  0.8895  1.2523
  835MPD2     C12325   3.278   1.001  11.177  0.1084 -0.2971  0.5911
  835MPD2    C112326   3.153   0.961  11.189  0.1560  0.4243 -0.3675
  835MPD2    C212327   3.117   0.884  11.305  0.6631 -0.5218 -0.5660
  835MPD2    C312328   3.214   0.860  11.405 -0.0494 -0.0378  0.2478
  835MPD2    C412329   3.338   0.915  11.393 -0.3249 -0.2851  0.0097
  835MPD2    C512330   3.371   0.981  11.275  0.5659 -0.2495  0.1947
  835MPD2     H12331   3.015   0.848  11.314  0.2157  0.9150  0.0379
  835MPD2    H112332   3.413   0.903  11.470 -1.1151 -0.4167  0.7639
  835MPD2    H212333   3.314   1.050  11.087  0.7153 -0.2898  0.8390
  835MPD2    H312334   3.467   1.030  11.266  0.9646 -0.7124  1.9343
  835MPD2     N12335   3.183   0.796  11.528  0.4127 -0.3344  0.5458
  835MPD2    H512336   3.264   0.780  11.587  0.6553 -1.0184  0.0301
  835MPD2    N112337   3.054   0.988  11.090  0.2814 -0.1526 -0.7234
  835MPD2    H712338   3.091   1.025  11.003  2.0837  1.2780  0.6158
  836MPD2     C12339   2.769   1.004  12.052  0.7536  0.4422  0.7307
  836MPD2    C112340   2.749   0.868  12.053 -0.7334 -0.2513 -0.1525
  836MPD2    C212341   2.645   0.813  12.129 -0.1846 -0.0370 -0.8939
  836MPD2    C312342   2.564   0.897  12.210  0.9531  0.2485  0.9811
  836MPD2    C412343   2.601   1.033  12.219  0.4320 -0.3211  0.5224
  836MPD2    C512344   2.698   1.083  12.137 -0.2400  0.1034 -0.1721
  836MPD2     H12345   2.632   0.705  12.129 -1.5257  0.1238 -0.1666
  836MPD2    H112346   2.541   1.096  12.284  0.3453 -0.5476  0.6597
  836MPD2    H212347   2.851   1.043  11.992  2.2901 -0.2062  2.3890
  836MPD2    H312348   2.721   1.189  12.148 -0.6866  0.0718  1.0879
  836MPD2     N12349   2.455   0.858  12.295 -0.3797 -0.5934 -0.3001
  836MPD2    H512350   2.423   0.932  12.356 -1.7279 -0.7089 -0.8675
  836MPD2    N112351   2.835   0.795  11.964  0.0719 -0.6506 -0.0856
  836MPD2    H712352   2.898   0.841  11.899 -1.7870  0.1781 -1.3006
  837MPD2     C12353   1.323   0.357  10.516 -0.4166  0.4253 -0.1445
  837MPD2    C112354   1.291   0.425  10.396  0.1708  0.6470 -0.3732
  837MPD2    C212355   1.322   0.559  10.390 -0.5257  0.7799 -0.4043
  837MPD2    C312356   1.377   0.628  10.495 -0.3300  0.0698 -0.1394
  837MPD2    C412357   1.418   0.556  10.607  0.1365  0.4105 -0.2272
  837MPD2    C512358   1.378   0.429  10.624  0.2744 -0.1526  0.0694
  837MPD2     H12359   1.304   0.604  10.293  0.6761  1.0506 -0.4977
  837MPD2    H112360   1.453   0.600  10.699  1.6636 -0.1958 -0.5156
  837MPD2    H212361   1.287   0.256  10.531  0.2582  0.0057 -1.3185
  837MPD2    H312362   1.398   0.371  10.714 -1.0705 -2.0312 -0.8345
  837MPD2     N12363   1.399   0.765  10.483 -0.0090  0.4258  0.3380
  837MPD2    H512364   1.389   0.807  10.391 -0.2293 -1.0250 -0.3053
  837MPD2    N112365   1.233   0.358  10.280  0.6830 -0.7806  0.3130
  837MPD2    H712366   1.210   0.419  10.202 -0.6709 -1.0914  0.4613
  838MPD2     C12367   3.977   2.956  10.740 -0.3504 -0.8754  0.3544
  838MPD2    C112368   4.006   3.064  10.817  0.2410  0.3081  0.2016
  838MPD2    C212369   3.949   3.068  10.940 -0.0473 -0.4475  0.7374
  838MPD2    C312370   3.862   2.966  10.984  0.8366 -0.0964 -0.3357
  838MPD2    C412371   3.838   2.863  10.901  0.0222  0.0036 -0.3549
  838MPD2    C512372   3.894   2.850  10.780 -0.2090  0.3449 -0.6381
  838MPD2     H12373   3.974   3.144  11.012 -2.0224  0.9066 -0.0103
  838MPD2    H112374   3.771   2.784  10.933  0.1261  0.6277  1.4305
  838MPD2    H212375   4.010   2.957  10.637  0.5983  1.8235  0.6993
  838MPD2    H312376   3.877   2.761  10.720 -0.2163 -0.7671  1.0298
  838MPD2     N12377   3.807   2.975  11.117 -0.2179  0.0490  0.0259
  838MPD2    H512378   3.828   3.059  11.170 -1.6709  0.3897  0.0589
  838MPD2    N112379   4.103   3.155  10.778  0.7098 -0.0368 -0.5464
  838MPD2    H712380   4.114   3.231  10.845 -0.2096  0.5980 -1.1199
  839MPD2     C12381   4.030   3.238  11.296  0.3589 -0.0272 -0.0208
  839MPD2    C112382   4.135   3.183  11.228  0.1188 -0.2754  0.1923
  839MPD2    C212383   4.214   3.258  11.140 -0.9528 -0.8610  0.1479
  839MPD2    C312384   4.180   3.392  11.122 -0.1203 -0.5421  0.3503
  839MPD2    C412385   4.078   3.450  11.194 -0.5102 -0.4233  0.4834
  839MPD2    C512386   4.003   3.371  11.282 -0.3869  0.2890  0.0836
  839MPD2     H12387   4.291   3.203  11.088  1.2636  0.7514  1.7418
  839MPD2    H112388   4.054   3.556  11.197 -2.7558 -0.9344  0.6641
  839MPD2    H212389   3.968   3.183  11.366  1.2095 -1.1240 -0.1207
  839MPD2    H312390   3.925   3.419  11.340 -0.4960  1.1702 -0.7974
  839MPD2     N12391   4.247   3.480  11.032  0.2238 -0.2559 -0.0621
  839MPD2    H512392   4.190   3.553  10.991  3.1074  2.0845  0.1146
  839MPD2    N112393   4.154   3.045  11.219 -0.0011  0.2823 -0.0476
  839MPD2    H712394   4.246   3.014  11.189  0.6751  1.3835  0.8928
  840MPD2     C12395   4.697   0.720  10.059 -0.2411  0.2323 -0.9840
  840MPD2    C112396   4.623   0.692  10.171  0.2173  0.0347 -0.1627
  840MPD2    C212397   4.681   0.736  10.289 -0.3948  0.0311  0.3939
  840MPD2    C312398   0.059   0.816  10.287 -0.7102 -0.1051 -0.0664
  840MPD2    C412399   0.116   0.856  10.170  0.0639 -0.2569 -0.3577
  840MPD2    C512400   0.073   0.800  10.057  0.5570  0.2890 -0.7166
  840MPD2     H12401   4.628   0.717  10.382 -0.5968  0.7462  0.4291
  840MPD2    H112402   0.207   0.915  10.165 -0.5495  0.7390  0.3023
  840MPD2    H212403   4.665   0.671   9.967  1.1400 -1.7338 -0.4065
  840MPD2    H312404   0.128   0.821   9.965 -0.8561  0.3049 -1.5464
  840MPD2     N12405   0.113   0.879  10.402  0.0101  0.0691 -0.2473
  840MPD2    H512406   0.180   0.954  10.387 -0.2931  0.1320 -1.2718
  840MPD2    N112407   4.501   0.616  10.161 -0.3426  0.3501 -0.0279
  840MPD2    H712408   4.456   0.592  10.249 -0.1865  1.0689  0.2463
  841MPD2     C12409   3.675   0.723  14.853  0.1919 -0.0139 -0.4106
  841MPD2    C112410   3.698   0.629  14.762  0.9992 -0.4463 -0.1420
  841MPD2    C212411   3.766   0.675  14.653 -0.2700  0.5111  0.3587
  841MPD2    C312412   3.820   0.804  14.644 -0.3272 -0.0393 -0.0456
  841MPD2    C412413   3.796   0.896  14.744  0.3094 -0.1884  0.0672
  841MPD2    C512414   3.733   0.846  14.850  0.1271 -0.2795 -0.2926
  841MPD2     H12415   3.785   0.596  14.581  0.0724  0.5731  0.3841
  841MPD2    H112416   3.827   1.000  14.749 -1.8164  0.5665 -2.1657
  841MPD2    H212417   3.631   0.695  14.948 -0.5547  0.9535 -0.4740
  841MPD2    H312418   3.709   0.918  14.927  2.2896  0.5658 -0.4052
  841MPD2     N12419   3.909   0.829  14.529  0.1883 -0.2071  0.4120
  841MPD2    H512420   3.902   0.760  14.454 -1.1838  0.8276 -0.4130
  841MPD2    N112421   3.639   0.505  14.759 -0.1873 -0.7874 -0.2863
  841MPD2    H712422   3.626   0.465  14.666  0.0282  0.5920 -0.9054
  842MPD2     C12423   4.570   1.485  16.796  0.3244 -1.0842 -0.3738
  842MPD2    C112424   4.512   1.361  16.783  0.9003 -0.4087  0.0752
  842MPD2    C212425   4.547   1.265  16.882  0.3421  0.8401  0.0547
  842MPD2    C312426   4.616   1.302  16.992 -0.2317 -0.5280 -0.4959
  842MPD2    C412427   4.691   1.421  16.994  0.0930 -0.1173 -0.5758
  842MPD2    C512428   4.669   1.512  16.889  0.2403  0.1917  0.2296
  842MPD2     H12429   4.487   1.177  16.897  0.3554  0.5578 -1.4798
  842MPD2    H112430   0.024   1.439  17.075 -0.0299 -1.3743 -0.1957
  842MPD2    H212431   4.557   1.556  16.716  1.6752 -0.9166 -0.4383
  842MPD2    H312432   4.709   1.612  16.891  0.1957  0.2324 -0.9798
  842MPD2     N12433   4.609   1.220  17.104 -0.2423 -0.4051  0.3548
  842MPD2    H512434   4.662   1.261  17.180  1.0587 -0.5551 -0.4750
  842MPD2    N112435   4.422   1.338  16.675 -0.1049  0.7235 -0.6916
  842MPD2    H712436   4.410   1.412  16.606 -1.5126  1.0177 -0.1468
  843MPD2     C12437   1.431   1.824  17.492  0.1303  0.1801 -0.1703
  843MPD2    C112438   1.520   1.755  17.575  0.0942 -0.6676  0.3694
  843MPD2    C212439   1.588   1.824  17.675  0.1623 -0.7217  0.0413
  843MPD2    C312440   1.569   1.961  17.697 -0.1032 -0.3210  0.2040
  843MPD2    C412441   1.480   2.023  17.614 -0.0940  0.0209 -0.2589
  843MPD2    C512442   1.407   1.956  17.518  0.6264  0.8051 -0.3550
  843MPD2     H12443   1.655   1.766  17.738  0.6130  0.9298  1.0514
  843MPD2    H112444   1.457   2.128  17.627  0.3707  0.0629  0.2129
  843MPD2    H212445   1.367   1.779  17.417 -1.7967  2.1221  0.3248
  843MPD2    H312446   1.339   2.004  17.448  0.4457  0.3255 -0.5049
  843MPD2     N12447   1.643   2.050   0.035 -0.2795 -0.0322  0.0986
  843MPD2    H512448   1.621   2.147   0.019 -1.7375 -0.1882  1.1824
  843MPD2    N112449   1.525   1.608  17.555  0.0087 -0.0351 -1.2779
  843MPD2    H712450   1.459   1.571  17.487 -1.5887  1.3721 -0.5115
  844MPD2     C12451   0.108   0.860  16.192  0.1390  0.3877 -0.0674
  844MPD2    C112452   0.240   0.815  16.184  1.0062  0.8332 -0.8424
  844MPD2    C212453   0.346   0.860  16.268  0.4724  0.5764 -0.1346
  844MPD2    C312454   0.312   0.948  16.372 -0.1830  0.5188  0.0088
  844MPD2    C412455   0.183   0.995  16.378 -0.5072 -0.4609 -0.4169
  844MPD2    C512456   0.084   0.950  16.291 -0.4159  0.6187  0.5106
  844MPD2     H12457   0.449   0.828  16.252  0.6381  1.6400 -1.1811
  844MPD2    H112458   0.153   1.076  16.443 -0.6704  1.1039 -2.4541
  844MPD2    H212459   0.025   0.846  16.123  0.2243  0.5204 -0.1969
  844MPD2    H312460   4.720   0.979  16.316 -1.4391 -0.8452 -1.8707
  844MPD2     N12461   0.414   0.999  16.456  0.1938  0.1441  0.3593
  844MPD2    H512462   0.506   0.957  16.442  0.2501 -0.3597  2.2559
  844MPD2    N112463   0.272   0.732  16.079  0.7888 -0.1197  0.3988
  844MPD2    H712464   0.371   0.716  16.060  1.0226 -0.8098  2.1355
  845MPD2     C12465   0.352   1.758  17.064 -0.6048 -0.5084  0.2353
  845MPD2    C112466   0.421   1.663  17.134 -0.2819 -0.0891 -0.1191
  845MPD2    C212467   0.479   1.560  17.073 -0.0515 -0.2002 -0.6435
  845MPD2    C312468   0.471   1.557  16.929 -0.0187  0.6431  0.1022
  845MPD2    C412469   0.399   1.651  16.861 -0.5170 -0.7215 -0.0590
  845MPD2    C512470   0.334   1.749  16.926  0.2924  0.0699 -0.0930
  845MPD2     H12471   0.542   1.492  17.128  0.4509 -0.1816 -1.1902
  845MPD2    H112472   0.373   1.628  16.758 -1.1069 -0.8437  0.1193
  845MPD2    H212473   0.306   1.843  17.112  1.5018  0.2923  0.8466
  845MPD2    H312474   0.266   1.821  16.884  0.9686 -0.1582 -1.5829
  845MPD2     N12475   0.521   1.456  16.850 -0.1901  0.2032 -0.2509
  845MPD2    H512476   0.509   1.460  16.750 -0.8925 -0.2944 -0.1837
  845MPD2    N112477   0.422   1.688  17.271 -0.3345  0.3025 -0.0427
  845MPD2    H712478   0.378   1.776  17.298  2.2593  1.9532 -1.2241
  846MPD2     C12479   2.014   1.940  13.642 -0.2237  0.5932 -0.1741
  846MPD2    C112480   1.951   2.063  13.653 -0.0289  0.5236  0.0670
  846MPD2    C212481   1.891   2.086  13.775 -0.3051  0.4287 -0.4911
  846MPD2    C312482   1.913   2.005  13.883 -0.1304  0.1561 -0.1256
  846MPD2    C412483   1.991   1.890  13.868  0.2274 -0.0864  0.5001
  846MPD2    C512484   2.032   1.854  13.743 -0.3116 -0.3152  0.0660
  846MPD2     H12485   1.820   2.167  13.785 -0.0321  0.5839  0.2186
  846MPD2    H112486   2.007   1.822  13.950 -0.0855 -1.1051 -0.2812
  846MPD2    H212487   2.049   1.903  13.547  1.4115 -0.2365  0.7616
  846MPD2    H312488   2.092   1.767  13.722 -0.9429 -1.1868  1.9121
  846MPD2     N12489   1.850   2.038  14.005 -0.0833 -0.3042  0.1976
  846MPD2    H512490   1.780   2.112  14.000  0.5216  0.3833  1.7062
  846MPD2    N112491   1.942   2.149  13.543 -0.6987  0.6096 -0.1052
  846MPD2    H712492   1.921   2.247  13.560  1.9385  1.9348 -4.7728
  847MPD2     C12493   1.789   3.016  14.035  0.2266 -0.4310  0.3867
  847MPD2    C112494   1.915   2.959  14.070 -0.0229 -0.1849 -0.2974
  847MPD2    C212495   1.920   2.829  14.122 -0.3610  0.4406 -0.0360
  847MPD2    C312496   1.798   2.757  14.141 -0.3284 -0.6757  0.3041
  847MPD2    C412497   1.679   2.814  14.107 -0.1209  0.5536 -0.0045
  847MPD2    C512498   1.675   2.941  14.061  0.9622 -0.1097  0.2564
  847MPD2     H12499   2.010   2.776  14.153 -1.0996 -1.0943 -0.5292
  847MPD2    H112500   1.587   2.759  14.122  0.8286 -0.6164  1.5433
  847MPD2    H212501   1.772   3.121  14.012  0.1340 -0.0551  2.2283
  847MPD2    H312502   1.586   2.993  14.026 -0.4203 -1.9746  1.0099
  847MPD2     N12503   1.821   2.633  14.199  0.7253  0.1748 -0.0198
  847MPD2    H512504   1.910   2.586  14.209  0.5405 -0.4325 -1.2589
  847MPD2    N112505   2.031   3.041  14.063 -0.5345  0.0346 -0.2214
  847MPD2    H712506   2.021   3.140  14.047 -0.5815 -0.2061 -1.6591
  848MPD2     C12507   4.586   1.498  16.304  0.3189 -0.0373 -0.1183
  848MPD2    C112508   4.676   1.485  16.408 -0.4684 -0.1741 -0.4417
  848MPD2    C212509   4.732   1.601  16.460  0.3963  0.0486 -0.3158
  848MPD2    C312510   4.719   1.717  16.392 -0.2063  0.2864  0.3107
  848MPD2    C412511   4.641   1.721  16.285 -0.0673  0.5492 -0.5959
  848MPD2    C512512   4.564   1.617  16.244  0.0179  0.0561 -0.1013
  848MPD2     H12513   0.042   1.593  16.558 -1.1991  0.4790  0.4903
  848MPD2    H112514   4.632   1.818  16.238 -0.9047  0.5066 -0.5267
  848MPD2    H212515   4.540   1.413  16.253  2.0783  0.9390 -3.3693
  848MPD2    H312516   4.499   1.629  16.159 -1.5967  1.7256  1.3754
  848MPD2     N12517   0.048   1.836  16.426  0.4259 -0.1711  0.0103
  848MPD2    H512518   0.020   1.919  16.375  1.5722  0.0151 -0.3145
  848MPD2    N112519   4.696   1.364  16.479  0.3095  0.6487  0.1232
  848MPD2    H712520   0.027   1.365  16.555  0.4108  0.0545  0.0412
  849MPD2     C12521   3.785   1.638  14.101  0.1284 -0.7023  0.1435
  849MPD2    C112522   3.888   1.601  14.014  1.0035 -0.3938 -0.1790
  849MPD2    C212523   4.002   1.537  14.059  0.6063 -0.0254  0.4635
  849MPD2    C312524   4.013   1.510  14.193 -0.2573  0.3859  0.0398
  849MPD2    C412525   3.906   1.530  14.278  0.2791 -0.2960 -0.2615
  849MPD2    C512526   3.797   1.594  14.231  0.3336 -0.6332 -0.5209
  849MPD2     H12527   4.088   1.511  13.998 -1.2791 -1.0602 -1.7405
  849MPD2    H112528   3.903   1.521  14.386  1.4231 -0.1654 -0.2260
  849MPD2    H212529   3.702   1.707  14.087  0.0934 -0.3731  2.0298
  849MPD2    H312530   3.719   1.619  14.303  0.2658 -1.1831 -0.4040
  849MPD2     N12531   4.132   1.452  14.232  0.5026 -0.2640  0.2067
  849MPD2    H512532   4.196   1.430  14.156 -1.0805  0.4340 -1.3073
  849MPD2    N112533   3.883   1.651  13.877 -0.0075  0.3269 -0.3590
  849MPD2    H712534   3.968   1.641  13.821  0.4457  0.5287  0.2908
  850MPD2     C12535   2.186   4.346  15.072 -0.2815  0.1447  0.2781
  850MPD2    C112536   2.201   4.220  15.131  0.4355  0.0619  0.5275
  850MPD2    C212537   2.328   4.155  15.145 -0.1852 -0.3805  0.6776
  850MPD2    C312538   2.443   4.222  15.116 -0.1337  0.8827  0.5091
  850MPD2    C412539   2.431   4.355  15.077  0.0859  0.5537  0.2862
  850MPD2    C512540   2.307   4.411  15.048  0.0751 -0.8111 -0.0196
  850MPD2     H12541   2.328   4.062  15.202 -2.8597  0.3312  1.8519
  850MPD2    H112542   2.507   4.423  15.042  0.9809 -0.8013 -0.3953
  850MPD2    H212543   2.085   4.381  15.054 -0.4669 -0.0725  0.8979
  850MPD2    H312544   2.297   4.508  15.000  0.4076 -1.1643 -0.7907
  850MPD2     N12545   2.572   4.168  15.137 -0.1845  0.1401  0.5753
  850MPD2    H512546   2.652   4.215  15.095 -1.0529 -0.9344 -2.2586
  850MPD2    N112547   2.089   4.148  15.178 -0.2304  1.1305  0.4737
  850MPD2    H712548   2.109   4.068  15.236 -1.3852  2.7281  3.0956
  851MPD2     C12549   2.156   3.616  15.730  0.1413  0.7729 -0.1003
  851MPD2    C112550   2.144   3.649  15.599 -0.5077 -0.1510 -0.7292
  851MPD2    C212551   2.215   3.565  15.517  0.4428  0.4509 -0.7325
  851MPD2    C312552   2.298   3.460  15.560  0.1010 -0.3531 -0.2065
  851MPD2    C412553   2.305   3.435  15.702  0.1491  0.6486 -0.0644
  851MPD2    C512554   2.230   3.512  15.782  0.5374 -0.7959  0.3042
  851MPD2     H12555   2.221   3.579  15.409  1.9560 -0.6152 -0.7748
  851MPD2    H112556   2.351   3.351  15.753 -0.3841 -0.0881 -0.8071
  851MPD2    H212557   2.101   3.677  15.800 -1.4628 -1.3839  0.5151
  851MPD2    H312558   2.223   3.481  15.886 -0.7634 -0.8289  0.2072
  851MPD2     N12559   2.347   3.363  15.466  0.0352 -0.1605 -0.3410
  851MPD2    H512560   2.307   3.382  15.375  2.1119  0.0913 -1.2012
  851MPD2    N112561   2.063   3.756  15.556 -0.3040 -0.0019  0.2455
  851MPD2    H712562   2.004   3.793  15.630 -2.4658 -0.6106 -1.1681
  852MPD2     C12563   2.313   1.825   9.950 -0.6938 -0.6883  0.1509
  852MPD2    C112564   2.384   1.879  10.056  0.1254  0.6727 -0.6561
  852MPD2    C212565   2.464   1.994  10.033 -0.1589 -0.4213 -0.2645
  852MPD2    C312566   2.459   2.055   9.913  0.5055 -0.4998  1.1825
  852MPD2    C412567   2.385   2.001   9.804  0.4452 -0.0530  0.5124
  852MPD2    C512568   2.312   1.887   9.821  0.3002 -0.3858 -0.3800
  852MPD2     H12569   2.514   2.039  10.119 -1.2305 -0.5650  0.4361
  852MPD2    H112570   2.374   2.044   9.705 -0.0014  1.5112  1.2396
  852MPD2    H212571   2.251   1.737   9.960  1.6706 -1.9326  3.7680
  852MPD2    H312572   2.256   1.856   9.733  0.7840 -1.9151 -0.1488
  852MPD2     N12573   2.548   2.169   9.896  0.3347  0.1437 -0.3904
  852MPD2    H512574   2.609   2.192   9.974  0.4197  0.4646 -0.5518
  852MPD2    N112575   2.387   1.832  10.184 -0.2462  0.4365  0.9193
  852MPD2    H712576   2.416   1.890  10.262  1.3460  0.7774  0.0739
  853MPD2     C12577   3.603   1.497  12.303  0.3129 -0.6014 -0.1432
  853MPD2    C112578   3.610   1.618  12.241  0.5846  0.5332 -0.0454
  853MPD2    C212579   3.657   1.624  12.111  0.4770 -0.0192  0.0190
  853MPD2    C312580   3.665   1.512  12.036  0.0346 -0.2632  0.0161
  853MPD2    C412581   3.651   1.386  12.094  0.4643 -0.6954 -0.4002
  853MPD2    C512582   3.630   1.386  12.234  0.4506 -0.3784 -1.0697
  853MPD2     H12583   3.679   1.717  12.059 -0.5856  0.2422  0.0443
  853MPD2    H112584   3.682   1.300  12.037  0.9653 -1.5608  1.1817
  853MPD2    H212585   3.585   1.491  12.409  0.5611  0.0931 -0.0613
  853MPD2    H312586   3.647   1.296  12.292  0.4852 -0.5478 -1.3389
  853MPD2     N12587   3.687   1.527  11.888 -0.6755 -0.7762  0.8803
  853MPD2    H512588   3.678   1.619  11.847 -0.3992 -1.0813  0.1453
  853MPD2    N112589   3.599   1.730  12.329  0.1546  0.4168 -0.4429
  853MPD2    H712590   3.563   1.705  12.420  1.3527  0.4728  0.0409
  854MPD2     C12591   4.414   1.681  12.675  0.6536 -0.0806  0.6201
  854MPD2    C112592   4.505   1.723  12.763 -0.4789  0.0946  0.3687
  854MPD2    C212593   4.618   1.646  12.780 -0.1659 -0.3462  0.6135
  854MPD2    C312594   4.650   1.547  12.695  0.3043 -0.2192  0.2142
  854MPD2    C412595   4.561   1.512  12.597 -0.2997  0.4209  0.4997
  854MPD2    C512596   4.442   1.577  12.597  0.1129 -0.5517 -0.8261
  854MPD2     H12597   4.679   1.673  12.865  1.7428 -2.6319 -0.0333
  854MPD2    H112598   4.577   1.435  12.523  1.3498  0.7569  0.5180
  854MPD2    H212599   4.328   1.741  12.649  0.1888 -0.2843  1.6941
  854MPD2    H312600   4.377   1.568  12.512 -0.2752 -1.5882 -0.4058
  854MPD2     N12601   0.041   1.484  12.699  0.0608  0.1309  0.2802
  854MPD2    H512602   0.058   1.422  12.620  0.3482  0.6271 -0.0477
  854MPD2    N112603   4.480   1.845  12.830 -0.3755 -0.1716  0.1557
  854MPD2    H712604   4.393   1.896  12.824 -0.4571 -0.2522  0.6979
  855MPD2     C12605   0.790   1.554  13.360  0.0091  0.6604  0.4587
  855MPD2    C112606   0.800   1.426  13.306  0.2693  0.2100 -0.6989
  855MPD2    C212607   0.743   1.397  13.180  0.1161  0.0269  0.2893
  855MPD2    C312608   0.660   1.492  13.121  0.5950  0.0294 -0.1532
  855MPD2    C412609   0.651   1.619  13.177  0.3463 -0.3265  0.2862
  855MPD2    C512610   0.724   1.646  13.289 -0.4200  0.1953 -0.1009
  855MPD2     H12611   0.749   1.297  13.140 -0.4330 -0.0595  0.4276
  855MPD2    H112612   0.584   1.691  13.132 -0.4567 -1.2048  0.0707
  855MPD2    H212613   0.843   1.585  13.449  1.9134  0.2040 -0.5081
  855MPD2    H312614   0.706   1.742  13.336  0.1188 -0.5887  1.6910
  855MPD2     N12615   0.583   1.459  13.010 -0.9461  0.4135 -0.0283
  855MPD2    H512616   0.530   1.538  12.973 -2.4920 -1.2360 -1.3112
  855MPD2    N112617   0.860   1.316  13.373 -0.0538  0.4061  0.4752
  855MPD2    H712618   0.849   1.223  13.333  1.3624  1.2723 -1.9855
  856MPD2     C12619   3.569   1.969  14.234 -0.2638  0.2890 -0.2085
  856MPD2    C112620   3.580   2.105  14.214 -0.1651 -0.8732  0.4040
  856MPD2    C212621   3.489   2.169  14.131 -0.5864  0.2485 -0.1261
  856MPD2    C312622   3.391   2.103  14.063  0.0361 -0.0372 -0.0957
  856MPD2    C412623   3.385   1.966  14.081 -0.0885  0.2963 -0.6506
  856MPD2    C512624   3.469   1.898  14.172  0.4344 -0.9004 -0.0469
  856MPD2     H12625   3.487   2.277  14.125  1.7231  0.3009  0.0175
  856MPD2    H112626   3.308   1.903  14.036 -0.1495  1.0600 -1.6214
  856MPD2    H212627   3.638   1.910  14.293  0.1976  0.7821 -0.2540
  856MPD2    H312628   3.456   1.792  14.188  0.9961 -0.7840  1.1692
  856MPD2     N12629   3.282   2.173  13.993 -0.2189 -0.8456 -0.0759
  856MPD2    H512630   3.206   2.112  13.963 -0.4902  1.2773 -3.6112
  856MPD2    N112631   3.670   2.190  14.278  0.8536  0.0873 -0.4995
  856MPD2    H712632   3.651   2.289  14.267 -0.6468 -0.2759 -1.1675
  857MPD2     C12633   4.190   0.122  12.530 -0.2624  0.2587  0.2544
  857MPD2    C112634   4.327   0.101  12.535  0.1167  0.4030 -0.6001
  857MPD2    C212635   4.403   0.157  12.634 -0.4082 -0.4140 -0.2865
  857MPD2    C312636   4.336   0.256  12.710  0.2527  0.2739 -0.5900
  857MPD2    C412637   4.207   0.300  12.683  0.2866  0.4848  0.0550
  857MPD2    C512638   4.136   0.225  12.597 -0.5509 -0.9470  0.1047
  857MPD2     H12639   4.508   0.137  12.650 -0.9060 -2.6133  0.2300
  857MPD2    H112640   4.149   0.372  12.739  0.3871 -0.2901  1.1398
  857MPD2    H212641   4.134   0.077  12.448  0.6079  0.4719 -0.4568
  857MPD2    H312642   4.034   0.256  12.581  1.5244  4.6796 -2.2282
  857MPD2     N12643   4.415   0.299  12.820 -0.1554  0.5311 -0.4317
  857MPD2    H512644   4.507   0.255  12.823 -0.6350 -0.4742 -0.5209
  857MPD2    N112645   4.384   0.007  12.444  0.2351 -0.2346  0.3832
  857MPD2    H712646   4.316   4.694  12.388 -1.5979  1.7091  0.8773
  858MPD2     C12647   0.471   3.443  16.271  0.5661 -0.7821 -0.4327
  858MPD2    C112648   0.454   3.438  16.409  0.1611  0.0670  0.4894
  858MPD2    C212649   0.445   3.552  16.487  0.1922  0.9750 -0.0035
  858MPD2    C312650   0.435   3.671  16.421  0.1976 -0.3293  0.2603
  858MPD2    C412651   0.458   3.670  16.282  0.1839  0.6018  0.1715
  858MPD2    C512652   0.472   3.561  16.207  0.1692  0.2853 -0.2413
  858MPD2     H12653   0.443   3.545  16.595  2.1223  2.4477  0.1227
  858MPD2    H112654   0.465   3.761  16.223 -2.8422  1.2388  0.7679
  858MPD2    H212655   0.480   3.352  16.212  1.2064  0.4305 -2.2187
  858MPD2    H312656   0.493   3.572  16.101 -0.4454 -0.9485 -0.4950
  858MPD2     N12657   0.422   3.794  16.496  0.6176 -0.5224 -0.1357
  858MPD2    H512658   0.390   3.790  16.592 -0.9215  2.8024 -0.5109
  858MPD2    N112659   0.465   3.310  16.466 -0.3837 -0.1418 -0.0214
  858MPD2    H712660   0.467   3.232  16.401 -2.0606  0.2470 -0.5657
  859MPD2     C12661   4.217   0.999  15.517 -0.0298 -0.1458 -0.1351
  859MPD2    C112662   4.124   1.026  15.425  0.3688  0.0008 -0.5816
  859MPD2    C212663   4.033   0.927  15.385 -0.0179 -0.3995 -0.2178
  859MPD2    C312664   4.034   0.802  15.440 -0.6108 -0.0390 -0.1985
  859MPD2    C412665   4.125   0.777  15.538 -0.5346  1.0495 -0.9845
  859MPD2    C512666   4.208   0.877  15.584  0.4067 -0.3797 -0.5551
  859MPD2     H12667   3.962   0.958  15.310  3.0237 -0.3697 -3.1118
  859MPD2    H112668   4.126   0.676  15.577 -2.8282  0.6361 -2.0329
  859MPD2    H212669   4.302   1.059  15.549 -1.3191  0.4961  2.1338
  859MPD2    H312670   4.286   0.850  15.654  0.1944 -0.5106 -0.3713
  859MPD2     N12671   3.962   0.687  15.385  0.2048  0.5028 -0.5365
  859MPD2    H512672   3.983   0.599  15.430  1.9581  1.9203  1.4358
  859MPD2    N112673   4.131   1.152  15.365 -0.1421  0.0885 -0.0003
  859MPD2    H712674   4.202   1.212  15.406 -0.4070  0.5943 -0.2864
  860MPD2     C12675   1.738   1.668  11.582 -0.4651 -0.5552  0.0723
  860MPD2    C112676   1.698   1.755  11.684 -0.4611 -0.0639  0.6262
  860MPD2    C212677   1.590   1.716  11.754  0.2420 -0.8222 -0.3267
  860MPD2    C312678   1.520   1.602  11.733 -0.5471  0.3493 -0.2692
  860MPD2    C412679   1.552   1.519  11.628  0.8876  0.0969  1.2697
  860MPD2    C512680   1.659   1.556  11.554 -0.1709 -0.6338 -0.9320
  860MPD2     H12681   1.564   1.769  11.845 -0.1366 -2.7866  0.6997
  860MPD2    H112682   1.496   1.433  11.592  2.8565 -0.6909  0.0431
  860MPD2    H212683   1.820   1.693  11.516  0.0740  1.5307  1.5344
  860MPD2    H312684   1.679   1.501  11.462  1.2094 -1.1919 -0.3083
  860MPD2     N12685   1.414   1.568  11.828 -0.7656 -0.2776 -0.4786
  860MPD2    H512686   1.400   1.630  11.907 -1.5671  0.5247 -1.2517
  860MPD2    N112687   1.762   1.875  11.711 -0.5649  0.0043 -0.0587
  860MPD2    H712688   1.721   1.921  11.792  2.6159  0.4785  1.2746
  861MPD2     C12689   0.729   4.265  10.947 -0.7034 -0.1782  0.0376
  861MPD2    C112690   0.721   4.400  10.980 -0.1081 -0.4828  0.1932
  861MPD2    C212691   0.659   4.489  10.893  0.2086  0.2945  0.1841
  861MPD2    C312692   0.617   4.439  10.772  0.0111  0.2407 -0.5428
  861MPD2    C412693   0.634   4.305  10.733 -0.0210 -0.4403  0.1842
  861MPD2    C512694   0.692   4.228  10.820 -0.5596  0.9835 -0.2041
  861MPD2     H12695   0.647   4.593  10.921  0.6249  0.2388  0.5688
  861MPD2    H112696   0.602   4.274  10.635 -0.5195  1.2146 -0.1699
  861MPD2    H212697   0.766   4.182  11.006  0.1301 -0.4122 -0.8291
  861MPD2    H312698   0.691   4.124  10.792 -2.8208  1.3072 -1.2795
  861MPD2     N12699   0.535   4.512  10.674 -0.1380  0.1771 -0.2701
  861MPD2    H512700   0.498   4.460  10.595 -0.7664 -1.2404  0.9547
  861MPD2    N112701   0.756   4.454  11.105  0.6672 -0.2072  0.8960
  861MPD2    H712702   0.729   4.549  11.128 -1.1447 -0.7874  1.2166
  862MPD2     C12703   4.718   4.427  10.199 -0.2818 -0.6271 -0.3281
  862MPD2    C112704   0.040   4.381  10.312 -0.1794  0.1951  0.5671
  862MPD2    C212705   0.009   4.253  10.356 -0.5971 -0.3376  0.4267
  862MPD2    C312706   4.663   4.170  10.281  0.1301  0.5199  0.4882
  862MPD2    C412707   4.604   4.223  10.169 -0.4027  0.2827 -0.4644
  862MPD2    C512708   4.623   4.352  10.132  0.3215  0.7889  0.2364
  862MPD2     H12709   0.060   4.216  10.444  0.4081 -1.7343 -0.7219
  862MPD2    H112710   4.543   4.160  10.105  0.8843 -0.5490 -0.8585
  862MPD2    H212711   0.013   4.521  10.155 -0.5590  0.4635  1.8026
  862MPD2    H312712   4.571   4.387  10.044  0.1820  0.0231  0.0155
  862MPD2     N12713   4.623   4.037  10.312 -0.0767  0.8180  0.1042
  862MPD2    H512714   4.546   4.000  10.257  0.1013 -1.7626  1.6504
  862MPD2    N112715   0.131   4.457  10.387  0.4107 -0.2590  0.1140
  862MPD2    H712716   0.178   4.413  10.466 -1.0707  0.3629  1.3449
  863MPD2     C12717   3.211   1.609  17.184  0.7572  0.3036  1.2813
  863MPD2    C112718   3.285   1.697  17.108  0.3517 -0.1730 -0.2248
  863MPD2    C212719   3.406   1.740  17.163 -0.0437 -0.2753  0.1469
  863MPD2    C312720   3.462   1.691  17.284 -0.2022  0.2884  0.2296
  863MPD2    C412721   3.386   1.600  17.358 -0.2383  0.6946 -0.3322
  863MPD2    C512722   3.266   1.557  17.296 -0.2556  0.1422  0.1232
  863MPD2     H12723   3.465   1.806  17.101  1.2367  0.1222  1.7770
  863MPD2    H112724   3.405   1.574  17.462 -2.2672 -0.3935 -0.2291
  863MPD2    H212725   3.110   1.583  17.154  1.2211  0.5383 -0.4636
  863MPD2    H312726   3.196   1.510  17.364  0.4355  0.3220  0.9618
  863MPD2     N12727   3.586   1.738  17.342  0.3057  0.6287 -0.7410
  863MPD2    H512728   3.621   1.689  17.424  0.8593  1.9352 -0.1985
  863MPD2    N112729   3.221   1.760  17.000  0.4746  0.7881  0.5609
  863MPD2    H712730   3.124   1.739  16.982  1.1932 -1.6901 -0.3542
  864MPD2     C12731   4.071   4.457  17.081 -0.2266 -0.1287  0.3210
  864MPD2    C112732   4.162   4.367  17.028 -0.7147  0.2244  0.4083
  864MPD2    C212733   4.216   4.388  16.901 -0.5892 -0.3811  1.0815
  864MPD2    C312734   4.176   4.490  16.818 -0.1140 -0.5325 -1.2729
  864MPD2    C412735   4.070   4.565  16.864 -0.0167  0.0037 -0.0321
  864MPD2    C512736   4.018   4.552  16.995  0.3074  0.0957  0.1470
  864MPD2     H12737   4.287   4.314  16.867  0.3892  0.2935  1.6767
  864MPD2    H112738   4.030   4.646  16.804 -1.1803 -0.6982 -0.1987
  864MPD2    H212739   4.020   4.446  17.176 -0.3776  0.9279  0.3649
  864MPD2    H312740   3.945   4.626  17.025 -1.0236 -1.6001  1.1040
  864MPD2     N12741   4.241   4.518  16.694 -0.1235 -0.2004  0.3600
  864MPD2    H512742   4.209   4.603  16.648 -1.4744  0.1585  1.9719
  864MPD2    N112743   4.201   4.261  17.111  0.0758 -0.4279  0.1558
  864MPD2    H712744   4.141   4.249  17.191 -1.2346  1.9886 -0.4925
  865MPD2     C12745   4.408   4.538  15.839  0.8462 -0.5547 -0.4303
  865MPD2    C112746   4.404   4.489  15.965 -0.2657  0.1667  0.1659
  865MPD2    C212747   4.390   4.569  16.077  0.4485 -0.1003  0.3567
  865MPD2    C312748   4.396   4.702  16.055  0.4502  0.4812 -0.1122
  865MPD2    C412749   4.419   0.017  15.929  0.3110  0.2379 -0.0386
  865MPD2    C512750   4.420   4.672  15.826 -0.4701 -0.9010  0.3020
  865MPD2     H12751   4.363   4.536  16.177 -0.6486  0.6113  0.2949
  865MPD2    H112752   4.423   0.123  15.909 -2.0539  0.1343 -1.1335
  865MPD2    H212753   4.423   4.476  15.752  1.3097  0.4171 -1.0436
  865MPD2    H312754   4.446   4.705  15.726 -1.6070  1.1069  0.6821
  865MPD2     N12755   4.384   0.061  16.158  0.3483  0.1607  0.3400
  865MPD2    H512756   4.381   0.159  16.130 -1.4089 -0.3756 -1.3892
  865MPD2    N112757   4.402   4.348  15.963  0.4682  0.0037 -0.6597
  865MPD2    H712758   4.405   4.300  15.873 -0.7858 -1.0303 -0.1586
  866MPD2     C12759   0.863   0.148  11.720 -0.0624 -0.0518  1.1209
  866MPD2    C112760   0.902   0.137  11.591  0.6991  0.0740 -0.1124
  866MPD2    C212761   0.815   0.167  11.489 -0.0583 -0.0495 -0.2175
  866MPD2    C312762   0.684   0.210  11.512  0.6618  0.5921 -0.7928
  866MPD2    C412763   0.642   0.213  11.643 -0.1030 -0.1526 -0.2902
  866MPD2    C512764   0.730   0.179  11.743  0.6489 -1.0002  0.5987
  866MPD2     H12765   0.840   0.146  11.386 -1.2274 -1.1809 -0.2595
  866MPD2    H112766   0.539   0.242  11.660  0.6186  1.0796  1.9685
  866MPD2    H212767   0.925   0.131  11.807 -0.2096  1.0869  1.4433
  866MPD2    H312768   0.692   0.180  11.845  0.7595  1.5827  0.6148
  866MPD2     N12769   0.584   0.250  11.413 -0.3209 -0.6178 -0.2648
  866MPD2    H512770   0.489   0.274  11.438  0.4509  0.8839  1.2231
  866MPD2    N112771   1.037   0.107  11.558  0.2495  0.0038 -0.0661
  866MPD2    H712772   1.099   0.075  11.632 -1.7593 -1.3686  1.0316
  867MPD2     C12773   2.937   2.721  16.547  0.0682 -0.0672 -0.1482
  867MPD2    C112774   2.974   2.775  16.669  0.1928 -0.1269  0.0559
  867MPD2    C212775   2.944   2.904  16.699 -0.7270  0.0388  0.3679
  867MPD2    C312776   2.859   2.979  16.621  0.6106 -0.2139  0.0933
  867MPD2    C412777   2.816   2.922  16.505 -0.0188  0.4045 -0.0906
  867MPD2    C512778   2.845   2.789  16.468  0.2222  0.1281 -0.0760
  867MPD2     H12779   2.965   2.935  16.800  1.5136 -0.7472  0.1512
  867MPD2    H112780   2.744   2.981  16.449 -0.9733  0.2410  0.9657
  867MPD2    H212781   2.968   2.622  16.519  0.2500 -0.3964  1.2117
  867MPD2    H312782   2.791   2.747  16.384 -1.9409  0.8848  0.9420
  867MPD2     N12783   2.815   3.112  16.653  0.9456 -0.6447  0.2904
  867MPD2    H512784   2.759   3.170  16.592 -1.1013 -3.8493 -0.9317
  867MPD2    N112785   3.043   2.689  16.757 -0.0745  0.2914 -0.0243
  867MPD2    H712786   3.044   2.590  16.735  1.2484 -0.1441  1.9854
  868MPD2     C12787   0.120   3.601  13.552 -0.0714  0.1877  0.7916
  868MPD2    C112788   0.172   3.486  13.597  0.7781  0.5802 -0.4300
  868MPD2    C212789   0.175   3.459  13.734  0.9073  0.4844 -0.0662
  868MPD2    C312790   0.128   3.554  13.824 -0.5193  0.6095  0.2456
  868MPD2    C412791   0.085   3.674  13.779 -0.7005 -0.3785  0.5319
  868MPD2    C512792   0.083   3.699  13.641 -0.4406  0.2038 -0.0485
  868MPD2     H12793   0.215   3.363  13.767  0.6497  0.4388  0.1138
  868MPD2    H112794   0.044   3.750  13.846  0.3647  1.0651 -0.4403
  868MPD2    H212795   0.112   3.622  13.446 -0.2462 -1.8211  0.4057
  868MPD2    H312796   0.066   3.795  13.594 -1.8989 -0.8294 -1.6317
  868MPD2     N12797   0.123   3.539  13.969 -0.6729 -0.0471  0.3402
  868MPD2    H512798   0.063   3.601  14.023 -0.5959  0.3535 -0.0366
  868MPD2    N112799   0.230   3.398  13.504 -0.5404 -0.5277 -0.3381
  868MPD2    H712800   0.252   3.437  13.413  0.4162  1.8955  0.9178
  869MPD2     C12801   0.918   0.592   1.071  0.8374 -0.1141 -0.3876
  869MPD2    C112802   1.031   0.590   1.148 -0.3718  0.0376 -0.0532
  869MPD2    C212803   1.159   0.579   1.091 -0.4223 -0.9965 -0.2934
  869MPD2    C312804   1.173   0.581   0.950  0.3868 -0.2460 -0.3098
  869MPD2    C412805   1.064   0.596   0.874 -0.2372 -0.9161  0.3169
  869MPD2    C512806   0.935   0.600   0.930 -0.1479  0.5766 -0.9464
  869MPD2     H12807   1.245   0.582   1.157 -0.7381  1.1433  0.0154
  869MPD2    H112808   1.054   0.604   0.766  1.0793  1.3431  0.3867
  869MPD2    H212809   0.818   0.609   1.109  0.0134 -2.7960 -1.3497
  869MPD2    H312810   0.848   0.610   0.866 -0.6537 -0.8428 -0.4868
  869MPD2     N12811   1.294   0.573   0.880  0.0174  0.5319  0.1245
  869MPD2    H512812   1.289   0.596   0.781 -0.7464 -1.5919 -0.3143
  869MPD2    N112813   1.002   0.598   1.288 -0.5643  0.5202  0.4365
  869MPD2    H712814   0.906   0.607   1.318 -0.4073 -1.2866  1.4723
  870MPD2     C12815   0.267   4.155   1.478 -0.4405 -0.1292  0.5377
  870MPD2    C112816   0.323   4.102   1.364 -0.2248 -0.1551  0.0070
  870MPD2    C212817   0.286   4.147   1.240  0.1676 -0.5679 -0.0045
  870MPD2    C312818   0.169   4.225   1.228  0.0491  0.1234  0.1699
  870MPD2    C412819   0.109   4.271   1.338  0.0184 -0.0173  0.5845
  870MPD2    C512820   0.167   4.244   1.455 -0.1112 -0.0404  0.6143
  870MPD2     H12821   0.341   4.114   1.152 -0.4439 -1.9987  0.1517
  870MPD2    H112822   0.027   4.341   1.348 -0.4689 -0.4807 -0.0991
  870MPD2    H212823   0.293   4.123   1.578 -1.9883  4.1738  2.3215
  870MPD2    H312824   0.122   4.282   1.546 -0.9074 -1.1945  0.7007
  870MPD2     N12825   0.128   4.265   1.099 -0.3727  0.2098  0.5650
  870MPD2    H512826   0.195   4.256   1.023 -0.3127 -1.5756  0.8436
  870MPD2    N112827   0.414   3.996   1.380  0.0816  0.7557  0.5548
  870MPD2    H712828   0.423   3.963   1.476  2.3553 -2.7631 -0.8646
  871MPD2     C12829   2.081   3.766  16.212 -0.5867  0.4086 -0.4451
  871MPD2    C112830   2.047   3.726  16.339 -0.0360 -0.1071  0.7828
  871MPD2    C212831   2.053   3.586  16.365 -0.3725  0.0983 -0.6562
  871MPD2    C312832   2.072   3.489  16.262 -0.1215  0.0392 -0.1924
  871MPD2    C412833   2.091   3.536  16.132 -0.9604  0.1849  0.1984
  871MPD2    C512834   2.098   3.673  16.110  0.0463 -0.5890 -0.5764
  871MPD2     H12835   2.042   3.550  16.467 -1.6915  1.0620 -0.4520
  871MPD2    H112836   2.107   3.459  16.058  1.2048 -1.9109  2.7927
  871MPD2    H212837   2.064   3.870  16.188 -0.2420  1.4682  3.8342
  871MPD2    H312838   2.106   3.704  16.007  0.4480 -1.9166 -0.9548
  871MPD2     N12839   2.053   3.355  16.303  0.0795  0.0982 -0.0162
  871MPD2    H512840   2.031   3.341  16.401 -1.9953  1.7966 -0.2478
  871MPD2    N112841   2.029   3.819  16.448  0.5224 -0.4615 -0.1047
  871MPD2    H712842   2.020   3.915  16.419 -0.1381 -0.2097  0.9447
  872MPD2     C12843   3.045   1.597  13.488  0.0172 -0.5329  0.2651
  872MPD2    C112844   3.071   1.675  13.599  0.1591 -0.2977 -0.2463
  872MPD2    C212845   3.000   1.665  13.715 -0.1226  0.5632  0.1968
  872MPD2    C312846   2.900   1.567  13.723  0.2047 -0.3099 -0.3020
  872MPD2    C412847   2.882   1.480  13.613 -0.0872  0.0635 -0.4440
  872MPD2    C512848   2.947   1.500  13.499 -0.7384  0.1580 -0.1716
  872MPD2     H12849   3.013   1.735  13.797 -1.2812  1.1076 -0.0843
  872MPD2    H112850   2.796   1.415  13.618 -0.5942  0.7905  0.2611
  872MPD2    H212851   3.108   1.604  13.400  0.5677  0.8821  0.7748
  872MPD2    H312852   2.917   1.435  13.418 -0.9811  0.0229  0.0257
  872MPD2     N12853   2.808   1.557  13.831 -0.1013  0.4336 -0.2174
  872MPD2    H512854   2.730   1.493  13.822  0.5448 -0.0772 -2.2279
  872MPD2    N112855   3.165   1.780  13.577 -0.2278  0.3486 -0.3996
  872MPD2    H712856   3.179   1.801  13.479  0.9902  0.4856 -0.1907
  873MPD2     C12857   0.180   0.767   0.963  0.1692  0.3784  0.4515
  873MPD2    C112858   0.079   0.815   1.038  0.6063  0.2672 -0.8857
  873MPD2    C212859   4.701   0.743   1.052 -0.0823  0.3323 -0.1702
  873MPD2    C312860   4.678   0.628   0.977 -0.6986 -0.5087  0.0897
  873MPD2    C412861   0.041   0.580   0.899 -0.2912  0.2783 -0.0515
  873MPD2    C512862   0.159   0.650   0.894  0.7262  0.0305  0.7863
  873MPD2     H12863   4.620   0.782   1.111  1.0107  1.8482  0.3353
  873MPD2    H112864   0.020   0.502   0.826  0.1951  0.7064 -0.6479
  873MPD2    H212865   0.269   0.825   0.938  0.3745  0.0790  0.4845
  873MPD2    H312866   0.225   0.613   0.817 -2.2078 -0.4839 -1.5094
  873MPD2     N12867   4.553   0.563   0.974 -0.8296  0.2061 -0.4728
  873MPD2    H512868   4.549   0.485   0.910  0.4502  0.2300 -0.5885
  873MPD2    N112869   0.100   0.940   1.100  0.7654 -0.7023 -0.2311
  873MPD2    H712870   0.194   0.978   1.105  0.0012  0.9835  1.7352
  874MPD2     C12871   4.151   1.914  16.386 -0.1740 -0.1295 -0.1984
  874MPD2    C112872   4.234   1.830  16.460 -0.3109 -0.3681 -0.6431
  874MPD2    C212873   4.362   1.878  16.502 -0.5734 -0.8721  0.6602
  874MPD2    C312874   4.406   2.002  16.456  0.4748  0.4144 -0.0583
  874MPD2    C412875   4.321   2.085  16.382 -0.1761 -0.4303  0.3157
  874MPD2    C512876   4.198   2.037  16.354 -0.9184  0.2283  0.0896
  874MPD2     H12877   4.426   1.813  16.561 -0.1463  0.2917  1.4604
  874MPD2    H112878   4.353   2.185  16.354  1.2081 -1.1424 -0.6659
  874MPD2    H212879   4.053   1.893  16.346  0.1509  1.1245 -1.6945
  874MPD2    H312880   4.124   2.096  16.300 -0.5891 -0.7362 -1.4213
  874MPD2     N12881   4.526   2.051  16.513 -0.6251  0.5964 -0.6835
  874MPD2    H512882   4.537   2.034  16.612  1.4237  1.2041 -0.7925
  874MPD2    N112883   4.187   1.703  16.490 -0.8423 -0.0980  0.5751
  874MPD2    H712884   4.089   1.688  16.465 -1.0924 -0.8186  2.0281
  875MPD2     C12885   4.552   4.685  14.561 -0.2298 -0.3361 -0.0178
  875MPD2    C112886   4.614   0.047  14.487  0.1586  0.6968  0.5854
  875MPD2    C212887   4.714   0.131  14.545 -0.3517 -0.1990  0.0478
  875MPD2    C312888   4.737   0.128  14.684 -0.0123 -0.3719  0.8183
  875MPD2    C412889   4.666   0.028  14.756 -0.0642 -0.1541 -0.7314
  875MPD2    C512890   4.584   4.675  14.695 -0.3468  1.0734  0.2937
  875MPD2     H12891   0.037   0.204  14.493 -2.1281  1.0130 -0.2989
  875MPD2    H112892   4.647   0.032  14.863 -2.0181 -2.4637 -0.9765
  875MPD2    H212893   4.475   4.615  14.531 -1.1146 -0.0622  1.6369
  875MPD2    H312894   4.512   4.613  14.747 -0.2023 -0.5763 -1.5012
  875MPD2     N12895   0.065   0.236  14.758  0.3079 -0.4303  0.3786
  875MPD2    H512896   0.053   0.232  14.859  0.4928  0.0596  0.4170
  875MPD2    N112897   4.590   0.052  14.348 -0.2216  0.5751 -0.0450
  875MPD2    H712898   4.653   0.120  14.307 -2.4564  0.7440 -3.1429
  876MPD2     C12899   4.142   1.551  16.108  0.9212  0.0114 -0.0210
  876MPD2    C112900   4.250   1.479  16.053  0.1342  0.2171 -0.1714
  876MPD2    C212901   4.275   1.352  16.089  0.3068  0.4453 -0.8040
  876MPD2    C312902   4.178   1.287  16.173  0.0015  0.4981  0.2908
  876MPD2    C412903   4.072   1.349  16.231 -0.1023 -0.1907 -0.4120
  876MPD2    C512904   4.057   1.481  16.197  0.2885 -0.0575 -0.4360
  876MPD2     H12905   4.357   1.296  16.048 -0.8857  0.3064 -3.0003
  876MPD2    H112906   3.998   1.303  16.295 -0.8707 -0.2439 -1.3494
  876MPD2    H212907   4.133   1.655  16.078 -0.8743 -0.0851  0.1988
  876MPD2    H312908   3.979   1.545  16.237  1.2160  0.5568  0.4090
  876MPD2     N12909   4.220   1.153  16.195 -0.0243 -0.5753  0.2988
  876MPD2    H512910   4.303   1.107  16.160 -0.8279 -0.1171 -2.2597
  876MPD2    N112911   4.341   1.551  15.970 -0.2949 -0.0435 -0.2074
  876MPD2    H712912   4.323   1.651  15.963 -1.1653 -0.2692 -1.1525
  877MPD2     C12913   4.277   1.969  15.406 -0.1526  0.2613 -0.5181
  877MPD2    C112914   4.403   2.024  15.437  0.3541  0.2469  0.5276
  877MPD2    C212915   4.470   2.099  15.345  0.1275 -0.2301 -0.1677
  877MPD2    C312916   4.420   2.103  15.209 -0.0097  0.0177 -0.4807
  877MPD2    C412917   4.300   2.042  15.185 -0.7131 -0.1395  0.2032
  877MPD2    C512918   4.226   1.991  15.282  0.0356  0.1535  0.1330
  877MPD2     H12919   4.567   2.140  15.368  0.3117 -0.2368 -0.9260
  877MPD2    H112920   4.253   2.034  15.088  2.1097 -0.7703 -1.0985
  877MPD2    H212921   4.215   1.915  15.476 -1.3605  2.3456  0.0326
  877MPD2    H312922   4.128   1.949  15.259 -0.9005  2.5412 -0.2520
  877MPD2     N12923   4.486   2.163  15.099 -0.0355  0.1701  0.2268
  877MPD2    H512924   4.435   2.162  15.012  0.6085 -1.7134 -0.1405
  877MPD2    N112925   4.470   1.991  15.560 -0.2095  0.2052 -0.1711
  877MPD2    H712926   4.570   2.008  15.565  0.1894 -1.8412 -1.6584
  878MPD2     C12927   3.887   1.179  13.045  0.2193  0.2269  0.2626
  878MPD2    C112928   3.941   1.294  13.002  0.1729 -0.2453  0.1267
  878MPD2    C212929   3.950   1.401  13.088  0.0402 -0.1272 -0.7603
  878MPD2    C312930   3.888   1.392  13.211  0.4136 -0.4283 -0.2196
  878MPD2    C412931   3.820   1.284  13.249 -0.2214  0.1468 -0.0666
  878MPD2    C512932   3.825   1.169  13.168  0.1507  0.7074 -0.6233
  878MPD2     H12933   4.006   1.491  13.067  0.6853 -0.7693 -1.7903
  878MPD2    H112934   3.778   1.265  13.347 -0.9379 -0.5264 -0.5034
  878MPD2    H212935   3.894   1.089  12.985  0.9608  0.2786  0.2668
  878MPD2    H312936   3.770   1.082  13.204 -1.9703  1.5052 -1.9765
  878MPD2     N12937   3.904   1.509  13.295 -0.0332 -0.0736 -0.5616
  878MPD2    H512938   3.953   1.588  13.254  1.1313 -0.3454  0.3057
  878MPD2    N112939   4.001   1.293  12.878 -0.7751  0.2236  0.2403
  878MPD2    H712940   3.995   1.206  12.825  1.5870 -0.3627  0.9291
  879MPD2     C12941   0.061   2.490  17.535 -0.2460  0.2520 -0.2379
  879MPD2    C112942   4.686   2.433  17.593 -0.0917 -0.5613 -0.2597
  879MPD2    C212943   4.611   2.336  17.526  0.5996 -0.6910 -0.7712
  879MPD2    C312944   4.646   2.295  17.399  0.0070 -0.1941 -0.1250
  879MPD2    C412945   0.016   2.351  17.341  0.3699  0.1728 -0.7304
  879MPD2    C512946   0.095   2.439  17.413  0.0278  0.1812 -0.0419
  879MPD2     H12947   4.518   2.311  17.576  1.8616 -0.0340  1.9241
  879MPD2    H112948   0.038   2.325  17.238  2.5565 -1.4277  0.1406
  879MPD2    H212949   0.125   2.557  17.592  0.8157  0.5766 -1.8200
  879MPD2    H312950   0.185   2.479  17.368 -0.7903 -0.8410 -2.5810
  879MPD2     N12951   4.560   2.227  17.312  0.1616 -0.0992  0.4705
  879MPD2    H512952   4.586   2.222  17.214 -1.1298  3.3012 -0.0517
  879MPD2    N112953   4.646   2.472  17.723  0.6622 -0.5751  0.2501
  879MPD2    H712954   4.696   2.553   0.014 -0.8773  0.1561  0.7385
  880MPD2     C12955   1.007   4.131  17.728  0.3827 -0.3391  0.3149
  880MPD2    C112956   0.881   4.063   0.000  0.2884  0.0278  1.2471
  880MPD2    C212957   0.880   3.956   0.083  0.2726 -0.8345  0.2451
  880MPD2    C312958   0.995   3.905   0.142 -0.4550 -0.3479 -0.3976
  880MPD2    C412959   1.119   3.972   0.125  0.1496 -0.2840 -0.2313
  880MPD2    C512960   1.117   4.088   0.049  0.3691  0.6010  0.2146
  880MPD2     H12961   0.789   3.905   0.112 -0.7345 -0.3285 -2.0399
  880MPD2    H112962   1.213   3.939   0.166  0.7027 -1.1997 -2.2341
  880MPD2    H212963   1.023   4.219  17.667  1.5700 -0.3976  0.5442
  880MPD2    H312964   1.212   4.140   0.038  0.0932  0.9743 -0.3883
  880MPD2     N12965   0.981   3.795   0.227  0.3012 -0.7357  0.9902
  880MPD2    H512966   0.888   3.757   0.241 -0.7072  0.9945 -1.1437
  880MPD2    N112967   0.768   4.101  17.675  0.1511  0.4073  0.0012
  880MPD2    H712968   0.787   4.168  17.601 -0.6762  1.0066  0.3224
  881MPD2     C12969   1.033   0.131  17.429  0.3946  0.5189  0.0713
  881MPD2    C112970   1.041   4.735  17.396  0.6988 -1.0652  0.5169
  881MPD2    C212971   0.929   4.663  17.421  0.0505 -0.2190 -0.5622
  881MPD2    C312972   0.848   4.704  17.524 -0.2314  0.1572 -0.0427
  881MPD2    C412973   0.852   0.096  17.574 -0.7343  0.1660 -0.3355
  881MPD2    C512974   0.956   0.178  17.531 -0.4725 -0.5365  0.0044
  881MPD2     H12975   0.914   4.564  17.379 -0.3643 -1.4090  2.4499
  881MPD2    H112976   0.787   0.125  17.656 -1.1069  0.9189 -0.8978
  881MPD2    H212977   1.117   0.197  17.411  0.4635  0.7649  1.2422
  881MPD2    H312978   0.962   0.274  17.579  1.2373 -0.4008 -0.4784
  881MPD2     N12979   0.747   4.617  17.572  0.4621  0.3349  0.2650
  881MPD2    H512980   0.668   4.656  17.624 -0.1217 -1.1670  0.5191
  881MPD2    N112981   1.119   4.701  17.279  0.6583  0.1661  0.3832
  881MPD2    H712982   1.170   0.043  17.240  0.0252  0.1813 -0.4268
  882MPD2     C12983   4.377   2.082  14.364  0.2224 -0.0045 -0.2348
  882MPD2    C112984   4.352   2.078  14.501 -0.0210  0.9438  0.2816
  882MPD2    C212985   4.272   1.975  14.550 -0.4972 -0.3083 -0.5377
  882MPD2    C312986   4.217   1.884  14.462 -0.0896  0.7928 -0.5351
  882MPD2    C412987   4.232   1.897  14.321 -0.1735  0.5444 -0.1113
  882MPD2    C512988   4.317   1.994  14.279 -0.1520  0.6396 -0.0686
  882MPD2     H12989   4.259   1.957  14.656  2.5913  2.4673  0.2859
  882MPD2    H112990   4.183   1.831  14.251  2.1154  0.3834 -1.5780
  882MPD2    H212991   4.443   2.159  14.325 -0.4157  0.5809 -0.1362
  882MPD2    H312992   4.318   2.004  14.171  0.1372 -0.0510 -0.1328
  882MPD2     N12993   4.120   1.793  14.503  0.2199  0.2508  0.3961
  882MPD2    H512994   4.071   1.740  14.431 -0.2505  0.5606  0.4829
  882MPD2    N112995   4.418   2.180  14.577 -0.0156 -0.6125 -0.8128
  882MPD2    H712996   4.485   2.239  14.529  1.5946 -1.0092  0.9819
  883MPD2     C12997   1.174   1.579  15.992  0.5250  0.7937 -0.6219
  883MPD2    C112998   1.298   1.557  15.933 -0.0476  0.7844  0.3178
  883MPD2    C212999   1.410   1.527  16.014  0.0067  0.3994  0.4383
  883MPD2    C313000   1.392   1.513  16.152  0.5730  0.3610  0.1923
  883MPD2    C413001   1.269   1.533  16.214  1.0183  0.8001 -0.0215
  883MPD2    C513002   1.164   1.567  16.133  0.5508 -0.5678  0.3258
  883MPD2     H13003   1.507   1.498  15.975 -0.2967  0.1177 -0.1031
  883MPD2    H113004   1.246   1.527  16.319  0.5896  2.7246 -0.0079
  883MPD2    H213005   1.083   1.588  15.933 -0.8017  1.1444  1.4701
  883MPD2    H313006   1.063   1.581  16.172  0.3886 -0.0790 -0.2724
  883MPD2     N13007   1.509   1.483  16.228 -0.2010  0.0279  0.5621
  883MPD2    H513008   1.596   1.458  16.183  1.6291 -0.9197  4.6053
  883MPD2    N113009   1.323   1.562  15.790 -0.3930 -0.6584 -0.6058
  883MPD2    H713010   1.419   1.579  15.763 -0.0536 -1.9855 -0.2371
  884MPD2     C13011   3.570   2.399  15.090 -0.4412  0.9689  0.1016
  884MPD2    C113012   3.523   2.528  15.094 -0.2954 -0.5706 -0.1387
  884MPD2    C213013   3.383   2.542  15.105  0.1891 -0.6368 -0.1548
  884MPD2    C313014   3.299   2.434  15.089 -0.3580 -0.1493  0.2122
  884MPD2    C413015   3.357   2.309  15.078  0.1152 -0.1967 -1.1563
  884MPD2    C513016   3.489   2.289  15.070 -0.1726  0.1762 -0.0400
  884MPD2     H13017   3.341   2.641  15.118 -0.6189 -1.0548  0.3813
  884MPD2    H113018   3.289   2.229  15.049 -0.8054  0.6483 -1.3272
  884MPD2    H213019   3.674   2.370  15.103 -0.4585  0.4269 -0.9434
  884MPD2    H313020   3.536   2.193  15.056 -0.4549 -0.0973  0.8681
  884MPD2     N13021   3.157   2.452  15.086 -0.1974 -0.0531 -0.4475
  884MPD2    H513022   3.130   2.550  15.093  1.0950  0.2977 -0.4101
  884MPD2    N113023   3.606   2.636  15.130  0.7818  0.0950 -0.4602
  884MPD2    H713024   3.559   2.724  15.148  1.8751  0.1778  1.9235
  885MPD2     C13025   0.939   2.477   0.147 -0.3461  0.4783  0.1229
  885MPD2    C113026   1.072   2.442   0.142  0.7382 -0.6561  0.0421
  885MPD2    C213027   1.148   2.498   0.035 -0.1496  0.0108  0.5736
  885MPD2    C313028   1.095   2.579  17.686  0.6713  0.4126 -0.0354
  885MPD2    C413029   0.958   2.604  17.691 -0.1532  0.5504 -0.3795
  885MPD2    C513030   0.886   2.550   0.045 -0.0969 -0.9900  0.3728
  885MPD2     H13031   1.254   2.481   0.020 -0.3495 -1.0035  0.3129
  885MPD2    H113032   0.905   2.664  17.618 -1.0563 -0.6871 -0.7423
  885MPD2    H213033   0.869   2.432   0.216  1.7640 -1.9824  0.6577
  885MPD2    H313034   0.780   2.574   0.050  0.1090 -0.1448  0.6440
  885MPD2     N13035   1.177   2.625  17.580 -0.1965 -0.7394  0.3636
  885MPD2    H513036   1.268   2.583  17.563  0.4812  0.8972 -0.0490
  885MPD2    N113037   1.113   2.344   0.233  0.0511  0.0565  0.2850
  885MPD2    H713038   1.040   2.317   0.298 -1.2851  3.4411  0.1895
  886MPD2     C13039   2.558   1.134  15.077  0.0038 -0.5538  0.0697
  886MPD2    C113040   2.690   1.123  15.106 -0.7815 -0.5541 -0.4838
  886MPD2    C213041   2.781   1.186  15.027  0.1772  0.7058 -0.8353
  886MPD2    C313042   2.752   1.239  14.903  0.5409  0.3175 -0.3828
  886MPD2    C413043   2.622   1.227  14.861  0.1070  0.9149  0.1171
  886MPD2    C513044   2.526   1.176  14.947 -0.2656  0.1043  0.0365
  886MPD2     H13045   2.885   1.176  15.056 -0.0075  1.2519  0.0055
  886MPD2    H113046   2.590   1.273  14.768  0.5060  0.3795 -0.2862
  886MPD2    H213047   2.490   1.073  15.136  0.6278 -1.1404  0.1904
  886MPD2    H313048   2.426   1.159  14.909  0.2175  1.4656 -1.8458
  886MPD2     N13049   2.848   1.304  14.818 -0.7076  0.0535  0.4869
  886MPD2    H513050   2.804   1.356  14.742  1.1609 -2.2122 -2.1460
  886MPD2    N113051   2.743   1.069  15.227  0.0090  0.2668 -0.6063
  886MPD2    H713052   2.844   1.067  15.232 -0.1013 -1.7443  0.9387
  887MPD2     C13053   3.380   0.824  15.461 -0.1450  0.3015  0.1721
  887MPD2    C113054   3.320   0.945  15.420  0.3362  0.3322  0.0496
  887MPD2    C213055   3.395   1.052  15.385 -0.3037  0.0456  0.0025
  887MPD2    C313056   3.530   1.046  15.381 -0.2260  0.5256 -0.7152
  887MPD2    C413057   3.590   0.921  15.406 -0.1619  0.0403  0.4358
  887MPD2    C513058   3.514   0.815  15.439  0.3220  0.6472 -0.3008
  887MPD2     H13059   3.346   1.143  15.351 -0.2987  0.4831  1.1821
  887MPD2    H113060   3.698   0.914  15.397 -0.0695  0.1718  1.4552
  887MPD2    H213061   3.326   0.731  15.476 -0.4233  0.1097 -1.9575
  887MPD2    H313062   3.566   0.721  15.453 -0.3634 -0.1607 -3.2442
  887MPD2     N13063   3.591   1.178  15.388 -0.5230 -0.0975 -0.2374
  887MPD2    H513064   3.528   1.253  15.364 -1.1484 -0.2579  0.9164
  887MPD2    N113065   3.184   0.970  15.436  0.6535 -0.0759  0.5095
  887MPD2    H713066   3.144   1.037  15.371  1.0257 -2.3429 -2.0655
  888MPD2     C13067   0.504   1.276  14.830 -0.5231 -0.1598  0.0721
  888MPD2    C113068   0.513   1.304  14.968 -0.5148 -0.7159 -0.0196
  888MPD2    C213069   0.595   1.406  15.012  0.2780 -0.3966  0.4680
  888MPD2    C313070   0.665   1.484  14.926 -0.1096  0.3296  0.7667
  888MPD2    C413071   0.663   1.455  14.789 -0.2846 -0.0429 -0.7752
  888MPD2    C513072   0.586   1.353  14.746  0.0685  0.4084  0.1443
  888MPD2     H13073   0.580   1.430  15.116 -1.4940  1.1672 -0.1348
  888MPD2    H113074   0.721   1.508  14.714 -1.2840  0.6715 -1.0499
  888MPD2    H213075   0.452   1.191  14.786 -0.6757  1.1170 -2.2103
  888MPD2    H313076   0.585   1.342  14.638 -0.3620  1.1915  0.0627
  888MPD2     N13077   0.730   1.594  14.978  0.0313  0.6384 -0.7634
  888MPD2    H513078   0.699   1.625  15.070  2.6895  4.0835 -1.0557
  888MPD2    N113079   0.437   1.233  15.067  0.3185  0.6814 -0.2498
  888MPD2    H713080   0.446   1.254  15.165  0.1210 -0.9137  0.1151
  889MPD2     C13081   4.257   0.982  13.185  0.2664  0.0798  0.3044
  889MPD2    C113082   4.394   0.958  13.166 -0.1783 -0.9450  0.1218
  889MPD2    C213083   4.471   1.064  13.133  0.1224  0.3250 -0.2529
  889MPD2    C313084   4.431   1.193  13.148 -0.3681  0.6026 -0.6697
  889MPD2    C413085   4.298   1.220  13.179  0.0535  0.6884  0.4144
  889MPD2    C513086   4.213   1.114  13.202  0.5360  1.0529 -0.0719
  889MPD2     H13087   4.575   1.059  13.104  0.2167  1.2001 -0.0730
  889MPD2    H113088   4.248   1.315  13.195 -1.6652 -0.3938  1.4738
  889MPD2    H213089   4.194   0.898  13.212 -0.9436  1.4286  1.6677
  889MPD2    H313090   4.110   1.134  13.231  0.1068 -2.3407  0.7101
  889MPD2     N13091   4.520   1.301  13.119  0.0863  0.9485 -0.3939
  889MPD2    H513092   4.610   1.274  13.082  0.9167  1.4120  1.3172
  889MPD2    N113093   4.431   0.824  13.133 -0.2577 -0.3353  0.4282
  889MPD2    H713094   4.358   0.756  13.151 -2.0119  0.5087 -3.6506
  890MPD2     C13095   4.245   2.526  15.055  0.3340  0.1093 -0.2762
  890MPD2    C113096   4.330   2.599  15.132  0.4523 -0.2437 -0.3081
  890MPD2    C213097   4.371   2.561  15.261 -0.1017 -0.4988 -0.3948
  890MPD2    C313098   4.295   2.457  15.316 -0.0748  0.2603  0.3696
  890MPD2    C413099   4.215   2.383  15.232 -0.5710  0.5542  0.3005
  890MPD2    C513100   4.190   2.411  15.103 -0.7232  0.4347  0.5926
  890MPD2     H13101   4.437   2.616  15.326 -1.5448 -0.3711  0.9477
  890MPD2    H113102   4.187   2.286  15.270  1.4723 -0.3437 -0.4570
  890MPD2    H213103   4.212   2.562  14.958  1.6309  1.4281 -0.2231
  890MPD2    H313104   4.138   2.346  15.033 -1.9806  2.2431 -0.1579
  890MPD2     N13105   4.313   2.418  15.448 -0.9254  0.1427  0.1040
  890MPD2    H513106   4.388   2.466  15.496  0.9217 -1.3890 -1.2570
  890MPD2    N113107   4.394   2.703  15.059 -0.5180  0.8237  0.0240
  890MPD2    H713108   4.380   2.703  14.958 -1.7941  2.0589  0.1908
  891MPD2     C13109   2.214   0.431  16.566  0.6326 -0.3048  0.1578
  891MPD2    C113110   2.187   0.524  16.662 -1.6522 -0.8785 -0.9108
  891MPD2    C213111   2.256   0.513  16.786 -0.4497  0.8866  0.0803
  891MPD2    C313112   2.346   0.412  16.810 -0.9677  0.3309  0.5108
  891MPD2    C413113   2.374   0.314  16.710  0.5487  0.0942  0.1420
  891MPD2    C513114   2.307   0.332  16.591  0.0145 -0.0028  0.1597
  891MPD2     H13115   2.238   0.593  16.857  1.9632  1.3626  0.1745
  891MPD2    H113116   2.458   0.247  16.722  1.1712  1.2953  2.6445
  891MPD2    H213117   2.160   0.429  16.472 -0.8950  2.7445  0.9877
  891MPD2    H313118   2.336   0.261  16.515  1.6629 -0.5721  1.3248
  891MPD2     N13119   2.403   0.405  16.941 -0.5917 -0.2372  0.2036
  891MPD2    H513120   2.376   0.473  17.011 -1.4518  0.5997 -0.9509
  891MPD2    N113121   2.095   0.631  16.638 -0.1101 -0.3709 -0.0818
  891MPD2    H713122   2.046   0.636  16.549  1.5126  3.5896 -0.7648
  892MPD2     C13123   3.393   2.261  14.695 -0.2674  0.4615  0.0228
  892MPD2    C113124   3.345   2.136  14.679 -0.3992 -0.2743 -0.3757
  892MPD2    C213125   3.434   2.030  14.649  0.8412 -0.3221 -0.3733
  892MPD2    C313126   3.568   2.056  14.642  0.0195 -0.1729 -0.5081
  892MPD2    C413127   3.614   2.185  14.676 -0.0535 -0.1769  0.6071
  892MPD2    C513128   3.527   2.289  14.695  0.1088 -0.5277  0.2369
  892MPD2     H13129   3.387   1.934  14.633  0.2874 -0.6231  3.1000
  892MPD2    H113130   3.721   2.181  14.696  0.1511  1.1606 -0.2396
  892MPD2    H213131   3.329   2.348  14.701  2.2560  2.3176  0.0941
  892MPD2    H313132   3.562   2.388  14.722 -0.4788 -0.7405  1.8242
  892MPD2     N13133   3.662   1.954  14.612  0.6297 -0.2859 -0.1407
  892MPD2    H513134   3.755   1.978  14.644  0.1741  1.0824  0.1561
  892MPD2    N113135   3.203   2.116  14.686  0.4015 -0.0041 -0.1659
  892MPD2    H713136   3.147   2.200  14.679  0.4721  0.0618  0.0897
  893MPD2     C13137   4.362   0.230   1.067 -0.6019 -0.2306 -0.1774
  893MPD2    C113138   4.417   0.289   1.177 -0.8421  0.8752 -0.7453
  893MPD2    C213139   4.339   0.312   1.289 -0.5054  0.2588  0.4190
  893MPD2    C313140   4.207   0.269   1.294 -0.2416  0.1332 -0.2725
  893MPD2    C413141   4.160   0.198   1.191  0.4222  0.1947 -1.0096
  893MPD2    C513142   4.237   0.178   1.075 -0.1355  0.1004  0.2827
  893MPD2     H13143   4.379   0.355   1.380  0.1710  0.2996  0.1051
  893MPD2    H113144   4.063   0.150   1.201  0.2317  0.8360  0.1626
  893MPD2    H213145   4.427   0.200   0.986 -0.2875  0.6140 -0.2329
  893MPD2    H313146   4.200   0.110   1.000  0.1675 -0.4478  0.6343
  893MPD2     N13147   4.117   0.293   1.405 -0.2386 -0.1419 -0.4600
  893MPD2    H513148   4.036   0.232   1.408  0.5783 -1.1958  0.0037
  893MPD2    N113149   4.558   0.306   1.168 -0.2895  0.0967 -0.0641
  893MPD2    H713150   4.593   0.294   1.074  0.1299  1.4692 -0.0868
  894MPD2     C13151   2.659   2.140   1.207  0.3867 -0.3159  0.0067
  894MPD2    C113152   2.559   2.237   1.216 -0.0325 -0.0639 -0.4532
  894MPD2    C213153   2.583   2.366   1.163 -0.4970 -0.3245  1.1208
  894MPD2    C313154   2.702   2.399   1.102 -0.7038 -0.0575  0.9724
  894MPD2    C413155   2.794   2.295   1.084 -0.3064  0.2384 -0.0360
  894MPD2    C513156   2.772   2.173   1.143 -0.6826 -0.5912 -0.5676
  894MPD2     H13157   2.501   2.436   1.162 -1.8528 -1.9775 -1.6072
  894MPD2    H113158   2.881   2.296   1.018  0.2643 -1.2249  0.6977
  894MPD2    H213159   2.651   2.043   1.256 -0.1024  0.3068  1.1594
  894MPD2    H313160   2.853   2.101   1.137 -0.6804 -0.7626  1.4501
  894MPD2     N13161   2.723   2.527   1.048 -0.0983 -0.1241  0.0937
  894MPD2    H513162   2.648   2.596   1.048 -0.2003 -0.2352 -0.0537
  894MPD2    N113163   2.435   2.214   1.275  0.8253  0.4151  0.0871
  894MPD2    H713164   2.374   2.294   1.288  1.6568  0.9826  0.5740
  895MPD2     C13165   2.830   1.178  13.800 -0.2168  0.5991 -0.0049
  895MPD2    C113166   2.746   1.104  13.718 -0.6786  0.0247 -0.1541
  895MPD2    C213167   2.785   0.981  13.670  0.1426 -0.2658 -0.3755
  895MPD2    C313168   2.901   0.921  13.724 -0.0940 -0.0675  0.4824
  895MPD2    C413169   2.980   0.988  13.810  0.0879  0.1875 -0.7945
  895MPD2    C513170   2.940   1.114  13.851  0.2203  0.3084 -0.0576
  895MPD2     H13171   2.717   0.930  13.602  1.2307 -1.5153 -0.5182
  895MPD2    H113172   3.063   0.938  13.860 -1.3193  0.8803  2.2565
  895MPD2    H213173   2.815   1.275  13.846  2.3760  0.3411  1.4010
  895MPD2    H313174   2.999   1.171  13.921 -0.8332 -0.2891  1.3257
  895MPD2     N13175   2.949   0.802  13.661  0.1881 -1.1508 -0.3511
  895MPD2    H513176   2.890   0.767  13.586  1.7249 -0.3645 -1.9432
  895MPD2    N113177   2.616   1.148  13.690  0.0770  0.0729  0.2678
  895MPD2    H713178   2.547   1.077  13.665 -0.8459  0.6683  1.1457
  896MPD2     C13179   0.052   3.875   0.461 -0.4372 -0.4745 -0.3838
  896MPD2    C113180   0.043   3.745   0.443 -0.2835  0.1831 -0.1499
  896MPD2    C213181   4.670   3.673   0.486 -0.1475 -0.1594 -0.1788
  896MPD2    C313182   4.566   3.743   0.551  0.5445 -0.8169  0.4402
  896MPD2    C413183   4.571   3.880   0.563  0.1068  0.2627  0.8940
  896MPD2    C513184   4.690   3.943   0.518 -0.3534  0.3932 -0.0722
  896MPD2     H13185   4.658   3.567   0.465 -1.4679 -0.2959  1.2331
  896MPD2    H113186   4.495   3.940   0.612 -1.6368  1.5124 -3.3463
  896MPD2    H213187   0.134   3.927   0.414 -0.3145 -0.6098 -0.3178
  896MPD2    H313188   4.696   4.050   0.537  0.3868  0.3954 -0.3066
  896MPD2     N13189   4.449   3.672   0.595 -0.4844 -0.7960  0.2332
  896MPD2    H513190   4.444   3.574   0.569  1.0440 -1.1957  1.4105
  896MPD2    N113191   0.156   3.684   0.381 -0.1950 -0.2845  0.5549
  896MPD2    H713192   0.231   3.750   0.361 -1.9482  1.0886 -1.5214
  897MPD2     C13193   1.952   1.041  10.837  0.1063 -0.3890 -0.9336
  897MPD2    C113194   1.840   1.076  10.775 -0.4527  0.0702  0.4537
  897MPD2    C213195   1.721   0.997  10.787 -0.2823  0.4050 -0.4135
  897MPD2    C313196   1.718   0.895  10.882  0.5187  0.1430 -0.5672
  897MPD2    C413197   1.836   0.866  10.951  0.6290  0.6229 -1.3904
  897MPD2    C513198   1.952   0.936  10.922  0.0515  0.2117  0.3819
  897MPD2     H13199   1.619   1.023  10.762  0.2185 -1.6082 -4.6623
  897MPD2    H113200   1.845   0.793  11.030  1.1553  2.1380 -0.0630
  897MPD2    H213201   2.039   1.103  10.816  0.3597 -0.2206  0.6162
  897MPD2    H313202   2.039   0.912  10.981 -0.4454  0.3225  1.1637
  897MPD2     N13203   1.598   0.823  10.915 -0.5455 -1.6668 -0.1400
  897MPD2    H513204   1.526   0.838  10.845 -0.3556 -2.0613 -0.4188
  897MPD2    N113205   1.842   1.197  10.704  0.6364  0.3238 -0.1621
  897MPD2    H713206   1.914   1.265  10.724 -0.4695  1.0096  1.4655
  898MPD2     C13207   2.769   0.861   0.433  0.2468 -0.6873 -0.5053
  898MPD2    C113208   2.884   0.937   0.443  0.4511  0.4161  0.0454
  898MPD2    C213209   2.897   1.052   0.373 -0.0509 -0.5344  0.4042
  898MPD2    C313210   2.792   1.094   0.295 -0.3336  0.0825 -0.6891
  898MPD2    C413211   2.674   1.018   0.281  0.2489 -0.7143  0.2070
  898MPD2    C513212   2.668   0.895   0.344  0.4659 -0.4011 -0.4256
  898MPD2     H13213   2.985   1.115   0.379 -2.0572  2.3583 -0.2239
  898MPD2    H113214   2.587   1.043   0.222 -1.1713  0.0411  2.6042
  898MPD2    H213215   2.755   0.769   0.488 -1.4931  0.5199  1.0716
  898MPD2    H313216   2.579   0.834   0.331  2.0224 -3.1709  2.0286
  898MPD2     N13217   2.800   1.213   0.213  0.6510 -0.2015 -0.2510
  898MPD2    H513218   2.723   1.224   0.148  0.6714  0.0669 -0.2301
  898MPD2    N113219   2.996   0.886   0.507 -0.7754 -0.3899 -0.0841
  898MPD2    H713220   3.078   0.946   0.503 -1.5710  0.5559 -2.2653
  899MPD2     C13221   4.193   1.826   0.178  0.7498  0.3569 -0.5915
  899MPD2    C113222   4.089   1.761   0.131 -0.1098 -0.0616 -0.0238
  899MPD2    C213223   4.021   1.662   0.209  0.6633 -0.3032  0.5592
  899MPD2    C313224   4.068   1.639   0.337 -0.2245 -0.5761 -0.4090
  899MPD2    C413225   4.176   1.706   0.388 -0.5154 -0.2372  0.3208
  899MPD2    C513226   4.240   1.799   0.306  0.4348 -0.0574 -0.2773
  899MPD2     H13227   3.931   1.613   0.174  0.6394 -1.8146  2.7519
  899MPD2    H113228   4.208   1.697   0.492  2.8007 -1.0875 -0.7539
  899MPD2    H213229   4.242   1.903   0.120 -0.0846  2.1395  1.0771
  899MPD2    H313230   4.315   1.867   0.345 -0.6285  0.6870  0.4876
  899MPD2     N13231   3.993   1.551   0.413  0.2204 -0.0690 -0.2554
  899MPD2    H513232   3.994   1.564   0.513 -2.2791 -1.0568 -0.0915
  899MPD2    N113233   4.043   1.811   0.008 -0.0817  0.1142 -0.6258
  899MPD2    H713234   4.099   1.880  17.705  0.5168 -0.2103 -0.3969
  900MPD2     C13235   3.088   3.895  12.677  0.2991 -0.7336  0.1011
  900MPD2    C113236   3.018   3.777  12.659  0.3650 -0.2343 -0.5945
  900MPD2    C213237   2.885   3.781  12.705 -1.1317  0.2864  0.5867
  900MPD2    C313238   2.830   3.891  12.771  0.1402  0.4466 -0.8957
  900MPD2    C413239   2.913   4.005  12.787  0.5957 -0.0786 -0.4068
  900MPD2    C513240   3.040   4.007  12.736 -0.1714 -0.7574 -0.5306
  900MPD2     H13241   2.822   3.695  12.724  0.0745 -1.1605 -1.9715
  900MPD2    H113242   2.883   4.092  12.844  2.4208  0.2562  0.0225
  900MPD2    H213243   3.191   3.888  12.647  0.7639 -0.8243  1.7163
  900MPD2    H313244   3.120   4.073  12.766  1.0695 -2.4239 -0.1228
  900MPD2     N13245   2.698   3.883  12.820  0.4443 -0.1055  0.5042
  900MPD2    H513246   2.650   3.798  12.791 -1.2171  0.0795  2.6809
  900MPD2    N113247   3.086   3.661  12.609  0.6643 -0.6201  0.3880
  900MPD2    H713248   3.182   3.667  12.576  0.0002  0.8587 -1.2710
  901MPD2     C13249   3.336   2.636  12.634  0.1571 -0.1035  0.5459
  901MPD2    C113250   3.428   2.725  12.590 -0.5467  0.4000 -0.3845
  901MPD2    C213251   3.395   2.852  12.552 -0.0772  0.1925 -0.0312
  901MPD2    C313252   3.270   2.891  12.568  0.4971 -0.2491 -0.3949
  901MPD2    C413253   3.174   2.794  12.593  0.3078 -0.2207  0.2882
  901MPD2    C513254   3.199   2.669  12.630 -0.1503  0.1548  0.1047
  901MPD2     H13255   3.472   2.918  12.512  1.1885 -0.6320  1.0419
  901MPD2    H113256   3.071   2.826  12.590 -0.2477 -1.8396  1.8841
  901MPD2    H213257   3.370   2.540  12.671  0.0283 -0.3304  0.0801
  901MPD2    H313258   3.123   2.595  12.652  0.7541 -0.9041 -0.3336
  901MPD2     N13259   3.239   3.026  12.527 -0.0608 -0.9038  0.7661
  901MPD2    H513260   3.317   3.085  12.500 -1.1662  0.7775  1.2034
  901MPD2    N113261   3.568   2.680  12.589 -0.0156  0.4789 -0.0461
  901MPD2    H713262   3.596   2.602  12.647 -1.2758 -0.4907 -0.7374
  902MPD2     C13263   2.350   2.137  12.647 -0.3857 -0.8191  0.8785
  902MPD2    C113264   2.347   2.162  12.516  0.6340 -0.4506 -0.0843
  902MPD2    C213265   2.442   2.098  12.436 -0.1251  0.2002 -0.2903
  902MPD2    C313266   2.531   2.008  12.487 -0.5554  0.0977  0.3040
  902MPD2    C413267   2.509   1.966  12.611  0.3488 -0.9935  0.3302
  902MPD2    C513268   2.433   2.042  12.698  0.3675 -0.0414  0.2787
  902MPD2     H13269   2.452   2.121  12.331  0.3832 -0.3772 -0.3691
  902MPD2    H113270   2.588   1.908  12.658 -0.6390  0.9924  4.4881
  902MPD2    H213271   2.295   2.201  12.715  0.8132  0.7949  0.3513
  902MPD2    H313272   2.441   2.020  12.804 -1.5888  1.2030  0.6948
  902MPD2     N13273   2.651   1.958  12.432  0.1246  0.0983 -0.4024
  902MPD2    H513274   2.710   1.887  12.475 -0.6965 -0.6154 -0.4495
  902MPD2    N113275   2.261   2.262  12.468  0.0260 -0.1211 -0.3428
  902MPD2    H713276   2.216   2.312  12.545  0.5125  2.9255 -2.0187
  903MPD2     C13277   2.776   2.228  11.756  0.2539  0.2182 -0.8669
  903MPD2    C113278   2.726   2.203  11.877  0.4515  0.1388 -0.2450
  903MPD2    C213279   2.587   2.188  11.899 -0.0272  1.0063  0.4134
  903MPD2    C313280   2.506   2.223  11.787 -0.5401  0.2177  0.3391
  903MPD2    C413281   2.554   2.252  11.664  0.7099 -0.2089 -0.8033
  903MPD2    C513282   2.691   2.254  11.648 -0.1746 -0.6091 -0.1195
  903MPD2     H13283   2.548   2.169  11.998 -0.1344  1.3865  0.4438
  903MPD2    H113284   2.487   2.288  11.587 -0.1735 -1.5076 -0.6431
  903MPD2    H213285   2.882   2.242  11.738  0.7047 -0.9803  0.8853
  903MPD2    H313286   2.726   2.279  11.548 -0.7837 -1.0989 -0.4568
  903MPD2     N13287   2.363   2.211  11.812 -0.4817 -0.1719  0.5788
  903MPD2    H513288   2.332   2.191  11.907  0.4261 -1.5503  0.5851
  903MPD2    N113289   2.812   2.169  11.988 -0.2261 -0.3484  0.6167
  903MPD2    H713290   2.769   2.156  12.079  0.9563 -2.6254  0.8582
  904MPD2     C13291   2.685   0.366  14.111 -0.4712  0.1534  0.2434
  904MPD2    C113292   2.699   0.498  14.075  0.5381 -0.7602 -0.2264
  904MPD2    C213293   2.835   0.538  14.056 -0.2812 -0.2473 -0.2745
  904MPD2    C313294   2.940   0.460  14.086 -0.5687  0.4065  0.4097
  904MPD2    C413295   2.927   0.330  14.132  0.0223 -0.6705 -0.0866
  904MPD2    C513296   2.793   0.285  14.130 -0.1460  0.9947  0.6750
  904MPD2     H13297   2.849   0.638  14.017  2.1222  0.2474  1.8997
  904MPD2    H113298   3.012   0.268  14.156  1.3387  0.7067 -1.2699
  904MPD2    H213299   2.595   0.307  14.108 -1.5744  1.7755  2.1466
  904MPD2    H313300   2.776   0.181  14.155  0.9489  0.5912 -0.2377
  904MPD2     N13301   3.063   0.528  14.096 -0.5552 -0.2645 -0.0702
  904MPD2    H513302   3.065   0.619  14.051 -0.1273  0.3431  1.1870
  904MPD2    N113303   2.595   0.585  14.039  0.1695 -0.5293 -0.3779
  904MPD2    H713304   2.614   0.681  14.012 -1.4733  0.0044  0.3492
  905MPD2     C13305   2.267   0.530  13.420  0.1087  0.2952  0.0467
  905MPD2    C113306   2.347   0.617  13.487  0.1049  0.3473  0.4700
  905MPD2    C213307   2.478   0.631  13.449  0.2269 -0.6141 -0.0638
  905MPD2    C313308   2.536   0.541  13.355 -0.4452 -0.2518 -0.2021
  905MPD2    C413309   2.462   0.441  13.301  0.2086 -0.1670  0.2356
  905MPD2    C513310   2.326   0.442  13.342  0.1481 -0.0444  0.0174
  905MPD2     H13311   2.543   0.689  13.513  0.5827 -0.4297 -0.5940
  905MPD2    H113312   2.508   0.367  13.237 -1.0527  0.1726 -1.0671
  905MPD2    H213313   2.161   0.533  13.441  0.0716  1.8959 -0.3455
  905MPD2    H313314   2.273   0.355  13.306 -0.2335 -0.0504  0.5881
  905MPD2     N13315   2.670   0.517  13.348 -0.1205  0.1199 -0.6990
  905MPD2    H513316   2.692   0.425  13.312  1.5449  0.8889 -1.6523
  905MPD2    N113317   2.302   0.683  13.604  0.0811 -0.2089 -0.9836
  905MPD2    H713318   2.233   0.635  13.662  0.0764  0.4957 -0.3989
  906MPD2     C13319   0.120   0.939  11.267 -0.1298 -0.6328  0.2775
  906MPD2    C113320   0.049   0.903  11.149  0.7070  0.3537  0.0503
  906MPD2    C213321   4.660   0.856  11.164 -0.6884 -0.0416 -0.7608
  906MPD2    C313322   4.600   0.845  11.285  0.0901 -0.1812  0.1629
  906MPD2    C413323   4.665   0.876  11.404 -0.3578  0.1752 -0.3035
  906MPD2    C513324   0.052   0.925  11.388 -0.2303  0.5033  0.4361
  906MPD2     H13325   4.617   0.808  11.077  2.6391 -2.2500 -1.1566
  906MPD2    H113326   4.612   0.874  11.498  1.9741  0.0824  0.9937
  906MPD2    H213327   0.220   0.981  11.272 -0.7071  0.6798  0.9259
  906MPD2    H313328   0.104   0.943  11.481 -0.9568  0.5098  0.8387
  906MPD2     N13329   4.474   0.788  11.295  0.1636 -0.5353 -0.0348
  906MPD2    H513330   4.461   0.735  11.381  0.7436  1.2024  1.1340
  906MPD2    N113331   0.105   0.913  11.020  0.2617  0.6100  0.3388
  906MPD2    H713332   0.049   0.869  10.948  1.7936 -0.5191 -0.1581
  907MPD2     C13333   3.304   0.072  15.998 -0.0350 -0.4020  0.1680
  907MPD2    C113334   3.338   4.679  15.948  0.0501  0.2769 -0.3088
  907MPD2    C213335   3.386   4.591  16.044  0.9768 -0.4066 -0.1261
  907MPD2    C313336   3.405   4.626  16.180  0.0106  0.2310  0.6781
  907MPD2    C413337   3.363   0.013  16.226  0.1242 -0.9840  0.5896
  907MPD2    C513338   3.311   0.098  16.137  0.5029 -0.5166  0.2520
  907MPD2     H13339   3.421   4.495  16.005 -0.3536 -1.5982  1.6365
  907MPD2    H113340   3.375   0.040  16.330  0.8574  1.5838 -0.1730
  907MPD2    H213341   3.256   0.150  15.940  1.4893  1.8204  1.9066
  907MPD2    H313342   3.287   0.197  16.174 -0.5429 -0.4089 -0.7183
  907MPD2     N13343   3.469   4.531  16.260  0.4217 -0.4967  0.1639
  907MPD2    H513344   3.513   4.451  16.216  2.7653  0.3364  1.0019
  907MPD2    N113345   3.335   4.647  15.811 -0.1709 -0.6291 -0.4278
  907MPD2    H713346   3.370   4.555  15.789  0.9065  0.1670 -2.0096
  908MPD2     C13347   1.279   1.368   9.903  0.6644  0.5748 -0.1182
  908MPD2    C113348   1.345   1.253   9.946 -0.4681 -0.7663 -0.2387
  908MPD2    C213349   1.454   1.266  10.034 -0.7504  0.0837 -0.1618
  908MPD2    C313350   1.499   1.393  10.085 -0.1137 -0.7319  0.3076
  908MPD2    C413351   1.427   1.506  10.034  0.1341  0.5530  0.1812
  908MPD2    C513352   1.327   1.493   9.940 -0.8239 -0.3061  0.3902
  908MPD2     H13353   1.497   1.180  10.085  0.6158  1.4861  1.0318
  908MPD2    H113354   1.451   1.609  10.059 -0.7335  0.7413  0.2213
  908MPD2    H213355   1.192   1.379   9.839 -0.6131 -4.0533  0.8580
  908MPD2    H313356   1.279   1.580   9.898 -0.6604 -0.8280 -0.8689
  908MPD2     N13357   1.605   1.406  10.180 -0.3365 -0.3294 -0.8308
  908MPD2    H513358   1.640   1.315  10.210 -0.4737  0.1996  0.8880
  908MPD2    N113359   1.301   1.136   9.878 -0.3233  0.0798 -0.2971
  908MPD2    H713360   1.222   1.143   9.815 -0.4042 -1.3854 -0.3645
  909MPD2     C13361   1.733   3.646  11.214 -0.0144  0.5317  0.1236
  909MPD2    C113362   1.769   3.761  11.281 -0.1625 -0.0711 -0.1750
  909MPD2    C213363   1.719   3.780  11.405  0.1764 -0.1773  0.7074
  909MPD2    C313364   1.625   3.690  11.459 -0.7604 -0.3065  0.2397
  909MPD2    C413365   1.581   3.585  11.384  0.2891  0.2602  0.2486
  909MPD2    C513366   1.646   3.552  11.266  0.3866 -0.4902  0.1176
  909MPD2     H13367   1.761   3.859  11.466 -0.0624  0.9409 -0.5799
  909MPD2    H113368   1.511   3.513  11.422 -2.1030  1.4620 -1.9210
  909MPD2    H213369   1.783   3.628  11.119  0.9005  1.5602  0.4131
  909MPD2    H313370   1.619   3.459  11.219  1.2310  0.0809 -1.4970
  909MPD2     N13371   1.569   3.723  11.587 -0.6135  0.7879  0.0676
  909MPD2    H513372   1.612   3.807  11.624  1.5213 -0.5346  0.5830
  909MPD2    N113373   1.873   3.848  11.225 -0.0592 -0.2294 -0.4093
  909MPD2    H713374   1.886   3.936  11.274  2.4352 -0.7193 -0.1601
  910MPD2     C13375   2.566   0.445  16.386 -0.3826  0.0859 -0.4845
  910MPD2    C113376   2.651   0.397  16.288  0.1963  0.1437 -0.0182
  910MPD2    C213377   2.626   0.430  16.158 -0.7318  0.0295 -1.1140
  910MPD2    C313378   2.516   0.512  16.125 -0.8244 -0.3455 -0.0382
  910MPD2    C413379   2.446   0.571  16.224  0.1915  0.3583  0.8082
  910MPD2    C513380   2.472   0.537  16.355 -0.3086 -0.1593  0.5927
  910MPD2     H13381   2.694   0.389  16.083  0.4278 -0.4617  0.1938
  910MPD2    H113382   2.357   0.629  16.208  0.2615 -0.4816 -2.5126
  910MPD2    H213383   2.571   0.433  16.493  2.1854  2.0114 -0.4146
  910MPD2    H313384   2.405   0.575  16.431 -0.7928 -1.6172  0.8995
  910MPD2     N13385   2.485   0.550  15.991  0.0424 -0.1063  0.4285
  910MPD2    H513386   2.415   0.623  15.982  2.5713  1.8606 -3.2772
  910MPD2    N113387   2.773   0.322  16.320 -0.0644 -0.0423 -0.2777
  910MPD2    H713388   2.830   0.300  16.240  2.3892 -1.6507  1.9162
  911MPD2     C13389   0.680   0.965  15.956  0.2516  0.8490 -0.4770
  911MPD2    C113390   0.676   0.987  16.091 -0.5882  0.5901  0.0875
  911MPD2    C213391   0.583   1.071  16.147  0.2827  0.8321  0.1572
  911MPD2    C313392   0.478   1.119  16.070 -0.0891  0.0883  0.4378
  911MPD2    C413393   0.466   1.081  15.936  0.8806 -0.1091 -0.3017
  911MPD2    C513394   0.570   1.008  15.880 -0.7437  0.0212  0.4736
  911MPD2     H13395   0.592   1.098  16.251 -1.4200 -1.5087  0.9052
  911MPD2    H113396   0.374   1.109  15.885 -0.1345  0.2729  1.7722
  911MPD2    H213397   0.753   0.904  15.904 -0.2135  0.4756 -0.6975
  911MPD2    H313398   0.574   0.975  15.777  1.1793  2.4447 -0.2236
  911MPD2     N13399   0.378   1.211  16.117 -0.0845  0.2648 -0.0020
  911MPD2    H513400   0.304   1.239  16.052  1.3176  2.5584 -0.6031
  911MPD2    N113401   0.764   0.900  16.162 -1.3524 -0.5648  0.1261
  911MPD2    H713402   0.831   0.845  16.109 -1.4429 -0.0743 -0.4936
  912MPD2     C13403   0.165   1.299  15.620 -0.3656 -0.4875 -0.6592
  912MPD2    C113404   0.129   1.248  15.743 -0.0165 -0.1604 -0.0565
  912MPD2    C213405   0.141   1.115  15.758 -0.5313 -0.6361 -0.6674
  912MPD2    C313406   0.182   1.027  15.664 -0.3597 -0.5912 -0.5695
  912MPD2    C413407   0.228   1.087  15.546 -0.5070 -0.2554  0.1693
  912MPD2    C513408   0.222   1.218  15.528 -0.1305 -0.7280  0.0069
  912MPD2     H13409   0.116   1.065  15.851 -0.1925 -2.0483 -1.3300
  912MPD2    H113410   0.292   1.035  15.475  0.9703  0.8990  0.6787
  912MPD2    H213411   0.155   1.404  15.593  0.6863  0.0156  0.8942
  912MPD2    H313412   0.270   1.260  15.440 -0.7071  1.5058  0.7484
  912MPD2     N13413   0.204   0.896  15.694 -0.1742 -0.3638 -0.7375
  912MPD2    H513414   0.183   0.869  15.790  0.7523 -0.4455 -0.5583
  912MPD2    N113415   0.101   1.334  15.849 -0.0805 -0.2319  0.4256
  912MPD2    H713416   0.104   1.435  15.835  0.1141 -0.5032 -1.6039
  913MPD2     C13417   1.334   2.696  10.539  0.4730  0.3322 -0.1193
  913MPD2    C113418   1.411   2.779  10.618 -0.4611 -0.2057 -0.5638
  913MPD2    C213419   1.481   2.885  10.567  0.8716  0.1144  0.0217
  913MPD2    C313420   1.485   2.892  10.428 -0.8237  0.0439  0.9789
  913MPD2    C413421   1.416   2.807  10.351 -0.3702 -0.2824  0.7324
  913MPD2    C513422   1.334   2.708  10.404  0.3597  0.3689 -0.1649
  913MPD2     H13423   1.542   2.949  10.630  3.6333 -2.0916 -0.4535
  913MPD2    H113424   1.427   2.804  10.243 -2.7864 -1.4011  0.5242
  913MPD2    H213425   1.282   2.611  10.582  0.8744 -0.3413 -0.9799
  913MPD2    H313426   1.265   2.651  10.342  3.2886 -1.0877 -2.1041
  913MPD2     N13427   1.572   2.979  10.360 -0.1456 -0.6879 -0.4569
  913MPD2    H513428   1.589   2.955  10.263 -0.3767  0.5420 -0.8016
  913MPD2    N113429   1.400   2.746  10.760  0.0408 -0.5193  0.0336
  913MPD2    H713430   1.353   2.658  10.778  1.3905 -1.2523 -0.0617
  914MPD2     C13431   3.837   2.460  11.698 -0.1267  0.4445  0.7012
  914MPD2    C113432   3.812   2.589  11.749  0.1705  0.4666  0.1408
  914MPD2    C213433   3.822   2.605  11.881  0.5924  0.2435  0.2064
  914MPD2    C313434   3.864   2.506  11.970  0.1410 -0.5940  0.3209
  914MPD2    C413435   3.873   2.381  11.921 -0.6917  0.3602 -0.5141
  914MPD2    C513436   3.844   2.357  11.788 -0.0300 -0.3164  0.3342
  914MPD2     H13437   3.802   2.706  11.916 -2.2161 -0.7492  1.4993
  914MPD2    H113438   3.903   2.303  11.989 -1.0203  0.0641 -0.7126
  914MPD2    H213439   3.837   2.431  11.594 -1.4876 -2.7388  1.5856
  914MPD2    H313440   3.840   2.253  11.757 -3.6316 -0.1444  0.2087
  914MPD2     N13441   3.901   2.541  12.103  0.6681  0.4342 -0.2061
  914MPD2    H513442   3.904   2.641  12.117 -1.3971  0.7967 -2.3252
  914MPD2    N113443   3.771   2.684  11.651 -0.3781 -0.1967  0.3877
  914MPD2    H713444   3.768   2.647  11.557 -0.4798  0.2817  0.2013
  915MPD2     C13445   1.699   2.023  15.726 -0.0844  0.0145 -0.5826
  915MPD2    C113446   1.590   2.101  15.693 -0.6765  0.1015  0.5181
  915MPD2    C213447   1.548   2.204  15.773 -0.0734  0.0057 -0.1534
  915MPD2    C313448   1.618   2.239  15.890  0.4321  0.4852 -0.3844
  915MPD2    C413449   1.720   2.155  15.924  0.0551 -0.1706 -0.1704
  915MPD2    C513450   1.757   2.046  15.847  0.4511 -0.8000  0.1647
  915MPD2     H13451   1.458   2.261  15.752  0.6136  0.8362 -0.7892
  915MPD2    H113452   1.770   2.160  16.020  0.6549 -0.2283 -0.4766
  915MPD2    H213453   1.731   1.935  15.671  1.9226 -0.6373  1.6306
  915MPD2    H313454   1.837   1.989  15.893 -0.7969 -2.5938  0.1132
  915MPD2     N13455   1.570   2.340  15.970  0.7207 -0.6489  0.2128
  915MPD2    H513456   1.487   2.386  15.932  0.9006  0.6048  1.3295
  915MPD2    N113457   1.518   2.050  15.581 -0.0593  0.0922 -0.4312
  915MPD2    H713458   1.537   1.952  15.562 -0.7204 -0.2641  0.7141
  916MPD2     C13459   4.580   0.928  15.801 -0.8493  0.7413 -0.4357
  916MPD2    C113460   4.528   0.816  15.857  0.1177  0.0770 -0.1145
  916MPD2    C213461   4.523   0.698  15.779  0.2806  0.2418 -0.5167
  916MPD2    C313462   4.559   0.710  15.643  0.0962  0.0098  0.3791
  916MPD2    C413463   4.609   0.830  15.586 -0.2468 -0.0217 -0.4060
  916MPD2    C513464   4.619   0.936  15.669  0.3684  0.0867 -0.2411
  916MPD2     H13465   4.487   0.605  15.821 -0.0229  0.5682 -0.0607
  916MPD2    H113466   4.631   0.856  15.483 -2.3208 -0.6875 -1.0176
  916MPD2    H213467   4.590   1.018  15.861 -1.2001  0.3054  0.2663
  916MPD2    H313468   4.651   1.031  15.628  2.5824 -0.3405  0.4926
  916MPD2     N13469   4.517   0.608  15.562  0.1263  0.4024  0.0116
  916MPD2    H513470   4.476   0.528  15.610  0.4717  0.5135  0.4888
  916MPD2    N113471   4.487   0.823  15.993 -0.5880 -0.1208  0.0061
  916MPD2    H713472   4.504   0.910  16.041 -0.6556 -0.5792  0.8647
  917MPD2     C13473   4.341   3.461  11.479  0.2660  0.1226 -0.3150
  917MPD2    C113474   4.421   3.463  11.588  0.1808  0.1686  0.2342
  917MPD2    C213475   4.557   3.504  11.586 -0.2194 -0.9135  0.6606
  917MPD2    C313476   4.611   3.538  11.464 -0.2362  0.7633  0.2954
  917MPD2    C413477   4.525   3.531  11.355 -0.1623 -0.6051  0.1182
  917MPD2    C513478   4.396   3.498  11.359 -0.3879 -0.0366 -0.6297
  917MPD2     H13479   4.602   3.516  11.683 -0.5073  1.2322  0.5371
  917MPD2    H113480   4.582   3.553  11.266 -1.1907  0.9916 -0.1384
  917MPD2    H213481   4.238   3.427  11.485  0.0309  0.7070 -1.0291
  917MPD2    H313482   4.345   3.501  11.263  0.9543  0.3126 -1.3242
  917MPD2     N13483   0.006   3.575  11.443  0.6517 -0.0765 -0.1956
  917MPD2    H513484   0.038   3.595  11.349  1.4467 -1.7880 -0.2897
  917MPD2    N113485   4.359   3.417  11.706 -0.3253  0.0192 -0.8432
  917MPD2    H713486   4.262   3.389  11.698 -0.2832  0.5448 -3.4546
  918MPD2     C13487   4.598   3.637  12.626 -0.0127  0.0123  0.2917
  918MPD2    C113488   4.651   3.662  12.496 -0.3976 -0.1792 -0.4721
  918MPD2    C213489   4.585   3.604  12.392  0.0899 -0.1435  0.3444
  918MPD2    C313490   4.485   3.515  12.415  0.3082  0.4180  0.8092
  918MPD2    C413491   4.436   3.487  12.538 -0.5330  0.5029 -0.7166
  918MPD2    C513492   4.501   3.552  12.646 -0.4786  0.1440  0.0590
  918MPD2     H13493   4.613   3.618  12.289  0.2227 -1.7575  0.1552
  918MPD2    H113494   4.347   3.429  12.558 -0.3058  1.3506  2.7872
  918MPD2    H213495   4.646   3.691  12.706 -0.6215  0.0195  0.6490
  918MPD2    H313496   4.463   3.543  12.747 -1.7290 -0.7528 -0.4825
  918MPD2     N13497   4.437   3.456  12.299  0.0791 -0.5724  0.0829
  918MPD2    H513498   4.484   3.483  12.213  3.3403 -1.5229  1.5639
  918MPD2    N113499   0.026   3.737  12.465 -0.1606 -0.8555 -0.0046
  918MPD2    H713500   0.048   3.739  12.366 -0.9657 -0.9188 -0.1839
  919MPD2     C13501   1.002   2.505  12.080 -0.5150  0.9370  0.8522
  919MPD2    C113502   1.011   2.375  12.035 -0.9370 -0.3177 -0.3211
  919MPD2    C213503   1.021   2.357  11.898 -0.4081  0.2783  0.0081
  919MPD2    C313504   1.045   2.455  11.806 -0.0678  0.3938  0.0757
  919MPD2    C413505   1.043   2.581  11.860  0.6347  0.5802  0.3189
  919MPD2    C513506   1.013   2.607  11.990  0.4834 -0.2915  0.2181
  919MPD2     H13507   1.018   2.251  11.875  0.1219  0.2329  0.1388
  919MPD2    H113508   1.078   2.664  11.799  0.7502  0.8633  0.7736
  919MPD2    H213509   0.987   2.532  12.184 -1.3809  0.4627  0.8494
  919MPD2    H313510   1.035   2.701  12.040 -2.1778  0.9056 -0.8555
  919MPD2     N13511   1.065   2.435  11.671  0.4036  0.2245 -0.4861
  919MPD2    H513512   1.034   2.513  11.614  0.3674  0.3359 -0.3172
  919MPD2    N113513   0.993   2.259  12.107 -0.7753 -0.6035 -0.4049
  919MPD2    H713514   1.007   2.174  12.053 -0.1722 -0.6162 -0.2349
  920MPD2     C13515   0.731   2.892  11.025 -0.2177  0.1655 -0.1401
  920MPD2    C113516   0.756   2.776  10.954  0.5780 -0.2601 -0.1900
  920MPD2    C213517   0.833   2.672  11.013  0.0035  0.0683  0.5316
  920MPD2    C313518   0.882   2.685  11.139  0.5073 -0.1981  0.6203
  920MPD2    C413519   0.853   2.806  11.204 -0.1628  0.0648 -0.5184
  920MPD2    C513520   0.776   2.903  11.151 -0.3052  0.1581  0.2181
  920MPD2     H13521   0.848   2.583  10.952 -0.1052 -0.9368  1.9697
  920MPD2    H113522   0.886   2.820  11.306  1.6001 -0.0822 -1.0788
  920MPD2    H213523   0.675   2.974  10.980  1.8623  0.7525 -1.6333
  920MPD2    H313524   0.758   2.991  11.212 -0.8379 -0.5538  1.0804
  920MPD2     N13525   0.954   2.585  11.211  0.9543  0.2683  0.4214
  920MPD2    H513526   0.970   2.597  11.311 -0.0961 -3.1276  0.9862
  920MPD2    N113527   0.707   2.757  10.826  0.1658 -0.0794 -0.1960
  920MPD2    H713528   0.737   2.668  10.786 -1.4620 -1.3250  1.3818
  921MPD2     C13529   1.377   1.193  16.847  0.3491 -0.2865 -0.1677
  921MPD2    C113530   1.432   1.075  16.808 -0.4338  0.1076  0.5914
  921MPD2    C213531   1.354   0.986  16.733  1.0602  0.3548  0.1929
  921MPD2    C313532   1.222   1.023  16.696  0.3988 -0.2502  0.3450
  921MPD2    C413533   1.170   1.143  16.742  0.2454  0.3563 -0.0569
  921MPD2    C513534   1.249   1.225  16.814  0.5620 -0.2611  0.5573
  921MPD2     H13535   1.392   0.888  16.707 -2.4290 -0.9445 -0.0579
  921MPD2    H113536   1.067   1.169  16.722  0.0783 -0.2765 -0.0457
  921MPD2    H213537   1.436   1.263  16.905 -1.2676  1.9034 -1.1939
  921MPD2    H313538   1.203   1.321  16.836  2.7066  1.0394 -0.6411
  921MPD2     N13539   1.137   0.944  16.616  0.7277 -0.3745  0.4615
  921MPD2    H513540   1.044   0.983  16.602  0.2703 -1.6991 -0.1329
  921MPD2    N113541   1.570   1.055  16.818  0.3077 -0.0014 -0.0534
  921MPD2    H713542   1.632   1.132  16.843 -1.9031  1.0351  2.2197
  922MPD2     C13543   2.207   3.664  16.967 -0.1188  0.4079 -0.1366
  922MPD2    C113544   2.153   3.693  17.090 -0.0106  0.1382  0.5005
  922MPD2    C213545   2.098   3.596  17.168  0.3761  0.3408 -0.2112
  922MPD2    C313546   2.087   3.467  17.124  0.5614  0.3349 -0.2508
  922MPD2    C413547   2.133   3.434  16.997 -0.5177 -0.5628 -0.3670
  922MPD2    C513548   2.194   3.533  16.924 -0.2380  0.5295 -0.3927
  922MPD2     H13549   2.079   3.618  17.273  0.0636 -3.5161  0.5429
  922MPD2    H113550   2.107   3.339  16.952 -1.0845 -0.2293 -0.7499
  922MPD2    H213551   2.244   3.741  16.901 -0.8636 -0.7770 -1.9310
  922MPD2    H313552   2.229   3.510  16.824  2.2401 -1.1258  0.8687
  922MPD2     N13553   2.018   3.376  17.207 -0.4158 -0.0350 -0.0083
  922MPD2    H513554   1.982   3.417  17.293  0.3667 -0.8408  0.7106
  922MPD2    N113555   2.143   3.824  17.141 -0.3499  0.6860 -0.3829
  922MPD2    H713556   2.098   3.833  17.232 -0.6890  0.7963 -0.5613
  923MPD2     C13557   3.679   1.701   8.743  1.1068  0.3830 -0.2351
  923MPD2    C113558   3.604   1.754   8.846  0.1962  0.1324  0.6715
  923MPD2    C213559   3.629   1.716   8.979  0.2442  0.6095  0.7104
  923MPD2    C313560   3.725   1.619   8.999 -0.0949  0.8095 -0.1394
  923MPD2    C413561   3.799   1.565   8.897  0.0305  0.0520 -0.4566
  923MPD2    C513562   3.776   1.605   8.772 -0.3161 -0.0471  0.0613
  923MPD2     H13563   3.566   1.751   9.060 -1.6709  1.1506 -1.0127
  923MPD2    H113564   3.866   1.479   8.898 -0.6732 -0.4971 -1.1795
  923MPD2    H213565   3.662   1.726   8.639 -1.0635  0.9893  0.2768
  923MPD2    H313566   3.835   1.562   8.692 -0.4969  1.2098 -0.7609
  923MPD2     N13567   3.759   1.570   9.127 -0.0745 -0.8544  0.2752
  923MPD2    H513568   3.841   1.510   9.130 -0.4019 -1.2795  0.8327
  923MPD2    N113569   3.491   1.834   8.813 -0.1136 -0.3370 -0.1218
  923MPD2    H713570   3.480   1.846   8.713 -3.1204  2.9660  0.6080
  924MPD2     C13571   3.691   3.749  16.031  0.3596 -0.6270 -0.1274
  924MPD2    C113572   3.656   3.754  16.166 -0.1442 -0.5665  0.6069
  924MPD2    C213573   3.680   3.865  16.247  0.2392 -0.2439 -0.2263
  924MPD2    C313574   3.711   3.986  16.179  0.1423 -0.2462  0.1659
  924MPD2    C413575   3.724   3.981  16.040 -0.0512  0.3236 -0.6845
  924MPD2    C513576   3.719   3.870  15.966  0.4602 -0.0176 -0.0853
  924MPD2     H13577   3.672   3.867  16.355 -0.5903 -0.9761 -0.2729
  924MPD2    H113578   3.735   4.070  15.980 -1.1392 -0.0175 -1.3729
  924MPD2    H213579   3.683   3.659  15.970 -0.2459 -0.6167 -0.0632
  924MPD2    H313580   3.741   3.869  15.860 -0.0827  2.3182 -0.2045
  924MPD2     N13581   3.732   4.106  16.251 -0.7159 -0.7020  0.2929
  924MPD2    H513582   3.743   4.192  16.199  2.1676 -1.2146  0.0241
  924MPD2    N113583   3.624   3.628  16.223  0.0161  0.3379 -0.3228
  924MPD2    H713584   3.650   3.541  16.177  1.7295  0.3140  0.7028
  925MPD2     C13585   2.476   1.813  14.585  0.7118  0.7008 -0.1023
  925MPD2    C113586   2.554   1.701  14.603  0.2848 -0.2414 -0.0809
  925MPD2    C213587   2.561   1.654  14.735  0.3953  0.3975 -1.4122
  925MPD2    C313588   2.495   1.721  14.840  0.0526  0.1296  0.0920
  925MPD2    C413589   2.421   1.829  14.809 -0.3596 -0.3808 -0.5319
  925MPD2    C513590   2.400   1.871  14.682  0.7423 -0.3117 -1.0554
  925MPD2     H13591   2.613   1.565  14.768  0.3613  1.6173  2.0433
  925MPD2    H113592   2.364   1.866  14.893  3.2068 -0.2985  1.8369
  925MPD2    H213593   2.466   1.851  14.484 -1.9999 -0.7229 -0.3566
  925MPD2    H313594   2.336   1.953  14.654 -0.6169 -0.5542  1.3425
  925MPD2     N13595   2.484   1.664  14.971  0.8171  0.3281  0.0764
  925MPD2    H513596   2.423   1.701  15.043  0.7048  1.5587 -0.6411
  925MPD2    N113597   2.613   1.633  14.493  0.1580  0.2984 -0.4661
  925MPD2    H713598   2.656   1.543  14.513 -2.1743 -0.6586  0.2449
  926MPD2     C13599   0.595   4.516  13.221 -0.6762  0.3054 -0.1309
  926MPD2    C113600   0.659   4.635  13.250 -0.0675  0.4191  0.4897
  926MPD2    C213601   0.725   4.702  13.151 -0.1787  0.2236 -0.6208
  926MPD2    C313602   0.706   4.657  13.017  0.3069  0.0894 -0.0267
  926MPD2    C413603   0.632   4.544  12.988 -0.3314  0.0260 -0.2814
  926MPD2    C513604   0.582   4.472  13.093  0.0633  0.2442 -0.5345
  926MPD2     H13605   0.752   0.067  13.177 -0.7152 -0.0389  1.0163
  926MPD2    H113606   0.616   4.502  12.889  1.2243 -0.1188 -0.4795
  926MPD2    H213607   0.536   4.454  13.288  1.4486 -1.4584  0.1249
  926MPD2    H313608   0.522   4.383  13.079 -1.4557  1.1011  0.5484
  926MPD2     N13609   0.743   0.002  12.908  0.0301 -0.1422 -0.0141
  926MPD2    H513610   0.699   4.724  12.817  0.0460 -1.4673  0.1936
  926MPD2    N113611   0.643   4.699  13.372  0.4011  0.4808  0.3193
  926MPD2    H713612   0.695   0.045  13.401 -1.3471  1.4209  0.7525
  927MPD2     C13613   0.591   2.196   0.220  0.1121 -0.0013  0.6961
  927MPD2    C113614   0.694   2.107   0.238  0.0514 -0.2796  0.1658
  927MPD2    C213615   0.794   2.112   0.141  0.2294 -0.3163  0.0340
  927MPD2    C313616   0.777   2.190   0.033 -0.3872  0.3865  0.1648
  927MPD2    C413617   0.659   2.265   0.013 -0.2210 -0.5824 -0.3097
  927MPD2    C513618   0.570   2.273   0.115  0.8369  0.1872  0.0449
  927MPD2     H13619   0.884   2.054   0.158  1.5292  1.2822 -1.5449
  927MPD2    H113620   0.637   2.328  17.673 -1.0974 -1.1797 -0.5311
  927MPD2    H213621   0.519   2.199   0.301 -0.1780  1.1189  0.3970
  927MPD2    H313622   0.487   2.343   0.113 -0.7859 -1.7022  0.4139
  927MPD2     N13623   0.881   2.185  17.688 -0.0722 -0.1742  0.3935
  927MPD2    H513624   0.954   2.117  17.706  2.3544  2.3146 -0.1432
  927MPD2    N113625   0.702   2.023   0.352 -1.3329  0.3158 -0.0281
  927MPD2    H713626   0.618   2.016   0.410 -0.5112  1.6705  1.3144
  928MPD2     C13627   3.090   0.291   0.507 -0.0604 -0.0092  0.3474
  928MPD2    C113628   3.164   0.350   0.610  0.4359  0.1764 -0.0824
  928MPD2    C213629   3.280   0.422   0.581  0.1726  0.5632  0.2313
  928MPD2    C313630   3.332   0.417   0.455 -0.7237  0.2154 -0.5007
  928MPD2    C413631   3.255   0.362   0.357  0.4842 -0.4952  0.2594
  928MPD2    C513632   3.139   0.291   0.377 -0.1292  0.1473 -0.4378
  928MPD2     H13633   3.323   0.496   0.648  1.3416 -0.3652  0.5016
  928MPD2    H113634   3.272   0.375   0.251 -2.8238  3.2422  0.2050
  928MPD2    H213635   2.999   0.236   0.530 -0.8574  1.7295  1.3416
  928MPD2    H313636   3.081   0.254   0.293 -1.7800  0.5467  0.5341
  928MPD2     N13637   3.460   0.470   0.416  0.1874 -0.1702 -0.0242
  928MPD2    H513638   3.478   0.470   0.317 -0.8482  2.0908 -0.2117
  928MPD2    N113639   3.099   0.351   0.740  0.2792  0.0219  0.2414
  928MPD2    H713640   3.007   0.309   0.748  0.1805  0.1373 -0.2893
  929MPD2     C13641   3.550   1.311   8.995 -0.1576 -0.0823 -1.3724
  929MPD2    C113642   3.552   1.268   9.123  0.4441 -0.2404 -0.3502
  929MPD2    C213643   3.458   1.316   9.209  0.1888  0.2224  0.0698
  929MPD2    C313644   3.374   1.416   9.164  0.4749  0.5659 -0.0347
  929MPD2    C413645   3.368   1.458   9.037  0.3250  0.1081 -0.5808
  929MPD2    C513646   3.456   1.406   8.953  0.4901  1.0171 -0.5427
  929MPD2     H13647   3.458   1.298   9.316 -2.9941  0.6115  0.1413
  929MPD2    H113648   3.298   1.538   9.015 -0.6237 -0.5738 -0.0632
  929MPD2    H213649   3.631   1.267   8.938 -0.3563 -2.2116 -0.0124
  929MPD2    H313650   3.468   1.451   8.854  0.5503  1.4872 -0.3230
  929MPD2     N13651   3.281   1.475   9.252  0.0782 -0.6268  0.0250
  929MPD2    H513652   3.221   1.543   9.206 -0.1637 -0.5498  0.4548
  929MPD2    N113653   3.666   1.194   9.170 -0.2514  0.2192 -0.2802
  929MPD2    H713654   3.735   1.173   9.098 -1.5902 -1.4478 -1.0696
  930MPD2     C13655   0.143   2.969  14.197  0.5182 -0.3364 -0.6786
  930MPD2    C113656   0.276   2.931  14.196  0.2236 -0.0730  0.5086
  930MPD2    C213657   0.353   2.963  14.087 -0.1396 -0.4024 -0.5619
  930MPD2    C313658   0.302   3.036  13.982 -0.4757  0.2944 -0.4000
  930MPD2    C413659   0.171   3.068  13.984 -0.1042  0.4613  0.0220
  930MPD2    C513660   0.092   3.044  14.094  0.0004 -0.2988  0.1716
  930MPD2     H13661   0.460   2.946  14.095  0.0914  0.1169 -2.4976
  930MPD2    H113662   0.129   3.133  13.908  0.4141  1.4607  0.5781
  930MPD2    H213663   0.083   2.955  14.285 -0.1046 -0.7310 -1.1675
  930MPD2    H313664   4.725   3.078  14.099 -0.4912 -2.0283  1.8927
  930MPD2     N13665   0.370   3.080  13.870 -0.5248 -0.5492  0.3460
  930MPD2    H513666   0.321   3.139  13.804  1.5006  0.2185 -0.4526
  930MPD2    N113667   0.334   2.885  14.316 -0.7003 -0.0754 -0.3747
  930MPD2    H713668   0.302   2.916  14.408  0.3440 -0.6564  0.1872
  931MPD2     C13669   1.261   1.526   0.559 -0.1296 -0.1479  0.0298
  931MPD2    C113670   1.160   1.519   0.647 -0.0291  0.1907  0.6406
  931MPD2    C213671   1.168   1.423   0.752  0.8923 -0.6130  0.9691
  931MPD2    C313672   1.268   1.327   0.757 -0.6549 -0.0491 -0.4760
  931MPD2    C413673   1.367   1.338   0.660  0.6029  0.1958 -0.4639
  931MPD2    C513674   1.361   1.437   0.568  0.0344 -0.3066  0.2999
  931MPD2     H13675   1.073   1.407   0.802 -0.2735  1.0817 -0.7009
  931MPD2    H113676   1.452   1.272   0.647  1.4511  1.2403 -0.2449
  931MPD2    H213677   1.276   1.608   0.490 -0.1842 -0.7055 -0.6316
  931MPD2    H313678   1.446   1.446   0.501 -0.1587  1.4624  0.2942
  931MPD2     N13679   1.271   1.220   0.838  0.1403 -0.0112  0.0509
  931MPD2    H513680   1.338   1.144   0.839 -0.3052 -0.4025  0.1864
  931MPD2    N113681   1.060   1.612   0.637  0.2185  0.0514  0.1696
  931MPD2    H713682   1.063   1.666   0.551  0.4271  0.0645  0.1840
  932MPD2     C13683   3.259   2.278  10.711  0.1925  0.2533 -0.0860
  932MPD2    C113684   3.167   2.289  10.811 -0.7812 -0.5617 -0.4955
  932MPD2    C213685   3.164   2.183  10.898 -0.2815  0.6453 -0.4963
  932MPD2    C313686   3.234   2.060  10.877 -0.8602 -0.0196  0.2874
  932MPD2    C413687   3.309   2.061  10.765  0.0689  0.1438 -0.9048
  932MPD2    C513688   3.322   2.166  10.685  0.2600  0.0557  0.5415
  932MPD2     H13689   3.101   2.204  10.984 -0.2461  1.9311 -0.7845
  932MPD2    H113690   3.365   1.971  10.745  0.2988 -0.5723  2.8182
  932MPD2    H213691   3.272   2.360  10.640 -0.9704 -0.5065 -1.1741
  932MPD2    H313692   3.390   2.173  10.601 -0.9114  0.8654 -0.3371
  932MPD2     N13693   3.238   1.947  10.965 -0.1152  0.0764 -0.2117
  932MPD2    H513694   3.297   1.868  10.940 -0.3276  0.3255 -1.4765
  932MPD2    N113695   3.099   2.415  10.841 -0.4658 -0.0160 -0.7392
  932MPD2    H713696   3.073   2.430  10.938 -0.4826  1.9149 -1.0531
  933MPD2     C13697   2.531   0.577   0.659  0.1988 -0.3601  0.3533
  933MPD2    C113698   2.597   0.658   0.750  0.1982 -0.0927 -0.0508
  933MPD2    C213699   2.577   0.802   0.755 -0.6053  0.4262 -0.5472
  933MPD2    C313700   2.507   0.859   0.648 -0.5814 -0.5264  0.6269
  933MPD2    C413701   2.437   0.778   0.561 -0.6294  0.5582 -0.4996
  933MPD2    C513702   2.444   0.644   0.577  0.2296  0.0233 -0.4915
  933MPD2     H13703   2.628   0.864   0.828  1.1877 -1.6244 -0.0291
  933MPD2    H113704   2.369   0.826   0.492 -1.4196 -0.4437 -0.4116
  933MPD2    H213705   2.533   0.469   0.653 -0.5493 -0.2905 -1.1453
  933MPD2    H313706   2.369   0.581   0.529 -0.1299 -0.0632  0.1753
  933MPD2     N13707   2.513   0.999   0.634 -0.4779 -0.0558  0.5672
  933MPD2    H513708   2.565   1.057   0.699 -0.5802  2.5823 -1.6566
  933MPD2    N113709   2.678   0.590   0.845 -0.1167 -0.1670  0.1064
  933MPD2    H713710   2.681   0.488   0.851  1.8433 -0.1219 -0.0547
  934MPD2     C13711   4.150   3.492   1.192  0.7105 -0.1907 -0.2090
  934MPD2    C113712   4.237   3.417   1.114  0.0477  0.2419  1.1062
  934MPD2    C213713   4.207   3.282   1.089  0.0330  0.0921  0.4079
  934MPD2    C313714   4.087   3.233   1.135 -0.1177 -0.2635 -0.6158
  934MPD2    C413715   3.998   3.311   1.205 -0.3738 -0.1576 -0.0659
  934MPD2    C513716   4.030   3.441   1.243 -0.0999  0.0596 -0.7287
  934MPD2     H13717   4.286   3.228   1.038 -0.7978 -1.8902  1.2065
  934MPD2    H113718   3.901   3.272   1.235 -0.5352 -1.4070 -2.2155
  934MPD2    H213719   4.168   3.597   1.207 -0.0266  0.3627 -3.1016
  934MPD2    H313720   3.967   3.496   1.312 -0.2791 -0.5625 -0.3980
  934MPD2     N13721   4.042   3.096   1.119  0.4024  0.0280 -0.5037
  934MPD2    H513722   3.953   3.069   1.159  0.0935 -1.1015 -1.9630
  934MPD2    N113723   4.365   3.478   1.070  0.7707  0.7128 -0.1341
  934MPD2    H713724   4.445   3.420   1.047  0.1134  1.4261 -4.2289
  935MPD2     C13725   4.399   2.267   1.415  0.0094 -0.0787  0.1207
  935MPD2    C113726   4.290   2.217   1.349 -0.0709 -0.2171  0.3764
  935MPD2    C213727   4.217   2.298   1.259 -0.6779 -0.1098  0.5241
  935MPD2    C313728   4.254   2.433   1.238 -0.1003 -0.3626  0.3739
  935MPD2    C413729   4.374   2.469   1.295  0.3368  0.1280 -0.4997
  935MPD2    C513730   4.433   2.400   1.394  0.3925  0.2438  0.0925
  935MPD2     H13731   4.128   2.256   1.214 -1.4845  0.5605  1.4715
  935MPD2    H113732   4.426   2.563   1.277 -0.4089  0.8235  0.9279
  935MPD2    H213733   4.468   2.212   1.478  0.8381 -0.5361 -1.1713
  935MPD2    H313734   4.519   2.446   1.442  1.1170 -0.8124 -0.1746
  935MPD2     N13735   4.190   2.528   1.161 -0.4008 -0.4155  0.1433
  935MPD2    H513736   4.236   2.618   1.155 -0.1810 -0.4747  1.0600
  935MPD2    N113737   4.250   2.086   1.362 -0.1975 -0.1165  0.1569
  935MPD2    H713738   4.171   2.059   1.304  0.5413  1.0751 -1.4207
  936MPD2     C13739   2.636   4.642  12.335  0.1392 -0.0706  0.3383
  936MPD2    C113740   2.717   4.655  12.444 -0.0091  0.3671 -1.0256
  936MPD2    C213741   2.848   4.700  12.431  0.0573 -0.2027  0.3632
  936MPD2    C313742   2.910   4.718  12.307 -0.0544 -0.9619 -0.4967
  936MPD2    C413743   2.831   4.704  12.197 -0.1495 -0.5097 -0.1076
  936MPD2    C513744   2.703   4.653  12.216  0.2916  0.0453  0.1214
  936MPD2     H13745   2.903   4.708  12.524 -0.3896 -3.1874  0.8704
  936MPD2    H113746   2.867   4.718  12.096 -0.1626  0.7285  0.0526
  936MPD2    H213747   2.532   4.614  12.341 -0.8445  2.9672 -2.7930
  936MPD2    H313748   2.647   4.621  12.129  0.0622  2.0191 -0.4555
  936MPD2     N13749   3.048   0.021  12.291 -0.0147 -1.1514 -0.6862
  936MPD2    H513750   3.089   0.039  12.200  0.8982 -0.3772 -0.1185
  936MPD2    N113751   2.678   4.654  12.580  0.6956  0.3925  0.2133
  936MPD2    H713752   2.739   4.701  12.646  3.0290  0.9457 -2.3264
  937MPD2     C13753   0.991   1.709  11.809 -0.4697 -0.5784  0.3012
  937MPD2    C113754   1.020   1.834  11.854  0.1842 -0.7600  0.5660
  937MPD2    C213755   1.119   1.912  11.793  0.7557 -0.6578 -0.0561
  937MPD2    C313756   1.179   1.862  11.682 -0.3443  0.2637  0.1843
  937MPD2    C413757   1.151   1.738  11.636  0.3754  0.5171  0.1107
  937MPD2    C513758   1.054   1.662  11.697 -0.1407  1.0220  0.0339
  937MPD2     H13759   1.142   2.012  11.829  2.2714 -0.8974 -0.3408
  937MPD2    H113760   1.202   1.695  11.550  0.1587 -0.8881  0.6750
  937MPD2    H213761   0.936   1.637  11.868 -1.6206 -0.8305 -1.0786
  937MPD2    H313762   1.033   1.561  11.665  0.5717 -0.1265  3.2503
  937MPD2     N13763   1.278   1.938  11.624 -0.2626 -0.3705  0.2417
  937MPD2    H513764   1.295   2.024  11.676  2.3080  0.6812 -2.2886
  937MPD2    N113765   0.983   1.878  11.980  0.1663 -0.2889  0.0063
  937MPD2    H713766   1.025   1.968  12.003  1.3737 -1.0253  0.6719
  938MPD2     C13767   3.531   2.217   0.444  0.1617 -0.2247  0.4918
  938MPD2    C113768   3.484   2.306   0.542 -0.2907  0.3789  0.7225
  938MPD2    C213769   3.441   2.257   0.661 -0.2023  0.7417 -0.8138
  938MPD2    C313770   3.439   2.116   0.681 -0.5142  0.1787 -0.8613
  938MPD2    C413771   3.482   2.034   0.583  0.1951  0.3072  0.1563
  938MPD2    C513772   3.540   2.087   0.475 -0.3426 -0.0128  0.1213
  938MPD2     H13773   3.405   2.318   0.744  0.4455 -0.0871  0.0758
  938MPD2    H113774   3.474   1.926   0.590  0.4852  0.1978 -1.0610
  938MPD2    H213775   3.568   2.247   0.346 -2.0008  0.6434 -0.0474
  938MPD2    H313776   3.583   2.020   0.401  2.9415  0.5414  1.5331
  938MPD2     N13777   3.386   2.059   0.799  0.1296 -0.1625 -0.0419
  938MPD2    H513778   3.401   1.958   0.802 -0.1129 -0.1851  0.4300
  938MPD2    N113779   3.461   2.441   0.516  0.0881  0.0196  0.7013
  938MPD2    H713780   3.410   2.487   0.591  0.8512 -0.9222  1.8081
  939MPD2     C13781   4.593   3.247   0.082  0.4410  0.0999  0.1094
  939MPD2    C113782   4.671   3.346   0.041  0.1589 -0.1429  0.4096
  939MPD2    C213783   0.025   3.327  17.688  0.2979  0.1898 -0.1518
  939MPD2    C313784   0.039   3.202  17.633 -0.5711  0.4278  0.3503
  939MPD2    C413785   4.701   3.098  17.683 -0.1964 -0.1177 -0.6516
  939MPD2    C513786   4.616   3.119   0.044  0.5142  0.8774 -0.4132
  939MPD2     H13787   0.074   3.412  17.643  2.8242 -0.2427  1.7500
  939MPD2    H113788   4.718   2.995  17.653  1.0713 -0.6066  1.6912
  939MPD2    H213789   4.519   3.266   0.159 -1.1930  1.9543 -1.9372
  939MPD2    H313790   4.552   3.043   0.088  2.7865 -1.4715 -1.1391
  939MPD2     N13791   0.119   3.182  17.514 -0.0187 -0.1209  0.1076
  939MPD2    H513792   0.108   3.087  17.480  1.4832 -0.2820  0.0316
  939MPD2    N113793   4.637   3.477   0.087  0.2036  0.3787 -0.0845
  939MPD2    H713794   4.565   3.481   0.158 -1.0158 -2.8116 -1.1449
  940MPD2     C13795   3.583   0.436  13.208  0.1013  0.0380  0.1015
  940MPD2    C113796   3.628   0.339  13.290  0.4042  0.7673 -0.0387
  940MPD2    C213797   3.670   0.222  13.227 -0.3139 -0.0730 -0.1051
  940MPD2    C313798   3.639   0.198  13.092 -0.4212  0.2927  0.0486
  940MPD2    C413799   3.593   0.300  13.013  0.5315 -0.8005 -0.6311
  940MPD2    C513800   3.562   0.418  13.071 -0.2071  0.7636  0.3842
  940MPD2     H13801   3.704   0.141  13.290  0.2788  0.7660  0.6579
  940MPD2    H113802   3.566   0.282  12.909  2.3409  1.3452 -1.4549
  940MPD2    H213803   3.549   0.533  13.243 -0.6576 -0.1483 -0.1206
  940MPD2    H313804   3.526   0.500  13.010  0.7472 -0.0505 -1.2741
  940MPD2     N13805   3.676   0.082  13.019  0.6730 -0.5669  0.5951
  940MPD2    H513806   3.648   0.066  12.922  2.9337  2.2158 -0.5029
  940MPD2    N113807   3.638   0.349  13.429 -0.2209  0.4290 -0.1151
  940MPD2    H713808   3.643   0.264  13.484  1.3432 -0.9927 -2.4756
  941MPD2     C13809   3.041   0.149   9.541 -0.6198 -0.1024 -0.0152
  941MPD2    C113810   3.102   0.072   9.634 -0.0406  0.4736 -0.0648
  941MPD2    C213811   3.022   0.002   9.723 -0.4184  0.1705  0.3727
  941MPD2    C313812   2.887   4.736   9.699 -0.1016  0.5741  0.1164
  941MPD2    C413813   2.828   0.080   9.601 -0.1242  0.0032 -0.3477
  941MPD2    C513814   2.909   0.161   9.528  0.3061  0.2021 -0.7372
  941MPD2     H13815   3.073   4.677   9.796 -0.2521  1.1507  1.0719
  941MPD2    H113816   2.721   0.076   9.588  0.0112 -1.0205 -1.1695
  941MPD2    H213817   3.098   0.210   9.472  0.1178 -2.1312 -1.1978
  941MPD2    H313818   2.862   0.223   9.453  1.0729 -0.1907 -1.5354
  941MPD2     N13819   2.800   4.671   9.791  0.0597  0.7527  0.0443
  941MPD2    H513820   2.703   4.698   9.778 -0.8965 -1.6402  2.1696
  941MPD2    N113821   3.242   0.059   9.639 -0.1110 -0.0569 -0.2621
  941MPD2    H713822   3.285   0.009   9.717 -0.7794  0.4250  0.4182
  942MPD2     C13823   2.661   1.357   9.317  0.1175  0.6202  0.2826
  942MPD2    C113824   2.762   1.401   9.225 -0.1820  0.8009 -0.0381
  942MPD2    C213825   2.875   1.324   9.198  0.1229  0.6370  0.0053
  942MPD2    C313826   2.888   1.203   9.260 -0.5373 -0.2854  0.2449
  942MPD2    C413827   2.796   1.155   9.348 -0.6621  0.8723 -0.1864
  942MPD2    C513828   2.682   1.236   9.373 -0.1004 -0.4610  0.1390
  942MPD2     H13829   2.938   1.360   9.117  0.7185 -0.3086  0.0527
  942MPD2    H113830   2.820   1.061   9.396 -0.5757  0.2643 -1.3997
  942MPD2    H213831   2.584   1.427   9.348 -0.7370  0.7222 -2.0049
  942MPD2    H313832   2.608   1.200   9.444 -1.3774  1.5472 -0.1651
  942MPD2     N13833   3.011   1.120   9.245 -0.6679  0.1218 -0.9466
  942MPD2    H513834   3.009   1.030   9.292 -0.1187  0.7933  0.3622
  942MPD2    N113835   2.748   1.522   9.151 -0.4026  0.0269 -0.1067
  942MPD2    H713836   2.825   1.540   9.087  0.5089  0.3992  1.0983
  943MPD2     C13837   2.019   0.064  10.117  0.2529  0.1118 -0.3824
  943MPD2    C113838   1.954   4.692  10.168 -0.1104 -0.9017  1.0055
  943MPD2    C213839   1.843   4.714  10.236  0.0438 -0.4910 -0.3084
  943MPD2    C313840   1.807   0.110  10.283  1.0466  0.9656  0.3725
  943MPD2    C413841   1.891   0.212  10.251 -0.9835  0.1684  0.6981
  943MPD2    C513842   1.995   0.192  10.164  0.1698 -0.2565  0.0945
  943MPD2     H13843   1.783   4.636  10.281 -1.1331  0.8340  0.4351
  943MPD2    H113844   1.883   0.315  10.282 -0.7825  0.3206  0.2385
  943MPD2    H213845   2.104   0.054  10.050  0.0103 -0.8536 -0.5482
  943MPD2    H313846   2.051   0.276  10.125  0.6411 -0.2465  0.8015
  943MPD2     N13847   1.698   0.148  10.361 -1.0637 -0.4509 -0.2716
  943MPD2    H513848   1.692   0.246  10.388  0.4399 -0.6188  0.6792
  943MPD2    N113849   2.001   4.567  10.127  0.0836 -0.0616  0.0818
  943MPD2    H713850   2.091   4.562  10.081  0.0218 -0.4321 -0.0057
  944MPD2     C13851   0.957   3.481  11.069  0.3638  0.1045 -0.2114
  944MPD2    C113852   1.028   3.521  11.177  0.3822  0.2321  0.1574
  944MPD2    C213853   1.019   3.649  11.216  0.2790 -0.1573 -0.9382
  944MPD2    C313854   0.917   3.731  11.177 -0.6793  0.4782  0.9941
  944MPD2    C413855   0.834   3.681  11.075  0.7070 -0.5167  0.5734
  944MPD2    C513856   0.854   3.558  11.021  0.0011 -0.0575 -0.2320
  944MPD2     H13857   1.078   3.687  11.298 -0.1190  1.1093 -1.2346
  944MPD2    H113858   0.745   3.736  11.045  0.6524  1.2268  4.0345
  944MPD2    H213859   0.970   3.383  11.024  0.8773  0.3641 -0.6132
  944MPD2    H313860   0.801   3.520  10.935  0.8019  1.9995 -1.6439
  944MPD2     N13861   0.899   3.844  11.252 -0.0526 -0.4790  0.4512
  944MPD2    H513862   0.957   3.864  11.333 -0.3365  1.6949  0.1005
  944MPD2    N113863   1.101   3.429  11.256  0.0646  0.2760  0.1858
  944MPD2    H713864   1.140   3.346  11.211  0.1452  1.5135 -2.0440
    1TMC1    C113865   4.236   0.012  15.495 -0.0351  0.0865  0.9005
    1TMC1    C213866   4.307   4.655  15.431 -0.3444 -0.2301  0.7413
    1TMC1    C313867   4.290   4.531  15.485  0.2652 -0.2863  0.5783
    1TMC1    C413868   4.143   4.724  15.592  0.6220  0.2501 -0.9592
    1TMC1    C513869   4.138   4.599  15.643  0.0785  0.4314 -0.1998
    1TMC1    C613870   4.205   4.497  15.591 -0.0153  0.0835 -0.0062
    1TMC1     C13871   4.228   0.146  15.446  0.0984 -0.9969 -0.6952
    1TMC1     O13872   4.199   0.229  15.533 -0.0752  0.3346 -0.2887
    1TMC1     H13873   4.378   4.669  15.350 -1.9257  1.8405 -0.2687
    1TMC1    H113874   4.075   0.064  15.626  0.3929  1.0479 -3.1906
    1TMC1    H213875   4.209   4.400  15.639  1.4077  0.7193  1.1697
    1TMC1    C713876   4.037   4.572  15.745 -0.6450 -0.4956 -0.5453
    1TMC1    C813877   4.366   4.430  15.413 -0.3680 -0.1964  0.0557
    1TMC1    O113878   3.990   4.456  15.768 -0.4247 -0.3219  0.6298
    1TMC1    O213879   4.454   4.451  15.333  0.2543 -0.2745  0.3929
    1TMC1    O313880   4.060   4.660  15.845 -0.0162  0.3249  0.4888
    1TMC1    H313881   4.116   4.733  15.811  1.7397 -0.2334  2.1434
    1TMC1    O513882   4.335   4.303  15.462  0.1251  0.6462 -0.4568
    1TMC1    H513883   4.249   4.297  15.509 -0.5832  1.9986 -1.5870
    2MPD2     C13884   4.250   0.488  15.056 -0.4883  0.0648 -0.1722
    2MPD2    C113885   4.281   0.363  15.011  0.4971 -0.2971 -0.4876
    2MPD2    C213886   4.278   0.256  15.095  0.1317  0.0534 -0.6811
    2MPD2    C313887   4.253   0.271  15.227 -0.0218 -0.3744 -0.4509
    2MPD2    C413888   4.238   0.393  15.275  0.8392  0.0724 -0.4108
    2MPD2    C513889   4.225   0.498  15.192  0.2561  0.2047 -0.0263
    2MPD2     H13890   4.298   0.154  15.066 -0.4289 -0.1458 -0.3685
    2MPD2    H113891   4.227   0.413  15.381 -0.0137  1.1825 -0.7032
    2MPD2    H213892   4.229   0.585  15.013  0.2113 -0.1227 -0.9265
    2MPD2    H313893   4.208   0.598  15.229 -1.5360  0.5260 -1.6989
    2MPD2     N13894   4.246   0.157  15.313  1.1321 -0.2341 -0.4858
    2MPD2    H513895   4.254   0.069  15.263  0.0384  0.7620 -2.4183
    2MPD2    N113896   4.301   0.355  14.878 -0.9797 -0.3817 -0.5751
    2MPD2    H713897   4.323   0.443  14.832 -1.2324 -0.4484 -0.8225
    3TMC2    C113898   4.375   0.255  14.675 -0.0849 -0.0683  0.2691
    3TMC2    C213899   4.459   0.364  14.659 -0.2888 -0.0377 -0.5292
    3TMC2    C313900   4.464   0.425  14.534 -0.4410  0.6497  0.4179
    3TMC2    C413901   4.300   0.203  14.583 -0.0463  0.5678  0.0340
    3TMC2    C513902   4.317   0.258  14.459 -0.6984  0.0872 -0.6907
    3TMC2    C613903   4.392   0.372  14.436 -0.1393 -0.1693  0.6166
    3TMC2     C13904   4.328   0.235  14.811 -0.2517 -0.0378 -0.4574
    3TMC2     O13905   4.287   0.126  14.839  0.2699  0.1352 -0.3186
    3TMC2     H13906   4.521   0.387  14.745  0.9093  0.3388 -1.4966
    3TMC2    H113907   4.235   0.119  14.605  0.4758  0.4075  0.9545
    3TMC2    H213908   4.400   0.425  14.342  2.0139  0.2914  1.0568
    3TMC2    C713909   4.249   0.188  14.352 -0.0608 -0.3352  0.1990
    3TMC2    C813910   4.545   0.542  14.514  0.1207  0.1995 -0.4347
    3TMC2    O113911   4.213   0.079  14.388  0.5597  0.0848 -0.1959
    3TMC2    O213912   4.554   0.603  14.411 -0.3311  0.2277 -0.0948
    3TMC2    O513913   4.580   0.585  14.641  0.0883 -0.1697  0.2463
    3TMC2    H513914   4.518   0.557  14.712 -1.2627 -1.1836 -1.3168
    4TMC2    C113915   3.982   0.748  13.563  0.4099  0.3586  0.0592
    4TMC2    C213916   4.036   0.701  13.445  0.2988 -0.1785  0.0544
    4TMC2    C313917   4.130   0.603  13.457  0.3145  0.1134 -0.4247
    4TMC2    C413918   4.008   0.684  13.684  1.0973  1.0089  0.1335
    4TMC2    C513919   4.090   0.578  13.680  0.2422 -0.0953  0.0102
    4TMC2    C613920   4.155   0.539  13.570  0.1938  0.1031 -0.0448
    4TMC2     C13921   3.857   0.821  13.539  0.0007  0.1728 -0.9512
    4TMC2     O13922   3.804   0.878  13.634  0.4448  0.3602 -0.3074
    4TMC2     H13923   4.023   0.739  13.344 -1.5060  2.6165  1.3389
    4TMC2    H113924   3.966   0.720  13.777  2.2957 -1.6650  1.7306
    4TMC2    H213925   4.247   0.482  13.582 -0.3192 -1.2847 -2.7223
    4TMC2    C713926   4.116   0.502  13.799 -0.4272  0.5009  0.5005
    4TMC2    C813927   4.206   0.569  13.338  0.3535 -0.4853 -0.2272
    4TMC2    O113928   4.082   0.552  13.902  0.6240 -0.3926 -0.0900
    4TMC2    O213929   4.223   0.643  13.239  0.1152 -0.0452 -0.1958
    4TMC2    O513930   4.197   0.432  13.337  0.4931  0.2878  0.2671
    4TMC2    H513931   4.168   0.397  13.424 -0.4977  0.0200 -0.1693
    5MPD2     C13932   3.480   1.004  13.273  0.6186 -0.7262  0.2074
    5MPD2    C113933   3.527   0.896  13.209  0.3179 -0.4991  0.2630
    5MPD2    C213934   3.643   0.827  13.254 -0.1180  0.4997 -0.6249
    5MPD2    C313935   3.709   0.882  13.365  0.3819 -0.2157  0.4079
    5MPD2    C413936   3.659   0.993  13.431  0.4933 -0.6753  0.3843
    5MPD2    C513937   3.547   1.054  13.383  0.5976  0.2863 -0.0991
    5MPD2     H13938   3.678   0.736  13.206  0.6924 -0.3593  1.5754
    5MPD2    H113939   3.696   1.051  13.514  0.6314 -1.4203  0.8383
    5MPD2    H213940   3.395   1.057  13.232  1.0300 -0.5505 -0.4216
    5MPD2    H313941   3.514   1.145  13.432  1.2149  0.2105  0.4696
    5MPD2     N13942   3.819   0.810  13.413  0.2669 -0.1180  0.7435
    5MPD2    H513943   3.847   0.729  13.358 -2.3059 -0.7554  0.3811
    5MPD2    N113944   3.451   0.860  13.096 -0.4722  0.1383  0.2859
    5MPD2    H713945   3.361   0.907  13.088 -1.4280 -1.9010 -0.6646
    6MPD1     C13946   3.351   1.912  11.822 -0.0275  0.1018  0.0817
    6MPD1    C113947   3.366   1.887  11.956  0.2085 -0.8128  0.0665
    6MPD1    C213948   3.334   1.756  11.997 -0.3166  0.1649  0.1055
    6MPD1    C313949   3.317   1.650  11.910  0.4303  0.2843 -0.3350
    6MPD1    C413950   3.322   1.681  11.772  0.2757  0.0941 -0.0618
    6MPD1    C513951   3.325   1.815  11.730 -0.2141 -0.7165  0.0527
    6MPD1     H13952   3.325   1.741  12.104  0.9532  0.1948  0.2121
    6MPD1    H113953   3.314   1.599  11.702 -2.0995  1.8047 -1.8074
    6MPD1    H213954   3.357   2.014  11.785 -0.5863 -0.2416 -0.9421
    6MPD1    H313955   3.319   1.849  11.627  0.2959 -1.5231 -0.2440
    6MPD1     N13956   3.292   1.516  11.940  0.7016 -0.1348 -0.3018
    6MPD1    H513957   3.312   1.447  11.869 -1.4320 -0.4446 -0.5769
    6MPD1    N113958   3.366   1.995  12.048 -0.2665 -0.7410  0.1374
    6MPD1    H613959   3.422   2.077  12.023 -1.7407 -0.0946 -1.0848
    6MPD1    H713960   3.394   1.966  12.141 -1.6272 -0.9887  0.4799
    7MPD2     C13961   2.877   1.167  12.529  0.4652 -0.5122  0.1642
    7MPD2    C113962   2.973   1.095  12.457 -0.7535 -0.1270  1.1036
    7MPD2    C213963   3.046   1.003  12.521  0.0334  0.1523 -0.5949
    7MPD2    C313964   3.014   0.951  12.645  0.5422  0.7278  0.7352
    7MPD2    C413965   2.909   1.011  12.706 -0.2998 -0.4313  0.2997
    7MPD2    C513966   2.849   1.119  12.653  0.4856  0.7364  0.7907
    7MPD2     H13967   3.131   0.953  12.476 -0.1703  0.6279 -1.5180
    7MPD2    H113968   2.871   0.972  12.800 -2.2850 -0.7062 -0.6185
    7MPD2    H213969   2.818   1.246  12.484 -0.7095 -1.2821  0.3511
    7MPD2    H313970   2.762   1.151  12.708 -0.3229 -1.0852  0.5664
    7MPD2     N13971   3.084   0.838  12.697 -0.7272 -0.0725  0.0337
    7MPD2    H513972   3.161   0.808  12.639 -0.1796  2.4970 -0.5480
    7MPD2    N113973   3.001   1.140  12.326 -0.3684 -0.5035  0.3537
    7MPD2    H713974   2.964   1.226  12.288 -2.1708 -0.5400  2.0496
    8TMC3    C113975   3.170   0.682  12.843  0.1044 -0.0587  0.4496
    8TMC3    C213976   3.262   0.724  12.935 -0.2793 -0.0981 -0.0493
    8TMC3    C313977   3.393   0.717  12.913 -0.0903 -0.1007  0.1712
    8TMC3    C413978   3.217   0.638  12.723  0.4594 -0.4745  0.1235
    8TMC3    C513979   3.352   0.636  12.696  0.1616 -0.3330 -0.7027
    8TMC3    C613980   3.443   0.668  12.792 -0.6856  0.0399 -0.4282
    8TMC3     C13981   3.062   0.777  12.820 -0.1669 -0.0590  0.6553
    8TMC3     O13982   3.006   0.816  12.922  0.0779 -0.0886 -0.1269
    8TMC3     H13983   3.230   0.785  13.019 -0.0725 -0.9874  0.6700
    8TMC3    H113984   3.152   0.608  12.642 -1.3634 -2.5102  2.3323
    8TMC3    H213985   3.549   0.677  12.771 -0.2621 -0.7745  1.3172
    8TMC3    C713986   3.382   0.706  12.571  0.0232 -0.0599  0.3682
    8TMC3    C813987   3.492   0.765  13.010 -0.0058 -0.1012  0.1496
    8TMC3    O113988   3.288   0.771  12.531  0.5663  0.4993  0.6255
    8TMC3    O213989   3.604   0.716  12.997 -0.1318 -0.9225  0.0347
    9TMC3    C113990   3.261   1.334  12.071 -0.2221  0.1273  0.1981
    9TMC3    C213991   3.337   1.255  11.997  0.0250  0.1895 -0.3312
    9TMC3    C313992   3.316   1.123  11.995 -0.2035  0.1032  0.2649
    9TMC3    C413993   3.170   1.275  12.150  0.8552 -0.7443 -0.0981
    9TMC3    C513994   3.137   1.146  12.134 -0.2801 -0.0106  0.6910
    9TMC3    C613995   3.218   1.068  12.059 -0.6145  0.0315  0.3802
    9TMC3     C13996   3.266   1.473  12.068  0.2929 -1.0961 -0.3288
    9TMC3     O13997   3.246   1.531  12.173  0.5398  0.5074 -0.6019
    9TMC3     H13998   3.427   1.291  11.948 -2.3055  2.9087 -2.6143
    9TMC3    H113999   3.120   1.343  12.219 -0.4842 -1.0242 -0.7887
    9TMC3    H214000   3.199   0.963  12.045 -0.2253 -0.2566  2.0339
    9TMC3    C714001   3.095   1.078  12.248  0.0889  0.8514  0.5339
    9TMC3    C814002   3.442   1.041  12.023 -0.1609 -0.3629 -0.5084
    9TMC3    O114003   3.153   0.970  12.260  0.3100  0.2780 -0.1968
    9TMC3    O214004   3.542   1.045  11.950 -0.6562 -0.1708 -0.1335
   10MPD2     C14005   3.674   0.705  12.342 -0.1329 -0.7790  0.0691
   10MPD2    C114006   3.553   0.738  12.398  0.1779  0.1035 -0.0935
   10MPD2    C214007   3.480   0.836  12.330  0.2381  0.0728  0.1855
   10MPD2    C314008   3.519   0.894  12.207  0.8061 -0.4001  0.6111
   10MPD2    C414009   3.648   0.869  12.168  0.3651  0.2146 -0.9645
   10MPD2    C514010   3.721   0.767  12.228  0.0328  0.0331  0.0863
   10MPD2     H14011   3.385   0.873  12.366 -0.3595  0.3238 -1.6354
   10MPD2    H114012   3.693   0.916  12.082 -2.1082 -0.8842 -2.8494
   10MPD2    H214013   3.737   0.625  12.378  2.2173  2.0942  2.3255
   10MPD2    H314014   3.817   0.730  12.195 -0.3385 -0.4847 -0.4280
   10MPD2     N14015   3.430   0.980  12.146  0.1308  0.2663  0.1265
   10MPD2    H514016   3.337   0.985  12.184  0.3300  4.8510 -0.0356
   10MPD2    N114017   3.505   0.679  12.519 -0.1069  0.1529 -0.6568
   10MPD2    H714018   3.574   0.620  12.565 -0.0932  0.4364 -0.3157
   11MPD2     C14019   4.153   0.094  14.092 -0.4684 -0.4975 -0.4516
   11MPD2    C114020   4.188   0.220  14.111  0.0452 -0.6412  0.6466
   11MPD2    C214021   4.170   0.310  14.017  0.0850  0.0695  0.2190
   11MPD2    C314022   4.139   0.272  13.888 -0.0180  0.3600 -0.2744
   11MPD2    C414023   4.132   0.142  13.856  0.4948 -0.1275  0.4393
   11MPD2    C514024   4.122   0.051  13.961 -0.6402  0.0511 -0.0707
   11MPD2     H14025   4.191   0.412  14.047 -1.3941 -0.1459  1.9501
   11MPD2    H114026   4.100   0.110  13.757 -2.2048 -0.2712  1.3576
   11MPD2    H214027   4.152   0.019  14.170  1.9710 -0.0069  0.0214
   11MPD2    H314028   4.102   4.684  13.937 -4.7503  1.2391 -1.8687
   11MPD2     N14029   4.130   0.366  13.779  0.0709  1.0442 -0.7847
   11MPD2    H514030   4.134   0.328  13.684 -2.4520  0.0013 -0.4971
   11MPD2    N114031   4.236   0.265  14.238  0.6136 -0.1150  0.5364
   11MPD2    H714032   4.264   0.362  14.246  1.0731 -0.2116  0.0949
    1MPD1     C14033   3.568   2.047  15.807 -0.2622  0.4351 -0.1435
    1MPD1    C114034   3.464   2.070  15.723 -0.2917  0.8607 -0.0244
    1MPD1    C214035   3.391   1.962  15.676 -0.4981  0.5417 -0.7018
    1MPD1    C314036   3.425   1.833  15.718 -0.3882 -0.1264 -0.5551
    1MPD1    C414037   3.532   1.813  15.800 -0.1089 -0.4506 -0.0180
    1MPD1    C514038   3.601   1.923  15.843  0.2284 -0.1967 -0.0938
    1MPD1     H14039   3.305   1.987  15.615 -0.9583  1.2171  0.2296
    1MPD1    H114040   3.549   1.719  15.851  2.1088 -0.8745 -1.5536
    1MPD1    H214041   3.621   2.126  15.858 -1.4270  0.2844  1.3223
    1MPD1    H314042   3.673   1.905  15.923  0.2291  2.3214  0.4938
    1MPD1     N14043   3.342   1.715  15.708 -0.0130  0.0414 -0.0624
    1MPD1    H514044   3.378   1.629  15.748 -1.2776 -0.2122  0.5515
    1MPD1    N114045   3.418   2.204  15.706  0.3699  0.2828  0.1017
    1MPD1    H614046   3.485   2.277  15.727  1.1044 -0.1994 -0.5756
    1MPD1    H714047   3.398   2.223  15.608  0.0622  0.7964  0.2657
    2MPD1     C14048   2.359   1.818  15.606 -0.0489 -0.2498  0.3999
    2MPD1    C114049   2.472   1.871  15.540 -0.1102 -0.2319 -0.5510
    2MPD1    C214050   2.589   1.802  15.540 -0.1418  0.4566  0.1708
    2MPD1    C314051   2.598   1.682  15.617  0.3236  0.6172  0.2721
    2MPD1    C414052   2.486   1.635  15.687  0.3099  0.2702  0.1475
    2MPD1    C514053   2.371   1.700  15.680 -0.2167 -0.4792 -0.1153
    2MPD1     H14054   2.669   1.836  15.476 -0.4647  1.5041  0.3340
    2MPD1    H114055   2.485   1.540  15.740  1.3352  0.4713  0.5358
    2MPD1    H214056   2.261   1.862  15.611  0.3410  0.7722 -1.0057
    2MPD1    H314057   2.289   1.656  15.736 -0.5806 -0.7201 -0.8452
    2MPD1     N14058   2.730   1.630  15.639 -0.2034  0.3173  0.4880
    2MPD1    H514059   2.795   1.690  15.590  1.7656 -2.0436  0.1670
    2MPD1    N114060   2.445   1.966  15.441  0.1263 -0.6835 -0.2589
    2MPD1    H614061   2.515   2.039  15.430 -3.2760  3.0230  3.2466
    2MPD1    H714062   2.363   2.021  15.462  0.2496 -0.7364  0.3464
    3TMC3    C114063   2.910   1.549  15.774 -0.7095  0.3531 -0.4821
    3TMC3    C214064   2.942   1.522  15.909 -0.5930 -0.7630  0.0701
    3TMC3    C314065   3.072   1.530  15.945 -0.1578 -0.4956  0.1274
    3TMC3    C414066   3.002   1.615  15.693  0.7991 -0.0213 -0.0192
    3TMC3    C514067   3.132   1.613  15.738  0.0235 -0.2558 -0.6139
    3TMC3    C614068   3.176   1.566  15.862 -0.2496 -0.0789 -0.5029
    3TMC3     C14069   2.771   1.545  15.746  0.3991 -0.5836 -0.4122
    3TMC3     O14070   2.696   1.484  15.823 -0.2370  0.0180  0.1467
    3TMC3     H14071   2.865   1.486  15.975  0.9892 -1.3628  1.5687
    3TMC3    H114072   2.980   1.632  15.588 -2.0933  1.2974  0.8032
    3TMC3    H214073   3.277   1.589  15.894 -0.7112  1.0387  0.1491
    3TMC3    C714074   3.206   1.716  15.675 -0.4987 -0.1853  0.2717
    3TMC3    C814075   3.111   1.467  16.068 -0.5437  0.4851 -0.2450
    3TMC3    O114076   3.137   1.807  15.631 -0.5134  0.1444  0.3327
    3TMC3    O214077   3.016   1.434  16.136 -0.4169 -0.2759 -0.1317
    4MPD1     C14078   3.424   1.172  16.340  0.9316  0.3322  0.5540
    4MPD1    C114079   3.479   1.181  16.211 -0.2223  0.1602  0.1230
    4MPD1    C214080   3.412   1.264  16.120  0.6755  0.4911  0.0904
    4MPD1    C314081   3.301   1.331  16.156 -0.5854  0.1239 -0.5295
    4MPD1    C414082   3.250   1.319  16.287 -0.2289 -0.1450 -0.3128
    4MPD1    C514083   3.310   1.240  16.376  0.2217  0.5835 -0.3797
    4MPD1     H14084   3.442   1.276  16.017 -0.2728  0.7904 -0.1494
    4MPD1    H114085   3.167   1.377  16.326 -1.2181 -1.3558 -0.6304
    4MPD1    H214086   3.463   1.100  16.411  1.0207  0.3639  0.5370
    4MPD1    H314087   3.276   1.231  16.479 -1.3712  1.2504 -0.8429
    4MPD1     N14088   3.237   1.412  16.059  0.6318  0.2097  0.0319
    4MPD1    H514089   3.285   1.426  15.970  1.5578  1.5121  0.7247
    4MPD1    N114090   3.551   1.072  16.165  0.4064  0.4367 -0.0114
    4MPD1    H614091   3.617   1.104  16.095  1.5078  1.5841  1.5535
    4MPD1    H714092   3.600   1.031  16.244 -0.1908 -0.4598 -0.1109
    1TCq1    O114093   2.012   3.131  11.605  0.1262 -0.1302  0.7185
    1TCq1    C114094   2.077   3.078  11.503  0.1071  0.5861 -0.3905
    1TCq1    O214095   2.163   3.133  11.440  0.1007 -0.1625  0.3722
    1TCq1    C214096   2.085   2.929  11.527  0.4511 -0.4829 -0.1462
    1TCq1    C314097   2.083   2.858  11.411  0.1540 -0.0400  1.0291
    1TCq1    C414098   2.070   2.721  11.417  0.9122  0.2963 -0.2990
    1TCq1    C514099   2.044   2.662  11.541  0.1190 -0.4869 -0.1889
    1TCq1    C614100   2.037   2.738  11.656  0.2589  0.4767  1.1863
    1TCq1    C714101   2.057   2.874  11.647 -0.0860 -0.2026 -0.2667
    1TCq1    C814102   1.984   2.686  11.778  0.7742  0.7158  0.1736
    1TCq1    O414103   1.992   2.758  11.876 -0.1784  0.6024  0.1071
    1TCq1    C914104   2.031   2.646  11.300  0.3511 -0.0588  0.1958
    1TCq1    O514105   2.059   2.705  11.191  0.1027  0.4037  0.3458
    1TCq1    O614106   2.033   2.523  11.320  0.1703 -0.0100  0.1553
    1TCq1    H114107   1.953   3.065  11.648  1.0212  0.3313  2.6334
    1TCq1    H214108   2.107   2.914  11.321 -0.3029  0.1629  1.0342
    1TCq1    H314109   2.003   2.562  11.542 -2.1532  0.4218 -1.7847
    1TCq1    H414110   2.066   2.925  11.743 -0.1887  1.6685 -1.2604
    2MPD1     C14111   1.753   2.315  12.036  0.5804  0.2115 -0.0588
    2MPD1    C114112   1.735   2.289  11.901  0.3637  0.1669 -0.1124
    2MPD1    C214113   1.790   2.375  11.812 -0.1399 -0.7771  1.1129
    2MPD1    C314114   1.862   2.484  11.864 -0.3544 -0.2006 -0.2059
    2MPD1    C414115   1.882   2.510  11.994  0.0338  0.1697 -1.0546
    2MPD1    C514116   1.827   2.422  12.081  0.4325 -0.8784 -0.0299
    2MPD1     H14117   1.755   2.366  11.710 -0.6994  0.0076  1.2330
    2MPD1    H114118   1.940   2.592  12.034 -1.3471  0.7628 -0.2519
    2MPD1    H214119   1.703   2.250  12.107  1.9221  0.3987  1.0476
    2MPD1    H314120   1.836   2.444  12.187 -1.4226  1.8240 -0.4251
    2MPD1     N14121   1.915   2.567  11.762 -0.0961 -0.8074 -0.0131
    2MPD1    H514122   1.899   2.543  11.665 -1.2646 -1.7613  0.4078
    2MPD1    N114123   1.651   2.189  11.849  0.4279  0.4634  0.1138
    2MPD1    H614124   1.676   2.148  11.759 -0.2139 -0.6912  0.4538
    2MPD1    H714125   1.632   2.114  11.916  0.7080 -0.8131 -1.2209
    1TMC1    C114126   0.512   1.166   0.476  0.3262  0.3608 -0.2697
    1TMC1    C214127   0.547   1.300   0.480 -0.0343 -0.3119 -0.1938
    1TMC1    C314128   0.651   1.343   0.398  0.1153  0.5644  0.5181
    1TMC1    C414129   0.575   1.075   0.397  1.0134  0.4923 -0.2589
    1TMC1    C514130   0.685   1.119   0.330  0.0716  0.1036 -0.4136
    1TMC1    C614131   0.721   1.253   0.323  0.0035  0.0665  0.3698
    1TMC1     C14132   0.405   1.107   0.553  0.2263  0.7031  0.5015
    1TMC1     O14133   0.384   0.986   0.539  0.0188 -0.2666  0.1792
    1TMC1     H14134   0.496   1.370   0.546 -0.6395  0.1695 -1.1666
    1TMC1    H114135   0.560   0.968   0.400  0.6338  0.5711  0.8151
    1TMC1    H214136   0.807   1.287   0.267  0.1433  1.5806  1.5186
    1TMC1    C714137   0.768   1.023   0.263 -0.1530  0.8017  0.4231
    1TMC1    C814138   0.729   1.458   0.442  0.5350  0.0051 -0.2840
    1TMC1    O114139   0.731   0.909   0.235 -0.8572 -0.2196 -0.4086
    1TMC1    O214140   0.850   1.454   0.439  0.0645 -0.0492 -0.1178
    1TMC1    O314141   0.893   1.059   0.293 -0.3753 -0.0503  0.0795
    1TMC1    H314142   0.898   1.141   0.346  1.0675  1.0410 -1.7396
    1TMC1    O514143   0.653   1.553   0.507 -0.5406  0.2994 -0.7710
    1TMC1    H514144   0.557   1.551   0.485 -0.5250  1.9903 -0.9618
    2MPD1     C14145   4.718   1.158   0.837 -0.0582  0.6075  0.2092
    2MPD1    C114146   0.046   1.275   0.834 -0.3037  0.2999  0.5249
    2MPD1    C214147   0.170   1.279   0.775 -0.5366 -0.9024 -0.1747
    2MPD1    C314148   0.229   1.168   0.721 -0.2489 -0.9664 -0.2010
    2MPD1    C414149   0.160   1.049   0.711  0.0051 -0.1074  0.1225
    2MPD1    C514150   0.040   1.046   0.784  0.0298  0.4699  0.3797
    2MPD1     H14151   0.227   1.371   0.773 -0.9313 -0.6960 -1.6397
    2MPD1    H114152   0.198   0.956   0.673 -0.4381  0.2802 -1.2448
    2MPD1    H214153   4.628   1.132   0.892  0.7309 -0.5104  0.9643
    2MPD1    H314154   4.720   0.953   0.793 -1.3246  1.0435 -2.2395
    2MPD1     N14155   0.341   1.196   0.642 -0.7000 -0.2992  0.4341
    2MPD1    H514156   0.372   1.293   0.638 -1.7463  0.1364  2.4386
    2MPD1    N114157   0.013   1.380   0.920  0.3379  0.1997  0.2027
    2MPD1    H614158   0.041   1.473   0.890  1.2128 -0.1027  0.0755
    2MPD1    H714159   4.652   1.395   0.942  0.4845  0.9448  0.3367
    1MPD1     C14160   0.040   2.956  12.673  1.0939  0.0150 -0.2763
    1MPD1    C114161   0.105   2.850  12.721 -0.5563  0.5156  0.5510
    1MPD1    C214162   0.202   2.784  12.644  0.1279 -0.0212  0.1155
    1MPD1    C314163   0.232   2.835  12.522  0.3280  0.5080 -0.9470
    1MPD1    C414164   0.161   2.939  12.472 -0.3430  0.0735 -0.1022
    1MPD1    C514165   0.067   3.005  12.551  0.4993  0.5562 -0.7658
    1MPD1     H14166   0.255   2.699  12.685 -0.1266  0.5686  1.6481
    1MPD1    H114167   0.199   2.984  12.381 -2.3974 -0.1058 -1.0295
    1MPD1    H214168   4.695   2.996  12.732  0.1600 -0.5951 -1.1613
    1MPD1    H314169   0.013   3.089  12.509 -1.3242 -1.1063 -1.7732
    1MPD1     N14170   0.339   2.774  12.447  0.7823  0.4867 -0.6649
    1MPD1    H514171   0.393   2.701  12.492 -0.1550  0.2434  0.0602
    1MPD1    N114172   0.048   2.778  12.826  0.0560 -0.0137  0.2830
    1MPD1    H614173   0.122   2.726  12.872 -0.4748 -1.3721 -0.4216
    1MPD1    H714174   0.004   2.843  12.892 -1.4402 -2.4145  1.6600
    2MPD1     C14175   3.935   1.013  11.452  0.1518 -0.2177 -0.1620
    2MPD1    C114176   4.015   1.115  11.514  0.6056  0.1140 -0.4936
    2MPD1    C214177   4.141   1.138  11.460  0.5515 -0.1352  0.0722
    2MPD1    C314178   4.169   1.089  11.336 -0.4563  0.6155 -0.2133
    2MPD1    C414179   4.083   0.999  11.279  0.4278  0.2029  0.1054
    2MPD1    C514180   3.961   0.974  11.328  0.3248  0.4794 -0.4023
    2MPD1     H14181   4.207   1.192  11.527 -0.1492 -1.4762  1.8488
    2MPD1    H114182   4.095   0.957  11.180 -2.2878  1.0910 -0.6282
    2MPD1    H214183   3.840   0.976  11.489  0.8581 -1.0828  0.7965
    2MPD1    H314184   3.898   0.914  11.263  1.2733  0.9866 -1.7858
    2MPD1     N14185   4.292   1.116  11.278  0.0862 -0.2411 -0.0211
    2MPD1    H514186   4.312   1.068  11.191 -1.0894 -0.9804  0.1137
    2MPD1    N114187   3.984   1.149  11.650  0.1541  0.2452 -0.2775
    2MPD1    H614188   3.888   1.140  11.683  0.6358 -2.0264  0.4920
    2MPD1    H714189   4.027   1.235  11.685 -0.3394 -0.8824  3.1556
    3MPD1     C14190   4.443   0.871  10.509 -0.3204  0.2851  0.2392
    3MPD1    C114191   4.395   0.805  10.619  0.3438  0.0126  0.8492
    3MPD1    C214192   4.428   0.851  10.744 -0.1561  0.1167  0.6481
    3MPD1    C314193   4.509   0.968  10.755  0.0073  0.1404  0.0622
    3MPD1    C414194   4.547   1.035  10.639 -0.3787  0.6640 -0.1567
    3MPD1    C514195   4.510   0.988  10.515 -0.2511  0.0898  0.1815
    3MPD1     H14196   4.401   0.792  10.831 -0.4948 -0.9182 -0.1566
    3MPD1    H114197   4.619   1.116  10.639 -0.2547  0.5570 -1.1248
    3MPD1    H214198   4.426   0.834  10.409 -0.4907 -0.7772  0.6606
    3MPD1    H314199   4.549   1.033  10.425 -0.4030  1.8855  1.0155
    3MPD1     N14200   4.532   1.027  10.884 -0.4236 -0.3449  0.6880
    3MPD1    H514201   4.479   0.978  10.956 -2.2677 -0.0593 -0.4691
    3MPD1    N114202   4.338   0.675  10.600  0.1592  0.1830 -0.0506
    3MPD1    H614203   4.285   0.644  10.681  0.5588  1.6748  0.7732
    3MPD1    H714204   4.272   0.660  10.524 -0.9991  2.5691  0.5080
    4MPD2     C14205   0.711   2.590  11.708 -0.7110 -1.1185 -0.2828
    4MPD2    C114206   0.690   2.507  11.819  0.1022 -0.1679 -0.1048
    4MPD2    C214207   0.689   2.369  11.804  0.4844 -0.1213  0.0561
    4MPD2    C314208   0.686   2.316  11.677  0.3297  0.9237 -0.3114
    4MPD2    C414209   0.700   2.391  11.564 -0.4370 -0.3451 -0.4089
    4MPD2    C514210   0.712   2.533  11.587  0.4125 -0.2506 -0.1565
    4MPD2     H14211   0.680   2.304  11.890 -2.7400 -1.1480 -1.0585
    4MPD2    H114212   0.703   2.354  11.462 -2.6119  0.1328 -0.6420
    4MPD2    H214213   0.721   2.698  11.711  0.0471 -1.2100  0.4727
    4MPD2    H314214   0.724   2.598  11.500 -2.0876 -0.8696 -0.9541
    4MPD2     N14215   0.679   2.177  11.670  0.1916 -0.2641  0.5201
    4MPD2    H514216   0.685   2.127  11.759  0.1477 -3.0787 -1.0705
    4MPD2    N114217   0.679   2.548  11.952  0.3813  0.5505 -0.0267
    4MPD2    H714218   0.670   2.482  12.029 -2.4275 -1.8387 -2.3939
    5TMC3    C114219   0.659   2.684  12.143  1.0023  0.1650  0.5053
    5TMC3    C214220   0.550   2.761  12.180  0.1288  0.1734 -0.0638
    5TMC3    C314221   0.465   2.703  12.267 -0.3188 -0.4412 -0.4202
    5TMC3    C414222   0.673   2.562  12.196 -0.5245  0.6563 -0.4130
    5TMC3    C514223   0.575   2.506  12.278  0.3369  0.1818 -0.5140
    5TMC3    C614224   0.464   2.573  12.305  0.2885 -1.1133  0.3945
    5TMC3     C14225   0.667   2.676  11.997 -0.6080 -0.6506  0.5235
    5TMC3     O14226   0.681   2.781  11.938  0.7647 -0.0311 -0.2834
    5TMC3     H14227   0.542   2.862  12.142 -1.0219  0.2806  0.4689
    5TMC3    H114228   0.766   2.508  12.184  0.0006  1.4209  0.1961
    5TMC3    H214229   0.379   2.528  12.354  0.9430 -0.9598  1.6827
    5TMC3    C714230   0.561   2.363  12.237 -0.0935 -0.8734 -0.5906
    5TMC3    C814231   0.356   2.788  12.310 -0.0172  0.7093  0.1923
    5TMC3    O114232   0.628   2.346  12.140  0.1465  0.1143 -0.5321
    5TMC3    O214233   0.309   2.869  12.236  0.4910  0.6199 -0.0713
    6TMC3    C114234   4.515   1.206  11.244  0.6267  0.3317 -0.1073
    6TMC3    C214235   4.505   1.171  11.108  0.7718 -0.1731 -0.0139
    6TMC3    C314236   4.618   1.187  11.038 -1.0262 -0.0763  0.3856
    6TMC3    C414237   4.628   1.267  11.291  0.2752  0.1408 -0.4365
    6TMC3    C514238   0.013   1.259  11.221  0.2168 -0.4145  0.3359
    6TMC3    C614239   0.003   1.214  11.093 -0.8442  0.1950 -0.9267
    6TMC3     C14240   4.390   1.209  11.318  0.0744 -0.4839  0.2178
    6TMC3     O14241   4.381   1.291  11.412  0.2309  0.1253 -0.0161
    6TMC3     H14242   4.411   1.136  11.068 -0.5624  0.8546  2.2214
    6TMC3    H114243   4.634   1.291  11.397  0.5648 -1.6208 -0.0407
    6TMC3    H214244   0.090   1.224  11.030 -0.7990  0.1872 -0.8659
    6TMC3    C714245   0.122   1.326  11.280  0.6712  0.9547  0.4573
    6TMC3    C814246   4.624   1.123  10.907  0.1372 -0.1684  0.3976
    6TMC3    O114247   0.102   1.394  11.381 -0.5962  0.1896  0.1168
    6TMC3    O214248   4.723   1.151  10.842  0.3928  0.1557 -1.0169
    7MPD2     C14249   0.322   1.917  12.150 -0.3278 -0.1373 -0.9069
    7MPD2    C114250   0.434   1.970  12.089 -0.3771 -0.5546  0.1761
    7MPD2    C214251   0.480   2.091  12.134 -0.4315  0.4501 -0.1216
    7MPD2    C314252   0.412   2.163  12.233  0.1111 -0.1369  0.1426
    7MPD2    C414253   0.296   2.108  12.280  0.0075  0.4658  0.0676
    7MPD2    C514254   0.257   1.986  12.247 -0.2185  0.1260  0.5654
    7MPD2     H14255   0.575   2.132  12.100 -0.2892  0.6558  0.5314
    7MPD2    H114256   0.248   2.156  12.365  2.7015  1.3566  1.1081
    7MPD2    H214257   0.280   1.825  12.112 -1.3545 -0.4264  0.8906
    7MPD2    H314258   0.171   1.937  12.291 -1.0529  0.6804 -0.4402
    7MPD2     N14259   0.446   2.296  12.276 -0.0863  0.1374  0.6048
    7MPD2    H514260   0.399   2.328  12.361  0.6609  2.6144  0.0949
    7MPD2    N114261   0.484   1.888  11.981 -0.8852  0.1519  1.3396
    7MPD2    H714262   0.438   1.801  11.957 -1.2183  0.6855  0.0165
    8TMC3    C114263   0.629   1.855  11.784 -0.0197 -0.0100 -0.1423
    8TMC3    C214264   0.520   1.796  11.717  0.1687  0.1318  0.2483
    8TMC3    C314265   0.526   1.800  11.584  0.0811  0.6896  0.3911
    8TMC3    C414266   0.722   1.929  11.715 -0.0813 -0.1535 -0.0684
    8TMC3    C514267   0.697   1.952  11.585  0.4190  0.2563 -0.9509
    8TMC3    C614268   0.615   1.875  11.513 -0.5250  0.3130 -0.7771
    8TMC3     C14269   0.598   1.927  11.909  0.2037 -0.4431 -0.0315
    8TMC3     O14270   0.683   2.010  11.934 -0.4650 -0.2010  0.0563
    8TMC3     H14271   0.453   1.733  11.775 -1.0395  0.1753 -1.1062
    8TMC3    H114272   0.806   1.979  11.761  1.1303 -1.6637 -0.6373
    8TMC3    H214273   0.599   1.887  11.407  1.6028 -2.3888 -1.4064
    8TMC3    C714274   0.678   2.091  11.554  0.6144 -0.2931 -0.3787
    8TMC3    C814275   0.461   1.692  11.517  0.1537  0.5622  0.3976
    8TMC3    O114276   0.649   2.120  11.441  0.3600  0.3649 -0.8059
    8TMC3    O214277   0.353   1.652  11.557  0.2780 -0.4480  0.2670
    9MPD2     C14278   0.613   1.463  11.271  0.4285 -0.3135 -0.4541
    9MPD2    C114279   0.512   1.519  11.349 -1.0866 -0.3519  0.4171
    9MPD2    C214280   0.385   1.456  11.339 -0.5831  0.1597 -0.7401
    9MPD2    C314281   0.367   1.347  11.252  1.0137  0.0454  0.0026
    9MPD2    C414282   0.470   1.294  11.184  0.7416  0.0508 -0.9892
    9MPD2    C514283   0.579   1.366  11.179  0.6394  0.3199  0.2856
    9MPD2     H14284   0.297   1.498  11.387  0.5997  1.0115  0.7244
    9MPD2    H114285   0.455   1.211  11.116  0.9296 -1.4821  0.8315
    9MPD2    H214286   0.715   1.501  11.275  0.6600 -0.7772 -1.8533
    9MPD2    H314287   0.653   1.326  11.111  1.6964  0.1624  1.5333
    9MPD2     N14288   0.246   1.285  11.226  0.1192 -0.1618 -0.6240
    9MPD2    H514289   0.251   1.205  11.164  0.1386 -0.3323 -0.4027
    9MPD2    N114290   0.549   1.627  11.429 -0.3025 -0.3712 -0.4390
    9MPD2    H714291   0.646   1.656  11.425  0.1219 -1.8944 -1.0806
    1MPD1     C14292   4.347   0.588  17.060 -0.2708  0.1394  0.0951
    1MPD1    C114293   4.356   0.464  17.116  0.5509 -0.1241 -0.5003
    1MPD1    C214294   4.464   0.384  17.087 -0.0548  0.2333  0.1657
    1MPD1    C314295   4.563   0.431  17.000  0.0635  0.3450  0.1266
    1MPD1    C414296   4.554   0.559  16.955 -0.9288 -0.4026 -0.8433
    1MPD1    C514297   4.447   0.637  16.981 -0.7085  0.0560  0.0178
    1MPD1     H14298   4.470   0.284  17.129 -0.8228  0.2567  0.3260
    1MPD1    H114299   4.624   0.598  16.883 -0.1384 -0.9918 -0.4072
    1MPD1    H214300   4.274   0.663  17.088 -1.3651 -1.3656  1.3333
    1MPD1    H314301   4.447   0.741  16.950  1.9282  0.3937  1.1068
    1MPD1     N14302   4.670   0.352  16.960  0.4266  0.1333  0.3212
    1MPD1    H514303   4.727   0.389  16.885  0.3792  4.4298  2.4234
    1MPD1    N114304   4.272   0.430  17.224  0.1325  0.3730  0.3155
    1MPD1    H614305   4.261   0.329  17.234  2.2831  0.1200  0.0276
    1MPD1    H714306   4.178   0.467  17.212 -0.5186 -1.8222 -1.3017
    2TMC2    C114307   0.175   0.151  16.703  0.0654  0.1274  0.1856
    2TMC2    C214308   0.284   0.079  16.766  0.4895  0.5902  0.1830
    2TMC2    C314309   0.263   0.044  16.898 -0.0845  0.8724  0.2223
    2TMC2    C414310   0.075   0.212  16.779  0.4032  0.7107 -0.0166
    2TMC2    C514311   0.061   0.166  16.912 -0.2706  0.0223 -0.0757
    2TMC2    C614312   0.154   0.083  16.970  0.5586  0.2439  0.3137
    2TMC2     C14313   0.172   0.136  16.556  0.0376  0.4690 -0.7015
    2TMC2     O14314   0.242   0.042  16.516  0.0189 -0.1431 -0.5734
    2TMC2     H14315   0.364   0.030  16.712 -1.1910 -0.0246 -1.7567
    2TMC2    H114316   4.724   0.262  16.740 -0.0112 -0.3868 -0.5182
    2TMC2    H214317   0.152   0.059  17.076 -0.5275 -0.1393  0.1990
    2TMC2    C714318   4.692   0.224  16.994 -1.1673  0.7475 -0.0564
    2TMC2    C814319   0.377   0.008  16.977  0.2035 -0.4271  0.1250
    2TMC2    O114320   4.656   0.157  17.088  0.6180  0.5575  0.0835
    2TMC2    O214321   0.371   4.703  17.093  0.2680 -0.4004 -0.2766
    2TMC2    O514322   0.485   0.085  16.946  0.0722  0.1618  0.4628
    2TMC2    H514323   0.479   0.128  16.858  2.0407  2.0180  1.2569
    3MPD1     C14324   4.722   0.189  16.081 -0.8264 -0.4491  0.2387
    3MPD1    C114325   4.704   0.305  16.149  0.2803 -0.0696 -0.0446
    3MPD1    C214326   0.004   0.315  16.281 -0.7914  0.8742  0.9643
    3MPD1    C314327   0.059   0.206  16.344 -0.3132  0.8200 -0.2815
    3MPD1    C414328   0.084   0.088  16.274 -1.0687 -0.0516  0.2051
    3MPD1    C514329   0.034   0.076  16.144 -0.2965 -0.0343 -0.4156
    3MPD1     H14330   4.731   0.405  16.340  0.8007  0.9142  1.1629
    3MPD1    H114331   0.117   4.732  16.319 -1.0756 -0.3654 -0.4313
    3MPD1    H214332   4.686   0.177  15.980  2.4584 -1.1221 -0.8454
    3MPD1    H314333   0.013   4.720  16.094  0.1720 -0.4280  0.1198
    3MPD1     N14334   0.081   0.214  16.487  0.6312 -0.0254  0.3786
    3MPD1    H514335   0.034   0.290  16.534 -2.9928  0.1860 -3.5860
    3MPD1    N114336   4.639   0.415  16.089  0.7098 -0.6817 -0.4955
    3MPD1    H614337   4.692   0.500  16.102 -0.3113  0.1120 -1.5172
    3MPD1    H714338   4.613   0.411  15.991  0.2612  1.2204 -0.4581
    1TMC1    C114339   2.643   3.832  13.445  0.6752  0.1172  0.5548
    1TMC1    C214340   2.535   3.740  13.453 -0.0896  0.2423  0.0085
    1TMC1    C314341   2.559   3.605  13.437  0.0942  0.9344  0.1715
    1TMC1    C414342   2.771   3.783  13.455 -0.1531 -0.3175 -0.0935
    1TMC1    C514343   2.783   3.653  13.436  0.2301  0.3798  0.2612
    1TMC1    C614344   2.682   3.564  13.431 -0.5784 -0.4533  0.0933
    1TMC1     C14345   2.611   3.972  13.445  1.3586 -0.5905  0.5266
    1TMC1     O14346   2.495   4.001  13.432 -0.9222 -0.3607  0.3792
    1TMC1     H14347   2.432   3.773  13.447 -0.5452 -0.5985  3.0170
    1TMC1    H114348   2.863   3.841  13.462 -0.5783  0.3803 -0.3196
    1TMC1    H214349   2.699   3.457  13.418 -2.6158 -1.2013  3.6384
    1TMC1    C714350   2.909   3.589  13.417 -0.0586 -0.3647  0.5678
    1TMC1    C814351   2.451   3.513  13.418 -0.0156  0.3882  0.2626
    1TMC1    O114352   2.911   3.482  13.359 -0.1836 -0.0361 -0.6984
    1TMC1    O214353   2.464   3.397  13.370  0.1143  0.3863  0.4421
    1TMC1    O314354   2.996   3.634  13.509  0.2002  0.4173 -0.0222
    1TMC1    H314355   2.964   3.711  13.561  2.4005  1.0480  0.3900
    1TMC1    O514356   2.391   3.537  13.534 -0.2414 -0.5386 -0.3400
    1TMC1    H514357   2.400   3.630  13.562  2.0577 -1.3242  1.5950
    2MPD2     C14358   2.623   4.269  13.400 -0.4398 -0.4290 -0.5891
    2MPD2    C114359   2.727   4.181  13.420  0.2621  0.2526 -0.3097
    2MPD2    C214360   2.856   4.230  13.430  0.6615 -0.1554  0.2247
    2MPD2    C314361   2.895   4.359  13.429 -0.4477  0.2230  0.3613
    2MPD2    C414362   2.790   4.445  13.413 -0.4007 -0.4802  0.2116
    2MPD2    C514363   2.658   4.401  13.406  0.1270 -0.0760 -1.0091
    2MPD2     H14364   2.937   4.163  13.457  0.1296  0.0690  2.3742
    2MPD2    H114365   2.798   4.553  13.409  0.3417 -0.5816 -1.0046
    2MPD2    H214366   2.518   4.247  13.386 -0.8996  0.1088  2.2019
    2MPD2    H314367   2.581   4.477  13.396  0.3894  0.1980 -0.9454
    2MPD2     N14368   3.031   4.388  13.443 -0.6246 -0.0528 -0.4321
    2MPD2    H514369   3.102   4.316  13.443 -1.6250 -1.0200  3.2808
    2MPD2    N114370   2.724   4.041  13.408  0.2381 -0.0165 -0.4967
    2MPD2    H714371   2.806   3.983  13.419  0.8213  0.5005 -2.0392
    3TCq1    O114372   3.630   4.669  13.492  0.1455 -0.2555 -0.2421
    3TCq1    C114373   3.506   0.001  13.486 -0.0774 -1.4771 -0.4221
    3TCq1    O214374   3.493   0.119  13.513  0.9345 -0.0386 -0.0852
    3TCq1    C214375   3.415   4.654  13.421 -0.3041  0.0101  0.4637
    3TCq1    C314376   3.471   4.565  13.330  0.9566 -0.0516  0.3789
    3TCq1    C414377   3.398   4.460  13.288  0.2109 -0.0317 -0.0291
    3TCq1    C514378   3.273   4.434  13.347 -0.6743 -0.9250  0.9563
    3TCq1    C614379   3.222   4.530  13.424  0.5695  0.8796  0.0301
    3TCq1    C714380   3.288   4.642  13.469 -0.6735  0.1943 -0.5543
    3TCq1    C814381   3.085   4.522  13.455  0.3091 -0.5661  0.7335
    3TCq1    O414382   3.023   4.625  13.469  0.2855 -0.1464 -0.3998
    3TCq1    C914383   3.453   4.356  13.201  0.6743 -0.0723  0.2586
    3TCq1    O514384   3.446   4.373  13.076  0.2872 -0.6719 -0.4105
    3TCq1    O614385   3.505   4.256  13.259  0.2359  0.1528 -0.1823
    3TCq1    H114386   3.615   4.572  13.494 -0.8725 -0.1127 -1.2197
    3TCq1    H214387   3.570   4.583  13.290 -0.1440  1.3969 -1.7349
    3TCq1    H314388   3.219   4.350  13.307  0.4667 -1.0907 -0.2378
    3TCq1    H414389   3.249   4.702  13.551 -2.0054 -1.9788  0.3834
    1MPD2     C14390   2.384   0.329  14.717 -0.2755  0.3406  0.2381
    1MPD2    C114391   2.339   0.222  14.789 -0.4011  0.4480 -0.9839
    1MPD2    C214392   2.434   0.148  14.863  0.1621 -0.7796 -0.1072
    1MPD2    C314393   2.566   0.186  14.877  0.3285  0.1695  0.3807
    1MPD2    C414394   2.607   0.291  14.795  0.4645 -0.5089  0.1583
    1MPD2    C514395   2.523   0.356  14.711  0.2165  0.0541 -0.0309
    1MPD2     H14396   2.393   0.054  14.899 -0.0624 -0.5147  0.3367
    1MPD2    H114397   2.713   0.312  14.785 -0.0713  1.6390 -0.9607
    1MPD2    H214398   2.314   0.369  14.645 -0.3261 -0.4464 -0.1396
    1MPD2    H314399   2.565   0.429  14.643  3.3908 -0.2940  1.5324
    1MPD2     N14400   2.665   0.136  14.959  1.0420  0.0202  0.0807
    1MPD2    H514401   2.752   0.187  14.959  1.8273 -1.2796  2.6940
    1MPD2    N114402   2.203   0.179  14.777  0.3650 -0.3247 -0.4752
    1MPD2    H714403   2.146   0.236  14.715  0.6894  1.9975  1.3468
    2TMC3    C114404   2.006   0.058  14.841  0.1784  0.2730  0.2942
    2TMC3    C214405   1.962   4.704  14.934 -0.0958 -0.2645  0.2490
    2TMC3    C314406   1.869   0.001  15.025 -0.4659  0.2951 -0.1329
    2TMC3    C414407   1.932   0.178  14.827  0.5622  0.2828  0.1937
    2TMC3    C514408   1.824   0.197  14.902  0.1477 -0.2824  0.4849
    2TMC3    C614409   1.789   0.111  15.005 -0.1004 -0.2575  0.5413
    2TMC3     C14410   2.148   0.080  14.855  0.0493 -0.3544 -0.3651
    2TMC3     O14411   2.196   0.017  14.947  0.6527  0.2341 -0.0328
    2TMC3     H14412   2.011   4.608  14.947  3.3334  1.3640 -0.5468
    2TMC3    H114413   1.950   0.243  14.743 -1.9987 -0.4391 -0.9223
    2TMC3    H214414   1.715   0.137  15.080 -1.0749  0.1464 -0.5559
    2TMC3    C714415   1.723   0.276  14.850 -0.3538 -0.3923 -0.2220
    2TMC3    C814416   1.912   4.726  15.162 -0.8285  0.1512 -0.0023
    2TMC3    O114417   1.606   0.250  14.876 -0.3525 -0.1056 -0.2809
    2TMC3    O214418   1.831   4.734  15.252  0.0056 -0.3468 -0.5730
    3TCq1    O114419   2.066   1.393  14.285 -0.5558  0.3662  0.0098
    3TCq1    C114420   1.960   1.338  14.342 -0.7178 -0.1281  0.4683
    3TCq1    O214421   1.848   1.370  14.310  0.3971 -0.1166 -0.1200
    3TCq1    C214422   1.985   1.193  14.363 -0.2756 -0.7607 -0.7436
    3TCq1    C314423   2.112   1.141  14.361 -0.8362 -0.1841 -0.1475
    3TCq1    C414424   2.118   1.004  14.386  0.1845 -0.3365 -0.1457
    3TCq1    C514425   2.007   0.930  14.419 -0.4822  0.0411  0.1517
    3TCq1    C614426   1.885   0.992  14.439  0.3435  0.3204  0.4796
    3TCq1    C714427   1.870   1.123  14.406 -0.0462  0.6148  0.0134
    3TCq1    C814428   1.775   0.901  14.464  0.6929 -0.4013 -0.3427
    3TCq1    O414429   1.660   0.933  14.435  0.0258  0.0722  0.4838
    3TCq1    C914430   2.243   0.937  14.382  0.4581 -0.4247 -0.1955
    3TCq1    O514431   2.232   0.816  14.402 -0.2653 -0.5847 -0.0771
    3TCq1    O614432   2.344   1.004  14.410 -0.2729 -0.3453  0.2023
    3TCq1    H114433   2.144   1.337  14.305  0.4300  1.0118 -2.1010
    3TCq1    H214434   2.201   1.199  14.338 -1.3126  0.5938 -0.0517
    3TCq1    H314435   2.011   0.823  14.430 -1.0563 -0.2546 -2.3225
    3TCq1    H414436   1.772   1.169  14.406  0.9488  2.7121  3.0177
    4MPD2     C14437   1.586   0.668  14.552  0.5350 -0.1253  0.0673
    4MPD2    C114438   1.717   0.687  14.591  0.4071  0.0236  0.3342
    4MPD2    C214439   1.771   0.593  14.679 -0.0965  0.4773  0.3544
    4MPD2    C314440   1.698   0.490  14.724  0.0765  0.2808  0.2714
    4MPD2    C414441   1.565   0.482  14.695  0.5040  0.3386 -0.4287
    4MPD2    C514442   1.507   0.571  14.608 -0.6469 -0.1539 -0.0181
    4MPD2     H14443   1.873   0.613  14.709 -0.4660 -0.7113  2.4265
    4MPD2    H114444   1.504   0.396  14.721  0.0699  0.2520 -1.7051
    4MPD2    H214445   1.533   0.744  14.495  0.4236 -1.6978 -1.9271
    4MPD2    H314446   1.406   0.558  14.571 -0.4445 -1.3608 -0.1517
    4MPD2     N14447   1.775   0.394  14.798  0.4806  0.0990  0.4324
    4MPD2    H514448   1.873   0.415  14.813  1.0666 -3.4046  1.6858
    4MPD2    N114449   1.805   0.795  14.551  0.4866  0.6910 -0.3173
    4MPD2    H714450   1.898   0.799  14.592  0.7966 -1.4380 -0.7964
    5TMC2    C114451   2.699   4.635  15.353 -0.3999  0.5595  0.1151
    5TMC2    C214452   2.776   4.736  15.411  0.6204  0.1740 -0.2998
    5TMC2    C314453   2.826   0.094  15.320 -0.3995  0.3551  0.2170
    5TMC2    C414454   2.688   4.630  15.222 -0.3615 -0.6128 -0.3796
    5TMC2    C514455   2.741   4.725  15.139  0.1610  0.4615 -0.7222
    5TMC2    C614456   2.814   0.091  15.182 -0.0484 -0.3101 -0.1925
    5TMC2     C14457   2.574   4.605  15.423  0.0645  0.0380 -0.1393
    5TMC2     O14458   2.583   4.600  15.545  0.0162  0.3857 -0.5962
    5TMC2     H14459   2.801   0.010  15.516 -3.1629 -0.8881  0.7041
    5TMC2    H114460   2.623   4.550  15.188 -0.7898 -0.0252 -0.9507
    5TMC2    H214461   2.852   0.169  15.118 -0.8483  1.1355  1.0748
    5TMC2    C714462   2.648   0.013  15.024 -0.7048 -0.1375  0.0486
    5TMC2    C814463   2.897   0.209  15.365 -0.2307 -1.0698 -0.3574
    5TMC2    O114464   2.551   4.674  15.023 -0.4505  0.2192 -0.3046
    5TMC2    O214465   3.017   0.225  15.354 -0.0404 -0.0595  0.2278
    5TMC2    O514466   2.841   0.235  15.485 -0.3555  0.8269 -0.6736
    5TMC2    H514467   2.745   0.217  15.492 -0.2874  0.6318 -0.1890
    6MPD2     C14468   2.086   4.701  15.417  0.1106 -0.1717 -0.2474
    6MPD2    C114469   2.129   4.690  15.287 -0.4315  0.6064  0.3368
    6MPD2    C214470   2.256   4.659  15.265 -0.3247 -0.2437  0.3164
    6MPD2    C314471   2.343   4.638  15.372 -0.4317  0.2167 -0.6795
    6MPD2    C414472   2.295   4.637  15.498 -0.4526 -0.2452  0.3735
    6MPD2    C514473   2.167   4.675  15.524 -0.3868  0.5124 -0.2196
    6MPD2     H14474   2.293   4.659  15.163  1.8264  0.7944  1.0811
    6MPD2    H114475   2.357   4.615  15.584 -0.1756  3.3429  1.0722
    6MPD2    H214476   1.986   4.728  15.448  0.2492  1.5858 -1.3536
    6MPD2    H314477   2.127   4.666  15.624  0.3808 -1.4957 -0.0895
    6MPD2     N14478   2.473   4.631  15.338 -0.2273 -0.4583  0.4861
    6MPD2    H514479   2.492   4.651  15.241  0.3365  1.8677  1.0754
    6MPD2    N114480   2.046   4.702  15.170 -0.1924 -0.0681 -0.1813
    6MPD2    H714481   2.095   4.700  15.081  1.3211 -0.1451  0.6435
  945NH3     N114482   1.286   4.642   9.445 -0.4871 -0.4215 -0.0064
  945NH3     H214483   1.331   4.726   9.479  1.3006 -1.3029 -0.1760
  945NH3     H314484   1.301   4.630   9.346 -1.6264 -2.0169  0.0049
  945NH3     H414485   1.187   4.661   9.453 -0.7542 -0.8531 -2.4247
  946SOD     NA14486   1.224   3.041  15.034  0.1208  0.1762 -0.1237
  947SOD     NA14487   1.552   1.038   6.524 -0.3852 -0.2506  0.2179
  948SOD     NA14488   4.125   0.932  17.097 -0.8152  0.3531  0.2271
  949SOD     NA14489   1.028   1.493   7.571  0.3641  0.2772  0.3885
  950SOD     NA14490   2.136   1.781  11.481  0.0961 -0.3641 -0.3701
  951SOD     NA14491   1.643   4.443  10.316  0.6844 -0.2398 -0.2266
  952SOD     NA14492   3.892   0.786  15.832  0.4832  0.1045 -0.1360
  953SOD     NA14493   2.633   4.731   4.908 -0.2618 -0.1388  0.2274
  954SOL     OW14494   3.005   1.668   5.305  0.4154  0.9533 -0.2029
  954SOL    HW114495   2.939   1.701   5.244 -0.3705  1.3021  0.8504
  954SOL    HW214496   3.029   1.758   5.329  0.5550  1.3498 -1.8100
  955SOL     OW14497   3.959   1.506   5.708  0.5704  0.3958 -0.0851
  955SOL    HW114498   4.041   1.552   5.687  0.0180  1.4279  0.0274
  955SOL    HW214499   3.918   1.577   5.757 -0.9438 -1.7503  1.7766
  956SOL     OW14500   1.467   3.379   0.870  0.1249  0.2212 -0.4610
  956SOL    HW114501   1.452   3.474   0.869  0.3460  0.2592 -0.1415
  956SOL    HW214502   1.382   3.351   0.904  1.0869 -2.3794 -0.2475
  957SOL     OW14503   0.864   4.424  15.615  0.1011 -0.1103 -0.2066
  957SOL    HW114504   0.820   4.344  15.642 -0.3004  1.4776  3.8375
  957SOL    HW214505   0.798   4.459  15.555  0.8835  1.7249 -0.0062
  958SOL     OW14506   4.189   2.615   0.122 -0.2018 -0.0715 -0.6164
  958SOL    HW114507   4.130   2.676   0.078  0.3262 -1.1162 -2.8131
  958SOL    HW214508   4.165   2.538   0.070  0.1228 -0.9381  0.5267
  959SOL     OW14509   0.268   1.749   4.227 -0.0183 -0.3099  0.5675
  959SOL    HW114510   0.340   1.748   4.289  0.8689 -0.0541 -0.4551
  959SOL    HW214511   0.244   1.660   4.250  2.6321 -0.7454  1.6017
  960SOL     OW14512   3.637   2.547  16.542 -0.5910  0.3157 -0.3091
  960SOL    HW114513   3.623   2.606  16.616 -1.2512 -1.6645  1.1699
  960SOL    HW214514   3.557   2.494  16.536 -1.8700  2.1958  0.2342
  961SOL     OW14515   3.849   1.343   0.821  0.3732  0.4827 -0.4106
  961SOL    HW114516   3.901   1.366   0.898 -0.9731 -3.0765  1.5584
  961SOL    HW214517   3.912   1.279   0.789  1.9039  1.3225  0.9074
  962SOL     OW14518   3.087   3.128   4.631  0.1127 -0.5750 -0.1838
  962SOL    HW114519   3.058   3.100   4.544 -0.5653 -2.6902  0.7058
  962SOL    HW214520   3.134   3.203   4.597 -1.6994  1.3868  1.6111
  963SOL     OW14521   1.487   4.536   6.995  0.0643 -0.7513 -0.6415
  963SOL    HW114522   1.502   4.578   6.910 -0.2454  0.8915  0.1216
  963SOL    HW214523   1.395   4.561   7.008  1.1416  1.7682  2.1691
  964SOL     OW14524   4.078   3.725   6.786  0.6195 -0.6595 -0.2566
  964SOL    HW114525   4.082   3.732   6.691  1.4691 -1.6082 -0.2930
  964SOL    HW214526   3.984   3.734   6.794  0.5154 -1.9124 -0.0266
  965SOL     OW14527   0.693   1.932  10.669 -0.0051 -0.2472 -0.4280
  965SOL    HW114528   0.618   1.884  10.704 -0.7748  1.9509  0.9546
  965SOL    HW214529   0.665   1.952  10.579  1.9528 -2.3825 -1.5248
  966SOL     OW14530   1.451   4.080   7.638 -0.1754  0.5700 -0.2666
  966SOL    HW114531   1.426   4.170   7.656  1.2084  1.1994 -1.5974
  966SOL    HW214532   1.361   4.047   7.638 -0.7835  2.1981  2.0151
  967SOL     OW14533   4.437   0.858   5.941 -0.3024 -0.3679  0.6892
  967SOL    HW114534   4.349   0.896   5.939 -0.0297  0.0818 -2.4398
  967SOL    HW214535   4.441   0.804   5.862  0.6297  1.4220 -0.4785
  968SOL     OW14536   3.632   3.256   9.831  0.2479  0.7081 -0.2954
  968SOL    HW114537   3.605   3.175   9.873 -0.9996  0.1875 -2.0895
  968SOL    HW214538   3.631   3.318   9.904 -1.8830  1.3295 -0.8356
  969SOL     OW14539   2.004   1.956  10.094  0.3148 -0.0452 -0.3304
  969SOL    HW114540   2.072   2.023  10.104 -0.2079  0.1919  1.6083
  969SOL    HW214541   1.949   1.973  10.170 -0.1696 -1.2690 -0.4155
  970SOL     OW14542   0.943   0.172   2.553  0.1924  0.1619 -0.4601
  970SOL    HW114543   0.914   0.257   2.520 -0.3058 -0.6004 -1.9702
  970SOL    HW214544   0.997   0.141   2.481 -0.3055  0.8516 -1.1231
  971SOL     OW14545   0.204   1.338   5.653  0.1120  0.3765 -0.1192
  971SOL    HW114546   0.115   1.363   5.677  0.2972 -0.7979  1.8184
  971SOL    HW214547   0.260   1.416   5.661  0.6251  0.1093 -1.1119
  972SOL     OW14548   2.813   1.688   3.344 -0.3450 -0.5701 -0.3068
  972SOL    HW114549   2.768   1.730   3.271  2.7749  1.9331 -0.8254
  972SOL    HW214550   2.761   1.719   3.419 -1.3038 -0.0515 -1.1955
  973SOL     OW14551   2.323   3.001  11.216  0.2628 -0.8577 -0.1326
  973SOL    HW114552   2.300   3.037  11.302  0.3716 -0.6862 -0.1755
  973SOL    HW214553   2.384   3.068  11.185 -0.7963 -0.0927 -0.5572
  974SOL     OW14554   4.615   3.751   6.633  0.0874 -0.2542  0.4714
  974SOL    HW114555   4.698   3.794   6.614  0.0688  0.2828  1.6392
  974SOL    HW214556   4.609   3.755   6.728  2.8167  0.6189  0.6055
  975SOL     OW14557   2.739   0.565  10.473 -0.7336 -0.1135  0.0121
  975SOL    HW114558   2.702   0.513  10.545 -0.0063 -0.0305  0.4493
  975SOL    HW214559   2.801   0.500  10.439  0.4102  1.2697 -0.5437
  976SOL     OW14560   0.176   1.579   0.627 -0.4908  0.2801  0.0077
  976SOL    HW114561   0.190   1.568   0.721  0.9688  0.4250 -0.1881
  976SOL    HW214562   0.089   1.541   0.613  1.0225 -2.2685 -2.5975
  977SOL     OW14563   1.616   2.083   9.904  0.2061  0.3256  0.4149
  977SOL    HW114564   1.660   2.153   9.951  0.1660  0.3356  0.4375
  977SOL    HW214565   1.670   2.011   9.937  0.6141  1.0496  1.3083
  978SOL     OW14566   4.522   3.281   6.601 -0.1708 -0.0539  0.4334
  978SOL    HW114567   4.459   3.256   6.533  0.4934  0.4917 -0.3907
  978SOL    HW214568   4.489   3.370   6.615  1.2159  0.6702 -0.8361
  979SOL     OW14569   4.399   1.597   2.843 -0.5737  0.6719 -0.3836
  979SOL    HW114570   4.395   1.537   2.769  0.2323 -1.3992  1.2811
  979SOL    HW214571   4.310   1.584   2.876  0.4623 -0.4623  1.9653
  980SOL     OW14572   3.731   2.604   3.412  0.4738 -0.1881 -0.3568
  980SOL    HW114573   3.715   2.605   3.317  1.4508 -1.0821 -0.5239
  980SOL    HW214574   3.817   2.564   3.421  0.8133  0.5665 -0.2748
  981SOL     OW14575   2.503   3.183  16.951  0.2208  0.3276  0.6831
  981SOL    HW114576   2.470   3.098  16.923  0.4886  0.2528  0.5938
  981SOL    HW214577   2.503   3.215  16.861 -3.0910  0.7054  0.8015
  982SOL     OW14578   0.431   1.478   7.956  0.0692  0.3058 -0.0161
  982SOL    HW114579   0.356   1.469   7.897  0.7221  1.0259 -0.9678
  982SOL    HW214580   0.388   1.458   8.039  0.0310 -1.7292 -0.5160
  983SOL     OW14581   1.763   3.263   4.735 -0.4265 -0.1385  0.3987
  983SOL    HW114582   1.670   3.270   4.711 -0.3572 -2.0166 -0.3406
  983SOL    HW214583   1.802   3.340   4.694  0.4922  0.7571  2.9311
  984SOL     OW14584   1.025   2.895   0.556 -0.2455  0.2357  0.1585
  984SOL    HW114585   0.956   2.834   0.582  0.9455 -0.3403  1.8752
  984SOL    HW214586   1.045   2.932   0.642  1.0922  1.3609 -0.6390
  985SOL     OW14587   3.134   4.479   1.218  0.0377  0.5356 -0.5179
  985SOL    HW114588   3.170   4.553   1.268  3.5182 -0.7927 -1.0724
  985SOL    HW214589   3.213   4.442   1.179  0.9257  2.5424 -0.6323
  986SOL     OW14590   3.880   4.172   5.057 -0.0081 -0.6353 -0.3780
  986SOL    HW114591   3.858   4.201   4.969 -1.4732  0.4086  0.3448
  986SOL    HW214592   3.897   4.078   5.050 -1.0255 -0.9780  1.7384
  987SOL     OW14593   3.887   4.662  14.699  0.8591 -0.4390  0.2050
  987SOL    HW114594   3.972   4.703  14.715  2.0640 -2.7389 -0.4276
  987SOL    HW214595   3.896   4.581  14.650 -0.9493 -0.6315  0.1970
  988SOL     OW14596   4.130   1.142   3.634 -0.1132  0.5381 -0.2418
  988SOL    HW114597   4.152   1.215   3.692  2.5795  0.7401 -1.5284
  988SOL    HW214598   4.070   1.100   3.696 -1.7106 -0.6406 -2.5471
  989SOL     OW14599   4.304   2.600  12.208  0.0957  0.0192  0.3839
  989SOL    HW114600   4.220   2.631  12.176 -0.0943  0.5196  1.3829
  989SOL    HW214601   4.349   2.678  12.240 -2.3611  0.7371  2.0336
  990SOL     OW14602   3.671   2.202   2.667 -0.6317 -0.4051  0.0877
  990SOL    HW114603   3.598   2.144   2.648  0.3959 -2.2431  1.7295
  990SOL    HW214604   3.631   2.285   2.641 -0.8388 -0.0137  1.6065
  991SOL     OW14605   0.142   1.000  17.140 -0.3192 -0.5712  0.0894
  991SOL    HW114606   0.231   1.004  17.176 -1.3597 -0.1340  2.6101
  991SOL    HW214607   0.109   1.090  17.136 -1.0398 -0.7574  1.6795
  992SOL     OW14608   1.531   2.459   3.289  0.0058  0.4039  0.1841
  992SOL    HW114609   1.613   2.474   3.243  0.4085 -0.4945  0.5969
  992SOL    HW214610   1.563   2.390   3.347 -2.3465  0.4005  1.4777
  993SOL     OW14611   2.716   3.651   7.070  0.0106 -0.2976 -0.5395
  993SOL    HW114612   2.628   3.646   7.032 -0.4375  1.2560  0.3031
  993SOL    HW214613   2.749   3.717   7.009  1.4210 -1.8698 -1.4813
  994SOL     OW14614   2.361   1.595  12.631 -0.0257 -0.0657  0.3541
  994SOL    HW114615   2.385   1.548  12.711  0.5668 -1.1522 -0.4530
  994SOL    HW214616   2.293   1.536  12.599  0.5062  0.6146 -2.0185
  995SOL     OW14617   0.393   0.838   6.259  0.1673  0.3419  0.0074
  995SOL    HW114618   0.321   0.878   6.308  0.6675  2.2969 -0.8751
  995SOL    HW214619   0.379   0.863   6.168  0.4912  0.0083 -0.1346
  996SOL     OW14620   3.047   1.077  13.485 -0.2315  0.8770  0.2145
  996SOL    HW114621   3.015   1.043  13.569 -1.0653  0.4242 -0.2887
  996SOL    HW214622   3.136   1.101  13.510  0.2421 -2.0695  1.3379
  997SOL     OW14623   2.086   4.613   6.956 -0.3407 -0.2427 -0.2651
  997SOL    HW114624   2.131   4.571   7.029 -2.0215 -1.3585  0.1581
  997SOL    HW214625   2.025   4.674   6.998 -0.7639  0.1283 -1.4234
  998SOL     OW14626   0.114   0.102   7.274 -0.0233 -0.3077 -0.0371
  998SOL    HW114627   0.147   0.083   7.362  1.3633 -0.4573 -0.5854
  998SOL    HW214628   0.020   0.086   7.287  0.0767  0.8146  2.0813
  999SOL     OW14629   2.069   1.528   6.931  0.6622  0.0638 -0.2341
  999SOL    HW114630   2.112   1.509   6.847  1.1032 -1.3414  0.3069
  999SOL    HW214631   1.994   1.583   6.911 -0.7660 -0.5285  3.6707
 1000SOL     OW14632   1.205   3.748  11.516 -0.1202 -0.1100 -0.1037
 1000SOL    HW114633   1.258   3.752  11.436 -0.2857 -0.8207 -0.2450
 1000SOL    HW214634   1.169   3.660  11.505  0.4450 -0.3508 -0.0611
 1001SOL     OW14635   0.617   4.489   4.026 -0.3667  0.1982 -0.3194
 1001SOL    HW114636   0.583   4.489   3.937  2.4106  2.5289 -1.3535
 1001SOL    HW214637   0.531   4.473   4.066 -0.9130  0.5269 -1.3725
 1002SOL     OW14638   2.998   3.510   8.647 -0.2767 -0.3304 -0.1386
 1002SOL    HW114639   3.025   3.591   8.690 -0.4598  0.9736 -2.4935
 1002SOL    HW214640   3.058   3.446   8.684  0.7582 -0.0082 -1.2505
 1003SOL     OW14641   3.220   3.775  14.221 -0.4486 -0.0174  0.4689
 1003SOL    HW114642   3.282   3.833  14.263 -0.6059 -0.8385  1.8350
 1003SOL    HW214643   3.139   3.821  14.241 -0.2036  0.7251 -0.2467
 1004SOL     OW14644   2.285   3.491  16.597 -0.1755 -0.4667 -0.2512
 1004SOL    HW114645   2.333   3.500  16.515  0.3313  0.9645  0.2105
 1004SOL    HW214646   2.253   3.581  16.606  1.4860  0.2816 -1.9177
 1005SOL     OW14647   2.691   1.623   1.896  0.7387  0.3084 -0.0066
 1005SOL    HW114648   2.716   1.713   1.916  1.8676 -0.0828  0.3421
 1005SOL    HW214649   2.762   1.609   1.832 -2.0946  1.8115 -3.4669
 1006SOL     OW14650   3.698   2.739   2.601 -0.1882 -1.0500 -0.1696
 1006SOL    HW114651   3.760   2.798   2.644 -0.4767  0.0596 -1.2783
 1006SOL    HW214652   3.747   2.680   2.542 -1.9991 -0.0217 -2.6998
 1007SOL     OW14653   3.509   4.358  11.073 -0.0341 -0.2681 -0.0589
 1007SOL    HW114654   3.463   4.279  11.042 -0.5063  1.0231 -2.6337
 1007SOL    HW214655   3.457   4.388  11.147 -2.2083 -0.4354 -1.5264
 1008SOL     OW14656   4.170   4.059  11.544  0.2117 -0.0069  0.3519
 1008SOL    HW114657   4.157   4.111  11.624 -1.8504  0.8723 -0.5421
 1008SOL    HW214658   4.250   4.094  11.505 -1.3591  1.8446 -1.2128
 1009SOL     OW14659   2.755   2.702   7.986 -0.2993  0.0493  0.2104
 1009SOL    HW114660   2.730   2.703   8.078  2.6983  1.6303  1.0054
 1009SOL    HW214661   2.682   2.740   7.937 -0.8578 -0.0815  0.9447
 1010SOL     OW14662   2.926   4.134   5.398 -0.5429 -0.3198  0.2392
 1010SOL    HW114663   2.987   4.123   5.326  1.5605 -1.6153  2.2319
 1010SOL    HW214664   2.909   4.046   5.431 -0.9890 -0.2784  0.1257
 1011SOL     OW14665   2.641   2.249   7.669  1.0259  0.5259 -0.1239
 1011SOL    HW114666   2.570   2.258   7.732  0.2794 -2.3480 -0.5345
 1011SOL    HW214667   2.702   2.314   7.703  0.0178  0.4112  1.9486
 1012SOL     OW14668   1.323   0.560   6.448 -0.4767 -0.1261  0.0386
 1012SOL    HW114669   1.307   0.655   6.455 -3.0854 -0.5572  0.0890
 1012SOL    HW214670   1.317   0.555   6.353 -1.2042 -2.4404  0.2115
 1013SOL     OW14671   2.187   0.580   9.999 -0.3460 -0.0437  0.1758
 1013SOL    HW114672   2.101   0.608  10.032 -0.3789 -1.1207  1.0207
 1013SOL    HW214673   2.231   0.556  10.081  1.2969  0.9590 -0.4291
 1014SOL     OW14674   3.768   3.768  13.670 -0.4103  0.1419  0.0471
 1014SOL    HW114675   3.773   3.708  13.743 -0.2392 -0.6522 -0.6149
 1014SOL    HW214676   3.678   3.746  13.645 -1.2226  4.8248 -1.1199
 1015SOL     OW14677   2.422   2.279  12.934 -0.1924  0.3105  0.2734
 1015SOL    HW114678   2.358   2.208  12.929 -0.3046  0.4090  0.3170
 1015SOL    HW214679   2.404   2.330  12.855 -1.2198 -1.5818 -0.6963
 1016SOL     OW14680   4.216   2.814   2.252  0.3868  0.4389  0.0066
 1016SOL    HW114681   4.296   2.855   2.288 -1.4687  3.4916  0.6555
 1016SOL    HW214682   4.244   2.772   2.171  0.8756  0.2668  0.2630
 1017SOL     OW14683   4.161   0.842   5.799 -0.5694  0.2385 -1.2246
 1017SOL    HW114684   4.208   0.771   5.755  1.1015  1.1946 -1.0082
 1017SOL    HW214685   4.128   0.801   5.879 -2.4544  1.0456 -1.6008
 1018SOL     OW14686   4.393   0.290   7.279  0.3180 -0.3737 -0.0519
 1018SOL    HW114687   4.349   0.282   7.194  0.2514 -0.8107  0.0205
 1018SOL    HW214688   4.467   0.234   7.254 -0.3101 -1.5374  0.6897
 1019SOL     OW14689   1.492   3.247   0.080 -0.2710  0.0527 -0.0550
 1019SOL    HW114690   1.463   3.284   0.163 -0.0489  0.2482 -0.0663
 1019SOL    HW214691   1.424   3.180   0.072 -0.2589  0.0420 -0.0695
 1020SOL     OW14692   1.633   0.674  15.259  0.3236 -0.4290  0.4184
 1020SOL    HW114693   1.648   0.703  15.349  0.5062  0.6084  0.0576
 1020SOL    HW214694   1.538   0.669  15.265  0.5614 -1.9189  2.9700
 1021SOL     OW14695   0.808   1.783   9.600  0.0516 -0.2001  0.3868
 1021SOL    HW114696   0.837   1.870   9.574 -0.3038  0.4366  2.1542
 1021SOL    HW214697   0.894   1.745   9.619  0.7272  1.8629  1.4645
 1022SOL     OW14698   3.783   4.643  12.358  0.5169 -0.2585  0.2579
 1022SOL    HW114699   3.842   4.568  12.350 -0.4585 -0.8230 -1.6906
 1022SOL    HW214700   3.795   4.674  12.448  0.4049 -0.8726  0.4872
 1023SOL     OW14701   3.028   0.536   8.559  0.7630  0.7141 -0.2730
 1023SOL    HW114702   3.019   0.583   8.476 -2.6522  0.7134  0.0962
 1023SOL    HW214703   3.019   0.602   8.628 -0.2551  0.1694  0.1267
 1024SOL     OW14704   4.101   4.150  14.989 -0.6740  0.0303 -0.4383
 1024SOL    HW114705   4.180   4.141  14.935  0.6330 -0.3435  1.5132
 1024SOL    HW214706   4.033   4.134  14.924 -0.6631 -3.2495  0.3508
 1025SOL     OW14707   2.175   0.542   5.711 -0.2801 -0.2064 -0.4950
 1025SOL    HW114708   2.257   0.578   5.676 -0.7517  1.1695 -0.2059
 1025SOL    HW214709   2.110   0.595   5.666  1.5665  1.5129 -1.1574
 1026SOL     OW14710   0.298   0.496   6.762  0.1591 -0.2025 -0.0795
 1026SOL    HW114711   0.339   0.421   6.721  1.0317 -0.1301  0.6755
 1026SOL    HW214712   0.206   0.468   6.759  0.1043  0.0763 -1.0311
 1027SOL     OW14713   3.351   3.219   9.046  0.3848  0.5054 -0.4846
 1027SOL    HW114714   3.377   3.253   9.132  0.1468  1.0715 -0.6362
 1027SOL    HW214715   3.430   3.205   8.994 -0.0419  1.3266 -1.3660
 1028SOL     OW14716   4.027   2.804   7.687 -0.3438  0.2165  0.0790
 1028SOL    HW114717   3.975   2.748   7.629 -0.8958 -0.9819  1.7227
 1028SOL    HW214718   3.959   2.870   7.699 -0.6056  0.1240 -0.9122
 1029SOL     OW14719   1.098   0.833   7.603 -0.8232  0.2308 -0.2415
 1029SOL    HW114720   1.112   0.780   7.682  1.3607 -1.0690 -1.4916
 1029SOL    HW214721   1.006   0.832   7.578 -0.2525 -0.5399 -2.2913
 1030SOL     OW14722   2.179   2.162   8.062 -0.1645  0.4133 -0.3488
 1030SOL    HW114723   2.178   2.173   7.967  0.0255  1.1415 -0.2628
 1030SOL    HW214724   2.270   2.137   8.077 -0.5047 -1.5016 -1.4803
 1031SOL     OW14725   3.663   3.647   6.495  0.4041 -0.2958  0.1440
 1031SOL    HW114726   3.570   3.666   6.500 -0.0850 -2.9554  1.0366
 1031SOL    HW214727   3.660   3.556   6.467  0.4424 -1.0159  2.5286
 1032SOL     OW14728   1.959   1.999   8.145  0.4235  0.1088  0.4803
 1032SOL    HW114729   2.043   2.042   8.152  0.4810  0.2665 -1.1756
 1032SOL    HW214730   1.982   1.907   8.161  1.0038  0.0625 -0.6332
 1033SOL     OW14731   0.713   4.194   3.142  0.0631 -0.3391  0.4964
 1033SOL    HW114732   0.761   4.186   3.059  0.5166  0.4336  0.6816
 1033SOL    HW214733   0.629   4.152   3.125 -0.1901  0.4431 -0.1352
 1034SOL     OW14734   3.825   2.041   4.034  0.0153 -0.0750 -0.2378
 1034SOL    HW114735   3.865   1.988   4.103 -0.2135 -0.8841 -0.7118
 1034SOL    HW214736   3.902   2.065   3.983 -2.0293  3.5816 -1.6054
 1035SOL     OW14737   1.517   1.990   3.705 -0.3457  0.8518 -0.1284
 1035SOL    HW114738   1.588   1.973   3.767 -0.9286  0.9427  0.5538
 1035SOL    HW214739   1.507   1.901   3.670 -2.3998  0.7451  0.7776
 1036SOL     OW14740   3.913   4.123   6.538  0.2237 -0.0752 -0.0626
 1036SOL    HW114741   3.938   4.208   6.575  0.1237 -0.0521 -0.0481
 1036SOL    HW214742   4.001   4.085   6.546  0.0868 -0.1035  1.3959
 1037SOL     OW14743   1.701   3.209   0.874 -0.8895 -0.5420  1.1136
 1037SOL    HW114744   1.695   3.178   0.783 -0.0026 -1.5653  1.4109
 1037SOL    HW214745   1.618   3.256   0.875  0.7769  2.5412 -1.6978
 1038SOL     OW14746   2.673   1.744  13.178  0.0493  0.6973 -0.0591
 1038SOL    HW114747   2.607   1.682  13.211 -0.9471 -0.0481 -3.5255
 1038SOL    HW214748   2.692   1.716  13.089 -1.1351  1.8850 -0.6735
 1039SOL     OW14749   2.844   2.631   4.686  0.0895  0.2775 -0.6642
 1039SOL    HW114750   2.905   2.704   4.700  0.7015 -0.3856  0.1057
 1039SOL    HW214751   2.872   2.571   4.755 -1.4856 -1.6558 -1.7403
 1040SOL     OW14752   2.397   1.666   8.737 -0.5313  0.3160 -0.4756
 1040SOL    HW114753   2.441   1.602   8.793  0.5349  1.1977 -0.3057
 1040SOL    HW214754   2.330   1.713   8.786 -0.9991  0.8530 -1.6198
 1041SOL     OW14755   3.594   2.908   3.008 -0.3573 -0.2394 -0.0507
 1041SOL    HW114756   3.519   2.943   2.958  0.1968  2.8939  1.3037
 1041SOL    HW214757   3.564   2.930   3.096  0.8003 -1.4928  0.6319
 1042SOL     OW14758   0.004   2.050   2.604  0.5738  0.0730  0.2180
 1042SOL    HW114759   4.667   2.092   2.649 -0.1448 -1.4596  0.4588
 1042SOL    HW214760   0.058   2.020   2.677  0.4262 -0.7574 -0.0234
 1043SOL     OW14761   3.215   3.593   7.799 -0.5408 -0.1130 -0.3500
 1043SOL    HW114762   3.292   3.582   7.856 -0.5771  1.8617  0.0517
 1043SOL    HW214763   3.148   3.622   7.861  0.6155  0.0358  0.8346
 1044SOL     OW14764   3.378   1.008  15.758 -0.5248 -0.4669 -1.0265
 1044SOL    HW114765   3.379   0.926  15.708 -2.5785 -0.9923 -0.1975
 1044SOL    HW214766   3.319   0.989  15.830  1.1687 -0.9051  0.2466
 1045SOL     OW14767   2.874   1.247   3.941 -0.4157  0.1322  0.3829
 1045SOL    HW114768   2.814   1.289   3.879  0.6880  0.4310 -0.4805
 1045SOL    HW214769   2.907   1.172   3.891  0.3340  0.4539  0.3979
 1046SOL     OW14770   1.395   2.395  17.504 -0.5717  0.3398 -0.6598
 1046SOL    HW114771   1.460   2.365  17.441 -0.0743 -0.3350  0.1784
 1046SOL    HW214772   1.432   2.350  17.579  0.1885  1.6069 -0.2716
 1047SOL     OW14773   0.807   4.065  15.374 -0.4068 -0.4608  0.1743
 1047SOL    HW114774   0.800   3.975  15.406  1.3110 -1.6212 -2.6912
 1047SOL    HW214775   0.795   4.102  15.461 -0.7603 -1.9538  0.7669
 1048SOL     OW14776   1.499   3.379  15.208  0.2367 -0.2533 -0.0572
 1048SOL    HW114777   1.444   3.444  15.252 -0.2354 -0.4880 -0.2950
 1048SOL    HW214778   1.588   3.392  15.239  0.2096 -0.5861  0.1565
 1049SOL     OW14779   3.795   3.338  12.995 -0.6339 -0.1630 -0.1511
 1049SOL    HW114780   3.881   3.377  12.983  0.6434 -2.9039  0.2049
 1049SOL    HW214781   3.744   3.401  13.047 -0.8703  0.6394 -1.3180
 1050SOL     OW14782   3.421   2.599   1.413  0.3360  0.3161 -0.1255
 1050SOL    HW114783   3.355   2.622   1.348 -0.3286  0.3937  0.5630
 1050SOL    HW214784   3.459   2.682   1.442 -0.4975  0.5492  0.3041
 1051SOL     OW14785   1.278   0.917   0.727 -0.2104  0.3148  0.2514
 1051SOL    HW114786   1.197   0.867   0.727 -0.4949  0.7854  0.9336
 1051SOL    HW214787   1.340   0.857   0.685 -1.2251  0.3766 -1.3191
 1052SOL     OW14788   0.420   2.378   7.112  0.1072 -0.1042 -0.1930
 1052SOL    HW114789   0.426   2.288   7.145  0.4551 -0.9879 -2.7033
 1052SOL    HW214790   0.327   2.382   7.091  0.3283 -0.6486 -1.2746
 1053SOL     OW14791   3.713   2.750   2.010 -0.3574  0.4527 -0.1417
 1053SOL    HW114792   3.673   2.675   2.054 -1.4804  3.2160  3.5522
 1053SOL    HW214793   3.633   2.795   1.982 -0.1593  0.5853 -0.4923
 1054SOL     OW14794   2.012   0.472  12.253  0.3386  0.4545  0.2143
 1054SOL    HW114795   1.989   0.555  12.210  0.1997  0.1537 -0.2985
 1054SOL    HW214796   2.092   0.455  12.204  0.0541 -2.4128  0.7410
 1055SOL     OW14797   4.258   3.002   5.172  0.1612  0.1309 -0.4189
 1055SOL    HW114798   4.281   3.054   5.250 -0.7350  0.6384 -0.4846
 1055SOL    HW214799   4.239   2.913   5.202  1.4873  0.8533  2.6259
 1056SOL     OW14800   4.692   3.202   5.491  0.5411  0.1920 -0.2213
 1056SOL    HW114801   4.717   3.117   5.526  0.2374 -0.4954 -1.6532
 1056SOL    HW214802   4.679   3.186   5.397  2.9349  0.8621 -0.6617
 1057SOL     OW14803   4.178   1.189   8.609  0.0382 -0.1070  0.5692
 1057SOL    HW114804   4.208   1.267   8.562 -1.1646 -0.0999 -0.2150
 1057SOL    HW214805   4.236   1.119   8.579  0.5461  1.8778 -3.0852
 1058SOL     OW14806   4.412   1.158   6.191 -0.5027  0.1581 -0.2843
 1058SOL    HW114807   4.456   1.097   6.251 -0.0301  0.7753  0.0044
 1058SOL    HW214808   4.492   1.198   6.156 -0.7788  0.6595 -0.3246
 1059SOL     OW14809   3.234   4.623   8.894 -0.2002  0.1946  0.3592
 1059SOL    HW114810   3.291   4.552   8.923  0.8032  0.0361 -1.9968
 1059SOL    HW214811   3.288   4.699   8.871  0.1101  0.0265  0.5440
 1060SOL     OW14812   3.341   4.491   0.748 -0.0268 -0.4670 -0.5708
 1060SOL    HW114813   3.382   4.405   0.737 -1.7705 -1.0404 -2.7854
 1060SOL    HW214814   3.263   4.475   0.695  0.2760 -1.5226 -0.6988
 1061SOL     OW14815   1.410   4.452   9.150  0.4809 -0.3090 -0.0570
 1061SOL    HW114816   1.327   4.498   9.153 -0.0556 -1.2780  0.0545
 1061SOL    HW214817   1.476   4.516   9.124 -0.0299 -0.2759 -1.2458
 1062SOL     OW14818   3.265   0.902   2.493  0.0714  0.5873  0.1041
 1062SOL    HW114819   3.280   0.822   2.444  0.6661  0.4158  0.5691
 1062SOL    HW214820   3.327   0.897   2.566 -0.0573  0.3328  0.1942
 1063SOL     OW14821   3.662   0.063   8.231  0.4982  0.1606 -0.4964
 1063SOL    HW114822   3.732   0.067   8.296  1.3978 -2.6220 -1.2805
 1063SOL    HW214823   3.713   0.011   8.169  1.2497  0.0086  0.2567
 1064SOL     OW14824   1.186   1.117   6.745 -0.9257  0.3251  0.1724
 1064SOL    HW114825   1.210   1.125   6.838  2.2007 -3.6111 -0.2370
 1064SOL    HW214826   1.240   1.187   6.708 -0.1917 -1.0636 -1.4007
 1065SOL     OW14827   4.379   3.871   7.581 -0.0182 -0.4705 -0.2014
 1065SOL    HW114828   4.335   3.915   7.508 -0.8023  1.0513  1.1870
 1065SOL    HW214829   4.458   3.920   7.603  0.3998 -0.9095 -0.7120
 1066SOL     OW14830   4.418   3.329  13.675  0.1378 -0.6201 -0.4463
 1066SOL    HW114831   4.378   3.247  13.647 -2.2303  0.1143  0.7776
 1066SOL    HW214832   4.384   3.389  13.610  0.6475 -0.0558 -0.1943
 1067SOL     OW14833   0.435   2.717   4.296  0.4792  0.8614 -0.5946
 1067SOL    HW114834   0.482   2.640   4.265 -1.3300  0.5418 -2.5171
 1067SOL    HW214835   0.488   2.793   4.274  0.3695  1.2782  0.5529
 1068SOL     OW14836   1.053   2.185   9.519  0.7759  0.3779  0.3707
 1068SOL    HW114837   1.112   2.118   9.554 -0.8002 -1.3800 -0.2904
 1068SOL    HW214838   1.008   2.214   9.598  0.9591  1.7594 -0.0413
 1069SOL     OW14839   1.004   3.430   9.662 -0.4101 -0.1774  0.3006
 1069SOL    HW114840   0.973   3.411   9.574  0.0340 -0.5727  0.2273
 1069SOL    HW214841   1.016   3.522   9.638  2.1372 -0.4239  0.6187
 1070SOL     OW14842   0.668   2.386  12.555 -0.4731  0.1079 -0.2167
 1070SOL    HW114843   0.748   2.418  12.514  1.0257  0.6702  3.1872
 1070SOL    HW214844   0.697   2.365  12.643  0.2830 -1.1483 -0.7580
 1071SOL     OW14845   0.963   0.438   9.064  0.2639  0.4216 -0.4347
 1071SOL    HW114846   1.040   0.383   9.046  0.7757  0.6020  1.2640
 1071SOL    HW214847   1.005   0.486   9.135  1.0441  1.3307 -1.4857
 1072SOL     OW14848   1.867   2.456   5.419  1.0795 -0.7548  0.4108
 1072SOL    HW114849   1.929   2.527   5.436 -2.1361  1.7261  1.7137
 1072SOL    HW214850   1.852   2.477   5.326 -1.5772  0.0768  1.0380
 1073SOL     OW14851   2.966   0.266  16.093 -0.2904  0.5474 -0.1471
 1073SOL    HW114852   2.950   0.246  16.001 -0.8988  0.9818 -0.1311
 1073SOL    HW214853   3.058   0.295  16.084  0.0755 -0.2968  0.9243
 1074SOL     OW14854   3.489   1.586  12.774  0.5252 -0.5908 -0.0716
 1074SOL    HW114855   3.552   1.656  12.791 -0.0061  0.1427 -1.1084
 1074SOL    HW214856   3.557   1.521  12.757  0.6053 -0.3344 -0.6963
 1075SOL     OW14857   4.466   4.058  14.126 -0.5341  0.1618 -0.3861
 1075SOL    HW114858   4.560   4.039  14.130 -0.9473 -1.2603  2.3778
 1075SOL    HW214859   4.424   3.973  14.144  1.7589 -1.0504 -0.7871
 1076SOL     OW14860   0.813   4.349  12.753 -0.1898 -0.4138 -0.3592
 1076SOL    HW114861   0.833   4.343  12.846  0.8716  2.0915 -0.4239
 1076SOL    HW214862   0.728   4.309  12.769  0.3388 -2.6690 -3.2593
 1077SOL     OW14863   0.822   0.836   4.882  0.6043 -0.1431 -0.3362
 1077SOL    HW114864   0.884   0.794   4.822  1.5880  2.4683 -1.1532
 1077SOL    HW214865   0.877   0.855   4.957  2.3300  2.1061 -2.1869
 1078SOL     OW14866   2.388   1.941   6.318  0.1555  0.3931 -0.6348
 1078SOL    HW114867   2.336   1.996   6.259  2.3811  0.3121 -2.6586
 1078SOL    HW214868   2.351   1.855   6.297  1.3454 -0.5846  1.2964
 1079SOL     OW14869   1.684   1.490  10.917  0.0099  0.3795 -0.0137
 1079SOL    HW114870   1.593   1.468  10.898 -0.0013  0.3050  0.1282
 1079SOL    HW214871   1.711   1.478  11.008 -2.4371 -1.7615  0.4209
 1080SOL     OW14872   0.863   1.735  10.102  0.3984  0.0085 -0.0654
 1080SOL    HW114873   0.914   1.656  10.120 -0.3052 -0.2312  0.9052
 1080SOL    HW214874   0.938   1.788  10.128 -1.4286  2.6961 -0.3070
 1081SOL     OW14875   3.218   2.914   2.401 -0.0751 -0.2248  0.3383
 1081SOL    HW114876   3.307   2.908   2.437  0.7970 -0.7500 -1.8558
 1081SOL    HW214877   3.240   2.868   2.320  1.6580  0.9423  0.1351
 1082SOL     OW14878   2.734   4.692  11.389  0.1751 -0.0887  0.6025
 1082SOL    HW114879   2.747   4.703  11.483  3.0550 -1.2895  0.3440
 1082SOL    HW214880   2.724   4.597  11.390  0.5237 -0.1122  1.9335
 1083SOL     OW14881   2.233   4.138   4.530  0.1166  0.7142 -0.2635
 1083SOL    HW114882   2.290   4.151   4.605 -0.9891  0.8715  0.5410
 1083SOL    HW214883   2.161   4.200   4.543  1.0778  1.4781  1.4409
 1084SOL     OW14884   3.340   1.370   5.603 -0.1054  0.5783 -0.2696
 1084SOL    HW114885   3.275   1.434   5.573  0.1644  0.6029 -0.7958
 1084SOL    HW214886   3.421   1.421   5.605  0.8412 -0.9160 -1.2384
 1085SOL     OW14887   1.104   3.549  12.261 -0.8177  0.4346 -0.3353
 1085SOL    HW114888   1.114   3.559  12.167  3.1165  1.0810  0.1726
 1085SOL    HW214889   1.016   3.512  12.270 -0.4385 -0.2536  0.6851
 1086SOL     OW14890   3.525   1.365   7.958 -0.0648  0.5045 -0.3685
 1086SOL    HW114891   3.558   1.312   7.885  0.5933  2.0133 -1.1720
 1086SOL    HW214892   3.547   1.453   7.928  0.1370  0.3155 -0.7810
 1087SOL     OW14893   4.269   4.314   4.628 -0.0499 -0.1939 -0.3563
 1087SOL    HW114894   4.203   4.329   4.696  1.5156  0.0492  1.1034
 1087SOL    HW214895   4.349   4.286   4.673 -0.9518  0.6503  1.7609
 1088SOL     OW14896   3.751   3.918   4.527  0.7803  0.5329 -0.2463
 1088SOL    HW114897   3.825   3.972   4.557  1.7201 -0.1472 -1.3120
 1088SOL    HW214898   3.795   3.891   4.446 -2.0520  2.4782 -2.4111
 1089SOL     OW14899   2.498   3.405   1.297  0.0330 -0.0161  0.7162
 1089SOL    HW114900   2.547   3.382   1.376 -0.5760  3.6795  2.1739
 1089SOL    HW214901   2.414   3.437   1.331 -0.7219 -4.6482  3.2892
 1090SOL     OW14902   1.247   4.431   6.897  0.3886 -0.1084 -0.0021
 1090SOL    HW114903   1.247   4.526   6.912  1.9723 -0.2397  0.7891
 1090SOL    HW214904   1.151   4.426   6.900  0.4606 -1.9937 -0.9005
 1091SOL     OW14905   0.406   1.514   9.497 -0.5686 -0.1174  0.1467
 1091SOL    HW114906   0.480   1.478   9.447  2.6922  2.8568  2.8627
 1091SOL    HW214907   0.447   1.575   9.559  0.2636 -0.0047 -0.5161
 1092SOL     OW14908   4.631   3.006   1.798  0.5432 -0.4694  0.0600
 1092SOL    HW114909   4.644   2.918   1.763  1.7603 -0.5279  0.6322
 1092SOL    HW214910   4.603   3.002   1.889 -2.9717 -1.9611 -1.1130
 1093SOL     OW14911   2.565   1.259   5.223 -0.6270  0.0759  0.2578
 1093SOL    HW114912   2.633   1.326   5.235 -1.7780  0.9395  1.9670
 1093SOL    HW214913   2.488   1.304   5.188 -1.1038 -1.0756 -0.1690
 1094SOL     OW14914   0.212   3.595   4.462  0.8795  0.4915  0.2935
 1094SOL    HW114915   0.177   3.631   4.543  0.3636  0.0134  0.2837
 1094SOL    HW214916   0.126   3.583   4.421  1.0657  0.9803 -0.2420
 1095SOL     OW14917   1.140   1.804   0.355 -0.5072  0.3295  0.8349
 1095SOL    HW114918   1.066   1.862   0.338 -2.3468 -2.2002  0.0973
 1095SOL    HW214919   1.185   1.788   0.272  0.4705  0.8364  1.2682
 1096SOL     OW14920   0.105   4.219   9.139 -0.2209  0.5799  0.5823
 1096SOL    HW114921   0.012   4.243   9.139 -0.4573 -0.3280  0.2186
 1096SOL    HW214922   0.103   4.135   9.185  0.0240  0.3521  0.1764
 1097SOL     OW14923   4.405   2.364   8.603 -0.0256 -0.4793  0.2821
 1097SOL    HW114924   4.325   2.321   8.632 -0.9934  1.6541  0.7704
 1097SOL    HW214925   4.478   2.332   8.656 -0.4770  0.1997  1.3094
 1098SOL     OW14926   0.293   1.075   3.617  0.0117  0.1839 -0.3841
 1098SOL    HW114927   0.203   1.097   3.594 -0.3399 -1.3616 -0.4835
 1098SOL    HW214928   0.299   1.100   3.709  0.2687  0.5556 -0.5019
 1099SOL     OW14929   1.475   2.944   2.990  0.1620 -0.2044  0.1858
 1099SOL    HW114930   1.513   3.031   2.999  0.0052  0.0485 -1.5241
 1099SOL    HW214931   1.386   2.949   3.026 -0.0904  0.1669 -0.4772
 1100SOL     OW14932   1.649   2.783  12.564 -0.1078 -0.4197  0.5036
 1100SOL    HW114933   1.611   2.829  12.490  0.2107  0.0421  0.6294
 1100SOL    HW214934   1.744   2.794  12.554  0.1056 -0.3856  2.5323
 1101SOL     OW14935   2.730   4.140   7.192 -0.2498  0.3408  0.2041
 1101SOL    HW114936   2.757   4.048   7.203  1.3894  1.0251  2.0261
 1101SOL    HW214937   2.811   4.171   7.151 -1.1641  0.4547 -1.5163
 1102SOL     OW14938   1.091   4.641   2.661  0.0061 -0.4592  0.4323
 1102SOL    HW114939   1.165   4.631   2.601 -0.7828 -1.8220 -0.3299
 1102SOL    HW214940   1.039   4.709   2.618 -0.5195 -1.0723  0.0837
 1103SOL     OW14941   2.763   2.240   7.243  0.0258  0.1001  0.6854
 1103SOL    HW114942   2.689   2.294   7.216  0.1916 -0.6106 -1.2319
 1103SOL    HW214943   2.839   2.294   7.221  0.5554 -0.8174  0.2482
 1104SOL     OW14944   1.515   0.645   8.283  0.0044 -0.4590  0.3417
 1104SOL    HW114945   1.546   0.735   8.275 -1.3467 -0.1334 -1.2671
 1104SOL    HW214946   1.587   0.592   8.250  1.7643  1.2976  1.3797
 1105SOL     OW14947   3.170   1.805   6.533 -0.1375  0.2202  0.2098
 1105SOL    HW114948   3.159   1.862   6.457  2.3541 -0.2787 -0.5187
 1105SOL    HW214949   3.096   1.845   6.580 -0.7536 -0.6624  0.0028
 1106SOL     OW14950   4.532   1.110  16.117  0.0533  0.2104 -0.0707
 1106SOL    HW114951   4.607   1.156  16.080 -2.1490  2.4759 -1.7693
 1106SOL    HW214952   4.538   1.131  16.210  1.2906  2.1891 -0.5892
 1107SOL     OW14953   1.507   0.795   9.050  0.2546  0.3512 -0.3610
 1107SOL    HW114954   1.525   0.864   8.985  1.0595 -0.3904 -0.9286
 1107SOL    HW214955   1.593   0.780   9.090  0.1222  1.3698  0.3062
 1108SOL     OW14956   3.353   1.396   2.224  0.3800  0.1949 -0.0900
 1108SOL    HW114957   3.409   1.459   2.268 -0.1441 -0.5492  1.6251
 1108SOL    HW214958   3.400   1.354   2.151 -0.4065  0.7547 -0.9274
 1109SOL     OW14959   3.299   0.786   2.947 -0.1249 -0.1019 -0.1947
 1109SOL    HW114960   3.300   0.836   2.866 -2.1324 -0.4291 -0.4162
 1109SOL    HW214961   3.305   0.850   3.019 -0.0496 -0.5098  0.1579
 1110SOL     OW14962   1.587   1.236  12.236  0.4552 -0.2006 -0.3712
 1110SOL    HW114963   1.680   1.215  12.248  1.4981  3.2438 -2.6772
 1110SOL    HW214964   1.565   1.250  12.328  0.4970 -0.2266 -0.3571
 1111SOL     OW14965   2.235   2.178  11.179 -0.3289 -0.3096  0.1123
 1111SOL    HW114966   2.259   2.234  11.253 -0.2359 -1.9640  1.3226
 1111SOL    HW214967   2.178   2.239  11.132  1.7651  0.4120 -1.5088
 1112SOL     OW14968   0.341   4.551   4.092  0.0809  0.7225  0.0176
 1112SOL    HW114969   0.357   4.476   4.149 -1.2397 -1.3114 -2.3077
 1112SOL    HW214970   0.295   4.613   4.150 -1.0374  0.5148 -0.6547
 1113SOL     OW14971   4.417   3.451   9.341 -0.1701  0.0261 -0.1414
 1113SOL    HW114972   4.372   3.512   9.283  0.9611  0.6130 -0.3869
 1113SOL    HW214973   4.421   3.501   9.422  3.4212 -1.3068  0.4866
 1114SOL     OW14974   1.032   0.832   0.644 -0.0879 -0.0483 -0.0065
 1114SOL    HW114975   1.033   0.779   0.564 -0.1117 -0.9578  0.5870
 1114SOL    HW214976   0.963   0.897   0.633  0.2548 -0.1784 -2.8223
 1115SOL     OW14977   2.001   2.567   6.525  0.2154 -0.0301  0.1165
 1115SOL    HW114978   2.007   2.585   6.619  0.0502 -1.8723  0.4772
 1115SOL    HW214979   1.952   2.485   6.520 -0.5158  0.3874  0.4474
 1116SOL     OW14980   3.080   3.696   2.804 -0.4366 -0.2040  0.0119
 1116SOL    HW114981   3.091   3.622   2.744  0.1103 -1.8608  2.1754
 1116SOL    HW214982   3.006   3.748   2.771 -0.5971 -0.4411 -0.0023
 1117SOL     OW14983   3.972   3.544  11.661  0.3545 -0.1126  0.3690
 1117SOL    HW114984   3.888   3.555  11.705 -0.1908 -1.2520 -0.4136
 1117SOL    HW214985   3.959   3.600  11.585 -1.2648 -1.2137 -0.1542
 1118SOL     OW14986   3.968   2.039   0.277  0.3181 -0.4532  0.2393
 1118SOL    HW114987   4.018   1.957   0.274 -0.3889 -0.8233 -1.5908
 1118SOL    HW214988   3.922   2.018   0.358 -0.4140 -1.9321 -0.5632
 1119SOL     OW14989   4.250   1.019  15.905  0.3683 -0.2099  0.1544
 1119SOL    HW114990   4.176   1.079  15.897  1.6416  1.3285 -0.1864
 1119SOL    HW214991   4.308   1.064  15.843 -0.1881 -1.1036 -1.0294
 1120SOL     OW14992   3.919   4.200  17.239  0.1585 -0.2092  0.2748
 1120SOL    HW114993   3.859   4.268  17.209  1.2387  0.0223 -1.3344
 1120SOL    HW214994   3.865   4.137  17.287 -1.0742 -1.7224 -3.1237
 1121SOL     OW14995   1.773   4.106   7.707  0.0257 -0.1261 -0.1428
 1121SOL    HW114996   1.718   4.149   7.772  0.8580 -0.2290  0.6240
 1121SOL    HW214997   1.729   4.022   7.691  0.8115 -0.3668 -1.0443
 1122SOL     OW14998   2.037   1.009  11.259 -0.0405 -0.5276  0.7831
 1122SOL    HW114999   2.123   0.988  11.222 -0.1525  0.1351  0.1605
 1122SOL    HW215000   2.074   1.072  11.320  1.2025 -0.6264  0.1197
 1123SOL     OW15001   0.440   1.941   0.422 -0.6502  0.0344 -0.4992
 1123SOL    HW115002   0.376   2.003   0.388 -0.7460 -0.9443 -2.0929
 1123SOL    HW215003   0.395   1.859   0.402 -0.7658  0.6877 -2.9360
 1124SOL     OW15004   4.624   1.882   7.308  0.3185  0.0214 -0.5568
 1124SOL    HW115005   4.570   1.936   7.251 -1.4227 -0.5420  0.5629
 1124SOL    HW215006   4.700   1.937   7.328  0.8723 -0.0902 -2.3554
 1125SOL     OW15007   4.402   2.045   2.477  0.0373 -0.0013 -0.2500
 1125SOL    HW115008   4.315   2.084   2.470 -0.6683 -1.3830  0.9352
 1125SOL    HW215009   4.426   2.103   2.550  1.0083  0.5241 -0.9918
 1126SOL     OW15010   3.747   0.804  17.425 -0.1699 -0.0274 -0.3515
 1126SOL    HW115011   3.726   0.777  17.514  0.5394 -0.5548 -0.3369
 1126SOL    HW215012   3.789   0.888  17.442  0.1357  0.0609 -1.5646
 1127SOL     OW15013   1.797   0.002  11.655 -0.8972  0.1443  0.0028
 1127SOL    HW115014   1.713   0.048  11.656 -0.3860  1.0168  2.5933
 1127SOL    HW215015   1.833   0.050  11.580 -0.6318  2.0049  1.3331
 1128SOL     OW15016   1.228   4.239   8.589 -0.5350  0.1646  0.2016
 1128SOL    HW115017   1.254   4.179   8.658 -2.1886  0.1666  0.8305
 1128SOL    HW215018   1.215   4.314   8.647  0.4375  0.4982 -0.0161
 1129SOL     OW15019   3.360   2.962  11.721  0.0129 -0.0420 -0.2575
 1129SOL    HW115020   3.312   2.926  11.796  0.3972 -0.1063 -0.0356
 1129SOL    HW215021   3.397   2.879  11.692 -1.7626  0.1050 -2.8681
 1130SOL     OW15022   2.696   4.523   1.871  0.0414 -0.4431 -0.3714
 1130SOL    HW115023   2.675   4.443   1.823 -1.1144 -0.8409  0.8200
 1130SOL    HW215024   2.640   4.508   1.946  0.8834 -1.5015  0.0423
 1131SOL     OW15025   2.098   4.715   6.257  0.0429  0.0375 -0.4627
 1131SOL    HW115026   2.131   0.012   6.174  0.9518  1.3024  0.4016
 1131SOL    HW215027   2.038   4.644   6.236 -0.4316 -0.0418  1.1643
 1132SOL     OW15028   2.333   1.753   5.171 -0.3410  0.1791  0.0744
 1132SOL    HW115029   2.254   1.769   5.223 -0.6305 -0.1104 -0.2778
 1132SOL    HW215030   2.327   1.662   5.144 -0.3255  0.7780 -1.9770
 1133SOL     OW15031   4.166   4.660  15.171 -0.6454  0.3079 -0.0968
 1133SOL    HW115032   4.082   4.693  15.139 -1.1092 -0.0821  0.7276
 1133SOL    HW215033   4.134   4.573  15.195  1.3432 -0.4791 -0.2747
 1134SOL     OW15034   0.390   4.671   4.526 -0.3219 -0.2402 -0.2234
 1134SOL    HW115035   0.355   4.614   4.594  0.2223 -1.5070 -1.0045
 1134SOL    HW215036   0.333   4.642   4.455 -0.9201  0.5554 -0.0699
 1135SOL     OW15037   2.205   1.789  11.034 -0.3170 -0.6176  0.1351
 1135SOL    HW115038   2.122   1.824  11.000 -0.2349 -1.1598 -0.6299
 1135SOL    HW215039   2.262   1.865  11.045  1.0686 -0.9823 -4.2251
 1136SOL     OW15040   0.782   0.766   7.137 -0.5023 -0.0238 -0.0908
 1136SOL    HW115041   0.750   0.721   7.215  2.0693 -1.6125  0.0363
 1136SOL    HW215042   0.705   0.776   7.080  1.0037 -0.6911 -2.2206
 1137SOL     OW15043   2.513   3.722  17.121  0.4619 -0.0529 -0.3069
 1137SOL    HW115044   2.457   3.716  17.198  0.4378 -0.9784 -0.4007
 1137SOL    HW215045   2.537   3.630  17.111 -0.8238 -0.5816  1.4288
 1138SOL     OW15046   4.560   1.610  17.616  0.4173  0.3091  0.2992
 1138SOL    HW115047   4.523   1.553  17.549 -0.5564 -0.5819  1.5974
 1138SOL    HW215048   4.527   1.575  17.698  1.2165 -3.2743 -0.9291
 1139SOL     OW15049   2.392   4.624   3.853 -0.1629  0.5326 -0.2429
 1139SOL    HW115050   2.297   4.616   3.863 -0.3672  2.0419 -1.0437
 1139SOL    HW215051   2.422   4.558   3.916 -1.2588  0.9125  0.6825
 1140SOL     OW15052   2.914   1.573  12.511 -0.4008  0.0752 -0.0807
 1140SOL    HW115053   2.898   1.666  12.527 -1.7012 -0.2724  0.6341
 1140SOL    HW215054   2.823   1.545  12.519 -0.7652  1.1520 -0.4816
 1141SOL     OW15055   2.441   1.080  11.530 -0.1546  0.1326 -0.0693
 1141SOL    HW115056   2.440   1.036  11.615  1.2126  0.1350 -0.0461
 1141SOL    HW215057   2.504   1.153  11.531  0.4439 -0.3559 -1.5942
 1142SOL     OW15058   2.959   0.148  11.614  0.1780 -0.8133  0.1368
 1142SOL    HW115059   2.920   0.151  11.701 -0.5803  0.8464 -0.2575
 1142SOL    HW215060   2.929   0.233  11.581  1.1044 -0.8081 -0.6848
 1143SOL     OW15061   0.478   2.137  10.857  0.0101 -0.5777 -0.3530
 1143SOL    HW115062   0.488   2.158  10.764 -3.0303  1.3468 -0.2507
 1143SOL    HW215063   0.509   2.213  10.906 -1.1427  0.3682 -1.0809
 1144SOL     OW15064   1.459   0.026  13.538 -0.2533 -0.1073 -0.3812
 1144SOL    HW115065   1.522   0.039  13.609  1.2492  0.5511 -1.8016
 1144SOL    HW215066   1.404   4.689  13.564 -1.3226  1.3442  1.4514
 1145SOL     OW15067   3.067   2.109   7.665  0.4707  0.2662  0.0923
 1145SOL    HW115068   3.137   2.059   7.624  0.2779  1.4015 -1.5983
 1145SOL    HW215069   3.009   2.136   7.593 -3.2360 -1.3416  2.4395
 1146SOL     OW15070   3.597   1.607   7.818  0.0712 -0.0258 -0.5180
 1146SOL    HW115071   3.645   1.683   7.786  0.4068 -0.6692 -1.5189
 1146SOL    HW215072   3.546   1.653   7.885  3.1052  1.0902  1.0362
 1147SOL     OW15073   2.605   1.238  15.885  0.7304  0.2144 -0.1823
 1147SOL    HW115074   2.601   1.234  15.981  1.8024 -2.8270 -0.2818
 1147SOL    HW215075   2.624   1.330  15.864  1.4941  0.8221  3.1301
 1148SOL     OW15076   1.167   3.463   1.452 -0.4319  0.3959 -0.0104
 1148SOL    HW115077   1.092   3.412   1.422 -1.2236  1.8015 -0.4028
 1148SOL    HW215078   1.237   3.424   1.400  0.7805  0.0680  1.8363
 1149SOL     OW15079   1.676   1.819   2.964  0.3017  0.5314  0.2491
 1149SOL    HW115080   1.745   1.764   3.001 -2.3459 -1.6997  1.7837
 1149SOL    HW215081   1.641   1.872   3.036  2.5048  1.0226  0.9564
 1150SOL     OW15082   1.456   2.399   9.925 -0.4732  0.1201  0.6101
 1150SOL    HW115083   1.458   2.380   9.831 -0.3440 -1.8587  1.0312
 1150SOL    HW215084   1.384   2.463   9.929 -1.8724 -1.3545 -0.9951
 1151SOL     OW15085   3.752   0.875   3.921  0.0515  0.2012  0.6056
 1151SOL    HW115086   3.692   0.948   3.910  0.2888 -0.1935 -3.3962
 1151SOL    HW215087   3.834   0.921   3.902 -0.8157  0.7560 -1.8138
 1152SOL     OW15088   0.251   1.214   7.670 -0.0212 -0.1489  0.1714
 1152SOL    HW115089   0.209   1.240   7.587  2.3123  1.0651 -0.6513
 1152SOL    HW215090   0.255   1.297   7.718  0.7048  0.6993 -1.3440
 1153SOL     OW15091   1.879   0.488  14.026  0.0794  0.2057 -0.4441
 1153SOL    HW115092   1.899   0.571  13.984 -0.8020  0.7313  0.1687
 1153SOL    HW215093   1.970   0.467  14.047  0.7008  2.1424 -1.2328
 1154SOL     OW15094   1.494   1.228   5.240 -0.2658  0.0058  0.0214
 1154SOL    HW115095   1.450   1.144   5.229  1.2988 -1.2424  3.1265
 1154SOL    HW215096   1.466   1.258   5.327 -1.4469 -0.0580 -0.3451
 1155SOL     OW15097   2.055   2.181  15.216 -0.1699 -0.6270  0.8416
 1155SOL    HW115098   2.093   2.203  15.302 -2.1573  0.0575  1.5350
 1155SOL    HW215099   1.963   2.206  15.225 -0.0271 -0.5644  2.1173
 1156SOL     OW15100   4.028   4.151   9.976 -0.1048 -0.0184 -0.0568
 1156SOL    HW115101   4.122   4.147   9.994  0.4320 -1.1102 -3.1344
 1156SOL    HW215102   4.001   4.140  10.067 -2.5760  0.8438 -0.6743
 1157SOL     OW15103   1.518   0.353   3.414 -0.5415  0.0778 -0.3761
 1157SOL    HW115104   1.493   0.388   3.500 -0.9113  1.1320 -0.9041
 1157SOL    HW215105   1.523   0.434   3.362 -0.4490  1.2006  1.3864
 1158SOL     OW15106   1.752   0.842  13.032 -0.0391 -0.7431  0.2128
 1158SOL    HW115107   1.741   0.816  12.940  1.4587  2.1249 -0.7796
 1158SOL    HW215108   1.816   0.780  13.067  0.2257  0.0897  1.2127
 1159SOL     OW15109   1.054   3.403   9.361  0.1370 -0.8229  0.0203
 1159SOL    HW115110   1.128   3.438   9.411  1.5606 -0.2169 -2.5051
 1159SOL    HW215111   1.058   3.459   9.283  0.8676 -2.1761 -0.9272
 1160SOL     OW15112   4.514   1.678   8.770 -0.1930  0.1584 -0.9561
 1160SOL    HW115113   4.483   1.595   8.734 -1.9527  0.2459  0.3934
 1160SOL    HW215114   4.569   1.652   8.844 -1.0349 -1.3315 -0.8510
 1161SOL     OW15115   2.751   2.977   4.727  0.0167 -0.6967  0.5300
 1161SOL    HW115116   2.713   2.958   4.812 -0.8844  0.8636  0.4705
 1161SOL    HW215117   2.711   2.902   4.683  1.8454 -0.6032 -1.2849
 1162SOL     OW15118   0.180   0.417   0.231 -0.0843 -0.1052 -0.3331
 1162SOL    HW115119   0.236   0.487   0.199  0.7230  0.3889  2.1600
 1162SOL    HW215120   0.095   0.460   0.220  0.5033  1.1546  0.0461
 1163SOL     OW15121   3.913   3.535  13.369 -0.0750 -0.2956  0.2092
 1163SOL    HW115122   3.953   3.593  13.434 -2.2256  0.5519  0.7678
 1163SOL    HW215123   3.829   3.580  13.366  0.2165  0.3825  2.1022
 1164SOL     OW15124   0.502   3.975   4.174 -0.3538 -0.5852  0.8660
 1164SOL    HW115125   0.445   3.920   4.121  0.3006  0.3956 -0.8690
 1164SOL    HW215126   0.448   4.052   4.156  0.5151 -0.2972 -0.5355
 1165SOL     OW15127   3.078   1.130   5.672  0.6347 -0.1099  0.5446
 1165SOL    HW115128   3.130   1.063   5.715  0.6807 -0.3426  0.1290
 1165SOL    HW215129   3.014   1.161   5.736 -1.0879 -2.2888 -0.1100
 1166SOL     OW15130   4.435   2.682   9.764  0.3508 -0.0555 -0.2101
 1166SOL    HW115131   4.478   2.656   9.845 -0.2050  0.3293  0.2097
 1166SOL    HW215132   4.481   2.761   9.736  0.2250  0.9673  2.4313
 1167SOL     OW15133   3.594   0.130  15.672  0.7762 -0.0604  0.4908
 1167SOL    HW115134   3.544   0.177  15.738  0.6276  0.5788 -0.0808
 1167SOL    HW215135   3.633   0.200  15.620 -0.1200  0.1498  0.1062
 1168SOL     OW15136   1.586   3.326   0.559  0.0424 -0.1584  0.8015
 1168SOL    HW115137   1.565   3.350   0.649 -2.1995  1.5256 -0.1636
 1168SOL    HW215138   1.659   3.267   0.576 -0.1196  0.5042  3.7431
 1169SOL     OW15139   1.910   3.967   2.939 -0.0493 -0.5384 -0.2831
 1169SOL    HW115140   1.860   3.886   2.936 -3.9612  1.8867  0.6237
 1169SOL    HW215141   1.970   3.969   2.864  2.7811 -0.5375  1.9634
 1170SOL     OW15142   1.838   0.322   4.528 -0.3794 -0.2857  0.7547
 1170SOL    HW115143   1.828   0.417   4.514 -2.7587 -0.4675  1.2983
 1170SOL    HW215144   1.747   0.307   4.551 -0.8140 -0.4827 -1.0794
 1171SOL     OW15145   2.011   0.045   8.577  0.0395  0.0051  0.5846
 1171SOL    HW115146   1.930   0.071   8.532  0.1858 -0.8354 -0.1603
 1171SOL    HW215147   1.982   0.025   8.666  1.4993 -2.4456  0.4967
 1172SOL     OW15148   4.454   1.253   8.837  0.2455  0.1659  0.5265
 1172SOL    HW115149   4.401   1.181   8.869  0.0786  0.8603  1.8166
 1172SOL    HW215150   4.516   1.256   8.910 -0.7378  1.6177  1.3175
 1173SOL     OW15151   2.102   3.657   2.712  0.7008 -0.6357 -0.1306
 1173SOL    HW115152   2.037   3.695   2.652 -0.2730 -0.8560  0.7762
 1173SOL    HW215153   2.176   3.656   2.652 -1.0511  2.0352 -2.3722
 1174SOL     OW15154   2.048   0.938   4.768 -0.6643 -0.6736 -0.2553
 1174SOL    HW115155   2.109   0.866   4.778  0.1932 -0.2640 -2.5783
 1174SOL    HW215156   2.096   0.988   4.701 -2.0048  0.6066 -0.2720
 1175SOL     OW15157   0.657   4.478  13.786  0.3995  0.2261 -1.1143
 1175SOL    HW115158   0.705   4.454  13.707  2.5334  2.9051 -0.6261
 1175SOL    HW215159   0.588   4.411  13.782 -0.1740  0.9065 -2.3940
 1176SOL     OW15160   2.556   2.839   8.330 -0.2686  0.0549  0.3057
 1176SOL    HW115161   2.549   2.934   8.338  0.7154 -0.0273  2.0326
 1176SOL    HW215162   2.498   2.806   8.399 -0.1841 -0.9060 -0.0810
 1177SOL     OW15163   0.048   0.442   4.704  0.3562  0.2127 -0.4400
 1177SOL    HW115164   0.020   0.530   4.729  1.0519  0.0607  0.8607
 1177SOL    HW215165   0.142   0.459   4.705  0.4442 -0.2829 -0.3125
 1178SOL     OW15166   4.487   1.081  10.061  0.2791  0.5038  0.1805
 1178SOL    HW115167   4.577   1.074  10.029  0.1795  3.1826 -0.6686
 1178SOL    HW215168   4.443   1.007  10.019 -0.3334  1.5868 -1.0829
 1179SOL     OW15169   1.756   3.465   6.967  0.0030  0.1918  0.3309
 1179SOL    HW115170   1.696   3.461   6.893 -1.1276  1.6048  1.1739
 1179SOL    HW215171   1.696   3.506   7.029 -1.1281 -2.7666  1.1677
 1180SOL     OW15172   0.860   0.506   8.770  0.7542 -0.1496 -0.1076
 1180SOL    HW115173   0.908   0.586   8.793 -0.2681  0.6357 -0.6785
 1180SOL    HW215174   0.885   0.445   8.838  0.0172  1.7561  1.8713
 1181SOL     OW15175   3.079   2.058   7.194  0.2570 -0.1953 -0.6457
 1181SOL    HW115176   3.164   2.016   7.204  1.5365  2.5181 -0.0856
 1181SOL    HW215177   3.106   2.118   7.125 -0.6281  0.1285 -0.7067
 1182SOL     OW15178   0.323   1.790   8.598 -0.1866  0.1794 -0.1816
 1182SOL    HW115179   0.227   1.789   8.604 -0.2312  0.2209 -0.8941
 1182SOL    HW215180   0.328   1.697   8.619  1.2592  0.1963 -0.4463
 1183SOL     OW15181   3.949   0.326   7.455 -0.5767  0.3363  0.1192
 1183SOL    HW115182   3.900   0.244   7.452 -0.0541  0.0896 -1.7946
 1183SOL    HW215183   3.967   0.322   7.361 -1.2942  0.1202 -0.0099
 1184SOL     OW15184   3.363   1.806   9.277  0.6584  0.6436 -0.0737
 1184SOL    HW115185   3.377   1.849   9.192  0.9885  0.6098 -0.0385
 1184SOL    HW215186   3.440   1.750   9.267 -1.8345 -2.6080 -1.0739
 1185SOL     OW15187   2.168   4.453   0.035 -0.6361  0.5877 -0.1747
 1185SOL    HW115188   2.258   4.484   0.032  0.0147 -1.1493  1.1153
 1185SOL    HW215189   2.160   4.409  17.696  0.9481 -0.6028  0.2944
 1186SOL     OW15190   2.673   1.954  15.954  0.5714  0.0259 -0.1767
 1186SOL    HW115191   2.720   2.018  16.007  0.4682 -0.2303  0.2174
 1186SOL    HW215192   2.723   1.963  15.873 -2.8987 -0.5802 -2.3828
 1187SOL     OW15193   2.705   2.515   0.325 -0.5554 -0.0324 -0.1127
 1187SOL    HW115194   2.638   2.450   0.348  0.0882 -0.6065  0.1333
 1187SOL    HW215195   2.681   2.576   0.395  0.1215  1.1414 -0.9150
 1188SOL     OW15196   3.510   3.963  12.387 -0.1728 -0.0680  0.1650
 1188SOL    HW115197   3.594   3.972  12.432 -0.7559 -0.9357  1.4261
 1188SOL    HW215198   3.545   3.967  12.298 -2.9011 -2.4628 -0.9904
 1189SOL     OW15199   4.366   0.919   0.015  0.0213 -0.1950  0.5673
 1189SOL    HW115200   4.454   0.881   0.017  0.1866  0.1754  0.3997
 1189SOL    HW215201   4.325   0.897   0.099  1.7277 -0.7819  1.2494
 1190SOL     OW15202   2.368   3.180  10.632  0.5683  0.0557  0.2598
 1190SOL    HW115203   2.316   3.115  10.678 -0.6887  2.6080  2.4304
 1190SOL    HW215204   2.314   3.200  10.555  2.4626  3.2297 -0.2452
 1191SOL     OW15205   1.687   2.663  13.458 -0.1347  0.1941  0.5830
 1191SOL    HW115206   1.594   2.656  13.437 -0.0133 -0.4917  0.2494
 1191SOL    HW215207   1.673   2.685  13.549  1.8665  1.4338  0.5870
 1192SOL     OW15208   4.348   4.686   2.729 -0.0073  0.2860 -0.6749
 1192SOL    HW115209   4.399   0.022   2.763 -1.6220 -0.0915  2.5531
 1192SOL    HW215210   4.339   4.629   2.805  0.1837  1.2028  0.0376
 1193SOL     OW15211   4.376   0.909   1.920  0.0061 -0.2639 -0.2268
 1193SOL    HW115212   4.452   0.968   1.920 -0.0656 -0.1694  0.8886
 1193SOL    HW215213   4.361   0.890   2.012 -0.1672 -1.1552 -0.4359
 1194SOL     OW15214   0.255   3.049   9.343  0.1930  0.7670  0.0041
 1194SOL    HW115215   0.224   2.961   9.322  0.7334  0.2729  1.3118
 1194SOL    HW215216   0.303   3.039   9.425 -0.2488  1.5054  0.3582
 1195SOL     OW15217   1.216   4.355   9.504  0.0555 -0.0112  0.4441
 1195SOL    HW115218   1.211   4.450   9.513  0.3630 -0.0653  1.2741
 1195SOL    HW215219   1.175   4.321   9.584  0.6571  0.6789  1.0463
 1196SOL     OW15220   3.926   1.293  14.534  0.2452 -0.2635 -0.3406
 1196SOL    HW115221   3.958   1.206  14.557  0.1388 -0.2449 -0.1237
 1196SOL    HW215222   4.005   1.344  14.515  0.8287 -1.8858 -2.1807
 1197SOL     OW15223   1.821   2.581   0.609  0.0260  0.0910  0.1357
 1197SOL    HW115224   1.753   2.630   0.654  0.4575  0.0946  0.7787
 1197SOL    HW215225   1.870   2.551   0.686  1.6554 -1.2897 -1.4387
 1198SOL     OW15226   3.217   2.400  16.560  0.0309 -0.3307  0.1780
 1198SOL    HW115227   3.257   2.487  16.560  0.4190 -0.5087  1.9496
 1198SOL    HW215228   3.230   2.364  16.648  1.3005 -0.1226  0.0826
 1199SOL     OW15229   4.706   4.313   8.654 -0.2861 -0.0263  0.4295
 1199SOL    HW115230   4.634   4.253   8.632 -0.3407 -0.5856  2.0651
 1199SOL    HW215231   4.663   4.397   8.638 -0.6780 -0.1244  0.9479
 1200SOL     OW15232   4.335   0.561   7.364 -0.4842  0.2046  0.4973
 1200SOL    HW115233   4.307   0.542   7.453  0.5291 -2.3749  0.2583
 1200SOL    HW215234   4.363   0.473   7.340 -0.3920  0.2830  0.3160
 1201SOL     OW15235   0.689   3.664   2.116 -0.0097 -0.5077  0.0255
 1201SOL    HW115236   0.740   3.680   2.037 -1.4865  0.3311 -0.7519
 1201SOL    HW215237   0.660   3.574   2.104  1.5292 -0.7595 -1.8123
 1202SOL     OW15238   3.320   0.647   3.383 -0.2941  0.3507 -0.0745
 1202SOL    HW115239   3.399   0.675   3.428  1.1637 -1.2703 -1.5799
 1202SOL    HW215240   3.255   0.673   3.449  1.7367 -0.2552  2.1552
 1203SOL     OW15241   3.439   1.493   4.481 -0.1815  0.1334 -0.1108
 1203SOL    HW115242   3.435   1.588   4.494  0.0689  0.1107  0.1423
 1203SOL    HW215243   3.347   1.483   4.503  0.8857 -1.4865  3.7078
 1204SOL     OW15244   3.197   1.565   8.756  0.3867 -0.0901 -0.2757
 1204SOL    HW115245   3.148   1.484   8.775  1.7550 -1.2249 -1.5546
 1204SOL    HW215246   3.119   1.611   8.726  0.5101  0.6448  0.5544
 1205SOL     OW15247   2.991   2.689   1.817 -0.9161  0.0865 -0.0401
 1205SOL    HW115248   2.904   2.701   1.778 -0.7599 -1.9420 -1.0308
 1205SOL    HW215249   3.035   2.746   1.754 -2.7429  2.4357  0.8013
 1206SOL     OW15250   2.659   2.362   6.592 -0.2336 -0.2671 -0.2448
 1206SOL    HW115251   2.645   2.456   6.604  1.4699  0.0078 -0.4195
 1206SOL    HW215252   2.572   2.325   6.581 -1.4387  2.4729 -0.0093
 1207SOL     OW15253   2.089   3.011   6.638 -0.0700  0.2655  0.0129
 1207SOL    HW115254   2.094   3.004   6.542 -1.7825  0.1295 -0.0527
 1207SOL    HW215255   2.157   2.951   6.670 -0.2236  1.0135  1.7351
 1208SOL     OW15256   3.339   2.647  16.632 -0.4535  0.5294 -0.5483
 1208SOL    HW115257   3.428   2.652  16.665 -0.9451 -0.2696  0.8994
 1208SOL    HW215258   3.333   2.736  16.597  1.2696 -0.3530 -3.0297
 1209SOL     OW15259   2.277   0.118   2.946  0.4217 -0.0464 -0.0297
 1209SOL    HW115260   2.340   0.107   2.874  0.0170  3.6002 -0.9076
 1209SOL    HW215261   2.269   0.212   2.932 -2.0026 -0.1094  0.9509
 1210SOL     OW15262   1.339   2.533   7.236  0.6274 -0.0200  0.0408
 1210SOL    HW115263   1.248   2.561   7.225  0.1867 -1.6768 -0.5732
 1210SOL    HW215264   1.379   2.588   7.169  0.5922  0.5158  0.4580
 1211SOL     OW15265   0.902   0.482   7.977 -0.6611 -0.2147  0.3112
 1211SOL    HW115266   0.840   0.410   7.973  0.6648 -1.3491  0.0415
 1211SOL    HW215267   0.852   0.563   7.983  0.9522  0.7830  0.5283
 1212SOL     OW15268   2.693   1.809   2.864 -0.4402  0.1900 -0.1074
 1212SOL    HW115269   2.701   1.881   2.927  2.7718  0.0452 -0.3257
 1212SOL    HW215270   2.786   1.784   2.860 -1.1029 -2.0605 -1.2331
 1213SOL     OW15271   3.112   0.364  10.796  0.2710  0.3135  1.1647
 1213SOL    HW115272   3.185   0.331  10.848  0.2209 -0.4197  0.7773
 1213SOL    HW215273   3.035   0.343  10.848  0.6834  0.6877  1.9343
 1214SOL     OW15274   1.081   3.961   0.481  0.3267 -0.6137 -0.4822
 1214SOL    HW115275   1.063   3.960   0.387  0.8678  1.5952 -0.6169
 1214SOL    HW215276   0.989   3.974   0.504  0.9848  2.4187  0.4401
 1215SOL     OW15277   4.273   0.354   6.644 -0.2308  0.0720  0.1171
 1215SOL    HW115278   4.235   0.293   6.580 -0.2582 -1.0436  1.2101
 1215SOL    HW215279   4.208   0.360   6.713  0.5251 -2.0911  1.0243
 1216SOL     OW15280   2.996   4.068  10.040  0.1447 -0.0649 -0.1654
 1216SOL    HW115281   2.982   4.001  10.107 -0.3656  0.8040  0.5927
 1216SOL    HW215282   2.942   4.038   9.967 -1.2392  4.4589 -0.9495
 1217SOL     OW15283   3.701   3.927  10.462  0.3106 -1.1382  0.6220
 1217SOL    HW115284   3.738   3.975  10.537  1.2678  1.8136 -1.7221
 1217SOL    HW215285   3.613   3.963  10.463  0.6231 -0.3127 -1.5607
 1218SOL     OW15286   1.271   2.040   6.641 -0.3999 -0.0210  0.0504
 1218SOL    HW115287   1.336   2.101   6.606  0.8917 -0.1278  2.2946
 1218SOL    HW215288   1.193   2.092   6.620 -1.9376 -2.5616 -0.6933
 1219SOL     OW15289   2.945   3.316   1.193 -0.5166  0.2522 -0.0820
 1219SOL    HW115290   2.922   3.393   1.143 -0.5587 -0.0999 -0.6037
 1219SOL    HW215291   2.947   3.242   1.132  1.5077  0.1288  0.1297
 1220SOL     OW15292   4.398   3.787   2.794 -0.0822 -1.0626  0.4358
 1220SOL    HW115293   4.424   3.771   2.885 -0.8765 -0.9785  0.6763
 1220SOL    HW215294   4.427   3.878   2.789 -1.8280 -0.6077 -0.9686
 1221SOL     OW15295   0.466   0.366   2.621 -0.4999 -0.0024 -0.5997
 1221SOL    HW115296   0.478   0.422   2.697  0.4044 -0.0701 -0.6936
 1221SOL    HW215297   0.500   0.420   2.549 -2.0016 -1.3277 -2.3173
 1222SOL     OW15298   0.440   2.842   6.582 -0.2987  0.3124 -0.1206
 1222SOL    HW115299   0.524   2.889   6.576 -1.4835  2.3403 -0.8050
 1222SOL    HW215300   0.462   2.767   6.637  0.4073  1.2121  0.8162
 1223SOL     OW15301   2.437   0.043   8.120 -0.2780 -0.0965 -0.1020
 1223SOL    HW115302   2.423   4.705   8.178 -0.3444  0.7261  0.9377
 1223SOL    HW215303   2.532   0.051   8.110  0.2523 -1.8298  3.3705
 1224SOL     OW15304   0.268   0.946   2.665  0.7229  0.3553  0.4183
 1224SOL    HW115305   0.330   0.989   2.725  1.9274 -0.8683  0.0447
 1224SOL    HW215306   0.291   0.855   2.648 -1.3349 -0.2406  0.7770
 1225SOL     OW15307   1.437   0.104   7.611  0.5027 -0.1753 -0.7196
 1225SOL    HW115308   1.360   0.153   7.580  1.3824  1.1921 -0.7570
 1225SOL    HW215309   1.499   0.174   7.632  0.4789 -1.0441  2.1592
 1226SOL     OW15310   3.735   2.677   1.349  0.1096 -0.7774 -0.1452
 1226SOL    HW115311   3.687   2.645   1.426  0.7905 -1.2109  0.0997
 1226SOL    HW215312   3.825   2.654   1.369  0.9855  2.2639 -0.5194
 1227SOL     OW15313   3.914   2.594  14.849  0.5856  0.2432  0.3333
 1227SOL    HW115314   3.941   2.505  14.829 -1.4266 -0.2588 -0.0608
 1227SOL    HW215315   3.874   2.574  14.934 -0.3845  1.1375  0.0881
 1228SOL     OW15316   3.811   3.091   4.163  0.6016  0.2348  0.7182
 1228SOL    HW115317   3.870   3.166   4.159 -0.6168  1.3393  3.6544
 1228SOL    HW215318   3.851   3.048   4.238  1.4461 -1.9597 -0.9812
 1229SOL     OW15319   1.914   3.327   8.765 -0.0288 -0.1037  0.6447
 1229SOL    HW115320   1.931   3.416   8.734 -0.7286 -0.6756 -1.3762
 1229SOL    HW215321   2.003   3.293   8.752 -0.9183 -2.0022 -0.5048
 1230SOL     OW15322   0.865   4.404   1.263  0.0460 -0.4145  0.3930
 1230SOL    HW115323   0.878   4.491   1.226  0.2913 -0.6422 -0.0620
 1230SOL    HW215324   0.776   4.418   1.295  1.2442  1.1172  2.9772
 1231SOL     OW15325   3.780   2.237   6.594 -0.1705 -0.2192 -0.2795
 1231SOL    HW115326   3.837   2.166   6.567  0.0957  0.0501 -0.4192
 1231SOL    HW215327   3.713   2.234   6.525  1.0581  1.7592 -1.5745
 1232SOL     OW15328   3.886   1.232   7.343 -0.0624 -0.0475  0.0126
 1232SOL    HW115329   3.930   1.253   7.260  0.1874 -0.9612 -0.0907
 1232SOL    HW215330   3.885   1.136   7.349  1.0610 -0.0042  0.7731
 1233SOL     OW15331   1.091   3.462   7.931  0.1196 -0.3536 -0.2830
 1233SOL    HW115332   1.136   3.544   7.910  0.4896 -0.1433  1.3467
 1233SOL    HW215333   1.165   3.404   7.918 -0.0986 -0.0626 -2.7753
 1234SOL     OW15334   0.990   4.287   4.743 -0.2228 -0.0297  0.6691
 1234SOL    HW115335   1.037   4.262   4.822  1.3521 -1.0086 -0.5980
 1234SOL    HW215336   0.992   4.382   4.756 -1.3396  0.3338 -1.6485
 1235SOL     OW15337   3.636   3.471   4.081 -0.1762 -0.0811 -0.0013
 1235SOL    HW115338   3.675   3.540   4.134 -0.6633  0.0969  0.1175
 1235SOL    HW215339   3.555   3.518   4.064 -0.0119  1.5454  3.5719
 1236SOL     OW15340   1.651   0.363  17.476  0.7722  0.1761  0.3215
 1236SOL    HW115341   1.608   0.292  17.429 -0.7374  0.8486  0.6800
 1236SOL    HW215342   1.726   0.372  17.417  2.1246 -1.2632  1.8248
 1237SOL     OW15343   3.232   4.698   1.343  0.3823  0.2478  0.1348
 1237SOL    HW115344   3.149   4.734   1.374 -0.1631 -0.4862 -0.4637
 1237SOL    HW215345   3.295   0.014   1.393  0.1355  1.3867 -0.7383
 1238SOL     OW15346   3.434   3.258   9.332  0.6591  0.1075 -0.0267
 1238SOL    HW115347   3.456   3.233   9.422 -0.3669  4.2926  1.3895
 1238SOL    HW215348   3.488   3.197   9.283 -0.2309 -0.1951 -0.6412
 1239SOL     OW15349   4.311   1.444   4.707 -0.1144 -0.3718  0.0820
 1239SOL    HW115350   4.381   1.508   4.718 -0.1729  0.0702 -2.0977
 1239SOL    HW215351   4.238   1.499   4.735 -0.0952  0.9317 -2.4159
 1240SOL     OW15352   1.506   0.568   7.593  0.2394  0.0825 -0.4055
 1240SOL    HW115353   1.454   0.594   7.669  0.7970  0.5776 -0.1974
 1240SOL    HW215354   1.568   0.520   7.649  0.3956  1.5408  0.6620
 1241SOL     OW15355   2.478   0.172   9.372 -0.9494 -0.1065 -0.2264
 1241SOL    HW115356   2.527   0.118   9.310 -1.1889  1.0541 -1.4241
 1241SOL    HW215357   2.550   0.222   9.412  0.3982 -1.3638 -1.0697
 1242SOL     OW15358   1.255   1.110   4.698 -0.2055  0.1310 -0.1642
 1242SOL    HW115359   1.211   1.069   4.623  1.6152  0.1891 -1.2439
 1242SOL    HW215360   1.306   1.178   4.655  0.5122  0.5479  1.3740
 1243SOL     OW15361   2.102   4.161   3.633 -0.2246 -0.0676  0.1402
 1243SOL    HW115362   2.147   4.137   3.714  1.3134 -1.0359 -0.9868
 1243SOL    HW215363   2.145   4.107   3.567  0.9313 -0.3322  1.1138
 1244SOL     OW15364   1.792   3.352   5.051 -0.0550  0.5444 -0.2574
 1244SOL    HW115365   1.752   3.424   5.001 -1.2503 -0.0181 -0.0993
 1244SOL    HW215366   1.827   3.318   4.969  0.7601 -1.1493  0.8106
 1245SOL     OW15367   2.324   3.825   7.852 -0.1593  0.1028 -0.2337
 1245SOL    HW115368   2.238   3.791   7.874  0.0941  0.0294  0.6376
 1245SOL    HW215369   2.306   3.868   7.769  0.7184 -0.0065 -0.4807
 1246SOL     OW15370   4.555   2.792   6.064 -0.0128 -0.2317  0.0483
 1246SOL    HW115371   4.648   2.784   6.041  0.3333  2.5149  0.4882
 1246SOL    HW215372   4.548   2.882   6.095  1.0912  0.2502 -1.1242
 1247SOL     OW15373   0.077   0.317   7.116  0.5290 -0.4009  0.2594
 1247SOL    HW115374   0.057   0.289   7.026 -0.8501  2.3313 -0.3048
 1247SOL    HW215375   0.121   0.240   7.152  0.6449 -0.8332 -0.8007
 1248SOL     OW15376   4.290   2.025  17.676 -0.3341  0.2198 -0.2940
 1248SOL    HW115377   4.301   2.097  17.613  0.1361  1.1296  0.8118
 1248SOL    HW215378   4.331   2.065   0.008  0.6703 -0.9584 -0.2181
 1249SOL     OW15379   0.597   4.328   5.278  0.3150 -0.4788 -0.3097
 1249SOL    HW115380   0.613   4.410   5.230  3.3510 -1.7350 -1.4538
 1249SOL    HW215381   0.548   4.286   5.207 -1.3764  2.2387 -0.7711
 1250SOL     OW15382   0.364   1.681   5.208 -0.6975  0.2055 -0.4507
 1250SOL    HW115383   0.292   1.619   5.223  1.0026 -2.2343 -2.4342
 1250SOL    HW215384   0.423   1.658   5.280  0.6445  0.1907 -1.5756
 1251SOL     OW15385   0.339   2.209  13.645 -0.3521 -0.7164 -0.2105
 1251SOL    HW115386   0.381   2.150  13.582 -0.3243 -1.8615  0.8961
 1251SOL    HW215387   0.297   2.274  13.589 -0.6981 -0.0540  0.8159
 1252SOL     OW15388   1.390   2.240   3.643  0.7106  0.0730 -0.9243
 1252SOL    HW115389   1.423   2.157   3.678  0.1840 -0.9992 -2.9674
 1252SOL    HW215390   1.335   2.269   3.715 -0.0988 -0.6075 -1.2695
 1253SOL     OW15391   3.071   1.974  10.063 -0.2336 -0.5124 -0.5080
 1253SOL    HW115392   3.077   2.069  10.072 -2.3069 -0.5137  0.7294
 1253SOL    HW215393   3.127   1.953  10.138  0.3263  1.7006 -0.3082
 1254SOL     OW15394   3.768   1.325   5.752  0.0722  0.4282  0.2469
 1254SOL    HW115395   3.790   1.293   5.840  0.5576 -0.5824 -0.2463
 1254SOL    HW215396   3.841   1.385   5.733 -2.7161  3.4640 -0.9671
 1255SOL     OW15397   0.202   2.800   4.429  0.0914 -0.4036  0.0274
 1255SOL    HW115398   0.189   2.895   4.427  3.2641  0.0581  0.9489
 1255SOL    HW215399   0.294   2.790   4.403  0.4715  0.0226  1.2411
 1256SOL     OW15400   4.189   4.693   4.321 -0.1194  0.4089  0.3272
 1256SOL    HW115401   4.270   0.000   4.294  1.0553 -1.4390  0.8585
 1256SOL    HW215402   4.207   4.647   4.402  0.2626 -0.6867 -0.3862
 1257SOL     OW15403   3.949   0.070   4.384  0.0196  0.1799 -0.3390
 1257SOL    HW115404   3.963   0.113   4.468  2.2054 -0.8492 -0.1745
 1257SOL    HW215405   4.021   0.007   4.382  1.1850  1.6179 -3.6038
 1258SOL     OW15406   0.899   4.121   3.405 -0.3503  0.3079  0.5777
 1258SOL    HW115407   0.868   4.198   3.357  2.0176  3.1233  3.5841
 1258SOL    HW215408   0.961   4.080   3.345 -0.5219  2.2585 -0.9625
 1259SOL     OW15409   2.154   0.515   0.852 -0.1067  0.0864 -0.0415
 1259SOL    HW115410   2.092   0.462   0.802  1.4727 -0.9498 -0.8795
 1259SOL    HW215411   2.091   0.572   0.897 -0.7271  1.0345 -2.1252
 1260SOL     OW15412   4.314   2.544  16.174 -0.4143  0.3487 -0.7396
 1260SOL    HW115413   4.364   2.624  16.158 -0.7703  0.4141 -1.5325
 1260SOL    HW215414   4.386   2.483  16.188 -1.3784 -0.5791  0.2871
 1261SOL     OW15415   0.614   4.168   4.375 -0.4273 -0.2697 -0.2121
 1261SOL    HW115416   0.645   4.123   4.296  0.0627 -1.7044  0.8013
 1261SOL    HW215417   0.686   4.159   4.437 -1.4018 -1.5942  0.7271
 1262SOL     OW15418   4.172   0.791   2.712 -0.1833  0.5286 -0.0069
 1262SOL    HW115419   4.182   0.696   2.715  0.8338  0.7043  2.0468
 1262SOL    HW215420   4.145   0.814   2.623 -1.1535  2.5934  0.8054
 1263SOL     OW15421   1.259   1.940  15.782  0.1646  0.0528  0.0948
 1263SOL    HW115422   1.194   1.928  15.851  0.1398  0.0664  0.0742
 1263SOL    HW215423   1.221   1.998  15.715 -0.2626 -0.7559 -0.3617
 1264SOL     OW15424   1.914   3.927   3.977 -0.5725  0.0182 -0.1233
 1264SOL    HW115425   1.845   3.860   3.983  0.3650 -1.1304 -2.1353
 1264SOL    HW215426   1.901   3.931   3.882 -1.1879  3.0974  0.1056
 1265SOL     OW15427   3.718   1.837   5.298  0.2711  0.2429 -0.4207
 1265SOL    HW115428   3.701   1.753   5.341  0.0118 -0.1436 -1.3008
 1265SOL    HW215429   3.632   1.863   5.266  0.3080  0.0768 -0.6556
 1266SOL     OW15430   1.792   4.188  10.800 -0.6698 -0.0854 -1.2088
 1266SOL    HW115431   1.769   4.202  10.892 -0.1306  0.5705 -1.1817
 1266SOL    HW215432   1.734   4.113  10.788  1.6690 -2.1576  0.3958
 1267SOL     OW15433   1.411   0.660   2.597  0.2828 -0.2672 -0.4405
 1267SOL    HW115434   1.455   0.608   2.529  0.5517 -1.6293  0.7897
 1267SOL    HW215435   1.362   0.714   2.535 -0.8080  0.9267  1.4927
 1268SOL     OW15436   2.579   1.589  13.481 -0.1201 -0.0325 -0.0123
 1268SOL    HW115437   2.665   1.629  13.486 -0.0776 -0.1327  0.0614
 1268SOL    HW215438   2.532   1.659  13.436 -1.2961  0.5539  2.1149
 1269SOL     OW15439   0.560   4.230   0.998 -0.1852  0.0939 -0.0973
 1269SOL    HW115440   0.544   4.267   1.085 -1.6204  0.5206 -0.5433
 1269SOL    HW215441   0.649   4.254   0.973  0.2146 -0.7945  0.4428
 1270SOL     OW15442   2.612   0.420   4.507 -0.0594  0.0378 -0.0760
 1270SOL    HW115443   2.620   0.417   4.602 -0.4029  0.5277 -0.0333
 1270SOL    HW215444   2.692   0.471   4.493  0.0930  1.2360  5.0961
 1271SOL     OW15445   1.238   3.051   3.167 -0.1398  1.0154 -0.7243
 1271SOL    HW115446   1.158   3.023   3.211  1.4532 -0.9679  0.8793
 1271SOL    HW215447   1.283   3.087   3.243 -1.0274  1.5369 -0.4341
 1272SOL     OW15448   1.120   0.586  12.563 -0.4246 -0.6264 -0.1092
 1272SOL    HW115449   1.158   0.644  12.497  0.7474 -2.0391 -0.6616
 1272SOL    HW215450   1.051   0.644  12.596 -0.7858 -1.3470  0.3933
 1273SOL     OW15451   2.111   0.708  17.114 -0.2659 -0.0375 -0.4685
 1273SOL    HW115452   2.078   0.715  17.024  1.4259  3.1662 -0.8312
 1273SOL    HW215453   2.039   0.661  17.156 -1.0407 -2.0166 -3.9951
 1274SOL     OW15454   3.009   2.983   1.339 -0.0851  0.2854 -0.2308
 1274SOL    HW115455   2.944   2.913   1.330 -0.8513  0.7869  1.5568
 1274SOL    HW215456   3.087   2.939   1.373  1.4591  1.6010 -2.0527
 1275SOL     OW15457   4.613   1.420  14.759  0.2034 -0.0280 -0.1213
 1275SOL    HW115458   4.582   1.485  14.696 -0.3593  0.5947  0.7935
 1275SOL    HW215459   4.527   1.380  14.772  0.6130  0.0597  2.9423
 1276SOL     OW15460   2.819   1.515   1.601  0.1165  0.4574 -0.6572
 1276SOL    HW115461   2.770   1.570   1.540 -0.0342 -0.8167 -1.6731
 1276SOL    HW215462   2.870   1.589   1.636  0.2167 -0.0362  0.2469
 1277SOL     OW15463   1.288   0.300   7.490 -0.0995 -0.4816  0.5286
 1277SOL    HW115464   1.371   0.305   7.442 -0.0844  1.2933  0.7394
 1277SOL    HW215465   1.296   0.379   7.543 -1.8247 -0.8311  1.2788
 1278SOL     OW15466   4.493   3.128  12.526  0.1860  0.4671  0.5085
 1278SOL    HW115467   4.411   3.171  12.503 -0.3163  0.7214  2.8028
 1278SOL    HW215468   4.537   3.121  12.441  0.0777  1.7600  0.3465
 1279SOL     OW15469   4.660   3.507  10.224  0.0931  0.2986 -0.2023
 1279SOL    HW115470   4.645   3.449  10.298 -1.0397  1.5278  0.5283
 1279SOL    HW215471   0.017   3.502  10.207  0.5314  2.1905  1.7708
 1280SOL     OW15472   2.286   0.971   4.338  0.4773  0.3000  0.4002
 1280SOL    HW115473   2.289   0.895   4.280 -0.6982  0.0534  0.6605
 1280SOL    HW215474   2.305   1.046   4.282  2.8567  0.4986  1.4717
 1281SOL     OW15475   0.855   2.994  10.045  0.7657 -0.0875  0.4557
 1281SOL    HW115476   0.784   3.004  10.108 -1.1699 -3.6491 -1.1254
 1281SOL    HW215477   0.908   3.072  10.062  0.0249  0.3483  0.7403
 1282SOL     OW15478   3.446   1.139   5.219  0.3145 -0.1157 -0.6639
 1282SOL    HW115479   3.398   1.127   5.137 -2.2680  0.4994  0.7726
 1282SOL    HW215480   3.380   1.119   5.285 -1.1302  2.9359 -1.1915
 1283SOL     OW15481   1.840   1.239   7.620 -0.2309 -0.3484  0.3084
 1283SOL    HW115482   1.856   1.161   7.566 -0.7437 -0.3156  0.1058
 1283SOL    HW215483   1.840   1.204   7.709 -1.7077 -1.0958  0.0183
 1284SOL     OW15484   0.644   1.935  13.044 -0.4234  0.1983  0.6597
 1284SOL    HW115485   0.705   1.970  13.109  0.8888  1.3013 -1.1850
 1284SOL    HW215486   0.700   1.924  12.968 -1.0231 -0.7996  0.3571
 1285SOL     OW15487   0.616   1.426   9.687 -0.1249 -0.5499  0.1974
 1285SOL    HW115488   0.690   1.367   9.702 -2.2696 -3.4286 -0.4021
 1285SOL    HW215489   0.624   1.475   9.605 -1.0827 -0.5874  0.0831
 1286SOL     OW15490   2.482   3.055   9.692 -0.0980 -0.0781 -0.0045
 1286SOL    HW115491   2.411   3.103   9.649  0.1109 -0.2095 -0.4960
 1286SOL    HW215492   2.556   3.116   9.696  1.7538 -2.3144  0.0295
 1287SOL     OW15493   0.260   1.947   5.239 -0.7252 -0.2453  0.1999
 1287SOL    HW115494   0.286   1.871   5.186  1.2965  0.2812  0.4621
 1287SOL    HW215495   0.333   1.949   5.301  0.8575  1.4534 -1.7288
 1288SOL     OW15496   0.846   0.645   2.276 -0.6447  0.0449 -0.9861
 1288SOL    HW115497   0.882   0.624   2.362  1.9903  4.1972 -1.0881
 1288SOL    HW215498   0.758   0.662   2.309 -0.9064 -0.2226 -1.5534
 1289SOL     OW15499   1.237   2.363  10.565 -0.1602  0.4852  0.1081
 1289SOL    HW115500   1.153   2.339  10.524  0.0891 -1.7500  0.9234
 1289SOL    HW215501   1.297   2.334  10.496 -1.6632 -0.6556 -0.7309
 1290SOL     OW15502   1.166   1.562  17.476 -0.5743 -0.1275 -0.2237
 1290SOL    HW115503   1.118   1.538  17.555  0.3153  0.0449  0.3595
 1290SOL    HW215504   1.128   1.501  17.412 -0.7135 -0.4116  0.1307
 1291SOL     OW15505   2.987   1.932  15.458  0.2806 -0.2488  0.2087
 1291SOL    HW115506   3.047   1.889  15.519  2.9038 -1.2189 -3.1232
 1291SOL    HW215507   2.982   1.863  15.392 -2.1233 -0.8730  1.0403
 1292SOL     OW15508   3.556   4.086   5.263 -0.6592  0.1242 -0.4792
 1292SOL    HW115509   3.569   4.149   5.192  0.0606  0.0632 -0.4034
 1292SOL    HW215510   3.527   4.014   5.208 -1.8980 -0.5509  1.0484
 1293SOL     OW15511   0.603   4.421   8.992  0.6735 -0.0601 -0.1413
 1293SOL    HW115512   0.582   4.334   9.023 -1.3471  0.0258 -1.2681
 1293SOL    HW215513   0.554   4.426   8.909 -1.3235 -4.4557  0.7993
 1294SOL     OW15514   1.207   3.991   4.713  0.3026 -0.3421  0.1970
 1294SOL    HW115515   1.239   3.904   4.736  0.0325 -0.5354 -0.1560
 1294SOL    HW215516   1.205   4.040   4.795 -0.3321  1.9885 -1.1796
 1295SOL     OW15517   2.554   3.759  11.535 -0.3746 -0.1287  0.1476
 1295SOL    HW115518   2.597   3.751  11.620 -0.7748  2.7135  0.6296
 1295SOL    HW215519   2.516   3.671  11.536 -1.0696  0.1654 -0.0118
 1296SOL     OW15520   0.535   4.589   2.499  0.0514 -0.3287 -0.3385
 1296SOL    HW115521   0.546   4.684   2.490 -0.6638 -0.5176 -3.1663
 1296SOL    HW215522   0.614   4.576   2.552  0.4807  1.1291 -0.6203
 1297SOL     OW15523   1.847   3.372   4.328  0.0930  0.0630 -0.3817
 1297SOL    HW115524   1.854   3.395   4.236  0.4211 -0.2656 -0.4397
 1297SOL    HW215525   1.925   3.318   4.339  0.3781  0.7557  1.0004
 1298SOL     OW15526   3.385   2.907   4.800 -0.1151  0.2066 -0.7414
 1298SOL    HW115527   3.412   2.890   4.890 -1.2316  0.0680 -0.4382
 1298SOL    HW215528   3.299   2.940   4.824  0.5051 -1.2570  3.5281
 1299SOL     OW15529   1.828   1.856   4.079 -0.2667 -0.1599 -0.2530
 1299SOL    HW115530   1.802   1.770   4.047  1.6858 -0.7139 -0.3335
 1299SOL    HW215531   1.892   1.885   4.014 -0.8995 -1.5056 -1.4800
 1300SOL     OW15532   3.241   2.666   1.225 -0.1174  0.0209  0.1007
 1300SOL    HW115533   3.264   2.599   1.161 -1.6670  0.3991 -0.8608
 1300SOL    HW215534   3.156   2.628   1.248 -0.8639  1.5082 -0.1603
 1301SOL     OW15535   2.861   4.006  16.860 -0.1678  0.0822  0.1406
 1301SOL    HW115536   2.945   4.028  16.819 -0.9253  3.3247  0.3061
 1301SOL    HW215537   2.885   3.931  16.914  1.4304  1.3385  1.1909
 1302SOL     OW15538   0.765   3.183  16.817  0.0834  0.0421 -0.1330
 1302SOL    HW115539   0.739   3.207  16.906  0.4724  0.8375 -0.2338
 1302SOL    HW215540   0.857   3.209  16.815 -0.3898  1.8561  2.1119
 1303SOL     OW15541   4.107   4.605   8.948  0.0576 -0.2096  0.6547
 1303SOL    HW115542   4.089   4.512   8.937  0.3600  0.0076 -1.6931
 1303SOL    HW215543   4.095   4.627   8.856  1.8678 -0.9018  0.2685
 1304SOL     OW15544   0.334   3.960  17.742  0.0816  0.7996  0.5416
 1304SOL    HW115545   0.425   3.976   0.021  0.5894  0.3723 -1.0503
 1304SOL    HW215546   0.310   3.928   0.084 -0.1941  1.2118  0.6216
 1305SOL     OW15547   0.998   2.457   4.346  0.0348 -0.1395  0.2019
 1305SOL    HW115548   0.997   2.551   4.325 -0.0672 -0.2876 -0.4500
 1305SOL    HW215549   1.030   2.461   4.436 -0.7281  0.5826  0.4474
 1306SOL     OW15550   4.330   2.163   2.995 -0.1537 -0.0416  0.3256
 1306SOL    HW115551   4.314   2.073   2.967 -1.5225  0.2541  0.1611
 1306SOL    HW215552   4.323   2.149   3.089  0.3133  1.4223  0.5845
 1307SOL     OW15553   3.242   2.211   6.973  0.1174  0.3069  0.4623
 1307SOL    HW115554   3.289   2.290   6.999  1.1329  0.4488 -1.7889
 1307SOL    HW215555   3.315   2.149   6.970 -1.2046 -1.1917 -1.4300
 1308SOL     OW15556   3.836   0.413  15.760 -0.3052  0.0448 -0.5172
 1308SOL    HW115557   3.743   0.405  15.736  0.1045 -0.9441 -1.8074
 1308SOL    HW215558   3.854   0.324  15.791  1.5843 -0.3373 -2.7137
 1309SOL     OW15559   4.593   3.447   5.451 -0.3764  0.5485 -0.3729
 1309SOL    HW115560   4.652   3.455   5.377 -0.9357 -2.5243 -1.1400
 1309SOL    HW215561   4.624   3.372   5.502 -1.9927  0.9239  1.1708
 1310SOL     OW15562   2.222   1.826  12.534 -0.4807  0.0386  0.1338
 1310SOL    HW115563   2.276   1.762  12.580 -0.1694  1.8320  2.2799
 1310SOL    HW215564   2.284   1.889  12.497 -0.2328  0.0677  0.6040
 1311SOL     OW15565   3.149   3.594   5.173 -0.7653 -0.6316 -0.1824
 1311SOL    HW115566   3.086   3.576   5.102 -0.7530  0.5853 -0.4977
 1311SOL    HW215567   3.113   3.554   5.252  0.1005 -2.0696 -0.5121
 1312SOL     OW15568   3.351   4.029   3.262 -0.7364  0.1942 -0.2016
 1312SOL    HW115569   3.429   4.061   3.306 -0.7290  1.7278 -1.3424
 1312SOL    HW215570   3.301   3.990   3.334 -2.6770  0.0118 -1.6466
 1313SOL     OW15571   3.087   1.161   6.252 -0.9602 -0.3778  0.0895
 1313SOL    HW115572   3.071   1.234   6.312 -0.7186  0.6431 -1.0937
 1313SOL    HW215573   3.106   1.212   6.174 -1.3800 -1.9594 -1.0587
 1314SOL     OW15574   3.259   0.341   8.396 -0.2213 -0.2539 -0.6456
 1314SOL    HW115575   3.320   0.399   8.441 -2.0414 -0.9122  2.6745
 1314SOL    HW215576   3.191   0.365   8.459  1.6590  0.0165  1.3012
 1315SOL     OW15577   0.263   1.583   9.991 -0.0022 -0.2089 -0.9355
 1315SOL    HW115578   0.248   1.675  10.015 -0.8900 -0.9790  1.5131
 1315SOL    HW215579   0.174   1.556   9.969 -0.7874  1.0801  0.6204
 1316SOL     OW15580   1.422   0.299   8.300 -0.1899 -0.5429 -0.0187
 1316SOL    HW115581   1.399   0.225   8.244 -1.2021  0.0302 -0.3799
 1316SOL    HW215582   1.494   0.347   8.260  1.1067 -2.1163  0.4502
 1317SOL     OW15583   0.915   3.967   6.681 -0.0981  0.4181  0.4889
 1317SOL    HW115584   0.897   4.056   6.651 -0.7529  0.9629  2.4900
 1317SOL    HW215585   0.861   3.956   6.759  0.3715  0.7541  0.8630
 1318SOL     OW15586   2.747   3.033   4.392  0.0085  0.5881  0.6732
 1318SOL    HW115587   2.715   2.945   4.412  1.4438 -0.0475  0.1470
 1318SOL    HW215588   2.839   3.014   4.373  0.6424  1.4135  2.9547
 1319SOL     OW15589   1.178   1.050   8.129  0.4377 -0.4149 -0.5767
 1319SOL    HW115590   1.205   0.969   8.088  2.5107  0.0328 -0.0711
 1319SOL    HW215591   1.160   1.111   8.057 -0.5673 -0.0726 -0.0445
 1320SOL     OW15592   3.192   3.528   4.719 -0.9427  0.0389 -0.4106
 1320SOL    HW115593   3.268   3.573   4.756 -1.3428  0.0054  0.4465
 1320SOL    HW215594   3.133   3.603   4.704 -1.0769 -0.1993 -1.0675
 1321SOL     OW15595   1.216   4.616  10.384  0.1780 -0.0969  0.3445
 1321SOL    HW115596   1.237   4.709  10.377  0.5701 -0.2080  0.0241
 1321SOL    HW215597   1.175   4.599  10.299  0.8360 -0.2686  0.0654
 1322SOL     OW15598   0.280   2.729   4.857 -0.8691  0.1112  0.6963
 1322SOL    HW115599   0.363   2.753   4.818 -1.6446  0.0311 -0.9814
 1322SOL    HW215600   0.284   2.634   4.868 -0.3477 -0.3802 -3.9413
 1323SOL     OW15601   4.618   4.050   6.448  0.1134 -0.3822 -0.3566
 1323SOL    HW115602   4.679   3.985   6.483  0.4624  0.9878  1.5725
 1323SOL    HW215603   4.547   4.056   6.512  0.5737 -0.9136  0.1940
 1324SOL     OW15604   0.563   3.820   8.822  0.2933 -0.6575  0.2580
 1324SOL    HW115605   0.493   3.792   8.881 -0.3551 -1.8244 -1.0764
 1324SOL    HW215606   0.514   3.863   8.753 -0.4916 -3.1614 -0.7474
 1325SOL     OW15607   2.734   1.341   4.727  0.6498 -0.2890 -0.3345
 1325SOL    HW115608   2.745   1.290   4.808 -1.4890 -0.7072 -0.3145
 1325SOL    HW215609   2.677   1.410   4.762  0.8305 -0.3230  0.0248
 1326SOL     OW15610   1.676   2.660   2.039 -0.2288 -0.8734  0.3663
 1326SOL    HW115611   1.626   2.656   2.120 -0.1852 -1.1724  0.3766
 1326SOL    HW215612   1.612   2.682   1.971  0.9133  0.9033 -0.1382
 1327SOL     OW15613   3.095   3.079  15.914  0.0831 -0.3323 -0.2715
 1327SOL    HW115614   3.097   3.001  15.859 -0.6301  0.2674 -1.1528
 1327SOL    HW215615   3.139   3.055  15.996 -0.8338  0.7246  0.5480
 1328SOL     OW15616   0.095   0.109   1.878  0.1840  0.4094 -0.7856
 1328SOL    HW115617   0.171   0.142   1.925 -0.2719  1.1544 -0.5703
 1328SOL    HW215618   0.066   0.031   1.925  1.1293  1.5238  1.6025
 1329SOL     OW15619   2.844   3.446   7.860 -0.1156 -0.0409  0.4987
 1329SOL    HW115620   2.802   3.482   7.938 -1.7098  0.3355 -0.5428
 1329SOL    HW215621   2.868   3.357   7.887  2.1483  0.2915 -0.4225
 1330SOL     OW15622   3.501   0.399  10.891  0.2378 -0.2698 -0.1452
 1330SOL    HW115623   3.582   0.380  10.938 -0.0697 -1.4342 -0.1014
 1330SOL    HW215624   3.474   0.481  10.934  2.7382  0.3463  0.2560
 1331SOL     OW15625   0.446   3.539   3.407  0.1301  0.0043  0.1375
 1331SOL    HW115626   0.513   3.598   3.442  1.4746 -2.9028  2.5298
 1331SOL    HW215627   0.375   3.531   3.470 -0.3082  0.0166 -0.3502
 1332SOL     OW15628   2.712   1.372  12.941  0.3953 -0.2396  0.3959
 1332SOL    HW115629   2.703   1.294  12.996 -0.7953 -1.9957 -2.2530
 1332SOL    HW215630   2.783   1.345  12.882 -1.9695 -0.9427 -2.1373
 1333SOL     OW15631   3.201   0.969   5.839  0.0551  0.1234  0.9347
 1333SOL    HW115632   3.245   0.903   5.893 -1.3414 -0.7314  1.0119
 1333SOL    HW215633   3.255   1.044   5.864  0.0306 -0.1688  1.8675
 1334SOL     OW15634   4.370   0.074   2.484  0.3931 -0.3611 -0.1175
 1334SOL    HW115635   4.376   0.030   2.568 -1.0847  1.0689  0.7217
 1334SOL    HW215636   4.461   0.076   2.453  0.9800  0.0835  1.6412
 1335SOL     OW15637   4.603   1.056   3.763 -0.8495 -0.5044  0.1003
 1335SOL    HW115638   4.556   1.071   3.845  0.3312 -1.3472  0.9203
 1335SOL    HW215639   4.544   1.111   3.711  1.9366  1.4273 -1.0651
 1336SOL     OW15640   3.527   1.146   2.390 -0.2812  0.9339  0.8155
 1336SOL    HW115641   3.450   1.167   2.338  0.1226  0.1435 -0.1019
 1336SOL    HW215642   3.518   1.051   2.385  0.5769  0.8725  0.4130
 1337SOL     OW15643   1.460   1.792   4.383 -0.6202 -0.2605  0.0669
 1337SOL    HW115644   1.510   1.829   4.456  0.6068 -0.2467 -0.7800
 1337SOL    HW215645   1.495   1.838   4.307  0.9260  1.4706  1.8372
 1338SOL     OW15646   0.821   3.980   0.568  0.2749  0.2817 -0.3743
 1338SOL    HW115647   0.729   4.003   0.553  0.6340  2.7469  1.2644
 1338SOL    HW215648   0.813   3.887   0.592 -2.5955  0.8985  1.0627
 1339SOL     OW15649   1.880   0.578   4.437 -0.0498 -0.8058  0.2607
 1339SOL    HW115650   1.946   0.595   4.504  0.5743  0.7413 -0.7367
 1339SOL    HW215651   1.917   0.634   4.368 -2.4876  2.8644  1.9042
 1340SOL     OW15652   2.127   3.848   8.620 -0.5233 -0.1428 -0.4166
 1340SOL    HW115653   2.073   3.863   8.698  1.2294 -1.0152  0.9644
 1340SOL    HW215654   2.120   3.929   8.571  2.1693  0.8872  0.9083
 1341SOL     OW15655   3.238   3.446   3.025 -0.3713  0.1823 -0.2930
 1341SOL    HW115656   3.298   3.378   2.994 -0.6457 -0.4551  0.5715
 1341SOL    HW215657   3.280   3.469   3.109  0.8055  0.6202 -0.9978
 1342SOL     OW15658   2.777   2.362   2.959 -0.2601  0.3717  0.0495
 1342SOL    HW115659   2.745   2.273   2.949 -1.2076  0.7955 -0.6841
 1342SOL    HW215660   2.711   2.386   3.024  0.1646  1.3985  0.1137
 1343SOL     OW15661   1.631   2.509   1.174  0.2974 -0.1326  0.0196
 1343SOL    HW115662   1.615   2.529   1.081  0.5932  0.0655  0.0120
 1343SOL    HW215663   1.606   2.586   1.226  0.9554  1.1908 -1.5997
 1344SOL     OW15664   2.540   3.768   5.767 -0.3141 -0.6837 -0.0671
 1344SOL    HW115665   2.469   3.718   5.727  0.6697 -1.8290 -0.4085
 1344SOL    HW215666   2.607   3.786   5.701  0.6011 -1.1290  0.7403
 1345SOL     OW15667   4.247   1.926   2.859 -0.6479 -0.0721  0.1134
 1345SOL    HW115668   4.260   1.831   2.862  1.0352  0.1340 -1.0250
 1345SOL    HW215669   4.227   1.943   2.767 -0.1063  1.3029  0.2531
 1346SOL     OW15670   3.131   1.149  15.197 -0.4305  0.0655 -0.4013
 1346SOL    HW115671   3.107   1.164  15.106 -2.1712 -1.4513 -0.1803
 1346SOL    HW215672   3.220   1.184  15.194 -0.2595 -0.5255 -1.7097
 1347SOL     OW15673   3.672   1.760   8.175 -0.0166 -0.8134 -0.1183
 1347SOL    HW115674   3.588   1.736   8.137  0.3342 -2.5655  0.1924
 1347SOL    HW215675   3.669   1.706   8.255  0.9636 -0.3676  0.2248
 1348SOL     OW15676   2.836   0.418  14.458  0.2140  0.3163  0.2143
 1348SOL    HW115677   2.792   0.502  14.468  2.1128  1.1529  1.5806
 1348SOL    HW215678   2.782   0.382  14.387  0.8845  1.7388 -1.0233
 1349SOL     OW15679   0.919   3.455   3.232  0.0366  0.4601 -0.2061
 1349SOL    HW115680   0.959   3.474   3.147  1.5278 -1.5622  0.0396
 1349SOL    HW215681   0.994   3.475   3.289 -0.9255  2.5564  0.3116
 1350SOL     OW15682   3.826   3.527   3.297 -0.3514  0.5608  0.5027
 1350SOL    HW115683   3.817   3.456   3.361  1.5556  0.1887  0.3551
 1350SOL    HW215684   3.917   3.553   3.311  0.0001  0.5375 -1.8440
 1351SOL     OW15685   0.223   1.668  10.398 -0.0359 -0.5199 -0.0666
 1351SOL    HW115686   0.155   1.652  10.333 -2.5140 -1.3252  2.7516
 1351SOL    HW215687   0.251   1.753  10.364  2.1774 -0.8580  0.9204
 1352SOL     OW15688   0.768   2.907   3.929  0.1598  0.6212 -0.4997
 1352SOL    HW115689   0.694   2.967   3.922 -1.3931 -1.2492 -0.3540
 1352SOL    HW215690   0.732   2.842   3.990  0.1803  0.3666 -0.7599
 1353SOL     OW15691   2.438   4.053   1.730 -0.6933  0.1219 -0.4883
 1353SOL    HW115692   2.352   4.047   1.773 -1.6323  0.8375 -2.2887
 1353SOL    HW215693   2.475   3.965   1.728  1.3589  1.0007 -0.9150
 1354SOL     OW15694   0.768   3.641   4.849 -0.2323 -0.1750 -0.6916
 1354SOL    HW115695   0.675   3.658   4.860 -0.1870  1.1622 -2.3644
 1354SOL    HW215696   0.769   3.556   4.892 -0.7106  0.2471  0.1537
 1355SOL     OW15697   2.582   1.432   7.611  0.1283  0.4396  0.3225
 1355SOL    HW115698   2.574   1.468   7.522  1.1466 -2.9416 -1.1316
 1355SOL    HW215699   2.499   1.456   7.652 -0.2739 -1.4834  0.6041
 1356SOL     OW15700   2.185   2.107   4.997  0.2567  0.2331 -0.4534
 1356SOL    HW115701   2.178   2.154   5.080 -0.8914 -1.0767  0.1850
 1356SOL    HW215702   2.222   2.171   4.936  0.1120  1.1530  0.4161
 1357SOL     OW15703   3.157   4.188   4.881  0.2510 -0.6178 -0.5393
 1357SOL    HW115704   3.234   4.135   4.858  1.7253  1.4771 -0.3826
 1357SOL    HW215705   3.153   4.255   4.814  1.2118 -0.3131 -0.2847
 1358SOL     OW15706   2.668   3.120  10.974  0.2763  0.1882  0.1964
 1358SOL    HW115707   2.578   3.128  11.006 -0.1935 -2.4702 -0.3958
 1358SOL    HW215708   2.715   3.103  11.056  0.0802  2.1319  0.6954
 1359SOL     OW15709   3.532   3.231  16.115 -0.3089  0.6438  0.2207
 1359SOL    HW115710   3.490   3.160  16.068  1.3847 -0.1987 -0.0326
 1359SOL    HW215711   3.528   3.206  16.207 -1.2254  2.7064  0.7555
 1360SOL     OW15712   2.196   3.783   9.429  0.0826 -0.7521 -0.4402
 1360SOL    HW115713   2.191   3.819   9.341  3.4590  0.1159 -0.2849
 1360SOL    HW215714   2.142   3.704   9.429 -1.8855  0.5536  2.7541
 1361SOL     OW15715   1.803   3.988   9.153  0.1440 -0.1314  0.4570
 1361SOL    HW115716   1.779   3.895   9.146  1.5079 -0.4400 -0.1161
 1361SOL    HW215717   1.722   4.023   9.191 -0.2992  0.9335 -1.4459
 1362SOL     OW15718   0.788   3.410   5.025  0.2864  0.3859  0.4567
 1362SOL    HW115719   0.861   3.351   5.005 -0.4456 -0.3945  0.1243
 1362SOL    HW215720   0.728   3.351   5.070 -3.3056 -0.2624 -5.2567
 1363SOL     OW15721   2.654   3.911  16.703 -0.2395  0.1068 -0.3169
 1363SOL    HW115722   2.742   3.940  16.725  0.6921 -1.2205 -2.3916
 1363SOL    HW215723   2.604   3.915  16.785  0.0084 -0.4958 -0.1382
 1364SOL     OW15724   4.711   2.503  13.416 -0.4382 -0.0846 -0.1843
 1364SOL    HW115725   4.676   2.479  13.330 -0.1012  0.3607 -0.4451
 1364SOL    HW215726   0.050   2.557  13.396  0.5819 -1.2886  0.4731
 1365SOL     OW15727   2.595   0.836   7.545  0.2270 -0.2832 -0.0682
 1365SOL    HW115728   2.520   0.809   7.598  0.6563 -2.4054 -0.5088
 1365SOL    HW215729   2.574   0.928   7.532  0.4495 -0.0875  0.9426
 1366SOL     OW15730   0.195   2.377   4.504  0.2417 -0.0873 -0.0462
 1366SOL    HW115731   0.160   2.430   4.432 -0.6767 -1.7419 -0.8278
 1366SOL    HW215732   0.143   2.297   4.503  0.3845 -0.1799 -0.1200
 1367SOL     OW15733   1.281   2.607   1.785 -0.2094  0.3634  0.2475
 1367SOL    HW115734   1.267   2.671   1.715 -1.0185  1.2889  1.2440
 1367SOL    HW215735   1.376   2.608   1.796 -0.2826 -0.7461  0.9528
 1368SOL     OW15736   3.563   3.795   0.418 -0.4753 -0.5367 -0.3687
 1368SOL    HW115737   3.503   3.774   0.347  1.9851  0.6797 -2.7867
 1368SOL    HW215738   3.583   3.887   0.403  1.7874 -0.8717  0.5928
 1369SOL     OW15739   3.354   1.639  14.418 -0.0027 -0.5530  0.1822
 1369SOL    HW115740   3.372   1.613  14.328 -2.2797  1.1084 -0.7799
 1369SOL    HW215741   3.426   1.700  14.433  0.0320 -0.7648  0.8533
 1370SOL     OW15742   0.188   0.594   0.557 -0.3929 -0.5891 -0.0468
 1370SOL    HW115743   0.102   0.569   0.588 -1.2599 -0.2110 -2.1244
 1370SOL    HW215744   0.176   0.604   0.462 -0.3052  0.0021  0.0026
 1371SOL     OW15745   0.420   0.399   4.998 -0.1902  0.0698  0.3423
 1371SOL    HW115746   0.379   0.356   5.073 -3.7472  0.2194 -1.5145
 1371SOL    HW215747   0.506   0.357   5.000 -0.9660 -1.4947  0.3858
 1372SOL     OW15748   4.094   1.341   5.310 -0.4473  0.5870 -0.2744
 1372SOL    HW115749   4.041   1.414   5.279 -0.0881  0.4608 -1.1817
 1372SOL    HW215750   4.123   1.294   5.232 -0.9991  0.6637 -0.5269
 1373SOL     OW15751   1.607   1.574  16.821 -0.1317 -0.0457 -0.3559
 1373SOL    HW115752   1.542   1.613  16.879 -0.9163 -2.2438  0.2324
 1373SOL    HW215753   1.621   1.650  16.765 -1.4470  0.1927 -0.3635
 1374SOL     OW15754   3.450   1.850  11.367  0.0800  0.1036  0.2683
 1374SOL    HW115755   3.377   1.899  11.405  0.3901  0.6836  0.1240
 1374SOL    HW215756   3.515   1.921  11.367  0.4989 -0.2723  1.6408
 1375SOL     OW15757   3.249   2.305   4.790  0.0477 -0.4965 -0.5455
 1375SOL    HW115758   3.239   2.223   4.838  1.7063  0.8714  2.1393
 1375SOL    HW215759   3.252   2.267   4.703 -0.2908  0.4454 -0.9687
 1376SOL     OW15760   2.760   2.649   4.190 -0.0807  0.2598  0.4854
 1376SOL    HW115761   2.684   2.655   4.131  0.4964  0.3740 -0.2531
 1376SOL    HW215762   2.736   2.598   4.267  0.8198 -0.7100  0.1199
 1377SOL     OW15763   0.814   1.798  17.495 -0.0049  0.0612  0.2466
 1377SOL    HW115764   0.751   1.846  17.548  0.9567  0.4641  1.0179
 1377SOL    HW215765   0.789   1.834  17.410  0.2130  0.0691  0.1858
 1378SOL     OW15766   4.647   1.040  13.915 -0.0380 -0.1332 -0.2209
 1378SOL    HW115767   4.566   1.066  13.872  1.6535  1.8489 -2.2059
 1378SOL    HW215768   4.675   1.126  13.946  0.5591 -0.2695 -0.3805
 1379SOL     OW15769   3.947   1.451   2.157  0.4046  0.2901  0.1347
 1379SOL    HW115770   3.985   1.416   2.076  0.6443 -0.1707  0.4455
 1379SOL    HW215771   3.910   1.533   2.123 -0.4868 -0.6684 -1.2503
 1380SOL     OW15772   2.447   0.670  14.470  0.4262  0.2240 -0.2226
 1380SOL    HW115773   2.421   0.588  14.427  0.9338 -0.0326 -0.0421
 1380SOL    HW215774   2.382   0.727  14.429 -2.2668 -1.4934  1.6552
 1381SOL     OW15775   4.035   0.007   6.292 -0.5655  0.4100  0.6104
 1381SOL    HW115776   3.944   0.033   6.304 -0.5222  1.1221 -0.5277
 1381SOL    HW215777   4.037   4.670   6.232 -0.2577 -0.0526  1.1941
 1382SOL     OW15778   1.246   1.160  12.186  0.0285  0.2772 -0.1454
 1382SOL    HW115779   1.290   1.132  12.106 -1.7353 -1.6484 -0.4281
 1382SOL    HW215780   1.316   1.175  12.250  1.0480  0.7941 -1.3989
 1383SOL     OW15781   0.729   4.707  15.718 -0.3559 -0.0873 -0.1313
 1383SOL    HW115782   0.687   4.649  15.654 -2.3099 -0.9531  1.9021
 1383SOL    HW215783   0.751   4.648  15.790 -1.5297  0.4559  0.6744
 1384SOL     OW15784   3.200   2.103   1.637  0.6759  0.0981 -0.4543
 1384SOL    HW115785   3.261   2.086   1.565  0.3720 -0.0513 -0.6746
 1384SOL    HW215786   3.125   2.127   1.583  0.7451  2.3373  0.4419
 1385SOL     OW15787   0.717   1.773   6.080 -0.0078 -0.2504  0.3603
 1385SOL    HW115788   0.700   1.857   6.123 -0.6704  0.4319 -1.2255
 1385SOL    HW215789   0.760   1.720   6.147  0.0190 -2.6167 -1.5137
 1386SOL     OW15790   1.343   1.550   5.332  0.5587  0.0976  0.4566
 1386SOL    HW115791   1.273   1.542   5.397 -0.2928  1.4124 -0.2977
 1386SOL    HW215792   1.389   1.467   5.343 -2.6630 -1.4875  1.8977
 1387SOL     OW15793   3.074   3.192   5.498 -0.0717 -0.0979 -0.2248
 1387SOL    HW115794   3.064   3.268   5.440  1.9806  0.3639  0.0356
 1387SOL    HW215795   3.134   3.139   5.445 -0.7243  0.8470 -1.9217
 1388SOL     OW15796   0.021   3.655   9.517 -0.1733 -0.9202  0.2584
 1388SOL    HW115797   0.064   3.620   9.439  0.1737  0.5097 -0.1911
 1388SOL    HW215798   0.086   3.627   9.582  1.7705  1.3009 -0.7203
 1389SOL     OW15799   4.615   4.252   2.954 -0.2513  0.0000 -0.0360
 1389SOL    HW115800   4.612   4.348   2.958 -1.0121 -0.1069  2.0215
 1389SOL    HW215801   4.697   4.238   3.002  0.2775  0.0545 -0.9269
 1390SOL     OW15802   4.599   0.505   3.851  0.2092  0.2174  0.7900
 1390SOL    HW115803   4.682   0.490   3.806  0.2411 -0.5137  1.0832
 1390SOL    HW215804   4.603   0.598   3.874  1.9949  0.2325  0.4509
 1391SOL     OW15805   4.602   3.420   1.582 -0.4925 -0.7270 -0.5107
 1391SOL    HW115806   4.641   3.333   1.580  1.7235  0.2371  0.7284
 1391SOL    HW215807   4.627   3.454   1.668  1.3643 -0.8584 -1.0050
 1392SOL     OW15808   0.972   1.952   8.879  0.1941  0.0529  0.2750
 1392SOL    HW115809   0.995   1.934   8.788  1.7423  0.1699  0.6471
 1392SOL    HW215810   0.918   1.876   8.900 -0.2908  0.7885  1.6556
 1393SOL     OW15811   2.055   3.486   1.738 -0.3088 -0.5784  0.1619
 1393SOL    HW115812   2.080   3.547   1.669 -0.0682  0.4437  1.1423
 1393SOL    HW215813   1.980   3.452   1.688  0.4052  1.3067 -2.1618
 1394SOL     OW15814   3.031   0.501  17.514  0.1432  0.2873  0.1161
 1394SOL    HW115815   2.979   0.438  17.465  2.4162 -1.4691 -0.0400
 1394SOL    HW215816   2.969   0.563  17.553  1.8917  2.0144  0.1844
 1395SOL     OW15817   1.032   0.392   7.692 -0.1557 -0.4665  0.2992
 1395SOL    HW115818   0.956   0.409   7.749 -0.9172  1.8890 -1.4129
 1395SOL    HW215819   0.989   0.420   7.611  2.0135  0.4700 -0.5246
 1396SOL     OW15820   4.468   4.554  11.981 -0.3332 -0.2547 -0.1498
 1396SOL    HW115821   4.444   4.624  12.042  3.5747  0.0972  0.9271
 1396SOL    HW215822   4.521   4.596  11.913 -0.0469  0.9356  0.8008
 1397SOL     OW15823   3.651   2.065   9.086  0.5155  0.2657  0.4268
 1397SOL    HW115824   3.653   2.107   9.000 -0.9238 -1.4096 -0.4128
 1397SOL    HW215825   3.559   2.045   9.103  0.7045  1.0109  2.3364
 1398SOL     OW15826   0.090   1.448   1.897  0.1743 -0.4538  0.3011
 1398SOL    HW115827   0.165   1.389   1.889  0.7748  0.3851 -0.2264
 1398SOL    HW215828   0.125   1.505   1.966  1.6432 -0.0310 -0.8048
 1399SOL     OW15829   2.680   0.778   7.821  0.5566 -0.7527  0.5825
 1399SOL    HW115830   2.739   0.703   7.812  0.8201 -0.1572 -2.7744
 1399SOL    HW215831   2.599   0.726   7.816 -0.2856  0.7102 -1.0596
 1400SOL     OW15832   1.946   0.375   7.138  0.0136 -0.6744 -0.0772
 1400SOL    HW115833   2.023   0.376   7.081  1.3477  3.4489  1.7134
 1400SOL    HW215834   1.915   0.287   7.117  1.3487 -0.6526 -2.1626
 1401SOL     OW15835   2.944   0.836  14.105 -0.5674  0.2467  0.9040
 1401SOL    HW115836   2.949   0.931  14.106  0.2066  0.2002  1.6829
 1401SOL    HW215837   2.972   0.815  14.194  0.5027 -0.4857  0.3971
 1402SOL     OW15838   0.835   1.997   2.469 -0.4387 -0.8532  0.5474
 1402SOL    HW115839   0.756   2.012   2.520 -1.0383 -0.2596 -0.5584
 1402SOL    HW215840   0.796   1.986   2.383  0.0555  0.9675  0.0857
 1403SOL     OW15841   2.402   3.768   4.083 -0.3373 -0.0153  0.3905
 1403SOL    HW115842   2.382   3.805   3.997 -1.0666 -1.5991 -0.1178
 1403SOL    HW215843   2.481   3.814   4.112 -0.2999 -0.2521  0.6692
 1404SOL     OW15844   1.016   3.634  13.464 -0.1154  0.0431 -0.0356
 1404SOL    HW115845   1.053   3.580  13.534 -0.0441 -2.3082 -1.8520
 1404SOL    HW215846   0.962   3.564  13.425  1.0800 -1.0604  0.2798
 1405SOL     OW15847   4.529   2.987  17.064 -0.5732  0.1195  0.1253
 1405SOL    HW115848   4.489   3.068  17.033 -0.9266 -0.1809 -0.1929
 1405SOL    HW215849   4.622   3.007  17.049 -0.1631 -1.4843  0.5069
 1406SOL     OW15850   4.610   0.749   4.036  0.5581 -0.6620 -0.3775
 1406SOL    HW115851   4.666   0.787   4.104 -0.3005  2.1768 -1.2348
 1406SOL    HW215852   4.658   0.751   3.954 -1.5437 -0.8441 -1.6058
 1407SOL     OW15853   3.955   4.518   1.753  0.6214  0.6203 -0.4274
 1407SOL    HW115854   3.927   4.569   1.829 -0.4595  0.8234 -0.9466
 1407SOL    HW215855   4.044   4.484   1.762  0.2005 -0.3440  0.1856
 1408SOL     OW15856   1.198   1.140   7.018 -0.2826 -0.4899  0.2070
 1408SOL    HW115857   1.104   1.136   7.035 -0.0966 -0.2150  1.2819
 1408SOL    HW215858   1.210   1.193   7.096 -0.4277 -0.0527 -0.0660
 1409SOL     OW15859   4.361   1.528   4.319 -0.1825 -0.0374 -0.0861
 1409SOL    HW115860   4.372   1.481   4.401  0.6975 -1.0054 -0.7589
 1409SOL    HW215861   4.344   1.612   4.363  0.4782  0.7487 -1.3206
 1410SOL     OW15862   1.143   1.968   6.937 -0.4747  0.8433 -0.0206
 1410SOL    HW115863   1.230   1.951   6.901 -0.3025 -0.0582  0.8225
 1410SOL    HW215864   1.100   1.892   6.897 -0.8728  1.0373  0.0384
 1411SOL     OW15865   4.162   1.392   6.418 -0.2373  0.7703 -0.2175
 1411SOL    HW115866   4.157   1.487   6.414 -0.3586  0.7511 -0.5247
 1411SOL    HW215867   4.076   1.365   6.387  0.9685 -1.6328 -1.5507
 1412SOL     OW15868   4.210   3.654   9.329  0.3485 -0.1871 -0.4509
 1412SOL    HW115869   4.217   3.735   9.278  1.8017  0.9485  1.5490
 1412SOL    HW215870   4.215   3.688   9.418  1.0760 -1.5348  0.0297
 1413SOL     OW15871   1.533   3.508   2.969 -0.3229 -0.6503  0.0555
 1413SOL    HW115872   1.468   3.557   3.019  0.1874  1.0352 -0.9345
 1413SOL    HW215873   1.514   3.424   3.010  2.2643 -1.2356  0.0957
 1414SOL     OW15874   1.074   1.736   3.779 -0.3295  0.0305 -0.3891
 1414SOL    HW115875   1.002   1.790   3.814  1.7318  1.6616  1.3162
 1414SOL    HW215876   1.142   1.743   3.846  1.3731  0.7766 -2.2324
 1415SOL     OW15877   2.996   1.627   9.079 -0.1849  0.4068 -0.0117
 1415SOL    HW115878   3.033   1.623   8.991  1.2650 -1.4078  0.6696
 1415SOL    HW215879   2.996   1.719   9.103 -0.6059  0.7550 -1.3555
 1416SOL     OW15880   2.212   1.683  11.682  0.2362 -0.2422 -0.2006
 1416SOL    HW115881   2.253   1.741  11.746  0.0664  0.3796 -0.6577
 1416SOL    HW215882   2.156   1.627  11.736 -0.7017 -0.5163 -1.4619
 1417SOL     OW15883   0.709   0.736   9.108 -0.0172  0.3353 -0.1456
 1417SOL    HW115884   0.695   0.740   9.013  0.7232  1.3400 -0.2072
 1417SOL    HW215885   0.785   0.678   9.108 -0.8837 -0.8150  0.4283
 1418SOL     OW15886   1.320   3.240   8.614 -0.1026 -0.1958 -0.4036
 1418SOL    HW115887   1.355   3.173   8.673 -3.9714 -0.9935  0.9323
 1418SOL    HW215888   1.282   3.310   8.667  1.2832  0.4723 -0.2943
 1419SOL     OW15889   4.085   3.338  15.359  0.6743 -0.3955  0.0744
 1419SOL    HW115890   4.165   3.336  15.307 -1.1651 -1.3680 -2.6951
 1419SOL    HW215891   4.022   3.295  15.302 -0.8825  0.4059  1.1839
 1420SOL     OW15892   3.621   3.313   7.039 -0.6156  0.4967  0.1927
 1420SOL    HW115893   3.543   3.358   7.071 -0.3988 -0.6234  2.2585
 1420SOL    HW215894   3.671   3.372   6.983 -1.1633  1.3855  0.6481
 1421SOL     OW15895   0.027   2.564   3.583 -0.3167 -0.0521  0.2374
 1421SOL    HW115896   0.057   2.500   3.648 -0.7790  0.8379  1.3222
 1421SOL    HW215897   4.706   2.509   3.530  0.0746  2.9116 -3.1998
 1422SOL     OW15898   4.188   1.179   6.045  0.1380 -0.0701 -0.7933
 1422SOL    HW115899   4.275   1.167   6.085  0.7145  0.4173 -1.8880
 1422SOL    HW215900   4.196   1.178   5.949  1.2351  0.5559 -0.7136
 1423SOL     OW15901   1.654   2.086   5.233 -0.4851 -0.7451 -0.0763
 1423SOL    HW115902   1.735   2.115   5.192 -0.2758 -0.7074  0.3538
 1423SOL    HW215903   1.585   2.151   5.222  0.7300  0.6681  0.5391
 1424SOL     OW15904   3.703   0.471   5.264 -0.8892 -0.7075  0.0559
 1424SOL    HW115905   3.653   0.506   5.190 -1.5551 -1.8859 -0.0663
 1424SOL    HW215906   3.703   0.378   5.241  1.1532 -0.3177 -1.5206
 1425SOL     OW15907   0.390   4.276  10.460 -0.2539  0.0083 -0.2896
 1425SOL    HW115908   0.485   4.261  10.465  0.1503  1.3610 -3.5796
 1425SOL    HW215909   0.355   4.191  10.433 -0.8642  0.3560 -0.5838
 1426SOL     OW15910   4.139   4.006   3.310  0.1500 -0.2326 -0.1122
 1426SOL    HW115911   4.198   3.967   3.246  1.0012  1.6913 -0.5009
 1426SOL    HW215912   4.063   3.948   3.315  0.0789 -0.1119  0.2361
 1427SOL     OW15913   3.778   3.679   8.943  0.4484  0.1780  0.0038
 1427SOL    HW115914   3.834   3.613   8.903 -1.1971 -1.3924  0.3090
 1427SOL    HW215915   3.765   3.641   9.030 -0.6623  0.6699  0.0585
 1428SOL     OW15916   4.532   2.871   3.957  0.2498  0.3138 -0.2789
 1428SOL    HW115917   4.538   2.800   4.021  0.4946 -0.8576 -1.6061
 1428SOL    HW215918   4.572   2.828   3.881 -0.5984 -2.2509  0.7421
 1429SOL     OW15919   3.343   4.020  15.002  0.0138  0.4716 -0.3305
 1429SOL    HW115920   3.292   3.939  15.006  0.0649  0.5199  1.3468
 1429SOL    HW215921   3.272   4.079  15.028 -0.2447  0.4852 -1.0829
 1430SOL     OW15922   4.715   0.814   7.772 -0.3434  0.2615  0.3999
 1430SOL    HW115923   4.703   0.722   7.795 -1.4041  0.3244  0.1187
 1430SOL    HW215924   4.645   0.852   7.826 -0.3646 -0.7121  1.0490
 1431SOL     OW15925   0.828   3.493  12.324 -0.1375 -0.0102 -0.6847
 1431SOL    HW115926   0.799   3.489  12.233  0.6997  0.7486 -0.9905
 1431SOL    HW215927   0.860   3.404  12.333 -1.5047 -0.2274  1.9929
 1432SOL     OW15928   2.526   0.014  11.245 -0.0558  0.2380 -0.0216
 1432SOL    HW115929   2.606   0.041  11.291  1.2731  0.1249 -2.2564
 1432SOL    HW215930   2.526   4.656  11.262 -0.4244  0.0808 -0.9275
 1433SOL     OW15931   1.849   2.902   6.480  0.9349  0.2018  0.2660
 1433SOL    HW115932   1.869   2.976   6.423 -3.0702  0.7058 -0.4829
 1433SOL    HW215933   1.861   2.831   6.417  1.7919 -0.3414  1.0393
 1434SOL     OW15934   1.855   1.384  15.176  0.2554  0.7168 -0.0643
 1434SOL    HW115935   1.777   1.386  15.232  0.4452  0.1516  0.2277
 1434SOL    HW215936   1.870   1.292  15.200  1.6506  1.1421  0.6718
 1435SOL     OW15937   3.492   3.309   2.983 -0.2561 -0.0548 -0.5772
 1435SOL    HW115938   3.534   3.344   3.062 -0.1069  0.4150 -0.8660
 1435SOL    HW215939   3.553   3.336   2.915 -1.5410  0.6061 -1.4673
 1436SOL     OW15940   1.074   3.044  10.889  0.0076  0.2190 -0.1397
 1436SOL    HW115941   1.077   2.950  10.905 -0.8177  0.2157  0.0222
 1436SOL    HW215942   1.154   3.053  10.838 -0.1918 -0.1843 -0.5257
 1437SOL     OW15943   1.424   4.126   0.953  0.2572  1.1578 -0.1400
 1437SOL    HW115944   1.479   4.155   0.881 -0.0385  0.8248 -0.5039
 1437SOL    HW215945   1.331   4.126   0.927  0.8357  3.5199 -2.2538
 1438SOL     OW15946   3.045   4.728   5.186 -0.5605  0.1691  0.1374
 1438SOL    HW115947   3.120   0.026   5.235  0.2856 -0.7184 -0.5111
 1438SOL    HW215948   3.081   4.642   5.160  1.1989  0.7737  0.5420
 1439SOL     OW15949   3.152   1.158  10.841  0.2225  0.6290 -0.8385
 1439SOL    HW115950   3.184   1.223  10.903  0.2430  0.8907 -1.1211
 1439SOL    HW215951   3.099   1.210  10.780 -0.0696  0.8661 -0.3745
 1440SOL     OW15952   1.607   1.348   4.331  0.3137  0.2046 -0.4288
 1440SOL    HW115953   1.531   1.316   4.282  0.7727 -1.4051 -0.0918
 1440SOL    HW215954   1.604   1.430   4.282 -1.4497  0.4558  0.0918
 1441SOL     OW15955   4.730   4.571   6.292 -0.0855  0.4393 -0.4130
 1441SOL    HW115956   4.645   4.574   6.334 -0.1688 -0.6749 -0.5000
 1441SOL    HW215957   0.018   4.481   6.310 -3.3752 -0.3913 -0.1813
 1442SOL     OW15958   1.924   2.824  13.808 -0.0240  0.0246  0.0234
 1442SOL    HW115959   1.994   2.762  13.830  2.0405  1.5598 -2.2576
 1442SOL    HW215960   1.944   2.887  13.877 -1.0555  0.3297  0.0515
 1443SOL     OW15961   4.467   0.169   1.887 -0.1131 -0.0013 -0.0272
 1443SOL    HW115962   4.471   0.116   1.967  1.8137 -0.6959 -0.5859
 1443SOL    HW215963   4.387   0.219   1.906  0.1610  1.0947 -1.8051
 1444SOL     OW15964   3.564   0.698   6.278 -0.1272  0.0981 -0.0879
 1444SOL    HW115965   3.486   0.731   6.235 -0.5402  0.7404  1.1523
 1444SOL    HW215966   3.525   0.691   6.365 -0.0715  2.1982  0.0962
 1445SOL     OW15967   2.436   4.504   4.666  0.0234  0.1449 -0.2202
 1445SOL    HW115968   2.504   4.474   4.606  0.5494 -0.3081  0.5984
 1445SOL    HW215969   2.389   4.424   4.693 -3.8735  2.5247  0.1260
 1446SOL     OW15970   1.101   2.434   8.665 -0.1694 -0.0261  0.0436
 1446SOL    HW115971   1.125   2.513   8.616 -1.3541  0.2617 -0.0822
 1446SOL    HW215972   1.184   2.412   8.706  0.6037 -0.9983 -2.0541
 1447SOL     OW15973   1.070   0.214   9.332 -0.3049  0.0019  0.1686
 1447SOL    HW115974   1.159   0.249   9.323 -0.6839  0.4560 -1.8573
 1447SOL    HW215975   1.078   0.177   9.420 -1.1290  0.3661  0.3917
 1448SOL     OW15976   4.030   3.989  11.891 -0.0806  0.8831  0.1283
 1448SOL    HW115977   4.078   3.912  11.861  0.2049  1.7129 -1.5302
 1448SOL    HW215978   4.060   4.062  11.837 -0.0769  1.2908  0.6873
 1449SOL     OW15979   1.206   3.766   9.333  0.2944  0.3159  0.3496
 1449SOL    HW115980   1.138   3.833   9.343  2.3276  1.9941  2.6766
 1449SOL    HW215981   1.157   3.684   9.330 -1.5819  1.3221  2.9976
 1450SOL     OW15982   0.723   2.689   3.695 -0.5744  0.1316  0.3912
 1450SOL    HW115983   0.674   2.627   3.750  1.3840 -1.5502  0.2640
 1450SOL    HW215984   0.734   2.750   3.768  1.7986  1.7357 -1.3283
 1451SOL     OW15985   1.412   4.258   0.180  0.4411  0.0732  0.6247
 1451SOL    HW115986   1.411   4.272   0.085 -2.1045 -0.6496  0.5459
 1451SOL    HW215987   1.489   4.200   0.185 -0.8875 -1.6818  0.8399
 1452SOL     OW15988   0.237   4.468  12.888  0.2272 -0.4559 -0.1006
 1452SOL    HW115989   0.268   4.492  12.975 -0.4782  1.5739 -0.4066
 1452SOL    HW215990   0.164   4.529  12.881  0.4587 -0.0813  0.7183
 1453SOL     OW15991   3.514   3.723  14.595 -0.2893 -0.5499 -0.0219
 1453SOL    HW115992   3.443   3.715  14.659  1.3174  1.9117  2.0395
 1453SOL    HW215993   3.551   3.809  14.614 -2.5796  0.3936  0.1584
 1454SOL     OW15994   4.650   2.406   5.963  0.4916 -1.0738 -0.2925
 1454SOL    HW115995   4.563   2.391   5.925  0.4893 -1.8054  0.0019
 1454SOL    HW215996   4.620   2.445   6.045 -0.4290 -0.7844 -0.7593
 1455SOL     OW15997   2.924   0.037   2.660 -0.0999 -0.3243  0.0489
 1455SOL    HW115998   2.907   4.708   2.592  2.6075 -2.5491  1.5269
 1455SOL    HW215999   3.019   0.036   2.658 -0.0944 -0.6238  0.6898
 1456SOL     OW16000   4.733   0.365   1.848 -0.0587 -0.2287  0.1850
 1456SOL    HW116001   4.690   0.362   1.762 -0.0398 -0.3530  0.1798
 1456SOL    HW216002   0.007   0.271   1.861 -0.6596 -0.1871  1.0025
 1457SOL     OW16003   2.798   3.879   4.343  0.4416  0.0631  0.0076
 1457SOL    HW116004   2.860   3.837   4.403  1.7441  0.2438 -1.2086
 1457SOL    HW216005   2.854   3.945   4.302  0.3457  0.1008 -0.0623
 1458SOL     OW16006   2.220   2.286   6.638  0.2384  0.6180  0.3317
 1458SOL    HW116007   2.242   2.373   6.669 -2.5558  0.4539  2.7495
 1458SOL    HW216008   2.150   2.296   6.573  0.4738 -0.6098 -0.1099
 1459SOL     OW16009   0.418   3.702   9.028  0.7401  0.2021  0.6644
 1459SOL    HW116010   0.363   3.678   9.102  1.1848 -1.1289  0.5760
 1459SOL    HW216011   0.476   3.625   9.026 -2.2558 -2.0511  0.8995
 1460SOL     OW16012   4.268   1.914   0.621  0.1954 -0.2272 -0.1756
 1460SOL    HW116013   4.290   1.970   0.546  2.2345 -3.4166 -1.9409
 1460SOL    HW216014   4.320   1.838   0.594  1.0121  0.4602 -0.5413
 1461SOL     OW16015   2.310   4.292   7.079  0.2169  0.3823  0.0440
 1461SOL    HW116016   2.319   4.223   7.145 -0.4795  0.2876  0.0421
 1461SOL    HW216017   2.277   4.364   7.133 -2.1317  0.6539 -1.7699
 1462SOL     OW16018   1.737   3.478   3.318 -0.5650  0.0235  0.3664
 1462SOL    HW116019   1.806   3.529   3.275 -1.2885 -0.0054 -0.8287
 1462SOL    HW216020   1.669   3.544   3.329  0.7032  1.7133 -2.0370
 1463SOL     OW16021   1.263   1.342   3.864 -0.0642 -0.3198  0.2619
 1463SOL    HW116022   1.308   1.258   3.851 -0.3725 -0.4850  0.2683
 1463SOL    HW216023   1.300   1.369   3.948  1.9399 -0.2089 -0.6440
 1464SOL     OW16024   1.084   1.674   3.361 -0.1793  0.1690  0.6249
 1464SOL    HW116025   1.124   1.736   3.300  1.6222 -1.2403  0.3690
 1464SOL    HW216026   1.060   1.601   3.304 -0.9780  0.5866  0.4290
 1465SOL     OW16027   4.668   2.093   2.969 -0.3205  0.3528 -0.8555
 1465SOL    HW116028   4.628   2.011   2.998  0.4482  1.1134  2.3489
 1465SOL    HW216029   4.653   2.146   3.047 -1.5883 -1.3867  0.0966
 1466SOL     OW16030   1.923   4.222   3.260  0.5156  0.9429  0.2182
 1466SOL    HW116031   1.995   4.173   3.221  0.6393 -0.9088  2.8085
 1466SOL    HW216032   1.877   4.257   3.183  1.1381 -1.3727 -1.2074
 1467SOL     OW16033   0.882   0.039   7.886 -0.2794  0.2415 -0.3456
 1467SOL    HW116034   0.967   0.084   7.877  0.3594 -1.1719 -1.3708
 1467SOL    HW216035   0.858   0.004   7.800 -0.0162 -1.5477  0.3160
 1468SOL     OW16036   2.628   0.020   0.380  0.0253  0.6440  0.0279
 1468SOL    HW116037   2.679   0.072   0.443 -1.3378  1.5812  0.3674
 1468SOL    HW216038   2.540   0.018   0.418  0.9922  1.3377  2.3246
 1469SOL     OW16039   0.167   4.070  12.731 -0.3877 -0.4953  0.3642
 1469SOL    HW116040   0.095   4.010  12.713  0.9576 -1.6602 -1.0741
 1469SOL    HW216041   0.210   4.028  12.806 -0.2596 -2.2790 -0.7025
 1470SOL     OW16042   0.813   4.324   0.221  0.0100  0.1300 -0.2415
 1470SOL    HW116043   0.878   4.296   0.157  1.5342 -0.8299  1.7030
 1470SOL    HW216044   0.856   4.388   0.279 -0.3911  0.2735 -0.0999
 1471SOL     OW16045   3.702   3.913   7.972  0.9584  0.6757 -0.5474
 1471SOL    HW116046   3.607   3.922   7.977  0.9557  0.1710  0.2010
 1471SOL    HW216047   3.725   3.971   8.045 -0.8251  0.8844 -0.1625
 1472SOL     OW16048   1.904   2.092   5.090  0.2494 -0.5590  0.6027
 1472SOL    HW116049   1.899   2.160   5.022 -1.9458  0.3028  1.5930
 1472SOL    HW216050   1.982   2.045   5.061  0.7927  0.6938  0.0357
 1473SOL     OW16051   3.339   4.724   7.049 -0.4510  0.1324 -0.6522
 1473SOL    HW116052   3.307   4.715   6.959 -0.0363 -0.6273 -0.7229
 1473SOL    HW216053   3.287   4.662   7.100  1.6431  0.4363  1.8574
 1474SOL     OW16054   2.173   1.518   9.713 -0.0742  0.2823 -0.5078
 1474SOL    HW116055   2.148   1.606   9.687  0.8538  0.7746  0.2512
 1474SOL    HW216056   2.238   1.488   9.650 -0.2996 -1.2225 -0.0306
 1475SOL     OW16057   4.032   0.716   2.951  0.1511  0.1694 -0.6799
 1475SOL    HW116058   4.124   0.743   2.942  1.0454 -3.1596 -1.5848
 1475SOL    HW216059   4.046   0.630   2.990 -1.6108 -0.1573 -0.7927
 1476SOL     OW16060   3.472   2.999   5.974 -0.4659  0.2280  0.0172
 1476SOL    HW116061   3.522   3.066   5.927  1.2640 -0.4871  0.8389
 1476SOL    HW216062   3.536   2.929   5.959  0.5002  1.0199  0.4648
 1477SOL     OW16063   0.258   2.615  14.923 -0.5158 -0.4852  0.8045
 1477SOL    HW116064   0.242   2.635  14.830  0.1159  1.5124  1.1145
 1477SOL    HW216065   0.304   2.531  14.922  0.1241 -0.1167 -1.5062
 1478SOL     OW16066   2.478   0.495   6.322 -0.2830 -0.8177  0.3347
 1478SOL    HW116067   2.408   0.559   6.331  0.2970  0.1413 -2.0623
 1478SOL    HW216068   2.443   0.413   6.357  2.4916 -0.8332  3.1322
 1479SOL     OW16069   4.649   4.558   8.230  0.2105 -0.0461  0.0869
 1479SOL    HW116070   4.686   4.646   8.237 -0.4695  0.2677 -0.2403
 1479SOL    HW216071   4.688   4.529   8.148  1.8437 -0.6724  1.0883
 1480SOL     OW16072   3.083   2.755  15.053  0.2221  0.1078 -0.0139
 1480SOL    HW116073   3.122   2.825  15.106  3.1193 -1.5347 -0.0053
 1480SOL    HW216074   3.041   2.802  14.980 -2.6757 -2.6790 -0.1203
 1481SOL     OW16075   4.409   2.000  11.544 -0.2412  0.4322 -0.3658
 1481SOL    HW116076   4.450   2.085  11.527  0.5991 -0.1434 -1.2033
 1481SOL    HW216077   4.319   2.029  11.532 -0.1597  0.7799 -0.1382
 1482SOL     OW16078   1.212   0.836   8.570  0.5303  0.0929 -0.2620
 1482SOL    HW116079   1.242   0.897   8.502  0.2574 -0.2958 -0.7352
 1482SOL    HW216080   1.143   0.797   8.516  1.5172  0.2043 -1.6099
 1483SOL     OW16081   2.115   4.492  11.173  0.2530 -0.4577 -0.0079
 1483SOL    HW116082   2.154   4.451  11.250  0.8126 -0.8639 -0.5099
 1483SOL    HW216083   2.149   4.581  11.168  0.2879 -0.5189 -0.9323
 1484SOL     OW16084   2.967   0.663   6.345 -0.2655 -0.2311 -0.2183
 1484SOL    HW116085   2.879   0.643   6.378 -0.2213 -0.2490 -0.1092
 1484SOL    HW216086   2.974   0.757   6.363 -1.6681  0.0836 -1.3520
 1485SOL     OW16087   3.087   0.939   6.660  0.2818  1.0121 -0.1377
 1485SOL    HW116088   3.117   0.851   6.641  1.1400  0.9553  1.5261
 1485SOL    HW216089   3.007   0.947   6.607 -0.2280  0.4444  0.5369
 1486SOL     OW16090   3.338   2.208   5.832  0.5938 -0.1150 -0.2680
 1486SOL    HW116091   3.408   2.272   5.844 -0.2170  0.7816 -0.3078
 1486SOL    HW216092   3.262   2.265   5.845  1.5422  0.9043  0.7987
 1487SOL     OW16093   4.308   4.008  15.409  0.2414  0.2219 -0.0138
 1487SOL    HW116094   4.323   4.082  15.469 -0.3665  0.3255  0.0074
 1487SOL    HW216095   4.286   4.060  15.332 -1.3645 -0.0018  0.2924
 1488SOL     OW16096   2.170   1.599   2.755 -0.1305 -0.4497  0.0562
 1488SOL    HW116097   2.222   1.551   2.691 -0.7014 -0.7719 -0.1650
 1488SOL    HW216098   2.149   1.676   2.702  1.8258  0.3878  0.5220
 1489SOL     OW16099   1.743   0.151   8.402  0.1055  0.2374  0.0397
 1489SOL    HW116100   1.706   0.118   8.320  0.5157 -0.0546 -0.0316
 1489SOL    HW216101   1.667   0.183   8.450 -1.4294 -1.0291 -1.5441
 1490SOL     OW16102   4.563   3.442   3.743 -0.0521 -0.0462  0.0564
 1490SOL    HW116103   4.470   3.459   3.725 -0.3611 -1.5675  0.2540
 1490SOL    HW216104   4.560   3.347   3.744  1.7424 -0.1078 -0.0635
 1491SOL     OW16105   4.683   0.759  13.912  0.5039  0.3955 -0.6317
 1491SOL    HW116106   4.703   0.852  13.915 -1.4782  0.8719 -2.0701
 1491SOL    HW216107   4.727   0.722  13.988  0.2514  0.5799 -0.3952
 1492SOL     OW16108   2.929   1.760   5.893  0.1925 -0.1898  0.3000
 1492SOL    HW116109   2.965   1.766   5.804  1.9344  0.1142  1.0217
 1492SOL    HW216110   2.859   1.824   5.899  0.8920  0.6331 -0.3718
 1493SOL     OW16111   4.327   0.230   7.658 -0.0627 -0.2202 -0.6880
 1493SOL    HW116112   4.409   0.186   7.637 -0.2140 -0.9306  0.1776
 1493SOL    HW216113   4.272   0.198   7.587  0.2507 -0.3676 -0.8623
 1494SOL     OW16114   4.264   3.844   3.150 -0.7235 -0.1725 -0.4516
 1494SOL    HW116115   4.254   3.795   3.231 -1.7298  0.0595 -0.4441
 1494SOL    HW216116   4.348   3.811   3.118 -0.5203 -0.2253  0.1281
 1495SOL     OW16117   0.286   0.424   4.432 -0.0149 -0.4854  0.4505
 1495SOL    HW116118   0.264   0.397   4.521 -0.1701  0.5663  0.7240
 1495SOL    HW216119   0.358   0.364   4.410  0.0988 -0.9094  1.9743
 1496SOL     OW16120   3.194   0.738   3.971  0.0962 -0.1605 -0.1993
 1496SOL    HW116121   3.192   0.830   3.995 -0.0441  0.5467 -2.9095
 1496SOL    HW216122   3.150   0.702   4.048  0.8091  1.4176  0.9364
 1497SOL     OW16123   3.766   0.682   0.866 -0.6088  0.0600 -0.2526
 1497SOL    HW116124   3.718   0.633   0.933  1.7109 -1.3821  0.3537
 1497SOL    HW216125   3.751   0.775   0.886  0.0744  0.4357 -1.4968
 1498SOL     OW16126   0.195   4.354   4.784 -0.4846 -0.3973  0.1616
 1498SOL    HW116127   0.271   4.401   4.817 -1.5869  0.0114  2.1434
 1498SOL    HW216128   0.229   4.265   4.797  0.8413 -0.2576 -2.4170
 1499SOL     OW16129   3.688   3.933   8.401  0.3589 -0.2027  0.2184
 1499SOL    HW116130   3.663   3.855   8.352 -0.9248 -1.0162  2.1828
 1499SOL    HW216131   3.690   3.896   8.489 -0.0809  1.5024  0.9514
 1500SOL     OW16132   3.101   4.224  17.197  0.5151  0.4134  0.2915
 1500SOL    HW116133   3.129   4.288  17.132 -0.6013 -0.5472 -1.1238
 1500SOL    HW216134   3.089   4.288  17.268 -0.3411 -1.4611  1.8642
 1501SOL     OW16135   0.996   2.885   7.734  0.4392  0.8978  0.1267
 1501SOL    HW116136   0.952   2.945   7.793 -0.8104 -0.4435  0.5591
 1501SOL    HW216137   0.933   2.830   7.688  0.7768  1.3724 -0.9120
 1502SOL     OW16138   0.272   0.296   7.912  0.2982  0.7481 -0.6212
 1502SOL    HW116139   0.210   0.278   7.842  0.7682  0.8608 -1.0640
 1502SOL    HW216140   0.210   0.327   7.977  0.8600  0.5176  0.0299
 1503SOL     OW16141   0.822   1.988  13.227  0.5805 -0.0412  0.4691
 1503SOL    HW116142   0.826   2.060  13.290  2.3826 -0.1717  0.5092
 1503SOL    HW216143   0.892   1.938  13.269  1.4679 -0.0974 -1.0712
 1504SOL     OW16144   1.983   3.914   6.932  0.1651  0.2126  0.6232
 1504SOL    HW116145   2.022   3.984   6.985  0.1733  0.6855  0.0058
 1504SOL    HW216146   1.979   3.840   6.992  0.4006 -0.9994 -0.8351
 1505SOL     OW16147   2.014   2.773   9.293  0.3399  0.0544  0.0211
 1505SOL    HW116148   1.928   2.741   9.266  0.7470 -0.1829 -0.9648
 1505SOL    HW216149   2.047   2.813   9.213  2.0367  0.3536  0.8591
 1506SOL     OW16150   3.271   0.348   6.072 -0.0921 -0.2852  0.0790
 1506SOL    HW116151   3.197   0.399   6.105  0.4982 -0.4845  1.6693
 1506SOL    HW216152   3.342   0.412   6.075 -1.4975  1.4248 -2.2034
 1507SOL     OW16153   3.958   4.431   3.531  0.2496  0.6247  0.0238
 1507SOL    HW116154   3.949   4.401   3.621 -2.5648 -0.6704 -0.6846
 1507SOL    HW216155   4.019   4.503   3.548  2.0702 -0.7725 -0.5841
 1508SOL     OW16156   2.879   0.012   6.925  0.8728 -0.8224 -0.0052
 1508SOL    HW116157   2.857   0.004   7.018 -0.5998 -0.3318 -0.3218
 1508SOL    HW216158   2.899   0.105   6.921  1.1115 -0.8569  0.4292
 1509SOL     OW16159   1.466   0.256   9.118  0.4577 -0.2060  0.1970
 1509SOL    HW116160   1.532   0.320   9.092  2.1796 -0.5819  3.7204
 1509SOL    HW216161   1.519   0.179   9.098 -0.1034  0.3649 -3.5788
 1510SOL     OW16162   3.382   1.649  12.532 -0.5267  0.2987 -0.7873
 1510SOL    HW116163   3.407   1.612  12.616 -1.7722  1.5594  0.1406
 1510SOL    HW216164   3.309   1.589  12.521 -1.8397  2.0582 -1.6215
 1511SOL     OW16165   3.585   4.475  15.668 -0.9819  0.0837  0.1717
 1511SOL    HW116166   3.638   4.468  15.747  1.9703 -4.2363 -2.1515
 1511SOL    HW216167   3.625   4.550  15.624 -0.2831 -1.0702 -1.1706
 1512SOL     OW16168   3.072   0.420  12.430 -0.0771 -0.4470 -0.6259
 1512SOL    HW116169   3.076   0.375  12.515 -2.9578 -0.0538 -0.2946
 1512SOL    HW216170   2.983   0.454  12.432 -0.4132 -1.3154 -0.8375
 1513SOL     OW16171   4.118   1.483   8.151  0.1140  0.0608  0.1137
 1513SOL    HW116172   4.212   1.484   8.133  0.2671 -1.1974  0.8295
 1513SOL    HW216173   4.088   1.572   8.135 -0.4718 -0.2958 -0.8157
 1514SOL     OW16174   2.665   0.501  11.074  0.2409 -0.1131 -0.2284
 1514SOL    HW116175   2.603   0.574  11.068 -0.8184 -1.0039 -0.2609
 1514SOL    HW216176   2.735   0.525  11.134 -0.4644 -1.1632  1.0200
 1515SOL     OW16177   4.105   0.492  11.430  0.3237 -0.0064 -0.2667
 1515SOL    HW116178   4.040   0.556  11.400  1.6009  1.4848  0.1850
 1515SOL    HW216179   4.041   0.421  11.439  0.5154  0.1561  2.3792
 1516SOL     OW16180   3.588   2.863   4.642  0.0288  0.6891 -0.1989
 1516SOL    HW116181   3.503   2.855   4.686 -0.3716 -1.1837 -1.3140
 1516SOL    HW216182   3.565   2.798   4.576 -1.2105  1.7403 -0.8063
 1517SOL     OW16183   1.200   1.313  12.746  0.4123 -0.3185  0.2882
 1517SOL    HW116184   1.225   1.240  12.803  3.1438  0.3851 -0.0481
 1517SOL    HW216185   1.287   1.335  12.713  0.0505  1.2630  0.3945
 1518SOL     OW16186   3.137   0.140   1.723 -0.2400 -0.1513 -0.3422
 1518SOL    HW116187   3.207   0.088   1.684  0.3649  0.6253 -0.2939
 1518SOL    HW216188   3.060   0.127   1.668 -0.1715  1.0603 -0.7312
 1519SOL     OW16189   2.085   1.142   2.299 -0.3220 -0.0046  0.5946
 1519SOL    HW116190   2.175   1.154   2.328 -0.7519 -0.1822  1.9942
 1519SOL    HW216191   2.076   1.194   2.219 -0.2909  0.3484  0.8196
 1520SOL     OW16192   3.813   3.272  15.526 -0.4772  0.0996  0.7512
 1520SOL    HW116193   3.719   3.292  15.523 -0.8601 -1.8425 -0.4341
 1520SOL    HW216194   3.821   3.249  15.433  1.9404 -0.5112  1.1186
 1521SOL     OW16195   3.384   4.494   5.571  0.0149 -0.3599 -0.0773
 1521SOL    HW116196   3.291   4.515   5.564  0.0824 -0.5724 -1.7423
 1521SOL    HW216197   3.403   4.518   5.661 -0.9348  2.4886 -0.6370
 1522SOL     OW16198   4.114   3.370   2.949  0.1235  0.4928 -0.6977
 1522SOL    HW116199   4.077   3.451   2.983  0.1595  0.8415 -1.4951
 1522SOL    HW216200   4.203   3.359   2.983  1.0608 -0.7480 -3.5352
 1523SOL     OW16201   2.610   2.845   2.718  0.3186  0.2759  0.0298
 1523SOL    HW116202   2.695   2.808   2.742  0.6462  1.2470  0.3635
 1523SOL    HW216203   2.585   2.786   2.647  2.3766  0.6183 -0.9642
 1524SOL     OW16204   2.540   3.148   7.094  0.2441 -0.1167 -0.2242
 1524SOL    HW116205   2.460   3.139   7.041 -0.9292  0.3906  1.4550
 1524SOL    HW216206   2.595   3.206   7.042  1.3881 -0.7716  0.2679
 1525SOL     OW16207   4.071   4.228  15.554  0.0704 -0.4188 -0.4394
 1525SOL    HW116208   4.041   4.207  15.643 -1.9357  1.2191 -0.7277
 1525SOL    HW216209   4.033   4.152  15.510 -3.6942  1.1437  0.1117
 1526SOL     OW16210   2.417   3.042   7.731  0.0332 -0.2141 -0.2067
 1526SOL    HW116211   2.348   3.060   7.667  1.0240  2.0680 -0.6511
 1526SOL    HW216212   2.478   3.116   7.723 -1.0102  0.4689 -1.8254
 1527SOL     OW16213   0.939   2.952   5.788  0.3364  0.2539 -0.1422
 1527SOL    HW116214   0.887   3.008   5.846  1.3103  0.0918  0.8845
 1527SOL    HW216215   1.011   3.015   5.781  0.7285 -0.2892 -0.9954
 1528SOL     OW16216   4.527   1.234   8.238  0.2575  0.2789  0.3995
 1528SOL    HW116217   4.567   1.263   8.156  0.7927  0.2835  0.6596
 1528SOL    HW216218   4.569   1.149   8.242  0.0959  0.2473  1.3954
 1529SOL     OW16219   1.667   2.991   1.992  0.7224  0.0394 -0.0270
 1529SOL    HW116220   1.762   2.997   2.005  0.1936 -0.6723  4.0881
 1529SOL    HW216221   1.634   3.016   2.078  1.0656 -1.5823  0.5795
 1530SOL     OW16222   2.446   3.882   9.027  0.5544 -0.4136 -0.1831
 1530SOL    HW116223   2.422   3.841   9.110  0.3191  3.1588  1.4647
 1530SOL    HW216224   2.462   3.972   9.056 -5.6391  0.3287  0.7798
 1531SOL     OW16225   1.114   4.213   9.292 -0.6639  0.8835  0.1188
 1531SOL    HW116226   1.154   4.270   9.357  0.5890  1.0982 -0.8271
 1531SOL    HW216227   1.074   4.293   9.256  2.2835  1.7262 -1.3130
 1532SOL     OW16228   0.715   1.134   7.994 -0.3278 -0.0550  0.4606
 1532SOL    HW116229   0.705   1.223   8.030 -2.1357  0.4653 -1.3090
 1532SOL    HW216230   0.803   1.136   7.958 -0.9573 -0.7139 -1.0787
 1533SOL     OW16231   3.465   0.510   7.405 -0.3136  0.1836  0.1196
 1533SOL    HW116232   3.480   0.592   7.358  3.1723  0.7485  2.2450
 1533SOL    HW216233   3.535   0.512   7.470 -1.1751 -1.8534  1.1055
 1534SOL     OW16234   3.851   3.265  12.207 -0.2926  0.5170  0.0642
 1534SOL    HW116235   3.789   3.193  12.203 -1.5368  1.5042  1.4401
 1534SOL    HW216236   3.865   3.273  12.302 -0.2918 -1.3361  0.2070
 1535SOL     OW16237   1.670   4.662   4.725 -0.3088 -0.4194  0.1961
 1535SOL    HW116238   1.682   4.728   4.657  3.7989 -0.5274  0.7963
 1535SOL    HW216239   1.575   4.656   4.713 -0.2005 -2.8482  0.3878
 1536SOL     OW16240   0.708   1.568   9.477 -0.0038  0.2090  0.1327
 1536SOL    HW116241   0.751   1.644   9.517  0.3004 -0.2781  0.7329
 1536SOL    HW216242   0.733   1.579   9.385 -2.1952  1.3738 -0.3362
 1537SOL     OW16243   3.027   0.602   5.241 -0.2361  0.1517 -0.2097
 1537SOL    HW116244   2.977   0.536   5.290 -0.9658  0.0182 -1.1391
 1537SOL    HW216245   3.104   0.546   5.229 -1.4242 -1.4575 -0.4157
 1538SOL     OW16246   3.342   0.518  10.713  0.0040 -0.1255 -0.5560
 1538SOL    HW116247   3.391   0.459  10.769  1.0879  0.8584 -0.4702
 1538SOL    HW216248   3.252   0.489  10.731 -0.8710  2.0066 -1.4039
 1539SOL     OW16249   2.139   0.345   3.405 -0.1453  0.5978 -0.7897
 1539SOL    HW116250   2.204   0.279   3.381 -1.6069 -1.2791  0.3964
 1539SOL    HW216251   2.078   0.277   3.433  0.4313  0.0738 -0.7947
 1540SOL     OW16252   2.746   0.282  12.352 -0.5042 -0.0474  0.2868
 1540SOL    HW116253   2.773   0.263  12.442 -3.0847 -0.9547  0.8734
 1540SOL    HW216254   2.747   0.377  12.364  4.1679 -0.1793  0.9474
 1541SOL     OW16255   4.156   2.190   6.425 -0.0322  0.0603  0.5883
 1541SOL    HW116256   4.140   2.248   6.351  1.2870  1.3039  1.2683
 1541SOL    HW216257   4.151   2.261   6.489  0.4124 -0.0394  0.7387
 1542SOL     OW16258   2.468   4.138   8.546  0.0886 -0.0634 -0.5334
 1542SOL    HW116259   2.428   4.195   8.611 -0.8804 -1.8836  0.4786
 1542SOL    HW216260   2.459   4.185   8.463  1.2186 -0.5761 -0.9428
 1543SOL     OW16261   3.530   3.391   0.018  0.1327 -0.7854  0.2733
 1543SOL    HW116262   3.461   3.329   0.043 -1.8229  0.7782 -1.3445
 1543SOL    HW216263   3.482   3.417  17.685  2.8792  0.9686 -0.8161
 1544SOL     OW16264   2.685   1.372  14.572 -0.2219 -0.0160 -0.0162
 1544SOL    HW116265   2.591   1.351  14.569  0.0591 -1.2580 -0.1313
 1544SOL    HW216266   2.718   1.294  14.527 -0.5975 -0.1762 -0.0155
 1545SOL     OW16267   0.674   4.423  10.391 -0.2127 -0.2644 -0.3950
 1545SOL    HW116268   0.770   4.432  10.388 -0.1459 -0.6373  0.4663
 1545SOL    HW216269   0.646   4.498  10.339  0.0342 -1.2035 -1.8961
 1546SOL     OW16270   3.012   2.931  15.337  0.8509 -0.3130 -0.0331
 1546SOL    HW116271   3.021   2.849  15.385 -0.5095 -0.5922 -0.2505
 1546SOL    HW216272   2.925   2.927  15.297  0.4821 -0.5852  0.8016
 1547SOL     OW16273   3.097   3.990   6.671  0.0095 -0.1477  0.5513
 1547SOL    HW116274   3.004   3.984   6.648  0.2698  0.5599 -0.6729
 1547SOL    HW216275   3.128   4.053   6.606  0.7304 -1.8248 -0.7608
 1548SOL     OW16276   0.183   4.116   6.146 -0.0769 -0.2240  0.1462
 1548SOL    HW116277   0.262   4.102   6.197 -0.3413  2.6882  1.3302
 1548SOL    HW216278   0.138   4.044   6.191  0.7910 -1.1823 -0.5376
 1549SOL     OW16279   1.594   0.664   8.747 -0.4186  1.0241  0.1316
 1549SOL    HW116280   1.548   0.644   8.666  0.7920  0.5958 -0.4483
 1549SOL    HW216281   1.575   0.755   8.769 -1.5407  0.4954  1.3724
 1550SOL     OW16282   0.899   3.151   3.786 -0.1083 -0.4043 -0.2772
 1550SOL    HW116283   0.908   3.182   3.876  0.0459  0.9520 -0.7577
 1550SOL    HW216284   0.803   3.152   3.776  0.0222 -2.3903 -1.9297
 1551SOL     OW16285   3.332   3.797   6.121  0.8607 -0.0918  0.0996
 1551SOL    HW116286   3.372   3.828   6.040  1.5258  1.7418  1.1117
 1551SOL    HW216287   3.347   3.703   6.116  1.7364 -0.0026  0.9301
 1552SOL     OW16288   4.414   2.759   0.034  0.0712  0.3064 -0.2020
 1552SOL    HW116289   4.372   2.823  17.722  0.9209  2.1928  1.2827
 1552SOL    HW216290   4.335   2.714   0.063  0.4502  0.4361  1.0233
 1553SOL     OW16291   1.758   3.898   7.209  0.0033  0.0835  0.2014
 1553SOL    HW116292   1.729   3.988   7.224  1.7017  0.6200  0.2016
 1553SOL    HW216293   1.849   3.915   7.234 -0.7123  1.2868  2.0042
 1554SOL     OW16294   0.363   1.033   8.767 -0.0831  0.1824  0.1429
 1554SOL    HW116295   0.371   0.972   8.693 -0.0487  0.2442  0.0950
 1554SOL    HW216296   0.446   1.011   8.810 -0.7452 -1.2278  0.6916
 1555SOL     OW16297   1.219   0.009   6.736  0.2481  0.2428 -0.2988
 1555SOL    HW116298   1.236   0.074   6.805 -1.2131 -1.1175  1.3237
 1555SOL    HW216299   1.124   0.009   6.730  0.2243  0.3421  0.0824
 1556SOL     OW16300   0.330   0.458   4.731 -0.3475 -0.7450  0.2468
 1556SOL    HW116301   0.348   0.461   4.825  0.5148  0.0881  0.0589
 1556SOL    HW216302   0.343   0.364   4.717  2.0463 -0.5861  1.3671
 1557SOL     OW16303   1.210   4.679   3.398  0.2583  0.5123  0.5467
 1557SOL    HW116304   1.291   4.663   3.350  0.8032 -3.3331  2.6981
 1557SOL    HW216305   1.158   4.720   3.329 -0.3979 -0.9003  0.2051
 1558SOL     OW16306   1.620   3.662  17.744 -0.1688 -0.2133  0.6809
 1558SOL    HW116307   1.649   3.753  17.742 -1.1591  0.1378  2.5783
 1558SOL    HW216308   1.525   3.669   0.001 -0.1820 -0.8748  1.8660
 1559SOL     OW16309   0.224   0.381   2.001 -0.2237  0.2345 -0.1168
 1559SOL    HW116310   0.209   0.475   2.004  0.9835  0.4754 -2.1518
 1559SOL    HW216311   0.155   0.343   1.947 -2.5829  0.4059  2.7867
 1560SOL     OW16312   3.986   3.533   6.305  0.8745  0.4419  0.3261
 1560SOL    HW116313   4.065   3.529   6.359  0.0312  0.0456  1.5150
 1560SOL    HW216314   3.962   3.623   6.325 -0.4324  0.3591 -0.8865
 1561SOL     OW16315   4.589   3.789  13.418  0.4255  0.2279 -0.2657
 1561SOL    HW116316   4.637   3.773  13.338  0.7869  1.5635 -0.3141
 1561SOL    HW216317   4.520   3.848  13.388 -0.2333 -0.8436 -0.8483
 1562SOL     OW16318   2.041   2.184   3.392 -0.3022  0.1834 -0.2894
 1562SOL    HW116319   1.987   2.261   3.376  0.9605  1.4242  1.3946
 1562SOL    HW216320   2.129   2.223   3.392 -0.6336  0.9144  1.1225
 1563SOL     OW16321   4.525   1.595   3.144 -0.0033 -0.3013  0.1500
 1563SOL    HW116322   4.457   1.575   3.080 -0.3466 -1.6093  0.9093
 1563SOL    HW216323   4.543   1.506   3.175 -1.0081 -0.0753  1.4227
 1564SOL     OW16324   1.026   0.804   5.095 -0.1948  0.9468  0.3704
 1564SOL    HW116325   1.095   0.862   5.063  1.6843 -0.6795  1.4690
 1564SOL    HW216326   0.981   0.860   5.158 -1.8978 -2.3403  2.0598
 1565SOL     OW16327   2.945   1.032   7.876 -0.1148 -0.1461  0.5273
 1565SOL    HW116328   2.889   1.103   7.905  1.0286  0.5414  1.0357
 1565SOL    HW216329   2.911   1.020   7.787  0.6371  0.3217  0.1752
 1566SOL     OW16330   2.629   4.631  17.495 -0.0039  0.1667 -0.0426
 1566SOL    HW116331   2.648   4.560  17.557 -0.6769  0.2220  0.2248
 1566SOL    HW216332   2.715   4.673  17.487  0.1110 -0.0282  0.1701
 1567SOL     OW16333   1.422   0.513   3.659 -0.2744 -0.3707  0.0087
 1567SOL    HW116334   1.335   0.471   3.657 -1.0025  1.1509  0.1020
 1567SOL    HW216335   1.401   0.602   3.632 -0.0888 -0.6081 -0.9212
 1568SOL     OW16336   1.598   0.635   3.374 -0.2489  0.4916  0.8737
 1568SOL    HW116337   1.647   0.709   3.410 -0.8365 -0.1592  2.9668
 1568SOL    HW216338   1.538   0.675   3.310 -0.1976  0.1688  0.6239
 1569SOL     OW16339   1.927   1.974  10.364  0.3569  0.0763  0.0533
 1569SOL    HW116340   1.895   1.943  10.449 -2.6498  1.8026 -0.4451
 1569SOL    HW216341   1.843   1.997  10.325 -0.5621 -2.8213  0.3035
 1570SOL     OW16342   1.829   4.449   9.199 -0.2363 -0.2970 -0.6188
 1570SOL    HW116343   1.835   4.514   9.130 -0.5852  0.1405 -0.2359
 1570SOL    HW216344   1.890   4.466   9.270  1.5645 -1.8481 -1.7760
 1571SOL     OW16345   4.216   3.721   8.771 -0.5925  0.3605 -0.0330
 1571SOL    HW116346   4.260   3.669   8.838 -3.0564 -1.5001  0.1314
 1571SOL    HW216347   4.267   3.802   8.775  0.9030 -0.4962 -1.2917
 1572SOL     OW16348   3.556   4.271   9.005 -0.1621 -0.2148 -0.3900
 1572SOL    HW116349   3.556   4.209   8.932  0.2170 -2.1009  1.2098
 1572SOL    HW216350   3.465   4.300   9.013  0.4175  1.6828 -0.7061
 1573SOL     OW16351   1.137   0.922  12.596  0.0993 -0.0996 -0.1193
 1573SOL    HW116352   1.232   0.933  12.607  0.4775 -1.3371 -1.9917
 1573SOL    HW216353   1.141   0.852  12.531  1.2721  0.3765 -0.5684
 1574SOL     OW16354   3.887   2.023  14.792 -0.3905  0.1958  0.2052
 1574SOL    HW116355   3.976   2.023  14.828 -0.9998  0.4870  1.7073
 1574SOL    HW216356   3.835   1.980  14.859  0.1599  0.3290  0.7168
 1575SOL     OW16357   2.774   3.621   8.063 -0.2053 -0.5238  0.0196
 1575SOL    HW116358   2.719   3.587   8.134 -0.7790  0.2413 -0.0639
 1575SOL    HW216359   2.719   3.688   8.024 -1.5313 -0.9607  1.1158
 1576SOL     OW16360   3.956   2.266   2.680 -0.5264 -0.9043 -0.7842
 1576SOL    HW116361   3.972   2.336   2.617  0.2490 -1.4859 -1.2334
 1576SOL    HW216362   3.861   2.255   2.672 -0.4336 -1.7409 -0.7389
 1577SOL     OW16363   4.585   3.146   3.869 -0.0867  0.0504 -0.2535
 1577SOL    HW116364   4.560   3.056   3.889  0.0175  0.3972  1.3889
 1577SOL    HW216365   4.554   3.139   3.778  0.1502  0.8807 -0.4003
 1578SOL     OW16366   4.519   1.445  12.258  0.1872  0.1877  0.1974
 1578SOL    HW116367   4.441   1.494  12.285  0.1156 -0.1512  0.6055
 1578SOL    HW216368   4.500   1.420  12.168 -0.8977  2.1653 -0.1301
 1579SOL     OW16369   3.363   3.525   4.049 -0.1951 -0.6896  0.4873
 1579SOL    HW116370   3.314   3.447   4.021  0.6970 -1.4655  1.1172
 1579SOL    HW216371   3.316   3.559   4.126 -1.0567 -0.5582 -0.0899
 1580SOL     OW16372   2.212   2.363   4.068 -0.2713  0.0450  0.3462
 1580SOL    HW116373   2.298   2.335   4.036  0.9737  3.5847  0.5640
 1580SOL    HW216374   2.228   2.456   4.086  1.0243 -0.3498  1.2850
 1581SOL     OW16375   2.315   3.592   0.440  0.2162  0.0241  0.8821
 1581SOL    HW116376   2.254   3.616   0.510  0.3920  1.3063  0.5865
 1581SOL    HW216377   2.390   3.643   0.470  0.8875 -0.8572  0.7036
 1582SOL     OW16378   4.405   2.615  14.221  0.5343  0.0273 -0.1305
 1582SOL    HW116379   4.486   2.652  14.187  0.8793 -0.7111 -0.1221
 1582SOL    HW216380   4.421   2.522  14.205  2.6172  0.4860 -0.7094
 1583SOL     OW16381   3.658   0.450   7.044  0.5304 -0.3437  0.5464
 1583SOL    HW116382   3.609   0.457   6.962  0.6301 -1.3353  0.4042
 1583SOL    HW216383   3.690   0.537   7.070  0.7657 -0.1983 -0.2344
 1584SOL     OW16384   1.793   4.504   5.369 -0.4880  0.0269  0.0203
 1584SOL    HW116385   1.727   4.441   5.341  2.1573 -2.7429  0.0796
 1584SOL    HW216386   1.788   4.576   5.306 -0.5403 -0.5864 -0.6826
 1585SOL     OW16387   2.401   3.994  11.546  0.3359 -0.2759 -0.6976
 1585SOL    HW116388   2.357   4.030  11.469 -0.7443  0.0653  0.0822
 1585SOL    HW216389   2.436   3.911  11.512  0.2677 -1.2086  1.4989
 1586SOL     OW16390   2.760   1.722   0.613  0.0494 -0.3111  0.2339
 1586SOL    HW116391   2.808   1.794   0.654 -1.6875  0.0514  1.6094
 1586SOL    HW216392   2.720   1.679   0.688  2.2701 -1.0900  0.9535
 1587SOL     OW16393   0.757   2.213   3.590 -0.4698  0.1587  0.6635
 1587SOL    HW116394   0.829   2.151   3.580 -2.6347 -2.1176 -0.9633
 1587SOL    HW216395   0.704   2.197   3.512  0.7796  1.4700 -0.4321
 1588SOL     OW16396   0.310   1.051   2.279  0.2053 -0.9090 -0.4429
 1588SOL    HW116397   0.293   1.127   2.225  1.2889  0.0830  0.6095
 1588SOL    HW216398   0.223   1.033   2.315  0.6117 -0.1635  0.9132
 1589SOL     OW16399   1.971   1.778   6.212 -0.0765  0.3344 -0.2851
 1589SOL    HW116400   1.948   1.781   6.119  1.9912  2.4626 -0.7222
 1589SOL    HW216401   1.889   1.797   6.257 -1.1707 -2.3193 -1.1907
 1590SOL     OW16402   0.825   3.771  14.453  0.4227 -0.4132 -0.3341
 1590SOL    HW116403   0.828   3.810  14.540 -1.2988 -1.2474  0.0960
 1590SOL    HW216404   0.749   3.818  14.419  0.4490  0.6794  1.1058
 1591SOL     OW16405   0.931   3.912   4.619  0.0081 -0.5729 -0.1327
 1591SOL    HW116406   0.948   3.818   4.615 -0.7249 -0.7569  1.3626
 1591SOL    HW216407   1.017   3.947   4.644 -0.2330 -0.8096  1.0165
 1592SOL     OW16408   2.769   0.592  16.946  0.1479  0.2096 -0.1848
 1592SOL    HW116409   2.744   0.503  16.924 -1.0920  0.7226 -0.8575
 1592SOL    HW216410   2.844   0.608  16.889  0.0925  1.0915 -0.0187
 1593SOL     OW16411   0.874   1.541   3.036  0.3692  0.2430  0.4632
 1593SOL    HW116412   0.953   1.589   3.064  0.4866  0.1013  0.3755
 1593SOL    HW216413   0.799   1.594   3.063 -1.3488 -0.6784 -2.5193
 1594SOL     OW16414   0.148   2.720  13.724  0.4995  0.1151 -0.1052
 1594SOL    HW116415   0.238   2.743  13.749  0.2904  1.6992 -0.8039
 1594SOL    HW216416   0.110   2.791  13.776  0.9631 -0.7922  1.4747
 1595SOL     OW16417   3.943   4.073  14.665 -0.5052  0.2140 -0.0988
 1595SOL    HW116418   3.900   4.103  14.585  1.0957  0.2542 -0.9492
 1595SOL    HW216419   4.017   4.133  14.675 -0.0871  0.3094 -3.6386
 1596SOL     OW16420   0.218   3.459  17.045  0.1332 -0.1216  0.0773
 1596SOL    HW116421   0.184   3.548  17.041  0.5103  0.0387  0.4850
 1596SOL    HW216422   0.162   3.428  17.116 -0.7741  0.2089 -0.4993
 1597SOL     OW16423   2.100   4.422   3.685  0.4268 -0.4853 -0.2698
 1597SOL    HW116424   2.110   4.416   3.590 -1.3750 -2.5371 -0.3370
 1597SOL    HW216425   2.109   4.330   3.709 -1.0085 -0.0264  2.0131
 1598SOL     OW16426   3.512   4.015   5.521 -0.1932  0.3458  0.0784
 1598SOL    HW116427   3.526   4.041   5.430 -1.4094  1.2930  0.1725
 1598SOL    HW216428   3.519   4.099   5.567 -1.4042 -0.1989  1.2605
 1599SOL     OW16429   1.661   1.822   7.474  0.2701 -0.3040  0.2273
 1599SOL    HW116430   1.715   1.751   7.510  1.9461  1.9058  2.0165
 1599SOL    HW216431   1.656   1.873   7.555  2.3527  0.2731 -0.0175
 1600SOL     OW16432   3.042   4.112   2.231 -0.2386 -0.1684  0.2828
 1600SOL    HW116433   3.063   4.142   2.142  0.4930  0.0856  0.5379
 1600SOL    HW216434   3.112   4.153   2.282  0.1511  0.1117 -0.4620
 1601SOL     OW16435   3.197   3.982  16.881 -0.4798  0.8043  0.2629
 1601SOL    HW116436   3.254   3.973  16.958  3.3063 -0.1063 -2.6679
 1601SOL    HW216437   3.190   3.890  16.854 -1.8214  0.9787  0.0283
 1602SOL     OW16438   2.547   4.157   3.343  0.0111  0.8843 -0.1348
 1602SOL    HW116439   2.500   4.114   3.271  1.5256  1.3409 -1.4126
 1602SOL    HW216440   2.543   4.251   3.322  0.9410  0.8540 -0.4454
 1603SOL     OW16441   3.851   0.310   8.937  0.8641  0.3557  0.3742
 1603SOL    HW116442   3.763   0.343   8.954  0.8502  0.2346  0.5434
 1603SOL    HW216443   3.823   0.224   8.905  1.2938 -0.5009  2.2741
 1604SOL     OW16444   3.457   1.872   7.238 -0.1938  0.0485 -0.1715
 1604SOL    HW116445   3.367   1.849   7.217 -0.2054  2.1393 -2.4585
 1604SOL    HW216446   3.496   1.824   7.165 -1.1860 -0.9501 -0.0406
 1605SOL     OW16447   0.219   3.622   3.293 -0.2173  0.3894 -0.5319
 1605SOL    HW116448   0.302   3.580   3.317 -0.7317  0.6670  1.7145
 1605SOL    HW216449   0.197   3.568   3.217 -1.3532 -0.6058  0.4950
 1606SOL     OW16450   3.040   1.847   6.952  0.6454  0.3148  0.1786
 1606SOL    HW116451   2.967   1.785   6.958 -0.8017  1.7850 -1.8784
 1606SOL    HW216452   3.004   1.907   6.887 -2.3681 -0.5558  1.0305
 1607SOL     OW16453   0.597   2.860   5.222 -0.7931 -0.0049 -0.0166
 1607SOL    HW116454   0.604   2.925   5.152  1.3336 -1.0932 -0.8303
 1607SOL    HW216455   0.633   2.908   5.297  0.6269 -0.0541 -0.6672
 1608SOL     OW16456   0.999   2.272  10.450 -0.1443  0.0611  0.1500
 1608SOL    HW116457   0.996   2.194  10.394 -0.1447 -0.4547  0.8705
 1608SOL    HW216458   0.947   2.245  10.526 -0.0076  0.1333  0.2704
 1609SOL     OW16459   3.989   2.251   7.572 -0.4307  0.1132  0.4726
 1609SOL    HW116460   4.035   2.298   7.502  0.8006  0.7349  1.6970
 1609SOL    HW216461   4.015   2.306   7.646 -0.0652 -0.2809  0.6400
 1610SOL     OW16462   2.851   1.369  12.239 -0.4279 -0.1380 -0.3873
 1610SOL    HW116463   2.884   1.446  12.195 -0.4113 -1.2403 -2.2721
 1610SOL    HW216464   2.769   1.402  12.277 -0.8498 -0.3853 -1.0822
 1611SOL     OW16465   1.918   2.771   2.194  0.9052  0.6057  0.0257
 1611SOL    HW116466   1.857   2.731   2.132  0.2076  1.5012  0.1459
 1611SOL    HW216467   1.946   2.691   2.240 -0.4234 -0.7706 -1.5616
 1612SOL     OW16468   0.924   3.090  11.396 -0.3900  0.2485 -0.0300
 1612SOL    HW116469   1.000   3.075  11.340 -0.6544 -0.9900 -0.0660
 1612SOL    HW216470   0.869   3.146  11.342 -1.0244  0.5256  0.9037
 1613SOL     OW16471   1.983   1.560   7.187  0.0345  0.4322 -0.1609
 1613SOL    HW116472   2.037   1.566   7.108  0.2177 -0.4521 -0.1001
 1613SOL    HW216473   2.039   1.601   7.254 -1.2993 -0.4325  1.4912
 1614SOL     OW16474   0.358   2.371  14.923  0.2924  0.3404 -0.3157
 1614SOL    HW116475   0.329   2.301  14.864 -1.8117  2.5364 -1.9196
 1614SOL    HW216476   0.383   2.333  15.007  0.3182 -0.3456 -0.6374
 1615SOL     OW16477   1.610   3.279   4.406 -0.3387 -0.2934 -0.0454
 1615SOL    HW116478   1.689   3.322   4.371  0.5827 -1.2978  0.8001
 1615SOL    HW216479   1.566   3.346   4.459 -0.6836  0.9261 -1.8644
 1616SOL     OW16480   2.445   3.278  16.209 -0.1858 -0.2753 -0.5602
 1616SOL    HW116481   2.376   3.275  16.142  0.3516 -0.6450 -1.1010
 1616SOL    HW216482   2.513   3.306  16.148 -1.4504  1.4435 -1.1997
 1617SOL     OW16483   2.974   1.494   3.105  0.0027 -0.1153 -0.3505
 1617SOL    HW116484   3.030   1.562   3.067 -0.6035 -1.0381 -2.8841
 1617SOL    HW216485   2.981   1.430   3.034 -1.2459  0.6952 -1.2178
 1618SOL     OW16486   1.746   1.429   7.202  0.1022 -0.0027  0.3117
 1618SOL    HW116487   1.727   1.441   7.295  2.1254 -0.0253  0.7308
 1618SOL    HW216488   1.831   1.472   7.192 -1.7628  3.3662 -1.0515
 1619SOL     OW16489   0.171   0.724   5.134  0.0900 -0.0411 -0.4578
 1619SOL    HW116490   0.183   0.775   5.054  1.9719 -0.3938 -0.4130
 1619SOL    HW216491   0.189   0.800   5.189 -2.3371 -0.8918  1.4934
 1620SOL     OW16492   1.236   1.258   7.262  0.2611  0.1817  0.2273
 1620SOL    HW116493   1.196   1.331   7.309 -2.3513 -1.6101  0.7723
 1620SOL    HW216494   1.286   1.205   7.325 -0.7761  1.2130  1.9214
 1621SOL     OW16495   2.601   3.092   8.055 -0.5706 -0.5274  0.0036
 1621SOL    HW116496   2.580   3.184   8.039  2.3528 -0.1599 -1.7596
 1621SOL    HW216497   2.622   3.099   8.148 -1.7008 -0.6371  0.2634
 1622SOL     OW16498   0.619   4.350   5.933 -0.3652 -0.0198  0.6866
 1622SOL    HW116499   0.532   4.389   5.922  0.8108  3.0250  2.0080
 1622SOL    HW216500   0.664   4.419   5.884  1.2167  0.1882  2.4405
 1623SOL     OW16501   3.605   1.490  13.084  0.3251 -0.6698 -0.7117
 1623SOL    HW116502   3.670   1.473  13.152 -1.1983  0.6291  1.0658
 1623SOL    HW216503   3.664   1.524  13.017 -0.1922  2.1937  0.2746
 1624SOL     OW16504   3.551   4.612  15.286 -0.1040  0.1574 -0.7160
 1624SOL    HW116505   3.569   4.696  15.328 -0.6169 -0.1792  0.1721
 1624SOL    HW216506   3.566   4.644  15.198  2.5518  1.9183  0.3719
 1625SOL     OW16507   2.232   0.814   7.313 -0.0470 -0.4537 -0.0400
 1625SOL    HW116508   2.154   0.760   7.303 -0.6538  0.6829 -1.3443
 1625SOL    HW216509   2.221   0.877   7.243 -0.7487  0.8382  1.2353
 1626SOL     OW16510   3.307   3.260  17.311 -0.4628 -0.3385  0.0593
 1626SOL    HW116511   3.249   3.302  17.375 -1.4465 -1.6352  0.0207
 1626SOL    HW216512   3.292   3.312  17.232  1.3328  0.0604 -0.0225
 1627SOL     OW16513   3.119   4.039   8.600  0.2214 -0.2048  0.1146
 1627SOL    HW116514   3.046   4.003   8.651  1.5210 -2.2779  0.5213
 1627SOL    HW216515   3.169   4.082   8.669  2.2489 -1.7895 -0.3526
 1628SOL     OW16516   3.011   3.385  10.656 -0.1070 -0.3692 -0.6097
 1628SOL    HW116517   3.052   3.327  10.721  1.4347  1.7198  0.2619
 1628SOL    HW216518   2.938   3.334  10.622 -0.5215 -0.1412 -0.0512
 1629SOL     OW16519   0.703   1.635   7.147 -0.2897 -0.0358 -0.6455
 1629SOL    HW116520   0.714   1.557   7.201 -0.9796 -1.0325 -1.9161
 1629SOL    HW216521   0.786   1.679   7.133 -0.1932 -0.6198 -1.9671
 1630SOL     OW16522   2.128   1.356  14.718  0.1130  0.2485 -0.0264
 1630SOL    HW116523   2.151   1.265  14.696 -1.5242 -0.0937 -0.3044
 1630SOL    HW216524   2.068   1.345  14.791 -0.8590 -2.2102 -1.1746
 1631SOL     OW16525   0.926   1.086   8.535  0.0401  0.0394 -0.4521
 1631SOL    HW116526   0.936   0.997   8.569 -0.2429  0.2134  0.0821
 1631SOL    HW216527   0.912   1.067   8.443  0.0581 -0.6947 -0.3053
 1632SOL     OW16528   2.539   4.241   5.890  0.6639 -0.9621 -0.3706
 1632SOL    HW116529   2.577   4.218   5.975  0.0213 -1.0691 -0.1123
 1632SOL    HW216530   2.539   4.336   5.900 -0.4316 -1.1851  1.6976
 1633SOL     OW16531   0.433   1.569   6.013 -0.1619 -0.0296  0.0633
 1633SOL    HW116532   0.485   1.505   5.965 -0.4373 -1.0014  1.0673
 1633SOL    HW216533   0.441   1.642   5.952 -1.9661 -0.7720 -1.0391
 1634SOL     OW16534   3.613   0.837   7.512  0.5704 -0.7633 -0.1616
 1634SOL    HW116535   3.539   0.895   7.493  1.1294 -1.1517 -3.6068
 1634SOL    HW216536   3.628   0.780   7.437  0.7677  0.2325 -0.8810
 1635SOL     OW16537   1.615   3.213   7.555  0.3843 -0.4143  1.0015
 1635SOL    HW116538   1.642   3.180   7.470 -0.8692 -1.6869  1.0852
 1635SOL    HW216539   1.624   3.138   7.613 -0.6591 -1.3763 -0.0739
 1636SOL     OW16540   1.930   1.250   8.630  0.1609  0.6895  0.7726
 1636SOL    HW116541   1.947   1.170   8.580 -1.1299  0.5451  0.5500
 1636SOL    HW216542   2.004   1.258   8.689  1.0951  2.0552 -0.5819
 1637SOL     OW16543   0.868   2.541  14.197 -0.7723 -0.4200 -0.1924
 1637SOL    HW116544   0.874   2.591  14.278  0.1638  0.9207 -1.0802
 1637SOL    HW216545   0.955   2.548  14.157 -0.1138 -0.2882  1.2802
 1638SOL     OW16546   3.358   4.508   8.132 -0.5827 -0.0180  0.3815
 1638SOL    HW116547   3.385   4.420   8.161 -1.3517  0.1534  1.6307
 1638SOL    HW216548   3.262   4.507   8.130 -0.5685  0.0398 -0.2078
 1639SOL     OW16549   0.853   4.693   8.518  0.2432 -0.4101 -0.4718
 1639SOL    HW116550   0.814   4.647   8.593 -0.1549  0.9971  0.1898
 1639SOL    HW216551   0.944   4.680   8.544 -0.3628 -0.9452  1.3760
 1640SOL     OW16552   0.956   0.885   2.115  0.1540 -0.3259 -0.0914
 1640SOL    HW116553   0.948   0.957   2.178 -0.9062 -1.3296  0.9163
 1640SOL    HW216554   0.935   0.814   2.175 -2.5125  2.6571  2.5394
 1641SOL     OW16555   0.187   2.275   5.459 -0.3026  0.3085 -0.2590
 1641SOL    HW116556   0.255   2.294   5.394  0.6497 -4.7076 -0.7443
 1641SOL    HW216557   0.163   2.361   5.492  0.6538  0.1976  0.7256
 1642SOL     OW16558   2.381   1.457   5.475  0.1234 -0.5714 -0.4862
 1642SOL    HW116559   2.419   1.535   5.516 -2.9559  0.4867  0.3204
 1642SOL    HW216560   2.343   1.499   5.398 -0.0534 -0.4794 -0.3498
 1643SOL     OW16561   0.683   3.277   3.651  0.1092  0.3833  0.0096
 1643SOL    HW116562   0.764   3.328   3.662  1.0384 -1.4453  1.6604
 1643SOL    HW216563   0.626   3.326   3.710 -1.6585 -1.5632 -0.1336
 1644SOL     OW16564   3.281   4.694   9.952  0.5875  0.4761  0.0839
 1644SOL    HW116565   3.336   4.723  10.025 -1.8636  1.4317  1.5490
 1644SOL    HW216566   3.277   4.599   9.966 -0.4926  0.4550 -0.3315
 1645SOL     OW16567   0.108   0.099   2.512  0.4261  0.6825  0.4174
 1645SOL    HW116568   0.174   0.031   2.527 -1.5932 -0.9021  2.1179
 1645SOL    HW216569   0.143   0.126   2.427 -0.7955 -0.1662 -0.3509
 1646SOL     OW16570   1.318   3.300   6.874  0.0274 -0.2320  0.7877
 1646SOL    HW116571   1.302   3.206   6.861 -0.8411 -0.0944  0.8169
 1646SOL    HW216572   1.411   3.300   6.893 -0.1207  0.5483  1.5019
 1647SOL     OW16573   3.149   3.470   0.218  0.3048 -0.1711  0.0845
 1647SOL    HW116574   3.199   3.392   0.197  1.1616 -0.0243  1.6699
 1647SOL    HW216575   3.080   3.434   0.274  0.4648  2.6340  2.0889
 1648SOL     OW16576   0.522   2.474   9.269 -0.1843 -0.3084  0.0199
 1648SOL    HW116577   0.579   2.421   9.325  1.9462  0.5040 -1.3637
 1648SOL    HW216578   0.439   2.472   9.316 -1.1894 -0.7646 -1.8099
 1649SOL     OW16579   0.687   3.559   6.932  0.2498 -0.5548  0.3733
 1649SOL    HW116580   0.719   3.485   6.985 -1.0489 -2.0136 -0.9038
 1649SOL    HW216581   0.726   3.631   6.983 -0.6179  0.6857 -0.7377
 1650SOL     OW16582   3.525   2.621  13.383 -0.0114 -0.3348  0.0406
 1650SOL    HW116583   3.487   2.623  13.471  0.6883 -0.1638  0.3411
 1650SOL    HW216584   3.581   2.699  13.389  0.4507 -0.7275  0.8968
 1651SOL     OW16585   2.959   3.641   0.327 -0.0463  0.2181 -0.4372
 1651SOL    HW116586   2.953   3.648   0.231  0.3104  0.1356 -0.4676
 1651SOL    HW216587   2.866   3.643   0.348  0.2781 -0.8110  1.0576
 1652SOL     OW16588   1.377   3.339  14.682 -0.6629  0.3600  0.7412
 1652SOL    HW116589   1.380   3.428  14.716  1.0191  1.2462 -1.7972
 1652SOL    HW216590   1.300   3.346  14.626  1.1408  0.4881 -1.6824
 1653SOL     OW16591   0.982   0.750   8.839 -0.0613 -0.5132 -0.2399
 1653SOL    HW116592   0.959   0.840   8.859  0.5310 -0.5172  0.4512
 1653SOL    HW216593   1.077   0.760   8.845 -0.7204  4.2860  1.8088
 1654SOL     OW16594   1.346   4.489   3.586 -0.2646 -0.0316  0.2279
 1654SOL    HW116595   1.332   4.532   3.670  0.3714 -4.5254  2.5954
 1654SOL    HW216596   1.277   4.541   3.544 -0.7921 -0.0485  1.0834
 1655SOL     OW16597   3.791   4.669  15.569  0.3198  0.4505  0.0278
 1655SOL    HW116598   3.824   0.007  15.520  0.8784 -0.8141 -1.5435
 1655SOL    HW216599   3.738   4.713  15.635  1.5417  0.1968  1.1850
 1656SOL     OW16600   3.825   4.675   0.534  0.6463 -0.9833  0.0459
 1656SOL    HW116601   3.831   4.614   0.607  0.3966 -0.1944  0.7255
 1656SOL    HW216602   3.740   4.653   0.495  1.1739 -0.5656 -1.3545
 1657SOL     OW16603   3.043   0.429   6.470  0.4084 -0.4455 -0.2258
 1657SOL    HW116604   3.019   0.354   6.415  2.8425 -2.2499  1.2034
 1657SOL    HW216605   3.022   0.500   6.410  2.4828  0.5495  0.2388
 1658SOL     OW16606   1.082   0.369  13.376  0.2041 -0.2919 -0.2558
 1658SOL    HW116607   1.029   0.392  13.300 -1.0411  0.6539  0.8951
 1658SOL    HW216608   1.139   0.306  13.331  0.7527 -0.7850  1.1206
 1659SOL     OW16609   0.085   3.739  12.914  0.0224 -0.1465 -0.1053
 1659SOL    HW116610   0.092   3.764  12.822 -0.5554 -1.4971 -0.5178
 1659SOL    HW216611   0.167   3.700  12.942  0.2806  2.2880  2.5025
 1660SOL     OW16612   2.829   3.806  14.739 -0.5067  0.0802 -0.6147
 1660SOL    HW116613   2.869   3.754  14.670 -0.6877  0.3788 -0.9481
 1660SOL    HW216614   2.741   3.811  14.699 -1.8742 -0.1519  2.3850
 1661SOL     OW16615   0.809   3.772   7.085  0.0936  0.2492  0.5246
 1661SOL    HW116616   0.764   3.774   7.169 -0.4950 -1.2669  0.2351
 1661SOL    HW216617   0.891   3.809   7.117  0.3868  0.1551 -0.1139
 1662SOL     OW16618   3.749   3.441   9.517  0.4339  0.5792 -0.0491
 1662SOL    HW116619   3.818   3.432   9.451  0.2352 -2.1798  0.1164
 1662SOL    HW216620   3.793   3.493   9.584  0.5449  0.4031  0.0155
 1663SOL     OW16621   3.457   0.554  11.475 -1.0350 -0.2852  0.7020
 1663SOL    HW116622   3.409   0.514  11.403 -0.9413 -1.5395  1.3360
 1663SOL    HW216623   3.495   0.475  11.514 -0.4149  0.3528  1.3935
 1664SOL     OW16624   3.569   3.145   4.988  0.1422  0.1359  0.2203
 1664SOL    HW116625   3.628   3.163   5.061  1.4331 -0.7748 -0.5820
 1664SOL    HW216626   3.594   3.057   4.959 -0.1027  1.1723 -3.1053
 1665SOL     OW16627   2.481   0.736  14.733 -0.1558 -0.2906 -0.0277
 1665SOL    HW116628   2.462   0.679  14.658 -0.8165 -0.2518  0.1081
 1665SOL    HW216629   2.484   0.824  14.695 -2.2650  0.9851  2.7345
 1666SOL     OW16630   1.352   1.593   7.940  0.2962  0.5327  0.0216
 1666SOL    HW116631   1.436   1.609   7.898  1.0378  1.5362  1.9032
 1666SOL    HW216632   1.350   1.661   8.008 -0.0883 -1.5525  2.0982
 1667SOL     OW16633   3.994   1.954  16.799 -0.0723  0.1690  0.0345
 1667SOL    HW116634   4.064   2.017  16.780  0.4018 -0.4516 -0.2988
 1667SOL    HW216635   3.950   1.994  16.874 -0.2681  0.6552 -0.3431
 1668SOL     OW16636   3.541   4.721  13.837 -0.6434 -0.0085  0.4429
 1668SOL    HW116637   3.628   0.016  13.814 -0.7359  0.6100  0.9548
 1668SOL    HW216638   3.490   0.061  13.810 -1.4768 -0.9174 -0.5372
 1669SOL     OW16639   2.691   2.983  15.763 -0.1089  0.4564  0.1191
 1669SOL    HW116640   2.690   2.971  15.668 -0.7751  0.4349  0.1277
 1669SOL    HW216641   2.766   3.042  15.768  1.0461 -0.9711 -0.4959
 1670SOL     OW16642   2.185   0.906   2.154 -0.0267 -0.0852  0.2033
 1670SOL    HW116643   2.159   0.965   2.225  0.4733  2.7933 -1.9687
 1670SOL    HW216644   2.243   0.837   2.184 -2.1758 -2.6238 -1.4784
 1671SOL     OW16645   2.275   1.408   7.829  0.7186 -0.4230 -0.4141
 1671SOL    HW116646   2.332   1.463   7.882 -1.6518  0.2459  1.4343
 1671SOL    HW216647   2.251   1.342   7.894 -0.3906 -3.3222 -3.7310
 1672SOL     OW16648   2.021   2.254   5.768 -0.2866  0.4848  0.4069
 1672SOL    HW116649   2.048   2.344   5.753  0.7720 -0.0705 -0.9679
 1672SOL    HW216650   1.939   2.262   5.817  0.4976 -1.9788  2.1559
 1673SOL     OW16651   0.654   4.647  14.447 -0.1855  0.4514 -0.3803
 1673SOL    HW116652   0.748   4.634  14.456 -0.4000 -0.8934 -0.0050
 1673SOL    HW216653   0.644   4.736  14.481 -0.3300  0.5252 -0.6187
 1674SOL     OW16654   4.537   1.128   2.810  0.1147 -0.4443  0.2939
 1674SOL    HW116655   4.618   1.095   2.770 -0.6920 -3.8969  1.4888
 1674SOL    HW216656   4.549   1.218   2.839 -0.2259 -0.1990 -0.3210
 1675SOL     OW16657   0.488   1.689  12.901 -0.2272  0.1105  0.5263
 1675SOL    HW116658   0.420   1.754  12.922 -0.5010 -0.1767  0.5338
 1675SOL    HW216659   0.466   1.673  12.810  1.8489 -1.1301  0.2515
 1676SOL     OW16660   4.068   1.714   4.573 -0.1106 -0.2283  0.6059
 1676SOL    HW116661   4.076   1.809   4.564  1.0986 -0.5060 -1.1066
 1676SOL    HW216662   4.014   1.706   4.652  0.8473  2.2230  1.5085
 1677SOL     OW16663   0.821   2.608   5.056  0.0976  0.2233  0.5254
 1677SOL    HW116664   0.838   2.694   5.017  0.9509 -0.3180 -0.2866
 1677SOL    HW216665   0.813   2.626   5.150  3.3328  3.1209  0.2511
 1678SOL     OW16666   1.498   4.031   4.095 -0.2015 -0.0485 -0.0160
 1678SOL    HW116667   1.404   4.039   4.113 -0.0766  0.6129  0.3258
 1678SOL    HW216668   1.529   4.102   4.152  0.5614  0.7832 -1.4557
 1679SOL     OW16669   3.902   2.576   5.152  0.2983  0.1062 -0.1667
 1679SOL    HW116670   3.997   2.587   5.142  0.1047  2.0032  0.1384
 1679SOL    HW216671   3.905   2.486   5.185 -0.5960 -0.8435 -2.6763
 1680SOL     OW16672   2.798   3.928   4.945  0.1821 -0.0877  0.4633
 1680SOL    HW116673   2.718   3.911   4.995 -0.2696 -1.3203 -0.6762
 1680SOL    HW216674   2.829   4.016   4.967  2.9576 -0.6998 -1.0173
 1681SOL     OW16675   1.525   1.759   2.382  0.4447 -0.3654  0.1581
 1681SOL    HW116676   1.583   1.802   2.320  0.6381 -0.6333  0.1529
 1681SOL    HW216677   1.598   1.729   2.436 -0.6357 -0.2351  1.6909
 1682SOL     OW16678   3.031   1.544   3.361 -0.6462 -0.7265 -0.1498
 1682SOL    HW116679   3.003   1.495   3.284 -1.4665 -1.0688  0.3656
 1682SOL    HW216680   2.962   1.610   3.353  0.1637  0.0684 -0.5537
 1683SOL     OW16681   0.169   3.128  12.099 -0.3805 -0.3272 -0.4176
 1683SOL    HW116682   0.167   3.219  12.128 -2.4445 -0.6636  0.5209
 1683SOL    HW216683   0.194   3.091  12.184 -2.2543 -0.1873  0.1954
 1684SOL     OW16684   1.371   2.145   7.062  0.5152  0.4019  0.0660
 1684SOL    HW116685   1.277   2.132   7.073  0.6205 -1.6105 -1.3276
 1684SOL    HW216686   1.395   2.190   7.143  0.6330 -0.1747  0.3541
 1685SOL     OW16687   2.898   4.289   1.951  0.7167 -0.7321 -0.0254
 1685SOL    HW116688   2.835   4.337   1.897  0.7133  0.8015  1.3723
 1685SOL    HW216689   2.882   4.336   2.033  0.7934  2.3754 -1.7912
 1686SOL     OW16690   0.836   4.473   1.913 -0.5553 -0.0268  0.2114
 1686SOL    HW116691   0.751   4.430   1.921 -0.5685  0.2373  1.5205
 1686SOL    HW216692   0.821   4.561   1.947  2.0299  0.1374  0.9912
 1687SOL     OW16693   1.645   4.109   0.723 -0.5176  0.2576  0.0651
 1687SOL    HW116694   1.574   4.135   0.665 -2.2382 -0.6368  1.7530
 1687SOL    HW216695   1.718   4.160   0.689 -1.1801  0.5309 -0.9373
 1688SOL     OW16696   2.294   2.745   1.319  0.0052  0.1462  0.1169
 1688SOL    HW116697   2.229   2.767   1.386 -0.6176  0.6900 -0.6778
 1688SOL    HW216698   2.302   2.832   1.279 -0.8628 -0.4496 -1.3439
 1689SOL     OW16699   4.406   4.503   9.205  0.0044 -0.4714  0.1072
 1689SOL    HW116700   4.316   4.495   9.239 -1.2297  1.7977 -2.5720
 1689SOL    HW216701   4.387   4.537   9.118 -0.6785  0.1781  0.5051
 1690SOL     OW16702   1.071   0.843   2.997  0.1658 -0.1048  0.3840
 1690SOL    HW116703   1.047   0.756   2.963  0.2364 -0.2772  0.7692
 1690SOL    HW216704   1.108   0.888   2.921 -0.8376  0.6267  0.3400
 1691SOL     OW16705   1.835   2.857   5.521 -0.2048 -0.2462 -0.3910
 1691SOL    HW116706   1.838   2.947   5.488 -1.4491  0.5241  1.5842
 1691SOL    HW216707   1.829   2.867   5.616 -1.6959 -1.3599 -0.3772
 1692SOL     OW16708   2.991   1.507   6.123 -0.0752 -0.2761  0.6581
 1692SOL    HW116709   2.959   1.515   6.033 -1.0426 -1.3567  0.9059
 1692SOL    HW216710   2.921   1.553   6.170 -0.9499 -0.6327 -0.3020
 1693SOL     OW16711   3.308   0.013   0.154 -0.2108 -0.6496 -0.1635
 1693SOL    HW116712   3.326   0.031   0.246 -0.1260  0.1825 -0.3480
 1693SOL    HW216713   3.368   0.073   0.109  0.9739 -1.0852  0.8340
 1694SOL     OW16714   0.568   1.059   9.773  0.6668 -0.0751 -0.0615
 1694SOL    HW116715   0.578   1.144   9.817 -0.7008  0.3965 -0.6622
 1694SOL    HW216716   0.637   1.054   9.707  1.4548  2.8467  0.5341
 1695SOL     OW16717   0.039   2.458   5.644 -0.0624 -0.2997 -0.3023
 1695SOL    HW116718   0.094   2.529   5.610  1.1906 -0.7028  0.8958
 1695SOL    HW216719   0.071   2.433   5.731 -1.4002 -0.3016  0.1861
 1696SOL     OW16720   2.590   1.987   7.528  0.3059  0.1447 -0.1221
 1696SOL    HW116721   2.602   2.071   7.573 -1.1123  0.3863 -0.2188
 1696SOL    HW216722   2.606   2.009   7.436 -1.8972 -0.0782 -0.5405
 1697SOL     OW16723   4.466   2.595  13.027  0.2593  0.2885 -0.6182
 1697SOL    HW116724   4.523   2.522  13.051  1.7638  1.1062 -1.7049
 1697SOL    HW216725   4.502   2.619  12.941 -1.2269  1.0824 -1.0304
 1698SOL     OW16726   3.557   3.065   3.256  0.3403 -0.0178 -0.0492
 1698SOL    HW116727   3.616   3.139   3.241 -0.1404  0.6392  1.2414
 1698SOL    HW216728   3.475   3.114   3.266  1.5230  1.8790  0.4905
 1699SOL     OW16729   0.461   4.325  15.868 -0.4135  0.4557  0.5803
 1699SOL    HW116730   0.389   4.296  15.812  1.8597 -2.0126 -1.0452
 1699SOL    HW216731   0.520   4.250  15.878  0.7728  1.3715  0.4313
 1700SOL     OW16732   1.433   2.739  14.995 -0.2936 -0.0172 -0.1971
 1700SOL    HW116733   1.498   2.793  15.041 -1.3703 -0.2857  1.6596
 1700SOL    HW216734   1.485   2.716  14.918 -0.5702  0.3962 -0.5081
 1701SOL     OW16735   2.469   4.354   5.371 -0.6345  0.0200 -0.1423
 1701SOL    HW116736   2.532   4.284   5.387  0.1397  0.6810 -0.2848
 1701SOL    HW216737   2.392   4.301   5.347 -1.0843  0.8652 -0.5519
 1702SOL     OW16738   2.795   3.947   6.292  0.0243  0.1442  0.0518
 1702SOL    HW116739   2.875   3.986   6.329  0.1510 -0.1058  0.0439
 1702SOL    HW216740   2.733   3.999   6.343  0.7132  1.1368 -0.1200
 1703SOL     OW16741   2.374   0.716   2.929  0.9480 -0.0110  0.6358
 1703SOL    HW116742   2.393   0.632   2.970  0.6709  0.6921  2.2112
 1703SOL    HW216743   2.444   0.733   2.866 -0.7684  0.5803 -1.1147
 1704SOL     OW16744   4.262   1.365   1.047  0.2556  0.3262  0.0146
 1704SOL    HW116745   4.282   1.278   1.081  1.6780 -1.1526 -4.7155
 1704SOL    HW216746   4.299   1.409   1.124 -3.2317  0.9092  1.3650
 1705SOL     OW16747   4.320   3.608   6.875 -0.4597  0.2852 -0.2414
 1705SOL    HW116748   4.241   3.651   6.843 -0.7870  0.6077  0.9889
 1705SOL    HW216749   4.282   3.541   6.932  0.3357  1.0265  1.1560
 1706SOL     OW16750   2.459   1.226  14.458  0.6016  0.5450  0.2764
 1706SOL    HW116751   2.445   1.259  14.369  0.3972 -0.6726 -0.1316
 1706SOL    HW216752   2.416   1.141  14.456  0.8049  0.4843 -1.8440
 1707SOL     OW16753   3.006   3.220   7.607  0.2131 -0.1992 -0.8601
 1707SOL    HW116754   3.006   3.294   7.668 -2.2626  0.2941 -1.4756
 1707SOL    HW216755   2.935   3.247   7.549 -1.0004  0.2245  0.8175
 1708SOL     OW16756   0.801   1.257   0.685  0.6406  0.3817 -0.1105
 1708SOL    HW116757   0.833   1.337   0.726  0.7185  0.6742 -0.7469
 1708SOL    HW216758   0.880   1.243   0.633  1.0529  1.6735  0.1578
 1709SOL     OW16759   0.675   1.618   2.121  0.0413 -0.1692 -0.7291
 1709SOL    HW116760   0.717   1.573   2.194 -3.0089  0.3576  1.3530
 1709SOL    HW216761   0.725   1.593   2.043 -0.4433  1.3237 -1.5160
 1710SOL     OW16762   0.397   3.409   8.657 -0.1428  0.3634  0.7012
 1710SOL    HW116763   0.368   3.344   8.722  0.4315 -0.0317  0.5649
 1710SOL    HW216764   0.315   3.456   8.639  1.2655  2.1186 -1.0717
 1711SOL     OW16765   3.628   3.764   5.640 -0.3088  0.6115  0.5577
 1711SOL    HW116766   3.574   3.827   5.686  0.7396  1.0266  1.2281
 1711SOL    HW216767   3.694   3.822   5.602 -0.4173  0.3963  0.0323
 1712SOL     OW16768   0.013   3.019  13.566  0.3984 -1.3403 -0.1027
 1712SOL    HW116769   4.694   3.071  13.508  0.0696 -0.7563  0.7306
 1712SOL    HW216770   0.088   3.077  13.581 -1.8758  1.8167 -0.8259
 1713SOL     OW16771   0.946   3.473   3.952 -0.0830  0.2864 -0.4885
 1713SOL    HW116772   0.891   3.489   3.875  0.4042  1.7223 -0.5253
 1713SOL    HW216773   0.909   3.393   3.988  1.6214 -0.0688  0.4768
 1714SOL     OW16774   1.457   4.304   9.406 -0.0956 -0.4578 -0.0965
 1714SOL    HW116775   1.379   4.331   9.454 -0.2096 -1.0026  0.0166
 1714SOL    HW216776   1.463   4.373   9.339  0.2881  1.0387  1.4701
 1715SOL     OW16777   1.048   4.278   4.488 -0.2343 -0.0770 -0.0481
 1715SOL    HW116778   1.060   4.263   4.581  2.3593  1.4580 -0.1244
 1715SOL    HW216779   0.999   4.359   4.500 -2.4730 -1.5745  0.7892
 1716SOL     OW16780   2.142   2.080   2.679  0.7507 -0.0425 -0.5228
 1716SOL    HW116781   2.171   2.017   2.746  0.2405  1.7381  1.3766
 1716SOL    HW216782   2.052   2.052   2.663  0.7613 -0.8728  0.8935
 1717SOL     OW16783   1.959   1.550  11.758  0.4590  0.0591 -0.3791
 1717SOL    HW116784   1.880   1.586  11.798  0.9735  1.8405 -0.9587
 1717SOL    HW216785   2.008   1.507  11.827  0.0308  0.7625  0.3577
 1718SOL     OW16786   0.933   4.084   8.885  0.4218  0.0312 -0.4438
 1718SOL    HW116787   0.897   4.036   8.960  3.0154 -1.0658  0.0958
 1718SOL    HW216788   0.866   4.141   8.847  0.2506  0.8218  1.0449
 1719SOL     OW16789   4.095   4.600  17.534 -0.2768 -0.0716  0.4189
 1719SOL    HW116790   4.034   4.579  17.605 -1.6337 -0.0773 -0.7462
 1719SOL    HW216791   4.155   4.666  17.569  1.9409 -2.7666  1.7410
 1720SOL     OW16792   1.338   3.657  13.367  0.0339  0.0984  0.7284
 1720SOL    HW116793   1.385   3.627  13.289 -1.6516  0.6516 -0.5053
 1720SOL    HW216794   1.391   3.627  13.441 -0.6626 -0.1222  1.1317
 1721SOL     OW16795   2.962   1.940   6.165  0.5285  0.8027  0.4898
 1721SOL    HW116796   2.944   1.884   6.090 -1.8421 -0.3777  1.9530
 1721SOL    HW216797   2.875   1.979   6.165 -0.3169 -1.0966  0.0155
 1722SOL     OW16798   0.579   0.679  11.669 -0.9302  0.2048 -0.2425
 1722SOL    HW116799   0.618   0.745  11.611  1.0817 -1.8357 -1.2083
 1722SOL    HW216800   0.532   0.627  11.604 -0.9210  0.9380 -0.8363
 1723SOL     OW16801   1.516   0.038   5.193 -0.0915  0.8873  0.0378
 1723SOL    HW116802   1.523   0.088   5.112 -1.1069  1.0419  0.0485
 1723SOL    HW216803   1.431   0.071   5.222 -1.6976 -1.6219 -1.7315
 1724SOL     OW16804   2.012   3.457   6.858  0.0703  0.4168  0.7475
 1724SOL    HW116805   1.990   3.365   6.840  0.5799  0.3077  0.6805
 1724SOL    HW216806   1.925   3.483   6.889  0.7731  2.2309  1.1416
 1725SOL     OW16807   3.187   4.432  17.063 -0.0749 -0.8170  0.0695
 1725SOL    HW116808   3.260   4.478  17.021  0.4110 -0.6936  1.0634
 1725SOL    HW216809   3.111   4.462  17.013  0.9443  3.0531  0.8436
 1726SOL     OW16810   3.860   2.066   7.775  0.3467  0.3534  0.3562
 1726SOL    HW116811   3.903   2.111   7.704  0.1657 -0.3169 -0.1808
 1726SOL    HW216812   3.934   2.017   7.811  1.4659  0.9142 -1.1907
 1727SOL     OW16813   3.164   3.407  16.569 -0.0173 -0.2410 -0.0382
 1727SOL    HW116814   3.147   3.495  16.600 -0.1153 -0.3871  0.3199
 1727SOL    HW216815   3.138   3.415  16.477 -0.5075  1.0040  0.2163
 1728SOL     OW16816   4.223   3.488  13.513 -0.1972  0.2431 -0.0556
 1728SOL    HW116817   4.139   3.533  13.528  0.1510  0.7564  0.3837
 1728SOL    HW216818   4.269   3.572  13.521 -2.2803  1.4207 -0.3638
 1729SOL     OW16819   1.254   2.178   2.499  0.1555  0.1717  0.5861
 1729SOL    HW116820   1.244   2.177   2.404  1.2520  1.9328  0.4365
 1729SOL    HW216821   1.266   2.086   2.524  1.6570  0.6703  1.7488
 1730SOL     OW16822   2.430   3.884   2.781  0.2630  0.0132 -0.1035
 1730SOL    HW116823   2.521   3.903   2.804  0.0978  1.4832 -0.6420
 1730SOL    HW216824   2.432   3.790   2.765  0.5598 -0.2039  1.2345
 1731SOL     OW16825   4.572   1.354   8.475 -0.4698 -0.4498  0.6900
 1731SOL    HW116826   4.661   1.333   8.501 -1.2827 -1.0451  2.9922
 1731SOL    HW216827   4.565   1.303   8.394  2.3329  1.4833 -0.7528
 1732SOL     OW16828   0.111   2.242   2.413  0.4092  0.0873  0.2626
 1732SOL    HW116829   0.042   2.305   2.436  1.3314  1.5749 -1.1097
 1732SOL    HW216830   0.075   2.168   2.462  1.1133 -0.1807  0.3728
 1733SOL     OW16831   3.165   3.246  16.798  0.1929  0.5552 -0.3233
 1733SOL    HW116832   3.184   3.292  16.879 -0.5971  0.9087 -0.3306
 1733SOL    HW216833   3.152   3.311  16.728  0.8764 -0.9369 -1.8389
 1734SOL     OW16834   3.248   4.182  16.662  0.0353  0.1132  0.1263
 1734SOL    HW116835   3.205   4.124  16.725  0.3551  0.9962  1.1615
 1734SOL    HW216836   3.338   4.149  16.666  0.4660  1.1060 -1.4525
 1735SOL     OW16837   1.242   2.900   8.556 -0.8805  0.0125  0.2463
 1735SOL    HW116838   1.154   2.934   8.576 -0.7084  0.2661  0.5688
 1735SOL    HW216839   1.276   2.989   8.541 -0.7986 -0.3022 -1.3756
 1736SOL     OW16840   0.219   0.116   9.481  0.0629  0.4004  1.0325
 1736SOL    HW116841   0.279   0.190   9.472  0.8613 -0.3805 -0.0744
 1736SOL    HW216842   0.270   0.045   9.518 -3.0485 -1.6774  1.3393
 1737SOL     OW16843   1.567   3.082   6.542 -0.1101  0.5375  0.5228
 1737SOL    HW116844   1.659   3.083   6.569 -0.0664  0.0908  0.3964
 1737SOL    HW216845   1.576   3.020   6.470 -1.4981  0.2292  0.6124
 1738SOL     OW16846   0.596   1.714  16.263 -0.5970 -0.3208  0.3440
 1738SOL    HW116847   0.543   1.727  16.185  0.9197  1.0642 -0.4702
 1738SOL    HW216848   0.591   1.799  16.307 -2.3769  0.3078 -1.1344
 1739SOL     OW16849   4.407   1.936   9.373  0.3738  0.5716 -0.2598
 1739SOL    HW116850   4.455   1.855   9.387  0.5930  0.5031 -1.4188
 1739SOL    HW216851   4.362   1.913   9.292 -0.4790 -0.5778  0.5341
 1740SOL     OW16852   1.988   1.705   2.966 -0.0945 -0.0572  0.5268
 1740SOL    HW116853   1.971   1.693   2.872  0.4951  1.3288  0.2462
 1740SOL    HW216854   2.008   1.612   2.980 -2.2224 -0.6939 -0.7387
 1741SOL     OW16855   0.130   1.729   6.962 -0.1618 -0.1972 -0.4273
 1741SOL    HW116856   0.116   1.642   6.924 -2.0022  0.6264 -1.5696
 1741SOL    HW216857   0.199   1.711   7.027 -0.6543 -1.1917 -0.1725
 1742SOL     OW16858   3.521   0.875   6.602  0.1226  0.1565  0.2480
 1742SOL    HW116859   3.518   0.951   6.544  4.1957 -0.5409 -0.8440
 1742SOL    HW216860   3.492   0.918   6.683 -0.5202 -2.4157  1.4049
 1743SOL     OW16861   2.446   0.610   4.809  0.0881 -0.3258  0.1515
 1743SOL    HW116862   2.467   0.698   4.778 -1.6079 -0.0329 -0.1951
 1743SOL    HW216863   2.531   0.567   4.820 -1.0365 -2.7008 -0.4664
 1744SOL     OW16864   3.064   1.032   2.345  0.1062 -0.0322 -0.2454
 1744SOL    HW116865   3.094   1.077   2.266 -0.5154  0.3530 -0.2646
 1744SOL    HW216866   3.145   1.026   2.396  0.0016  1.4707  0.1053
 1745SOL     OW16867   3.324   3.975   4.703  0.5846 -0.1981  0.1758
 1745SOL    HW116868   3.370   3.952   4.623 -2.0837 -0.0991 -1.4103
 1745SOL    HW216869   3.345   4.067   4.720 -3.2497  0.3023  2.1717
 1746SOL     OW16870   2.738   2.366   1.960  0.0134  0.9221 -0.2795
 1746SOL    HW116871   2.716   2.456   1.937 -0.6841  0.9627  0.5704
 1746SOL    HW216872   2.829   2.358   1.931  0.2098 -1.3825  0.9839
 1747SOL     OW16873   2.387   3.701   4.630  0.7330  0.5065  0.7700
 1747SOL    HW116874   2.318   3.640   4.603  0.6161  1.8107 -1.8625
 1747SOL    HW216875   2.444   3.684   4.555  1.2814 -0.5042  1.4095
 1748SOL     OW16876   0.247   0.671   4.290 -0.0643  0.5089  0.2610
 1748SOL    HW116877   0.280   0.617   4.219  1.3116  1.1690  0.3966
 1748SOL    HW216878   0.234   0.597   4.349 -3.0390 -0.4581 -1.6026
 1749SOL     OW16879   2.206   0.992   9.670  0.1252 -0.1899 -0.3853
 1749SOL    HW116880   2.219   0.946   9.753  4.2225  1.2435 -0.2144
 1749SOL    HW216881   2.217   1.078   9.710 -0.6316 -0.3059  0.0712
 1750SOL     OW16882   2.161   1.784   8.814 -0.7205  0.0837  0.5383
 1750SOL    HW116883   2.082   1.739   8.846 -1.6212  0.1702 -1.5820
 1750SOL    HW216884   2.130   1.803   8.726  1.7375  0.5298 -0.2175
 1751SOL     OW16885   1.690   2.653   6.861  0.6685 -0.1736 -0.3215
 1751SOL    HW116886   1.749   2.709   6.810 -0.3764  0.3469 -0.9576
 1751SOL    HW216887   1.734   2.567   6.859  2.1198  0.5947 -1.5847
 1752SOL     OW16888   4.247   0.067  17.660  0.2700 -0.2011  0.1115
 1752SOL    HW116889   4.336   0.034  17.670  0.4077  0.6159  1.6646
 1752SOL    HW216890   4.266   0.160  17.645  0.9316 -0.1860  1.0283
 1753SOL     OW16891   0.688   2.460   6.221  0.2981 -0.2400 -0.0374
 1753SOL    HW116892   0.648   2.373   6.214  1.2173 -0.7507  1.1964
 1753SOL    HW216893   0.696   2.475   6.315  0.8255  1.0420 -0.2921
 1754SOL     OW16894   0.480   1.804   9.625 -0.1169  0.1181 -0.1361
 1754SOL    HW116895   0.473   1.850   9.710 -1.0889 -0.3796  0.0454
 1754SOL    HW216896   0.569   1.773   9.642  0.3696  2.3680  1.5528
 1755SOL     OW16897   1.529   0.895   6.676 -0.4024 -0.4299 -0.0732
 1755SOL    HW116898   1.588   0.820   6.685 -1.8886 -1.7589 -1.5669
 1755SOL    HW216899   1.445   0.871   6.715 -0.3607 -2.9497 -1.5367
 1756SOL     OW16900   0.807   0.639  15.927 -0.4306 -0.6279 -0.1267
 1756SOL    HW116901   0.902   0.644  15.928 -0.4790  0.1925  0.2469
 1756SOL    HW216902   0.803   0.544  15.929 -2.1067 -0.5609  0.3520
 1757SOL     OW16903   0.922   1.403   9.719  0.0138  0.0695  0.4203
 1757SOL    HW116904   0.964   1.394   9.634  0.9556  1.2849  0.7592
 1757SOL    HW216905   0.946   1.495   9.726 -0.4778  0.2731 -0.6105
 1758SOL     OW16906   0.947   2.365  16.950  0.1691  0.4094 -0.2426
 1758SOL    HW116907   1.003   2.430  16.992 -1.0391  2.1945 -1.4239
 1758SOL    HW216908   1.005   2.316  16.892  0.4452 -0.4859  0.7719
 1759SOL     OW16909   0.717   0.146   3.269  0.2083  0.6056  0.5335
 1759SOL    HW116910   0.800   0.113   3.234 -0.2427  0.9478 -0.8363
 1759SOL    HW216911   0.685   0.063   3.303  0.3447  0.5456  0.5157
 1760SOL     OW16912   3.338   3.342   6.099 -0.0478 -0.4264 -0.0604
 1760SOL    HW116913   3.293   3.330   6.183 -0.9138  0.1005 -0.4611
 1760SOL    HW216914   3.429   3.336   6.128 -0.5989 -3.5356  1.0104
 1761SOL     OW16915   1.983   0.593   7.308  0.4643  0.6656  0.1837
 1761SOL    HW116916   1.967   0.564   7.397  0.1440 -0.6074 -0.2865
 1761SOL    HW216917   1.976   0.513   7.257  4.5618  0.1091  0.5105
 1762SOL     OW16918   3.110   3.673   5.774  0.6669  0.3435  0.5623
 1762SOL    HW116919   3.052   3.707   5.841  0.1320  0.5580 -0.0079
 1762SOL    HW216920   3.126   3.751   5.721 -1.0616 -0.3997 -1.0567
 1763SOL     OW16921   2.087   3.333   3.087 -0.0563  0.3816 -0.2354
 1763SOL    HW116922   2.034   3.321   3.165 -0.2416 -3.2180 -0.9380
 1763SOL    HW216923   2.032   3.290   3.022  1.9336 -1.5938 -0.5961
 1764SOL     OW16924   2.379   3.396   1.596  0.6601 -0.5228 -0.5134
 1764SOL    HW116925   2.336   3.448   1.529 -2.3686 -0.3663  1.5617
 1764SOL    HW216926   2.342   3.312   1.569  0.1994  0.0139 -1.5542
 1765SOL     OW16927   0.312   2.010   4.679  0.6628  1.0442  0.0254
 1765SOL    HW116928   0.378   2.018   4.610 -0.7849 -1.2199 -1.5856
 1765SOL    HW216929   0.360   1.978   4.756  1.9441  0.9019 -0.8249
 1766SOL     OW16930   3.732   3.058  11.969  0.1087  0.3052 -0.0855
 1766SOL    HW116931   3.717   2.995  11.899  1.3582  0.0750 -0.1555
 1766SOL    HW216932   3.729   3.001  12.046  3.2715 -1.2013 -1.0533
 1767SOL     OW16933   2.175   1.109   4.591  0.3252  0.4156  0.1008
 1767SOL    HW116934   2.168   1.203   4.577  0.2378  0.6874  2.0208
 1767SOL    HW216935   2.215   1.077   4.510  0.9099  1.8137 -0.1624
 1768SOL     OW16936   3.483   0.129   3.343 -0.3917  0.0343  0.1714
 1768SOL    HW116937   3.398   0.172   3.341 -1.3266 -1.8935 -1.7947
 1768SOL    HW216938   3.479   0.057   3.280 -0.3257 -1.0824  1.4401
 1769SOL     OW16939   2.392   2.647   4.722 -0.1281 -0.4174 -0.0743
 1769SOL    HW116940   2.471   2.700   4.714  0.0217 -0.0086  4.0386
 1769SOL    HW216941   2.413   2.579   4.658 -0.7854 -0.1881 -0.5383
 1770SOL     OW16942   1.759   1.152   2.505 -0.6134 -0.2102  0.2412
 1770SOL    HW116943   1.779   1.209   2.431 -0.2637 -0.4380  0.1595
 1770SOL    HW216944   1.679   1.108   2.477  0.3034 -1.2315 -0.8033
 1771SOL     OW16945   1.601   2.001  14.899  0.1275  0.3244 -0.6030
 1771SOL    HW116946   1.630   2.007  14.808  1.7521 -2.5824 -0.2970
 1771SOL    HW216947   1.534   1.935  14.880  2.2627 -1.0934 -3.1361
 1772SOL     OW16948   0.721   3.331   3.089  0.0884 -0.5963  0.1436
 1772SOL    HW116949   0.761   3.374   3.165 -0.2171  0.0894 -0.0816
 1772SOL    HW216950   0.630   3.338   3.118 -0.7123 -1.4506 -2.2121
 1773SOL     OW16951   1.498   4.708  14.892 -0.1559 -0.2586  0.3837
 1773SOL    HW116952   1.540   0.052  14.864 -3.6564  2.1716  2.1901
 1773SOL    HW216953   1.503   4.708  14.988  2.6545 -1.3707  0.2468
 1774SOL     OW16954   3.673   1.212  14.532  0.2943  0.1606  0.3123
 1774SOL    HW116955   3.609   1.283  14.533 -0.2173 -0.3232  3.4195
 1774SOL    HW216956   3.757   1.256  14.540  0.6109 -0.5177  0.7178
 1775SOL     OW16957   2.149   0.371  11.885  0.0308 -0.3078 -0.1600
 1775SOL    HW116958   2.106   0.302  11.935 -0.7907 -1.3696 -2.3365
 1775SOL    HW216959   2.104   0.355  11.803  0.2461 -1.6558 -0.0191
 1776SOL     OW16960   4.199   0.195   6.157 -0.0606  0.1819  0.1106
 1776SOL    HW116961   4.259   0.140   6.207  0.6179 -0.6949 -1.6782
 1776SOL    HW216962   4.118   0.162   6.197 -0.7668 -0.3190 -1.7196
 1777SOL     OW16963   1.628   3.643   6.119  0.2582  0.5125  0.2678
 1777SOL    HW116964   1.637   3.662   6.025 -0.1210  1.1541  0.3642
 1777SOL    HW216965   1.655   3.725   6.159 -0.6891  0.6023  0.7127
 1778SOL     OW16966   2.267   4.424  16.242 -0.5070 -0.1372  0.4855
 1778SOL    HW116967   2.241   4.357  16.179 -0.6518  0.7007 -0.3538
 1778SOL    HW216968   2.272   4.493  16.175  2.1545 -0.9374 -0.1649
 1779SOL     OW16969   4.131   4.568   8.366  0.0608  0.1230 -0.2615
 1779SOL    HW116970   4.222   4.538   8.372 -0.1862 -0.0818  2.7360
 1779SOL    HW216971   4.143   4.637   8.302 -2.1355 -0.9344 -1.8257
 1780SOL     OW16972   0.456   3.062  14.624 -0.1291 -0.2032 -0.1152
 1780SOL    HW116973   0.397   3.111  14.566 -1.7039  1.2506  2.6510
 1780SOL    HW216974   0.419   3.085  14.710  2.5227 -0.3460  1.0634
 1781SOL     OW16975   2.826   4.189   5.640 -0.1331 -0.0214  0.3308
 1781SOL    HW116976   2.875   4.173   5.559  1.9358 -4.0566  2.3999
 1781SOL    HW216977   2.885   4.142   5.699  0.1362  0.4278  0.4271
 1782SOL     OW16978   3.124   2.099   5.611 -0.5073  0.4302  0.0755
 1782SOL    HW116979   3.105   2.189   5.583  1.3203  0.7288 -0.1954
 1782SOL    HW216980   3.201   2.119   5.664 -0.6749 -0.6161  0.7136
 1783SOL     OW16981   0.549   0.937   5.068 -0.0626  1.0290  0.1450
 1783SOL    HW116982   0.527   0.844   5.069  3.7184  0.1179 -1.4622
 1783SOL    HW216983   0.523   0.967   5.156 -2.6562  0.4224 -0.4359
 1784SOL     OW16984   4.415   1.227   6.801 -0.0502 -0.4014 -0.3429
 1784SOL    HW116985   4.393   1.277   6.880 -0.8610 -2.0319  0.4514
 1784SOL    HW216986   4.462   1.148   6.826 -0.3989  0.2836  2.4553
 1785SOL     OW16987   0.776   0.395  13.663  0.1256 -0.2801  0.5217
 1785SOL    HW116988   0.765   0.423  13.754  3.5704 -0.2942  0.9588
 1785SOL    HW216989   0.871   0.402  13.657  0.1764 -1.5526 -0.1561
 1786SOL     OW16990   4.524   4.408   5.607  0.2024 -0.1624  0.0242
 1786SOL    HW116991   4.584   4.341   5.574 -2.0185 -2.7628  1.2638
 1786SOL    HW216992   4.491   4.440   5.523  0.3142 -0.2536 -0.0541
 1787SOL     OW16993   4.011   0.976  15.018 -0.1813  0.1223  0.9020
 1787SOL    HW116994   3.949   0.906  15.040 -0.6073 -0.3329 -1.7749
 1787SOL    HW216995   3.985   1.047  15.076  2.1084  1.3888  0.3857
 1788SOL     OW16996   1.579   3.151   7.086  0.4455  0.2229 -0.4121
 1788SOL    HW116997   1.659   3.132   7.038 -0.0454 -2.3427 -0.2027
 1788SOL    HW216998   1.533   3.117   7.009 -0.7990  1.9715 -0.4493
 1789SOL     OW16999   0.550   0.318   9.564 -0.2650 -0.0860 -0.2748
 1789SOL    HW117000   0.543   0.383   9.634 -2.5513  0.2520 -0.8350
 1789SOL    HW217001   0.491   0.254   9.604  1.6718 -0.9265  1.2542
 1790SOL     OW17002   4.649   1.032   8.731  0.4485 -0.0397 -0.0192
 1790SOL    HW117003   4.708   1.022   8.805 -0.7760 -3.7623  0.4440
 1790SOL    HW217004   4.594   0.953   8.736 -0.4807  0.6281  0.3445
 1791SOL     OW17005   0.199   0.546   8.283 -0.6446  0.1246  0.3084
 1791SOL    HW117006   0.107   0.522   8.294 -0.9017  1.0435  0.1545
 1791SOL    HW217007   0.221   0.523   8.373 -1.8375 -0.7441  0.3850
 1792SOL     OW17008   3.485   1.341   2.893  0.1085  0.4940 -0.0127
 1792SOL    HW117009   3.508   1.251   2.914  2.7083  1.2992  0.6501
 1792SOL    HW217010   3.559   1.369   2.838  0.7806  2.2694  1.7999
 1793SOL     OW17011   3.224   0.093   4.480 -1.0817 -0.2221 -0.2582
 1793SOL    HW117012   3.190   0.053   4.400 -0.4967 -2.4863  0.6421
 1793SOL    HW217013   3.208   0.032   4.551 -3.0698  0.5005 -0.0930
 1794SOL     OW17014   2.993   2.788   4.316  0.5532  0.1751  0.2085
 1794SOL    HW117015   3.033   2.706   4.345  0.2659 -1.0522 -2.8574
 1794SOL    HW217016   2.912   2.765   4.272  0.0158  1.3523  0.6125
 1795SOL     OW17017   0.024   0.079  13.331 -0.1854  0.2975 -0.2474
 1795SOL    HW117018   0.062   0.141  13.268  1.0756 -0.9018 -0.6708
 1795SOL    HW217019   0.092   0.012  13.343  0.5092  1.1664  0.6255
 1796SOL     OW17020   4.030   2.925  11.868  0.1272  0.0642 -0.0133
 1796SOL    HW117021   4.043   3.009  11.912 -1.0022  0.1758  0.1054
 1796SOL    HW217022   3.935   2.924  11.855  0.1257 -0.2102  0.0011
 1797SOL     OW17023   2.428   0.083  17.725 -0.0005  0.4434 -0.1987
 1797SOL    HW117024   2.524   0.084  17.727  0.0109 -0.0833 -0.6789
 1797SOL    HW217025   2.401   4.729  17.714 -3.5702  1.3634  1.0810
 1798SOL     OW17026   2.017   3.013   3.224  0.2140  0.8622 -0.2983
 1798SOL    HW117027   1.945   2.978   3.170 -2.1979  4.3895  0.6307
 1798SOL    HW217028   1.968   3.064   3.289 -0.8734 -0.3879 -0.1231
 1799SOL     OW17029   0.304   1.664   7.180  0.3242 -0.1528 -0.4883
 1799SOL    HW117030   0.281   1.574   7.206  3.1927 -1.0063 -0.9355
 1799SOL    HW217031   0.284   1.705   7.264  2.7162  0.9554 -0.4743
 1800SOL     OW17032   0.052   2.727  15.804 -0.2326 -0.0689 -0.4338
 1800SOL    HW117033   0.125   2.758  15.858 -1.1174  0.5848  0.4033
 1800SOL    HW217034   0.069   2.779  15.726 -0.2686  0.2570 -0.2260
 1801SOL     OW17035   3.386   2.623  16.255 -0.2055  0.3424 -0.0921
 1801SOL    HW117036   3.437   2.693  16.295  1.0076 -0.3084 -0.4827
 1801SOL    HW217037   3.423   2.545  16.298 -0.3990  0.7062  0.7295
 1802SOL     OW17038   0.272   3.495   6.437 -0.2980  0.3114 -0.0603
 1802SOL    HW117039   0.312   3.429   6.494 -1.1314 -0.1623 -0.0249
 1802SOL    HW217040   0.259   3.567   6.499 -0.5342 -0.9179  1.3134
 1803SOL     OW17041   0.336   1.598   1.409  0.2171 -0.0711 -0.1403
 1803SOL    HW117042   0.421   1.553   1.407  1.3420  1.9997  0.9809
 1803SOL    HW217043   0.361   1.673   1.463  1.8401  1.1255 -2.5404
 1804SOL     OW17044   3.546   4.099   3.464  0.2700  0.1434 -0.4479
 1804SOL    HW117045   3.593   4.103   3.547  0.8268  3.1548 -0.8806
 1804SOL    HW217046   3.606   4.164   3.426  0.3652 -0.5634 -1.5173
 1805SOL     OW17047   2.515   2.915   3.214 -0.2124 -1.0834  0.1824
 1805SOL    HW117048   2.430   2.920   3.170 -0.9233 -0.1891  1.6500
 1805SOL    HW217049   2.527   3.007   3.238  0.9019 -0.9244 -1.0030
 1806SOL     OW17050   4.647   0.908  12.021  0.2317  0.3761  0.2953
 1806SOL    HW117051   4.652   0.981  12.083 -0.8807 -0.0960  0.9439
 1806SOL    HW217052   4.657   0.830  12.076  1.6693 -0.0347 -0.5417
 1807SOL     OW17053   1.147   4.024   9.488 -0.0052  0.3672  0.1652
 1807SOL    HW117054   1.231   4.049   9.526 -0.4590  0.4964  1.0646
 1807SOL    HW217055   1.143   4.071   9.405  1.0191  0.7865  0.3461
 1808SOL     OW17056   2.945   1.557   8.009 -0.3440 -0.0833  0.0043
 1808SOL    HW117057   2.953   1.645   7.974  1.7773 -0.7511 -1.2160
 1808SOL    HW217058   3.038   1.534   8.010 -0.1877  0.5748  0.3144
 1809SOL     OW17059   4.039   0.819   7.266  0.2180  0.0818 -0.2946
 1809SOL    HW117060   3.979   0.877   7.312 -0.0114 -0.0530 -0.4279
 1809SOL    HW217061   4.113   0.819   7.327 -0.9361  1.6867  1.1044
 1810SOL     OW17062   3.937   4.671   5.772 -0.5375  0.1459  0.4143
 1810SOL    HW117063   4.001   4.605   5.746 -1.4622 -0.1034 -1.2544
 1810SOL    HW217064   4.000   4.725   5.819  0.1192  1.3451 -1.8353
 1811SOL     OW17065   3.141   0.987   3.467 -0.1801 -0.6520 -0.2601
 1811SOL    HW117066   3.054   1.024   3.460  1.0407  2.2116 -0.2316
 1811SOL    HW217067   3.125   0.893   3.479 -1.1501 -0.4510 -0.0173
 1812SOL     OW17068   1.495   2.964  13.071 -0.1974 -0.3438  0.2308
 1812SOL    HW117069   1.526   2.896  13.130 -0.9228 -2.1788 -1.4827
 1812SOL    HW217070   1.571   2.984  13.016 -0.6727 -3.2534 -1.5097
 1813SOL     OW17071   3.971   4.425  11.779  0.0930 -0.6549  0.1082
 1813SOL    HW117072   3.972   4.520  11.791  1.0027 -0.7429  0.7584
 1813SOL    HW217073   3.889   4.412  11.732  0.0796  2.3400 -0.6759
 1814SOL     OW17074   3.971   3.188  11.954 -0.3568  0.1218  0.5160
 1814SOL    HW117075   3.879   3.179  11.978 -0.3166 -2.0062 -0.1791
 1814SOL    HW217076   3.996   3.277  11.981 -0.5868  0.4652 -0.4289
 1815SOL     OW17077   2.156   4.366   8.767  0.6070  0.2945  0.4612
 1815SOL    HW117078   2.209   4.444   8.748  0.9838 -0.2781 -0.8370
 1815SOL    HW217079   2.221   4.311   8.812  0.0647 -0.9321 -0.2784
 1816SOL     OW17080   2.858   3.542   8.421 -0.0220  0.2153 -0.3828
 1816SOL    HW117081   2.924   3.532   8.488  0.9820 -1.4282 -1.6156
 1816SOL    HW217082   2.889   3.477   8.357  0.7754 -0.3415  0.5792
 1817SOL     OW17083   3.561   4.510   7.318  0.3984  0.5689  1.0716
 1817SOL    HW117084   3.651   4.478   7.331 -0.4671 -1.9652  0.7677
 1817SOL    HW217085   3.562   4.576   7.387  0.6828  0.0955  1.5242
 1818SOL     OW17086   3.710   3.641   5.409 -0.6339 -0.1879  0.5939
 1818SOL    HW117087   3.659   3.561   5.419  0.8721 -1.6592 -3.4921
 1818SOL    HW217088   3.739   3.667   5.496  1.8487  2.5128 -1.0598
 1819SOL     OW17089   2.497   3.335   8.055 -0.0162 -0.0090  0.0297
 1819SOL    HW117090   2.466   3.404   7.998 -0.4770 -1.2458 -1.2059
 1819SOL    HW217091   2.544   3.393   8.116  1.1071  0.3742 -1.1984
 1820SOL     OW17092   2.823   1.037  10.571 -0.2494  1.1047 -0.1714
 1820SOL    HW117093   2.799   0.945  10.576  1.8621  0.5127 -1.2073
 1820SOL    HW217094   2.735   1.069  10.551  0.3111  0.9450 -2.8602
 1821SOL     OW17095   4.628   0.994   4.506 -0.1925  0.2078 -0.0626
 1821SOL    HW117096   4.613   0.906   4.470  0.2560  0.4813 -0.9361
 1821SOL    HW217097   4.562   1.003   4.574 -1.8672  0.5420 -1.7241
 1822SOL     OW17098   4.539   4.422   6.671 -0.0635  0.6106 -0.3500
 1822SOL    HW117099   4.515   4.391   6.759 -0.5568  1.4842 -0.1735
 1822SOL    HW217100   4.466   4.385   6.621 -0.7424 -1.0437  1.8305
 1823SOL     OW17101   3.593   2.025   1.830 -0.4212  0.3446  0.4620
 1823SOL    HW117102   3.498   2.025   1.840 -0.4599  2.3510 -0.0014
 1823SOL    HW217103   3.612   2.116   1.808 -0.3274 -0.3516 -2.2590
 1824SOL     OW17104   4.273   2.121   8.271 -0.4108 -0.4547 -0.4333
 1824SOL    HW117105   4.266   2.122   8.367 -1.0197  1.4198 -0.4887
 1824SOL    HW217106   4.182   2.124   8.241 -0.3228  1.7125 -0.4980
 1825SOL     OW17107   4.102   2.292   2.916 -0.4308 -0.6185 -0.0376
 1825SOL    HW117108   4.166   2.221   2.927  0.9049  0.3995 -1.2576
 1825SOL    HW217109   4.084   2.278   2.823 -0.6540 -1.1408  0.0847
 1826SOL     OW17110   2.060   0.734   2.001  0.0008  0.9907 -0.3431
 1826SOL    HW117111   1.976   0.712   2.041 -0.7607  2.2055 -1.2795
 1826SOL    HW217112   2.095   0.803   2.056  2.6723  0.4006 -1.3120
 1827SOL     OW17113   0.548   4.409   1.982  0.7566 -0.3146 -0.3370
 1827SOL    HW117114   0.583   4.440   2.066  2.2496 -1.7235 -0.4338
 1827SOL    HW217115   0.542   4.314   1.991 -1.4130 -0.1639 -0.3825
 1828SOL     OW17116   2.041   4.181  12.578 -0.0052 -0.1668 -0.1515
 1828SOL    HW117117   2.004   4.204  12.663  1.6209  1.4340  0.1329
 1828SOL    HW217118   2.117   4.239  12.570  0.7927 -1.5364 -2.6370
 1829SOL     OW17119   1.524   1.271  13.389 -0.0421 -0.4223  0.8540
 1829SOL    HW117120   1.438   1.259  13.348 -0.5128 -1.1936  2.0508
 1829SOL    HW217121   1.512   1.283  13.483 -0.8693  0.4025  0.6426
 1830SOL     OW17122   1.718   1.590   0.213  0.3727 -0.0545  0.0056
 1830SOL    HW117123   1.755   1.561   0.129 -0.6662 -0.5820 -0.2640
 1830SOL    HW217124   1.740   1.683   0.211  1.3524 -0.3173 -1.6481
 1831SOL     OW17125   4.261   1.080   2.799 -0.0427 -0.0721  0.2080
 1831SOL    HW117126   4.355   1.098   2.799  0.0611 -0.6208 -0.8085
 1831SOL    HW217127   4.257   0.998   2.750 -0.8311 -0.2040  0.4993
 1832SOL     OW17128   1.987   0.287   4.777 -0.1291  0.1293  1.4481
 1832SOL    HW117129   1.982   0.270   4.683 -0.1592 -1.7495  1.7911
 1832SOL    HW217130   2.081   0.294   4.790 -0.2465  2.8385  0.9142
 1833SOL     OW17131   1.150   3.827   5.570 -0.0782 -0.3161  0.2379
 1833SOL    HW117132   1.197   3.879   5.636 -0.0931 -1.9224  1.5208
 1833SOL    HW217133   1.085   3.887   5.533  2.0956  0.3159 -2.5802
 1834SOL     OW17134   1.021   1.370   8.408  0.6310 -0.3555 -0.2648
 1834SOL    HW117135   0.926   1.362   8.419  0.9970  0.2631  3.2601
 1834SOL    HW217136   1.046   1.286   8.371 -1.7803 -0.6814 -1.1787
 1835SOL     OW17137   0.183   3.374   8.383  1.0770  0.3304 -0.2577
 1835SOL    HW117138   0.172   3.295   8.437 -0.9326  0.6656 -0.2059
 1835SOL    HW217139   0.171   3.442   8.449 -0.9560 -1.2584  1.0253
 1836SOL     OW17140   3.272   3.596  16.010  0.3049  0.4102  0.2552
 1836SOL    HW117141   3.269   3.666  15.945 -0.4865 -1.0571 -1.2847
 1836SOL    HW217142   3.190   3.595  16.059  0.2089  3.8225  0.1215
 1837SOL     OW17143   2.823   1.148  11.288  0.3078 -0.0759 -0.0865
 1837SOL    HW117144   2.911   1.176  11.311  0.1698 -0.8641  1.4125
 1837SOL    HW217145   2.805   1.076  11.349  0.0991  0.0800  0.0357
 1838SOL     OW17146   2.028   3.051   6.048  0.2072  0.4409  0.2833
 1838SOL    HW117147   1.981   3.131   6.021  1.0630  0.5041 -0.9988
 1838SOL    HW217148   2.115   3.086   6.066 -0.3820  1.4620  1.2263
 1839SOL     OW17149   4.209   1.274   4.531  0.9809  0.1196  0.0251
 1839SOL    HW117150   4.115   1.273   4.549  0.5838  1.1611 -1.9228
 1839SOL    HW217151   4.249   1.339   4.588  1.3038  1.3395 -1.5849
 1840SOL     OW17152   4.452   0.008   5.760  0.0470  0.2976 -0.1352
 1840SOL    HW117153   4.523   0.065   5.730 -0.0197  0.7447  0.5515
 1840SOL    HW217154   4.399   0.083   5.786  0.8711  0.7377  0.2738
 1841SOL     OW17155   1.854   3.525  16.634  0.5969  0.5186 -0.2177
 1841SOL    HW117156   1.885   3.437  16.612  1.4719  0.7949 -0.0816
 1841SOL    HW217157   1.939   3.568  16.648  1.2830 -1.5930  1.9718
 1842SOL     OW17158   2.557   0.719  13.073  0.4452  0.3140  0.0965
 1842SOL    HW117159   2.465   0.727  13.049  0.2787 -0.4572  0.4932
 1842SOL    HW217160   2.541   0.728  13.167 -0.2951 -0.3658  0.0283
 1843SOL     OW17161   4.338   1.190  11.951  0.0103  0.6603  1.3108
 1843SOL    HW117162   4.433   1.187  11.940 -0.4584 -0.3887 -2.3631
 1843SOL    HW217163   4.306   1.120  11.895 -1.5853 -0.0951  3.1643
 1844SOL     OW17164   2.271   2.929   4.018 -0.3444  0.0035 -0.6314
 1844SOL    HW117165   2.180   2.899   4.023 -0.1232 -0.7291 -0.8883
 1844SOL    HW217166   2.269   2.993   3.947  0.2553 -1.8099 -2.2762
 1845SOL     OW17167   4.075   3.994   5.851 -0.1414  0.1140  0.6381
 1845SOL    HW117168   4.162   4.011   5.813 -1.1484  1.4272 -1.0622
 1845SOL    HW217169   4.066   4.073   5.903 -0.6129  1.2234 -1.1296
 1846SOL     OW17170   0.301   2.693  10.937  0.7636  0.0872  0.3412
 1846SOL    HW117171   0.393   2.668  10.945  0.9790  0.3804 -1.1209
 1846SOL    HW217172   0.264   2.617  10.982 -1.1204  0.6524 -0.2518
 1847SOL     OW17173   4.563   0.134   7.552 -0.3777  0.0540 -0.5942
 1847SOL    HW117174   4.570   0.053   7.602 -1.8060 -0.0645 -0.5921
 1847SOL    HW217175   4.545   0.100   7.464 -2.7518 -1.2041  0.3746
 1848SOL     OW17176   4.194   1.349  15.588 -0.0137 -0.4540  0.2883
 1848SOL    HW117177   4.285   1.326  15.608  0.3703  0.3734 -0.4848
 1848SOL    HW217178   4.188   1.445  15.589 -0.0387 -0.4407 -0.7549
 1849SOL     OW17179   0.381   3.850   4.737  0.7807  0.4184  0.1592
 1849SOL    HW117180   0.459   3.882   4.691  2.1253 -1.1826  1.3432
 1849SOL    HW217181   0.425   3.804   4.808  0.9591 -1.5475 -1.2318
 1850SOL     OW17182   3.699   3.906   2.879  0.0108  0.1643 -0.7077
 1850SOL    HW117183   3.786   3.891   2.917 -0.0206  2.2011  0.1741
 1850SOL    HW217184   3.669   3.974   2.940 -2.4189 -1.0244 -0.6022
 1851SOL     OW17185   4.475   0.622  17.346  0.1682 -0.0646  0.4630
 1851SOL    HW117186   4.443   0.582  17.265  0.6874  0.0454  0.2084
 1851SOL    HW217187   4.449   0.549  17.402 -0.0715 -2.2109 -2.4514
 1852SOL     OW17188   3.185   4.456  16.603 -0.0993 -0.0086 -0.1271
 1852SOL    HW117189   3.157   4.488  16.689  1.2507 -0.2469  0.4008
 1852SOL    HW217190   3.186   4.363  16.626 -1.8946 -0.2005 -0.8005
 1853SOL     OW17191   2.264   1.880  17.557  0.1223  0.0378  0.1677
 1853SOL    HW117192   2.204   1.877  17.631  1.3382  1.1866  1.1989
 1853SOL    HW217193   2.335   1.850  17.613 -0.4105 -1.4842  0.0312
 1854SOL     OW17194   4.076   2.773   9.885 -0.3578 -0.6468  0.3570
 1854SOL    HW117195   4.141   2.819   9.831 -0.9426 -0.3813 -0.1335
 1854SOL    HW217196   4.054   2.837   9.952 -0.0991  0.5429 -0.6943
 1855SOL     OW17197   4.628   4.038   1.310 -0.2698  0.1902  0.2440
 1855SOL    HW117198   4.668   4.123   1.296  0.7547 -0.5814 -1.6062
 1855SOL    HW217199   4.550   4.054   1.257 -1.2740  1.3072  2.0583
 1856SOL     OW17200   3.701   1.121   7.007 -0.3224  0.5033  0.1345
 1856SOL    HW117201   3.744   1.197   6.968  0.0525  1.5603  2.6313
 1856SOL    HW217202   3.775   1.065   7.030 -0.3516 -0.2226 -1.5515
 1857SOL     OW17203   0.576   3.094   3.885 -0.1113 -0.4637  0.3204
 1857SOL    HW117204   0.578   3.133   3.973  3.2711 -0.5736  0.3021
 1857SOL    HW217205   0.551   3.165   3.827  2.2348  1.1189  1.2660
 1858SOL     OW17206   1.019   0.030  14.691  0.1764  0.0207 -0.0873
 1858SOL    HW117207   1.081   0.019  14.763 -0.0398  0.3833  0.1531
 1858SOL    HW217208   0.955   0.094  14.723  0.6791  0.3473  0.2501
 1859SOL     OW17209   3.286   2.993  16.813  0.5863  0.5717 -0.7095
 1859SOL    HW117210   3.216   2.950  16.863  0.0583 -0.0446 -1.9759
 1859SOL    HW217211   3.250   3.082  16.812 -2.3900 -0.6215  0.5266
 1860SOL     OW17212   0.658   4.292   5.560  0.0642  0.7677  0.1673
 1860SOL    HW117213   0.710   4.354   5.610  1.7752 -0.0772 -0.5681
 1860SOL    HW217214   0.660   4.304   5.465  0.7295 -1.0164 -0.0497
 1861SOL     OW17215   2.314   4.219   7.349  0.3655 -0.1822 -0.4392
 1861SOL    HW117216   2.319   4.130   7.382  1.3365  0.2509  0.5771
 1861SOL    HW217217   2.233   4.257   7.383  1.0192  1.0821 -0.3047
 1862SOL     OW17218   2.454   4.200   1.504  0.2484  0.3661 -0.2370
 1862SOL    HW117219   2.545   4.173   1.490  1.1246  2.7130  0.8572
 1862SOL    HW217220   2.447   4.158   1.590 -1.8307 -2.8251 -2.0019
 1863SOL     OW17221   1.567   2.673   2.283  0.0374 -0.0562 -0.3887
 1863SOL    HW117222   1.477   2.658   2.311 -0.8207  0.7553 -2.6927
 1863SOL    HW217223   1.612   2.681   2.368  1.3867 -2.2302 -0.8910
 1864SOL     OW17224   3.672   1.555   2.572  0.1758 -0.3202  0.1080
 1864SOL    HW117225   3.643   1.518   2.489  1.9617  0.9566 -1.0900
 1864SOL    HW217226   3.683   1.649   2.559 -1.8036 -0.0960  0.0282
 1865SOL     OW17227   2.633   4.175   6.136 -0.2577  0.8717  0.1843
 1865SOL    HW117228   2.606   4.084   6.142 -0.2230  0.8834  0.5324
 1865SOL    HW217229   2.583   4.213   6.208 -1.7253  1.0673 -0.9282
 1866SOL     OW17230   0.292   1.154   3.226  0.5675  0.0397  0.2379
 1866SOL    HW117231   0.240   1.173   3.148  3.3264  0.7755 -1.4528
 1866SOL    HW217232   0.234   1.175   3.299 -0.4103 -3.1565  0.4054
 1867SOL     OW17233   4.155   2.401   6.597 -0.6162  0.1545  0.5984
 1867SOL    HW117234   4.076   2.455   6.596  0.0190  1.0403 -2.3426
 1867SOL    HW217235   4.198   2.427   6.679 -1.3861 -0.8612  1.3227
 1868SOL     OW17236   1.878   4.168   4.113  0.1094  0.0101  0.1609
 1868SOL    HW117237   1.899   4.227   4.041 -2.1656  1.5025  0.7123
 1868SOL    HW217238   1.863   4.092   4.058  2.8825 -0.9677  0.7754
 1869SOL     OW17239   3.244   2.610   2.851 -0.7000 -0.4098  0.2408
 1869SOL    HW117240   3.333   2.578   2.859 -1.1939 -2.0384 -0.8471
 1869SOL    HW217241   3.261   2.695   2.810 -4.4250 -0.8899 -2.3830
 1870SOL     OW17242   3.070   4.132  14.365 -0.4012  0.0212  0.3963
 1870SOL    HW117243   3.064   4.182  14.284 -0.3729 -0.6757 -0.0387
 1870SOL    HW217244   3.031   4.047  14.344  0.9541 -0.1906 -1.2548
 1871SOL     OW17245   4.217   2.434   3.888  0.5124  0.3174  0.2172
 1871SOL    HW117246   4.140   2.483   3.859 -0.3753 -0.2933  1.6013
 1871SOL    HW217247   4.187   2.345   3.871  0.3260  0.4486 -0.1305
 1872SOL     OW17248   1.996   0.295   2.158 -0.6879  0.3143 -0.1926
 1872SOL    HW117249   1.903   0.274   2.165 -0.7765  1.3215  1.5939
 1872SOL    HW217250   1.998   0.389   2.176 -0.0440 -0.3583  3.1684
 1873SOL     OW17251   1.984   3.820   8.865  0.5620 -1.0158 -0.2152
 1873SOL    HW117252   1.916   3.880   8.895  0.8892  0.0984 -1.6806
 1873SOL    HW217253   2.066   3.861   8.892 -0.4419  0.2437  0.9002
 1874SOL     OW17254   0.458   1.109   6.096 -0.3398  0.1408 -0.3403
 1874SOL    HW117255   0.390   1.047   6.067  0.2087 -0.4357 -0.4076
 1874SOL    HW217256   0.447   1.098   6.190  1.8347 -2.9478 -0.4552
 1875SOL     OW17257   3.624   2.356  17.370  0.1607 -0.1666 -0.6447
 1875SOL    HW117258   3.653   2.364  17.461 -0.3495  1.2620 -0.6134
 1875SOL    HW217259   3.529   2.350  17.380 -0.0581 -0.0179 -2.8257
 1876SOL     OW17260   1.737   1.128  11.811  0.4384 -0.1449 -0.0547
 1876SOL    HW117261   1.703   1.187  11.878  2.6806  1.0350  0.0636
 1876SOL    HW217262   1.663   1.150  11.754 -0.6397 -0.9874  1.0225
 1877SOL     OW17263   4.607   0.596   8.603 -0.5263 -0.5333  0.3891
 1877SOL    HW117264   4.598   0.628   8.513  1.2558  2.4660  1.2691
 1877SOL    HW217265   4.692   0.635   8.625 -0.2721 -0.8759  0.0294
 1878SOL     OW17266   0.810   2.872   8.292 -0.1409  0.0510  0.7431
 1878SOL    HW117267   0.887   2.817   8.308 -1.3463 -1.7341  0.4056
 1878SOL    HW217268   0.736   2.832   8.337 -0.6175  1.6940  1.4474
 1879SOL     OW17269   2.865   3.224   7.358 -0.7154  0.0387  0.1585
 1879SOL    HW117270   2.814   3.143   7.346  2.5193 -1.8020 -1.0741
 1879SOL    HW217271   2.810   3.274   7.298 -1.1742 -1.5951 -0.7754
 1880SOL     OW17272   0.153   4.494  12.549  0.8108 -0.0491 -0.2720
 1880SOL    HW117273   0.126   4.402  12.543 -3.5612  1.3305 -1.7431
 1880SOL    HW217274   0.133   4.514  12.457  0.5683  4.6775  0.8356
 1881SOL     OW17275   2.921   3.958   8.787  0.2557  0.8052  0.7184
 1881SOL    HW117276   2.956   4.028   8.842  2.5213  0.2630 -0.0072
 1881SOL    HW217277   2.827   3.974   8.797  0.3568  1.3561  0.7931
 1882SOL     OW17278   3.537   4.611   3.303 -0.4312  0.1700  0.3851
 1882SOL    HW117279   3.508   4.572   3.386 -1.0720  0.5487  0.3319
 1882SOL    HW217280   3.509   4.542   3.243 -1.7710  1.8012 -0.8314
 1883SOL     OW17281   2.982   2.363  13.045 -0.1730  0.1687  0.2302
 1883SOL    HW117282   2.952   2.279  13.010  2.3028 -1.0034  0.8513
 1883SOL    HW217283   2.899   2.383  13.088 -1.1639 -4.2961  0.3907
 1884SOL     OW17284   4.258   0.854   4.893  0.1316 -0.0733  0.0240
 1884SOL    HW117285   4.253   0.865   4.988  2.5215  0.6313  0.0701
 1884SOL    HW217286   4.167   0.862   4.863 -0.1351  2.6875  1.5847
 1885SOL     OW17287   1.450   1.162   9.436  0.0025  0.1850 -0.1461
 1885SOL    HW117288   1.519   1.157   9.370 -0.8870 -1.9955 -0.9193
 1885SOL    HW217289   1.475   1.241   9.484 -0.6879 -0.4959  1.3360
 1886SOL     OW17290   1.242   1.447   9.284 -0.1051  0.2246  0.0183
 1886SOL    HW117291   1.219   1.354   9.285  1.7633 -0.2475 -1.0864
 1886SOL    HW217292   1.171   1.485   9.231 -0.4575  0.5042  0.6902
 1887SOL     OW17293   3.419   3.264   3.615 -0.1309 -0.1285 -0.2032
 1887SOL    HW117294   3.346   3.262   3.678  1.2469 -4.4599  1.2101
 1887SOL    HW217295   3.478   3.330   3.653  1.7952 -1.6175 -0.6478
 1888SOL     OW17296   0.484   1.953   8.423 -0.0829  0.0954 -1.0919
 1888SOL    HW117297   0.551   1.937   8.490 -0.3271  2.5022 -0.2833
 1888SOL    HW217298   0.420   1.891   8.456 -1.6792  2.6946  0.6115
 1889SOL     OW17299   1.264   2.060   6.231 -0.1866 -0.3754  0.0753
 1889SOL    HW117300   1.262   2.105   6.315  1.6317 -1.0216  0.4697
 1889SOL    HW217301   1.235   2.129   6.171 -1.4517  0.7245  1.9472
 1890SOL     OW17302   0.198   4.179   3.870 -0.2095 -0.4769  0.9847
 1890SOL    HW117303   0.121   4.230   3.897 -0.2490  0.1343 -0.2714
 1890SOL    HW217304   0.151   4.108   3.826 -0.4484  0.1574  0.2213
 1891SOL     OW17305   0.966   4.571   3.618  0.2632 -0.1499  0.1484
 1891SOL    HW117306   0.978   4.602   3.708 -0.7274 -1.3808  0.7012
 1891SOL    HW217307   0.878   4.608   3.609 -0.3248 -1.2687  1.4059
 1892SOL     OW17308   2.378   2.508  15.126 -0.0682  0.3894  0.0603
 1892SOL    HW117309   2.284   2.502  15.146 -0.4553  4.1172 -0.5403
 1892SOL    HW217310   2.419   2.512  15.213  0.1648  1.1167 -0.0839
 1893SOL     OW17311   2.275   0.173   3.789 -0.2262  0.3291 -0.8007
 1893SOL    HW117312   2.204   0.180   3.726 -0.2315 -0.6609 -0.9063
 1893SOL    HW217313   2.236   0.098   3.834  0.1074  1.4664  1.3856
 1894SOL     OW17314   3.717   4.039  17.350  0.6774 -0.3338  0.6251
 1894SOL    HW117315   3.723   3.956  17.303  2.6573  0.3825 -0.4206
 1894SOL    HW217316   3.622   4.041  17.350  0.6604  0.2342 -3.4129
 1895SOL     OW17317   1.743   1.534   9.442  0.0723 -0.0141 -0.0086
 1895SOL    HW117318   1.743   1.542   9.346  0.8275  0.2410  0.0110
 1895SOL    HW217319   1.652   1.510   9.453 -0.1598  1.1520  0.6374
 1896SOL     OW17320   1.730   0.347  11.662 -0.0303 -0.0012 -0.1184
 1896SOL    HW117321   1.817   0.348  11.621 -0.3137 -0.4328 -0.7086
 1896SOL    HW217322   1.689   0.269  11.627  2.2049  0.6342 -4.2145
 1897SOL     OW17323   0.216   0.058   1.619  0.4925  0.2963  0.2073
 1897SOL    HW117324   0.140   0.079   1.674  0.5738  2.8534 -0.6625
 1897SOL    HW217325   0.183   4.720   1.570 -0.1137  1.2536 -0.8537
 1898SOL     OW17326   0.917   2.350   5.241 -0.1570 -0.4844  0.2178
 1898SOL    HW117327   0.870   2.384   5.165 -1.1594 -0.5398  0.8117
 1898SOL    HW217328   0.888   2.259   5.241  0.2497 -0.6106  0.3427
 1899SOL     OW17329   1.978   1.059   5.708  0.6882 -1.0263  0.1442
 1899SOL    HW117330   1.990   0.984   5.766 -1.6928 -0.9887  0.7044
 1899SOL    HW217331   1.992   1.136   5.765  2.4391  0.2507 -2.0356
 1900SOL     OW17332   0.425   1.799   3.910 -0.5608  0.1169  0.0437
 1900SOL    HW117333   0.420   1.842   3.996 -3.2444 -1.2952  0.6102
 1900SOL    HW217334   0.514   1.764   3.918 -0.4090  0.2285 -1.1647
 1901SOL     OW17335   0.818   3.668  12.517  0.3205 -0.7456  0.4545
 1901SOL    HW117336   0.840   3.598  12.456 -1.2289 -1.0161  0.2049
 1901SOL    HW217337   0.908   3.698  12.533  0.6463 -1.0184 -0.9144
 1902SOL     OW17338   0.262   2.193   8.955 -0.3308 -0.2825  0.3061
 1902SOL    HW117339   0.349   2.209   8.993 -0.9580 -0.6835  1.9273
 1902SOL    HW217340   0.284   2.162   8.867 -1.1552 -2.1742  0.7625
 1903SOL     OW17341   4.592   3.343   4.072  0.1751  0.4741  0.4954
 1903SOL    HW117342   4.503   3.376   4.064  0.4302  1.2491  0.7520
 1903SOL    HW217343   4.591   3.258   4.030 -1.3920  1.1405 -0.7935
 1904SOL     OW17344   3.403   3.048  10.658 -0.4132  0.6038 -0.2325
 1904SOL    HW117345   3.312   3.017  10.650  0.0668 -0.5457 -1.2596
 1904SOL    HW217346   3.399   3.072  10.751 -0.2690  2.4596 -0.7175
 1905SOL     OW17347   4.236   1.899  12.492 -0.1110  0.4597  0.5124
 1905SOL    HW117348   4.257   1.854  12.410  0.1344  0.1055  0.7671
 1905SOL    HW217349   4.241   1.992  12.469 -0.7745  1.0352  2.7378
 1906SOL     OW17350   0.734   0.516   5.240 -0.0747 -0.0080  0.1569
 1906SOL    HW117351   0.701   0.606   5.236  3.6062  1.2683 -1.9197
 1906SOL    HW217352   0.758   0.488   5.152 -0.9904 -0.4913  0.0710
 1907SOL     OW17353   2.364   1.638   2.234  0.5654  0.5032  0.0511
 1907SOL    HW117354   2.354   1.648   2.140 -0.1321  0.5162  0.1278
 1907SOL    HW217355   2.447   1.591   2.238 -1.5095 -3.1555 -0.2836
 1908SOL     OW17356   2.826   4.007   6.667  0.8827  0.0432 -0.1618
 1908SOL    HW117357   2.788   4.082   6.713 -1.0774 -0.1557 -1.4527
 1908SOL    HW217358   2.788   4.025   6.581 -0.5064  0.2229  0.4917
 1909SOL     OW17359   3.781   1.262   7.594 -0.3297 -0.8800 -0.4622
 1909SOL    HW117360   3.832   1.243   7.515 -0.9504  1.0654 -1.3508
 1909SOL    HW217361   3.830   1.334   7.633 -0.0222 -1.6802  0.6190
 1910SOL     OW17362   0.578   2.564   4.948  0.2743 -0.2919 -0.3256
 1910SOL    HW117363   0.552   2.476   4.922  0.6133 -0.8814  1.3632
 1910SOL    HW217364   0.670   2.553   4.969  0.7598  2.2745 -1.0332
 1911SOL     OW17365   3.263   1.867   7.980 -0.1733 -0.3377 -0.3189
 1911SOL    HW117366   3.169   1.859   7.964 -0.2777  0.0893  0.0747
 1911SOL    HW217367   3.297   1.874   7.891  1.0564  1.6676  0.2978
 1912SOL     OW17368   1.485   1.123   6.989 -0.2961 -0.8020 -0.2076
 1912SOL    HW117369   1.394   1.108   7.014  0.4150 -1.4001  2.0010
 1912SOL    HW217370   1.478   1.200   6.932 -1.2849 -0.6121  0.1710
 1913SOL     OW17371   1.579   1.014  11.248  0.1709 -0.0263  0.1334
 1913SOL    HW117372   1.530   0.949  11.298  0.7802  0.1362  0.9517
 1913SOL    HW217373   1.644   0.955  11.211 -0.2136  0.5615 -1.4673
 1914SOL     OW17374   4.131   4.210  11.761  0.2336 -0.3410 -0.1885
 1914SOL    HW117375   4.075   4.288  11.765  0.1038 -0.3546 -1.7960
 1914SOL    HW217376   4.194   4.244  11.825 -1.4492  2.3425  0.0521
 1915SOL     OW17377   0.658   0.371   5.689  0.1083  0.3338  0.3805
 1915SOL    HW117378   0.745   0.332   5.688 -0.7504 -1.4544 -3.0072
 1915SOL    HW217379   0.631   0.333   5.605  3.3547 -1.3701  0.1294
 1916SOL     OW17380   1.486   1.440   7.101 -0.2539  0.4161 -0.1342
 1916SOL    HW117381   1.564   1.431   7.157  0.1362  3.6296 -0.1700
 1916SOL    HW217382   1.418   1.458   7.166 -0.7075 -2.6883  0.2859
 1917SOL     OW17383   2.367   2.663  13.525 -0.2997  0.6520 -0.2249
 1917SOL    HW117384   2.350   2.574  13.495 -1.2065  0.9507 -0.5870
 1917SOL    HW217385   2.463   2.665  13.527 -0.3414  0.1499  1.9520
 1918SOL     OW17386   3.705   1.556   4.431  0.4700  0.1311 -0.5038
 1918SOL    HW117387   3.692   1.650   4.420  0.2570 -0.0859 -1.9963
 1918SOL    HW217388   3.615   1.528   4.447  0.0158  2.3600  0.8683
 1919SOL     OW17389   2.233   4.583   7.465  0.1499 -0.0436  0.3991
 1919SOL    HW117390   2.173   4.637   7.414 -1.4955 -0.5577  1.7780
 1919SOL    HW217391   2.289   4.647   7.509  1.1094  0.6228 -1.7902
 1920SOL     OW17392   2.438   2.269   1.768  0.2220  0.1866  0.0296
 1920SOL    HW117393   2.476   2.304   1.848 -1.0004 -0.6683  0.9728
 1920SOL    HW217394   2.362   2.325   1.752 -1.1114 -1.7772 -0.4307
 1921SOL     OW17395   4.405   4.194   6.203  0.7345 -0.3332  0.3227
 1921SOL    HW117396   4.400   4.264   6.268  0.7957  1.5933 -1.7472
 1921SOL    HW217397   4.465   4.236   6.141  1.2062 -2.6893 -0.8372
 1922SOL     OW17398   1.970   4.712   9.499  0.1353  0.1384 -0.0885
 1922SOL    HW117399   2.027   4.653   9.450  0.7113  1.6189 -1.1965
 1922SOL    HW217400   1.999   0.057   9.460  1.3805  0.8744  2.3820
 1923SOL     OW17401   3.754   3.662   7.186 -0.3832 -0.2408 -0.0192
 1923SOL    HW117402   3.662   3.666   7.211 -0.6703  0.9961 -1.2774
 1923SOL    HW217403   3.755   3.598   7.114  1.3727 -0.3274  0.0786
 1924SOL     OW17404   0.926   3.757   6.416  0.2471  0.1193  0.2819
 1924SOL    HW117405   0.905   3.794   6.501 -0.9947 -1.3469  0.6093
 1924SOL    HW217406   0.975   3.683   6.453  0.2224 -0.5840 -1.0730
 1925SOL     OW17407   1.175   3.053   9.924  0.0081 -0.4798 -0.0690
 1925SOL    HW117408   1.256   3.092   9.893 -0.6493  1.2773  0.4563
 1925SOL    HW217409   1.119   3.128   9.907  0.6279 -0.1175 -0.4935
 1926SOL     OW17410   2.977   0.377   4.652  0.0669  0.4027 -0.0529
 1926SOL    HW117411   3.070   0.396   4.666 -0.3082  0.9779  1.6380
 1926SOL    HW217412   2.951   0.360   4.742  1.0066 -0.3105  0.0790
 1927SOL     OW17413   4.100   2.340   1.836 -0.0928 -0.2524  0.0900
 1927SOL    HW117414   4.046   2.280   1.887  0.0308 -0.4809 -0.0527
 1927SOL    HW217415   4.170   2.281   1.807  0.0747 -0.5897  1.1946
 1928SOL     OW17416   0.756   2.106  16.244  0.3219  0.8834 -0.2164
 1928SOL    HW117417   0.740   2.035  16.306  2.2535  0.9614  0.3623
 1928SOL    HW217418   0.747   2.181  16.302 -2.0129  0.1091  0.4306
 1929SOL     OW17419   4.530   0.339   5.509  0.0076  0.2911  0.0875
 1929SOL    HW117420   4.578   0.419   5.530 -1.0163  1.0559 -0.4905
 1929SOL    HW217421   4.438   0.364   5.517 -0.7551 -1.5730 -2.5441
 1930SOL     OW17422   0.152   1.407  11.902 -0.3798 -0.3377 -0.0111
 1930SOL    HW117423   0.154   1.403  11.997  0.3325  2.4876  0.0825
 1930SOL    HW217424   0.177   1.319  11.872 -1.6824 -1.6299  2.7640
 1931SOL     OW17425   4.330   4.112   8.621 -0.2103  0.2924  0.5229
 1931SOL    HW117426   4.386   4.151   8.554  0.5706 -1.4796  0.1293
 1931SOL    HW217427   4.378   4.133   8.701  1.5059 -3.7445  0.5742
 1932SOL     OW17428   1.897   0.719   3.597 -0.0258  0.3185  0.2801
 1932SOL    HW117429   1.934   0.748   3.513  1.1319 -1.8919  0.0192
 1932SOL    HW217430   1.854   0.797   3.629 -2.3825 -2.2569  3.3653
 1933SOL     OW17431   3.446   4.371   3.201  0.4979  0.1705  0.1270
 1933SOL    HW117432   3.444   4.340   3.111 -0.9550 -1.0943  0.5820
 1933SOL    HW217433   3.514   4.321   3.246 -0.0739  0.0142  0.8406
 1934SOL     OW17434   4.718   3.397   3.372 -0.0330  0.1364  0.3032
 1934SOL    HW117435   0.039   3.464   3.409 -1.3013  1.0748  0.5841
 1934SOL    HW217436   0.014   3.382   3.283  0.1431  1.5021  0.1306
 1935SOL     OW17437   2.148   0.319   5.906 -0.4302  0.3379  0.4658
 1935SOL    HW117438   2.077   0.319   5.842  1.5092  2.0775 -1.7000
 1935SOL    HW217439   2.186   0.404   5.880  1.3148 -0.7215 -0.4543
 1936SOL     OW17440   2.764   0.925   2.002  0.0579 -0.4461  0.1052
 1936SOL    HW117441   2.670   0.910   2.001  0.1348 -0.8816 -0.4788
 1936SOL    HW217442   2.762   1.013   1.965  1.6074 -0.4959 -0.0958
 1937SOL     OW17443   0.892   0.733  12.558  0.1786 -0.0655 -0.1816
 1937SOL    HW117444   0.869   0.815  12.515 -0.1025  0.6332  1.3280
 1937SOL    HW217445   0.861   0.747  12.647 -1.4238 -0.3295 -0.6832
 1938SOL     OW17446   2.966   4.297   6.728  0.0600 -0.5322  0.0763
 1938SOL    HW117447   2.977   4.257   6.642  1.3698 -0.1969  0.0893
 1938SOL    HW217448   2.879   4.263   6.748 -0.9537  1.2108 -1.4843
 1939SOL     OW17449   4.683   2.536  15.634 -0.2676  0.0235  1.0168
 1939SOL    HW117450   4.718   2.610  15.683  0.0505  0.6959 -0.2317
 1939SOL    HW217451   4.704   2.552  15.543 -2.3198 -4.4468 -0.2622
 1940SOL     OW17452   2.138   0.455   1.162  0.4007  0.3504 -0.3755
 1940SOL    HW117453   2.109   0.364   1.169  0.6719  0.1411 -1.9496
 1940SOL    HW217454   2.208   0.445   1.097  0.2303 -0.1151 -0.4903
 1941SOL     OW17455   1.124   4.407  12.451 -0.3934  0.1045  0.1921
 1941SOL    HW117456   1.052   4.439  12.396 -0.0408  1.1476  0.3323
 1941SOL    HW217457   1.128   4.318  12.417  1.1842  0.3764 -0.3454
 1942SOL     OW17458   3.209   2.642  16.033  0.2214 -0.0463  0.2849
 1942SOL    HW117459   3.253   2.646  16.117  2.6405 -1.3497 -0.9420
 1942SOL    HW217460   3.130   2.694  16.053  0.9964  0.9931  0.6323
 1943SOL     OW17461   2.336   1.877   9.438  0.2510  0.5590  0.0763
 1943SOL    HW117462   2.249   1.877   9.397  0.6080  1.3570 -0.6856
 1943SOL    HW217463   2.351   1.970   9.420  1.4087  0.5612  1.0729
 1944SOL     OW17464   3.962   3.570   2.611  0.1183 -0.2128 -0.5822
 1944SOL    HW117465   4.022   3.614   2.672  1.5000 -1.9127 -0.7344
 1944SOL    HW217466   4.003   3.484   2.607  1.2212  0.3144 -0.6724
 1945SOL     OW17467   4.343   0.257   4.186  0.3546 -0.5267 -0.3261
 1945SOL    HW117468   4.422   0.305   4.161  1.7744 -1.0309  3.1713
 1945SOL    HW217469   4.384   0.173   4.206  0.0891 -0.9061 -1.3444
 1946SOL     OW17470   4.364   0.831  12.015 -0.2536  0.1577 -0.2817
 1946SOL    HW117471   4.425   0.763  12.043 -2.3933 -1.7516 -0.2389
 1946SOL    HW217472   4.377   0.848  11.922  1.0203  1.1263  0.0761
 1947SOL     OW17473   3.200   0.687   7.568 -0.5311  0.3175 -0.1552
 1947SOL    HW117474   3.155   0.604   7.551 -1.0135  0.3883  0.7506
 1947SOL    HW217475   3.133   0.746   7.532 -2.4144 -2.2694 -0.9197
 1948SOL     OW17476   3.882   2.691   8.153 -1.0063 -0.6036 -0.0389
 1948SOL    HW117477   3.823   2.643   8.095 -1.0905 -2.1841  1.3765
 1948SOL    HW217478   3.948   2.622   8.149 -0.8144 -0.3720 -0.9918
 1949SOL     OW17479   0.128   1.510  14.105 -0.2223 -0.5274  0.3892
 1949SOL    HW117480   0.172   1.540  14.025 -2.9842  1.9060 -0.2096
 1949SOL    HW217481   0.204   1.508  14.164 -0.6142  1.0353  0.9541
 1950SOL     OW17482   3.223   4.312   6.114  0.2723 -0.0203  0.2457
 1950SOL    HW117483   3.167   4.331   6.189  0.0644 -2.3084  0.6563
 1950SOL    HW217484   3.161   4.355   6.055  1.1957  0.6898 -0.2115
 1951SOL     OW17485   2.788   1.106   6.397 -0.4318 -0.1035  0.8687
 1951SOL    HW117486   2.775   1.149   6.313 -1.1310  1.2779  1.6848
 1951SOL    HW217487   2.730   1.153   6.458 -2.1346  0.8578 -1.5039
 1952SOL     OW17488   4.193   4.199   2.640 -0.3572 -0.2523  0.4334
 1952SOL    HW117489   4.168   4.285   2.607  1.0390 -0.1148 -0.2394
 1952SOL    HW217490   4.184   4.205   2.735  0.1441 -1.1202  0.5380
 1953SOL     OW17491   1.179   3.140   5.780 -0.0966 -0.3699 -0.7273
 1953SOL    HW117492   1.247   3.080   5.809  0.6077  0.6902 -0.1821
 1953SOL    HW217493   1.167   3.199   5.854  1.2605 -3.3968  1.8616
 1954SOL     OW17494   0.879   1.634   5.209  0.0757 -0.4449  0.1304
 1954SOL    HW117495   0.911   1.546   5.189  0.2175 -0.2119 -0.6388
 1954SOL    HW217496   0.946   1.697   5.185 -1.8111  1.2606 -0.6242
 1955SOL     OW17497   0.631   1.949  17.641 -0.1654 -0.4817 -0.3185
 1955SOL    HW117498   0.542   1.983  17.632 -0.3432 -1.4387 -2.1771
 1955SOL    HW217499   0.678   2.025  17.675 -0.2814  0.2699 -1.8379
 1956SOL     OW17500   1.879   0.920   2.363  0.3750  0.0201  0.9211
 1956SOL    HW117501   1.785   0.942   2.358  0.0817 -1.3834  0.2033
 1956SOL    HW217502   1.919   1.005   2.347  0.6810 -0.2699  0.1341
 1957SOL     OW17503   0.488   2.620   8.947 -0.0696 -0.5695  0.5939
 1957SOL    HW117504   0.394   2.605   8.940 -0.1134 -0.8937  1.8799
 1957SOL    HW217505   0.506   2.601   9.039 -0.7237  1.8481  1.2202
 1958SOL     OW17506   0.811   0.417   3.060 -0.0468 -0.6770  0.1730
 1958SOL    HW117507   0.803   0.426   3.155 -0.7129  0.3161  0.0233
 1958SOL    HW217508   0.877   0.484   3.045  0.0772 -1.5049 -2.8408
 1959SOL     OW17509   0.735   3.659   2.710 -0.1026 -0.1884 -0.2347
 1959SOL    HW117510   0.789   3.591   2.752 -0.2004  0.7403  1.4043
 1959SOL    HW217511   0.678   3.690   2.781 -0.4658 -2.1084  0.3108
 1960SOL     OW17512   4.724   0.360   2.842  0.2188 -0.4814  0.3895
 1960SOL    HW117513   0.033   0.347   2.925 -0.3493 -1.5273  0.5331
 1960SOL    HW217514   0.053   0.375   2.774 -0.5015  1.6607  0.1703
 1961SOL     OW17515   0.778   2.309   8.978 -0.1869 -0.1126  0.3918
 1961SOL    HW117516   0.814   2.386   8.934 -1.0587  0.0370 -0.0674
 1961SOL    HW217517   0.859   2.270   9.012  0.0347  0.2190  0.2479
 1962SOL     OW17518   3.653   1.414   6.159 -0.1648 -0.0248 -0.3072
 1962SOL    HW117519   3.635   1.498   6.118 -2.5603 -1.6504 -2.5718
 1962SOL    HW217520   3.566   1.375   6.170  0.5640 -0.7944  2.7072
 1963SOL     OW17521   1.339   3.437   2.557  0.4012 -0.0306  0.3265
 1963SOL    HW117522   1.285   3.361   2.578 -0.0328  0.5370  1.2688
 1963SOL    HW217523   1.426   3.409   2.587  0.3229  0.6462  1.1982
 1964SOL     OW17524   2.804   3.643   8.954 -0.3734  0.2061 -0.2993
 1964SOL    HW117525   2.762   3.559   8.936 -3.4062  1.6899 -0.2200
 1964SOL    HW217526   2.887   3.629   8.910 -0.9683  2.5504 -2.2062
 1965SOL     OW17527   1.944   2.261   7.767  0.5719  0.0428 -0.3189
 1965SOL    HW117528   1.995   2.340   7.784 -0.7856  0.8638 -0.1603
 1965SOL    HW217529   2.005   2.192   7.794  0.1482  1.0532  3.2025
 1966SOL     OW17530   3.706   3.282   9.078 -0.1279 -0.2745 -0.6067
 1966SOL    HW117531   3.687   3.263   8.987  2.1222 -0.3849 -1.0469
 1966SOL    HW217532   3.678   3.200   9.120  0.3167 -0.9801 -1.6975
 1967SOL     OW17533   0.954   4.613   6.645  0.0061  0.2979  0.4958
 1967SOL    HW117534   0.988   4.596   6.557  1.2999 -0.7846  1.2133
 1967SOL    HW217535   0.864   4.593   6.618 -0.5249  3.0470  0.2232
 1968SOL     OW17536   1.679   2.807  13.180 -0.5082  0.1802 -0.0506
 1968SOL    HW117537   1.690   2.768  13.266 -0.5478  2.2217  0.8958
 1968SOL    HW217538   1.724   2.888  13.203  1.1148 -0.8548  0.3946
 1969SOL     OW17539   3.500   2.862   2.464 -0.2210 -0.9214 -0.4995
 1969SOL    HW117540   3.574   2.834   2.518 -1.5001 -1.3423  1.0376
 1969SOL    HW217541   3.557   2.882   2.390 -0.8628 -0.9959 -1.0207
 1970SOL     OW17542   3.746   2.169   7.419 -0.0952  0.0675 -0.1921
 1970SOL    HW117543   3.776   2.151   7.329  2.5463  0.8082  0.5263
 1970SOL    HW217544   3.827   2.188   7.467 -3.0850  0.3218  4.6888
 1971SOL     OW17545   2.398   1.935   3.186 -0.2731  0.0810  0.6397
 1971SOL    HW117546   2.376   1.848   3.218  0.1495 -0.3564 -0.2407
 1971SOL    HW217547   2.402   1.930   3.090 -2.1470  0.5655  0.5213
 1972SOL     OW17548   3.736   3.538  13.862  0.7760  0.1738  0.0877
 1972SOL    HW117549   3.679   3.546  13.938 -0.1875 -1.3507 -0.4621
 1972SOL    HW217550   3.776   3.455  13.889 -0.7494 -0.7711 -0.5916
 1973SOL     OW17551   0.108   2.296  11.341  0.1177  0.4235  0.5488
 1973SOL    HW117552   0.086   2.343  11.422  2.4314  0.1737  1.3111
 1973SOL    HW217553   0.108   2.205  11.372  0.0387 -0.1682 -1.2176
 1974SOL     OW17554   0.333   2.097  11.369 -0.3140 -0.3082 -0.6173
 1974SOL    HW117555   0.286   2.128  11.447 -0.7101 -0.7156 -0.6945
 1974SOL    HW217556   0.422   2.111  11.402  0.0295 -1.0084 -1.2613
 1975SOL     OW17557   3.321   4.520   4.303  0.3697 -0.3613 -0.0237
 1975SOL    HW117558   3.288   4.609   4.292  1.7050 -0.0478 -1.5860
 1975SOL    HW217559   3.258   4.466   4.255 -0.3820  0.3763  0.1499
 1976SOL     OW17560   0.057   0.194   7.724 -0.1427  0.1314 -0.5295
 1976SOL    HW117561   4.733   0.224   7.656  1.5326  0.9587 -1.6562
 1976SOL    HW217562   4.733   0.149   7.783  0.5667 -1.0078 -0.6557
 1977SOL     OW17563   1.734   3.828  13.381 -0.3871  0.6422  0.0027
 1977SOL    HW117564   1.795   3.839  13.309  2.2086  0.0258  2.1128
 1977SOL    HW217565   1.729   3.733  13.392  0.8118  0.7010  1.0836
 1978SOL     OW17566   2.580   0.042   5.767  0.5772  0.4233 -0.0936
 1978SOL    HW117567   2.574   0.048   5.863  1.8837 -0.9926  0.0764
 1978SOL    HW217568   2.501   0.089   5.740  1.5483  1.6193 -0.8193
 1979SOL     OW17569   1.640   2.251   2.568  0.5704  0.3807  0.0941
 1979SOL    HW117570   1.599   2.334   2.589 -2.6225 -1.0988 -0.3919
 1979SOL    HW217571   1.603   2.190   2.631  2.5536  1.0917  1.9545
 1980SOL     OW17572   1.079   4.231   9.715  0.9059 -0.0764  0.3450
 1980SOL    HW117573   0.989   4.236   9.684  1.6201  0.0216 -1.7196
 1980SOL    HW217574   1.083   4.150   9.765  0.6980  1.0734  2.2369
 1981SOL     OW17575   1.924   2.329  11.457 -0.1639 -0.1226 -0.1430
 1981SOL    HW117576   1.954   2.407  11.410 -0.1984 -1.7360 -2.8236
 1981SOL    HW217577   1.908   2.256  11.398 -0.9517  0.9612 -1.2661
 1982SOL     OW17578   3.577   3.056  10.002  0.2801 -0.6462 -0.2805
 1982SOL    HW117579   3.605   2.965  10.007  1.1192 -0.3033  1.3633
 1982SOL    HW217580   3.494   3.050  10.049  0.6181  0.5672  0.4790
 1983SOL     OW17581   2.889   2.407   5.792  0.0679  0.2007 -0.0316
 1983SOL    HW117582   2.980   2.396   5.819 -0.2010  0.2059  0.8870
 1983SOL    HW217583   2.868   2.485   5.844  0.0468  0.4442 -0.4068
 1984SOL     OW17584   2.344   3.308   2.555 -0.1675  0.0296 -0.3622
 1984SOL    HW117585   2.393   3.227   2.566  1.1706  0.8523 -0.1778
 1984SOL    HW217586   2.353   3.321   2.460  0.1957 -4.5244 -0.9273
 1985SOL     OW17587   4.663   3.294   6.841  0.3733 -0.4734  0.3301
 1985SOL    HW117588   4.670   3.346   6.761 -1.9478  0.4494  0.7452
 1985SOL    HW217589   4.580   3.247   6.840 -0.8126  1.6527 -0.2252
 1986SOL     OW17590   4.490   1.356  10.053  0.3748  0.5688  0.3294
 1986SOL    HW117591   4.471   1.369  10.146  1.1656  2.4409  0.2127
 1986SOL    HW217592   4.473   1.261  10.048  0.6232  0.5022  0.7337
 1987SOL     OW17593   0.585   3.908   5.760  0.3552  0.1059 -0.7377
 1987SOL    HW117594   0.581   3.969   5.834 -2.8867 -0.8698 -0.1029
 1987SOL    HW217595   0.648   3.955   5.705  0.8270 -0.3779 -0.6136
 1988SOL     OW17596   4.034   2.786   2.768 -0.2808 -0.4352  0.3658
 1988SOL    HW117597   4.024   2.701   2.811 -1.8294 -0.9912 -1.1333
 1988SOL    HW217598   3.974   2.837   2.822  0.8209  0.6530  0.5831
 1989SOL     OW17599   2.972   1.455  15.196  0.1539  0.1732 -0.2680
 1989SOL    HW117600   3.066   1.437  15.200  0.0001 -0.2686  1.2830
 1989SOL    HW217601   2.958   1.478  15.104 -1.7368 -1.7255 -0.4456
 1990SOL     OW17602   4.308   3.597   6.196 -0.2449 -0.5899 -0.4106
 1990SOL    HW117603   4.348   3.580   6.111 -1.7457 -3.0823 -0.6117
 1990SOL    HW217604   4.379   3.623   6.255  0.2320  1.2161 -1.7689
 1991SOL     OW17605   1.131   0.113   3.999  0.3324 -0.1222 -0.2987
 1991SOL    HW117606   1.066   0.183   3.996 -0.1413 -0.4952  1.6223
 1991SOL    HW217607   1.213   0.159   3.982 -0.1475  0.8982  0.1360
 1992SOL     OW17608   1.997   1.300  15.912  0.4210 -0.5782  1.1644
 1992SOL    HW117609   1.967   1.340  15.994 -1.3779  0.2167  0.1203
 1992SOL    HW217610   2.085   1.334  15.896 -0.6217  2.5351  2.0337
 1993SOL     OW17611   2.339   3.263  10.894  0.0737  0.7217 -0.1039
 1993SOL    HW117612   2.286   3.343  10.891  2.0751  2.1122  2.3458
 1993SOL    HW217613   2.347   3.241  10.801 -1.8076  1.2497 -0.3980
 1994SOL     OW17614   0.152   2.787  15.104 -0.1886 -0.1167  0.0402
 1994SOL    HW117615   0.208   2.752  15.035  0.7525  0.5477  0.4613
 1994SOL    HW217616   0.111   2.716  15.153  0.0595 -0.8634 -0.8407
 1995SOL     OW17617   3.580   1.322   6.736 -0.2774 -0.6286  0.0460
 1995SOL    HW117618   3.587   1.316   6.641 -2.9798  1.1128 -0.2832
 1995SOL    HW217619   3.485   1.319   6.753 -0.0338 -0.3406  1.4684
 1996SOL     OW17620   2.084   2.339   6.119  0.4667  0.2741  0.2468
 1996SOL    HW117621   2.003   2.330   6.070 -0.1416  1.9826  0.9600
 1996SOL    HW217622   2.054   2.326   6.209 -0.0575  3.2616  0.4726
 1997SOL     OW17623   4.693   1.619   6.361 -0.3762  0.1100  0.2776
 1997SOL    HW117624   0.028   1.609   6.299 -2.3846 -1.0611 -1.8697
 1997SOL    HW217625   4.682   1.528   6.390  1.7864 -0.2514 -0.0718
 1998SOL     OW17626   1.614   3.339   2.093 -0.4366  0.5912 -0.3828
 1998SOL    HW117627   1.651   3.317   2.007 -1.2836 -0.8244 -0.3882
 1998SOL    HW217628   1.684   3.307   2.150  1.9993  0.8443 -3.2187
 1999SOL     OW17629   2.600   2.643   5.306 -0.3806 -0.3486 -0.4112
 1999SOL    HW117630   2.577   2.734   5.289  0.7536  0.2562  1.3339
 1999SOL    HW217631   2.524   2.620   5.359 -0.0025 -0.9882 -0.1462
 2000SOL     OW17632   1.658   2.606   9.957  0.6436 -0.5943  0.0357
 2000SOL    HW117633   1.578   2.561   9.932  0.8618 -0.7906 -0.3112
 2000SOL    HW217634   1.661   2.660   9.877 -1.4014  1.2920  1.2546
 2001SOL     OW17635   3.272   1.312  17.516 -0.0503  0.1798  0.2128
 2001SOL    HW117636   3.337   1.322  17.447  0.1674  0.3272  0.4374
 2001SOL    HW217637   3.283   1.384  17.578 -0.9264  1.4783 -1.1430
 2002SOL     OW17638   0.189   1.702   8.028 -0.1127  0.5573 -0.1418
 2002SOL    HW117639   0.272   1.751   8.024  0.3997 -0.1590  1.5182
 2002SOL    HW217640   0.141   1.764   8.083 -0.5589 -1.5571  1.8696
 2003SOL     OW17641   1.547   2.269   1.686  0.0789 -0.0694 -0.1802
 2003SOL    HW117642   1.642   2.255   1.689 -0.0916 -1.6517 -2.5763
 2003SOL    HW217643   1.540   2.363   1.707  1.3649  0.0154 -0.1598
 2004SOL     OW17644   3.883   0.641  16.004 -0.0773 -0.3811  0.3164
 2004SOL    HW117645   3.878   0.694  16.084  0.7964  1.0656 -0.5898
 2004SOL    HW217646   3.835   0.560  16.023 -0.0014 -0.3856  0.4899
 2005SOL     OW17647   1.374   4.553   9.926 -0.4078  0.2194  0.2073
 2005SOL    HW117648   1.290   4.520   9.892 -1.9117  0.5435  3.5829
 2005SOL    HW217649   1.420   4.561   9.842  0.1262 -0.3750  0.4461
 2006SOL     OW17650   3.635   4.043   0.367  0.1015  0.2503 -0.0403
 2006SOL    HW117651   3.706   4.101   0.394 -2.2121  1.8272  2.6585
 2006SOL    HW217652   3.596   4.084   0.290 -1.6042 -0.5199  0.4214
 2007SOL     OW17653   2.760   4.641   0.155 -0.5972 -0.0931 -0.2218
 2007SOL    HW117654   2.852   4.664   0.139 -0.6010  0.8168  1.0729
 2007SOL    HW217655   2.743   4.700   0.229  1.5263  1.1595 -0.7241
 2008SOL     OW17656   2.259   0.956   5.904 -0.2355 -0.3953 -0.3258
 2008SOL    HW117657   2.175   0.912   5.906 -0.7579  0.6139  0.1958
 2008SOL    HW217658   2.287   0.928   5.817 -1.7705 -0.8130 -0.6779
 2009SOL     OW17659   2.270   0.820  12.036 -0.6587 -0.1408  0.0393
 2009SOL    HW117660   2.283   0.838  11.943 -1.5159  3.2478  0.5983
 2009SOL    HW217661   2.359   0.832  12.069  0.0994 -0.6217 -1.8486
 2010SOL     OW17662   0.582   0.797   2.036  0.0456 -0.2537  0.8048
 2010SOL    HW117663   0.579   0.711   2.077  1.5199 -0.7259 -0.0808
 2010SOL    HW217664   0.658   0.786   1.978 -1.4385 -1.6121 -0.8761
 2011SOL     OW17665   3.399   2.897   8.078 -0.3087 -0.3328  0.4750
 2011SOL    HW117666   3.488   2.877   8.050 -0.2888  0.9155 -0.3509
 2011SOL    HW217667   3.412   2.950   8.156  0.6592 -1.7699  1.2738
 2012SOL     OW17668   3.312   3.805  17.277  0.5465  0.1682 -0.0927
 2012SOL    HW117669   3.320   3.883  17.224  0.7681  0.0465 -0.2353
 2012SOL    HW217670   3.312   3.841  17.366 -1.6179  1.0268 -0.4350
 2013SOL     OW17671   3.389   2.625   3.292  0.2429 -0.0706 -0.6730
 2013SOL    HW117672   3.472   2.613   3.246  1.1904  3.2398  0.1387
 2013SOL    HW217673   3.411   2.706   3.338 -0.0192 -0.2102 -0.3078
 2014SOL     OW17674   0.685   4.042   7.964 -0.2042 -0.2297  0.1650
 2014SOL    HW117675   0.664   3.956   7.927  1.4419 -0.0776 -1.1191
 2014SOL    HW217676   0.754   4.023   8.026  0.1422 -1.2977 -0.5452
 2015SOL     OW17677   3.050   4.229   0.426 -0.4188  0.5070 -0.0924
 2015SOL    HW117678   3.022   4.140   0.407  0.7297  0.7086 -2.6802
 2015SOL    HW217679   2.968   4.274   0.405  0.4301  2.7283  1.2248
 2016SOL     OW17680   3.583   0.729   8.432  0.5321 -0.0684 -0.3808
 2016SOL    HW117681   3.511   0.772   8.387 -0.0931 -0.5915  0.1219
 2016SOL    HW217682   3.597   0.795   8.499 -2.4527 -1.1971  1.3379
 2017SOL     OW17683   3.326   0.000   2.700 -0.2261  0.4345 -0.4926
 2017SOL    HW117684   3.289   0.030   2.784 -1.0929 -0.1725 -0.6622
 2017SOL    HW217685   3.270   0.053   2.643 -1.0376  0.1913  0.0778
 2018SOL     OW17686   3.224   3.555   2.362 -0.3625  0.3417 -0.2318
 2018SOL    HW117687   3.207   3.641   2.402  1.7371  0.3052  0.7100
 2018SOL    HW217688   3.232   3.499   2.439 -0.2181  2.9331  1.6279
 2019SOL     OW17689   3.482   0.946   6.881 -0.0936 -0.2596 -0.1771
 2019SOL    HW117690   3.529   1.019   6.920 -0.5723 -0.6262  1.0855
 2019SOL    HW217691   3.538   0.871   6.903  0.0724  0.4590  1.8985
 2020SOL     OW17692   3.720   1.408  16.445  0.0839  0.2962  0.1896
 2020SOL    HW117693   3.672   1.337  16.486  0.8267 -1.4717 -2.0277
 2020SOL    HW217694   3.737   1.386  16.353 -0.8767  0.1878  0.0451
 2021SOL     OW17695   2.755   1.279   6.152 -0.3887 -0.8095 -0.1173
 2021SOL    HW117696   2.827   1.323   6.108 -0.4591 -3.2470 -2.6723
 2021SOL    HW217697   2.718   1.224   6.083  1.6424 -1.9426 -0.3062
 2022SOL     OW17698   3.260   2.596   6.771 -0.7944 -0.2796 -0.3076
 2022SOL    HW117699   3.284   2.599   6.864  0.1874  0.4166 -0.5840
 2022SOL    HW217700   3.185   2.538   6.760  1.4938 -3.4794  0.7352
 2023SOL     OW17701   4.620   4.017   2.350 -0.8869 -0.9067  0.6087
 2023SOL    HW117702   4.564   4.006   2.274  1.8872  1.4542 -1.7779
 2023SOL    HW217703   4.561   4.068   2.406  2.1370  0.6918  2.4002
 2024SOL     OW17704   1.649   1.987   8.717 -0.6022 -0.7222  0.0507
 2024SOL    HW117705   1.699   1.954   8.791 -2.7873 -2.3826  0.8056
 2024SOL    HW217706   1.697   2.064   8.687 -1.5629  0.0141  0.4137
 2025SOL     OW17707   3.617   1.817   2.199 -0.6301 -0.3058 -0.2193
 2025SOL    HW117708   3.600   1.906   2.232  0.1371 -0.2584  0.0646
 2025SOL    HW217709   3.647   1.840   2.111  2.2738  1.9489  1.3401
 2026SOL     OW17710   2.507   4.470  11.267  0.6288 -0.0597  0.2162
 2026SOL    HW117711   2.544   4.410  11.332 -2.3365 -0.7855  1.2119
 2026SOL    HW217712   2.415   4.465  11.291  0.6014 -1.1737 -0.1361
 2027SOL     OW17713   1.939   1.440   7.806 -0.7824 -0.1080 -0.3988
 2027SOL    HW117714   1.915   1.364   7.753  1.2934 -0.4039 -0.8859
 2027SOL    HW217715   1.997   1.396   7.868 -0.7928  1.5658  0.7950
 2028SOL     OW17716   3.575   2.473  15.446 -0.5740  0.6053 -0.0298
 2028SOL    HW117717   3.660   2.456  15.406 -0.5246 -0.1512  0.3913
 2028SOL    HW217718   3.596   2.468  15.539  1.4949  1.3677 -0.4657
 2029SOL     OW17719   4.252   3.099  15.193 -0.1099  0.2576  0.1209
 2029SOL    HW117720   4.269   3.029  15.256  0.7466  1.6660  1.4421
 2029SOL    HW217721   4.193   3.064  15.127  0.0042 -0.8841  0.6212
 2030SOL     OW17722   2.935   1.053   7.578 -0.1459  0.2536 -0.1008
 2030SOL    HW117723   3.011   1.044   7.520 -0.0188  0.3019  0.0584
 2030SOL    HW217724   2.902   1.138   7.548 -0.7942  0.2928  0.7290
 2031SOL     OW17725   1.426   1.592   4.704  0.3536 -0.0984  0.8238
 2031SOL    HW117726   1.517   1.602   4.674  0.2137  0.3088  0.5343
 2031SOL    HW217727   1.434   1.586   4.799 -1.0183 -2.6672  0.7843
 2032SOL     OW17728   3.069   4.028   3.736  0.2727  0.0756 -0.2715
 2032SOL    HW117729   2.977   4.051   3.752  0.5610 -1.6315  3.9445
 2032SOL    HW217730   3.086   4.071   3.653 -0.0385  0.0318 -0.3574
 2033SOL     OW17731   1.541   0.050  11.696  0.9167 -0.2465  0.5727
 2033SOL    HW117732   1.495   0.122  11.738 -0.9818 -1.0791 -0.0909
 2033SOL    HW217733   1.475   4.718  11.707  0.3863  0.0237 -0.8736
 2034SOL     OW17734   1.635   1.898   6.680  0.0280 -0.6181 -0.1131
 2034SOL    HW117735   1.596   1.958   6.744 -0.1219 -1.2536  0.3887
 2034SOL    HW217736   1.641   1.812   6.720  0.9430 -0.1100  0.8321
 2035SOL     OW17737   3.567   1.037   4.153 -0.4138 -0.5421 -0.3472
 2035SOL    HW117738   3.587   1.055   4.061 -3.8249  1.8195 -0.6335
 2035SOL    HW217739   3.504   1.103   4.182 -0.3797 -1.6327  2.2250
 2036SOL     OW17740   2.146   2.069   5.577 -0.4292  0.1618  0.1444
 2036SOL    HW117741   2.213   2.117   5.528 -3.2314  2.3079 -1.5938
 2036SOL    HW217742   2.129   2.137   5.643  0.8987  2.9295 -2.3359
 2037SOL     OW17743   3.885   1.644   3.851 -0.5423 -0.2133 -0.3664
 2037SOL    HW117744   3.855   1.676   3.936 -1.1404 -2.6344  0.3423
 2037SOL    HW217745   3.806   1.621   3.804 -1.6962  1.8743  0.5699
 2038SOL     OW17746   1.901   3.221  14.255  0.0916 -0.6785 -0.1152
 2038SOL    HW117747   1.905   3.147  14.316 -0.8622  0.2107  1.0150
 2038SOL    HW217748   1.807   3.223  14.236 -0.1605 -0.7292  1.1780
 2039SOL     OW17749   1.005   2.722   8.002 -0.2581  0.0346  0.3289
 2039SOL    HW117750   1.041   2.798   8.048 -0.2044  0.4787 -0.4455
 2039SOL    HW217751   1.073   2.713   7.934 -1.1928 -0.0166 -0.6034
 2040SOL     OW17752   1.937   3.350   1.460 -0.5008 -1.3590  0.5233
 2040SOL    HW117753   1.946   3.426   1.402 -0.1440 -2.2382 -0.5675
 2040SOL    HW217754   1.856   3.320   1.419 -0.8414  0.5654 -0.2323
 2041SOL     OW17755   0.346   1.964   9.453 -0.6568  0.3172  0.3320
 2041SOL    HW117756   0.262   1.987   9.493 -1.5501 -1.1137 -0.7398
 2041SOL    HW217757   0.379   1.893   9.508 -0.9369  0.0583  0.1649
 2042SOL     OW17758   0.250   0.711  11.536 -0.4704 -0.5255  0.7245
 2042SOL    HW117759   0.305   0.789  11.532  1.8442 -2.1067  1.5652
 2042SOL    HW217760   0.210   0.702  11.449  2.0931  0.8814 -0.5944
 2043SOL     OW17761   3.714   1.203  15.944 -0.5364 -0.4778 -0.0375
 2043SOL    HW117762   3.657   1.179  15.872 -1.9672 -0.1157  0.9846
 2043SOL    HW217763   3.746   1.289  15.916 -0.1834 -0.4582  0.4249
 2044SOL     OW17764   4.669   1.253   6.103  0.2747 -0.6180 -0.6442
 2044SOL    HW117765   0.004   1.291   6.154  0.0750 -0.2999 -0.5967
 2044SOL    HW217766   4.642   1.339   6.070 -1.6381 -0.2473  1.8822
 2045SOL     OW17767   2.845   2.614   5.973 -0.1056 -0.0436  0.0259
 2045SOL    HW117768   2.785   2.588   6.043  2.2766 -3.0627  0.9546
 2045SOL    HW217769   2.892   2.683   6.018  0.2874 -1.3938  1.6921
 2046SOL     OW17770   2.861   1.565   2.610  0.8446 -0.8599 -0.4922
 2046SOL    HW117771   2.938   1.542   2.662  1.4497 -1.9392 -1.8538
 2046SOL    HW217772   2.804   1.600   2.678 -0.1082 -1.6993 -0.8590
 2047SOL     OW17773   2.484   2.348   0.319 -0.2027 -0.9126  0.1668
 2047SOL    HW117774   2.398   2.323   0.351 -1.3062  1.1325 -1.1672
 2047SOL    HW217775   2.507   2.272   0.265  0.4240  0.3236 -1.3037
 2048SOL     OW17776   3.278   3.646   3.535  0.5768 -0.8365  0.4315
 2048SOL    HW117777   3.333   3.725   3.534 -1.6530  0.6641 -2.5416
 2048SOL    HW217778   3.249   3.646   3.626  0.4540  0.7961  0.3956
 2049SOL     OW17779   0.964   2.347   1.057  0.2838  0.6328 -0.4368
 2049SOL    HW117780   0.988   2.304   1.139 -1.1128  0.7578  0.0454
 2049SOL    HW217781   1.042   2.323   1.007 -0.4932 -0.8588 -0.9206
 2050SOL     OW17782   1.419   4.430   7.428 -0.2704  0.1892 -0.1376
 2050SOL    HW117783   1.434   4.524   7.432 -1.5146  0.3428  1.3076
 2050SOL    HW217784   1.507   4.398   7.443 -0.3080 -0.3188 -1.0036
 2051SOL     OW17785   1.324   2.729   9.911 -0.2874 -0.0718 -0.1064
 2051SOL    HW117786   1.264   2.662   9.944  1.4969 -0.7117  1.8163
 2051SOL    HW217787   1.300   2.749   9.821 -2.1495  0.1316  0.4192
 2052SOL     OW17788   1.836   1.575   2.365 -0.3474 -0.3835 -0.6342
 2052SOL    HW117789   1.827   1.598   2.458  2.4972 -1.0198 -0.2158
 2052SOL    HW217790   1.915   1.521   2.363 -0.7372 -0.8648 -2.5098
 2053SOL     OW17791   3.338   1.374   0.356  0.7131 -0.2469  0.1283
 2053SOL    HW117792   3.410   1.322   0.392  2.2341  0.4178 -1.9673
 2053SOL    HW217793   3.281   1.310   0.315 -0.8351  0.0096  1.8596
 2054SOL     OW17794   4.029   3.429  16.708 -0.0816  0.2038  0.5012
 2054SOL    HW117795   3.957   3.485  16.738 -0.5263  0.3905 -0.9210
 2054SOL    HW217796   4.065   3.485  16.640  1.7696  0.1349  1.4375
 2055SOL     OW17797   3.964   3.855   2.941 -0.0645  0.0177 -0.3668
 2055SOL    HW117798   4.002   3.830   2.857  1.2393  2.4520 -0.5254
 2055SOL    HW217799   3.998   3.945   2.946  0.8624 -0.4426  1.6137
 2056SOL     OW17800   3.856   0.901   0.064  0.2540 -0.0117 -0.5912
 2056SOL    HW117801   3.783   0.847   0.035  0.4274 -1.2397  1.2760
 2056SOL    HW217802   3.847   0.966  17.739 -1.5760 -0.2215 -0.5477
 2057SOL     OW17803   1.076   0.587   9.267 -0.0563  0.5704  0.0197
 2057SOL    HW117804   1.065   0.682   9.263  0.0908  0.4829 -2.1410
 2057SOL    HW217805   1.015   0.563   9.337 -2.8413 -1.1774 -2.9961
 2058SOL     OW17806   0.088   1.341   9.791 -0.5904  0.1108 -0.3808
 2058SOL    HW117807   0.045   1.377   9.868 -0.2157 -0.0553 -0.0939
 2058SOL    HW217808   0.175   1.328   9.827 -0.6444  0.1236 -0.2456
 2059SOL     OW17809   2.657   0.361  15.184  0.5558 -0.4859  0.2333
 2059SOL    HW117810   2.630   0.452  15.188  2.1410 -0.0589  1.0083
 2059SOL    HW217811   2.618   0.335  15.100 -1.5241  0.1862  1.0219
 2060SOL     OW17812   2.568   3.935   5.984 -0.7955 -0.8055 -0.5808
 2060SOL    HW117813   2.597   4.000   5.920  1.4845 -1.9588 -0.6987
 2060SOL    HW217814   2.547   3.862   5.925 -0.3278 -1.7508  0.4325
 2061SOL     OW17815   0.772   2.202   6.729 -0.0618  0.3055  0.2783
 2061SOL    HW117816   0.800   2.202   6.821  1.0943 -0.4761 -0.0827
 2061SOL    HW217817   0.743   2.293   6.728  0.5030  0.4859  0.4145
 2062SOL     OW17818   3.001   0.465   3.292  0.2698  0.7963  0.1904
 2062SOL    HW117819   3.061   0.479   3.219  0.9389 -0.6680  0.4592
 2062SOL    HW217820   2.961   0.381   3.270 -0.5409  1.4578 -0.8254
 2063SOL     OW17821   3.902   3.670   3.756 -0.2045 -0.1271  0.1192
 2063SOL    HW117822   3.834   3.648   3.692 -1.0973  3.7067 -0.2670
 2063SOL    HW217823   3.916   3.762   3.736  0.9132 -0.6625 -1.5421
 2064SOL     OW17824   1.767   4.232   1.411 -0.1407  0.1045 -0.1121
 2064SOL    HW117825   1.859   4.207   1.412 -0.2624 -0.2951  0.5707
 2064SOL    HW217826   1.753   4.287   1.334  0.2370  0.3796  0.0179
 2065SOL     OW17827   0.396   1.029   1.102 -0.0884 -0.1243  0.1928
 2065SOL    HW117828   0.418   1.067   1.017  1.9806  0.8043  1.1311
 2065SOL    HW217829   0.465   0.966   1.122 -1.4018 -1.5103  0.3854
 2066SOL     OW17830   4.281   2.136   0.397 -0.0701  0.6392 -0.3043
 2066SOL    HW117831   4.248   2.217   0.357  0.7239  1.1973  0.1799
 2066SOL    HW217832   4.313   2.095   0.316  2.3849 -0.8527  1.4602
 2067SOL     OW17833   1.805   1.476  12.308 -0.0420  0.4026  0.3788
 2067SOL    HW117834   1.801   1.416  12.382  0.3090  1.0300  0.9002
 2067SOL    HW217835   1.799   1.550  12.368 -0.6796  0.1588  0.6233
 2068SOL     OW17836   1.582   2.876   6.391 -0.3140  0.2759  0.3733
 2068SOL    HW117837   1.676   2.860   6.386  0.0225  1.3988  2.8998
 2068SOL    HW217838   1.545   2.790   6.373  0.1411  0.2697 -0.5224
 2069SOL     OW17839   4.580   4.514   2.989 -0.3917 -0.7398  0.5997
 2069SOL    HW117840   4.611   4.603   2.974  0.0481 -0.8708  0.7390
 2069SOL    HW217841   4.490   4.513   2.956  0.4936 -1.4593 -1.7829
 2070SOL     OW17842   2.665   1.807   6.937  0.1145  0.3380 -0.3561
 2070SOL    HW117843   2.690   1.897   6.958 -1.1064 -0.0628  2.8458
 2070SOL    HW217844   2.581   1.827   6.895 -0.1319  2.0345  0.9408
 2071SOL     OW17845   1.169   0.916   9.147  0.3704  0.2900  0.0947
 2071SOL    HW117846   1.161   0.880   9.235  2.4847 -1.3999 -0.4043
 2071SOL    HW217847   1.240   0.862   9.112  0.8426  2.0505 -1.6687
 2072SOL     OW17848   4.526   2.504   5.507 -0.5238  0.3111  0.1663
 2072SOL    HW117849   4.483   2.432   5.555 -0.8721 -0.0778 -0.7318
 2072SOL    HW217850   4.616   2.493   5.536 -0.6160 -1.8541 -0.3746
 2073SOL     OW17851   3.729   4.706   7.184 -0.1915 -0.3559  0.6058
 2073SOL    HW117852   3.679   4.624   7.185  2.1796 -1.7954  1.1908
 2073SOL    HW217853   3.690   0.013   7.108  1.8195  0.4882  0.0720
 2074SOL     OW17854   1.750   1.551   3.579  0.1692  0.3263 -0.8114
 2074SOL    HW117855   1.835   1.591   3.561  0.4742 -0.1107 -0.3503
 2074SOL    HW217856   1.710   1.528   3.496  2.2446 -0.5555 -1.5733
 2075SOL     OW17857   4.412   0.619   0.139 -0.1244  0.7660  0.1189
 2075SOL    HW117858   4.473   0.546   0.146 -0.5655  0.3434 -0.4349
 2075SOL    HW217859   4.470   0.685   0.100 -0.6779  1.5468  0.6147
 2076SOL     OW17860   2.057   2.710   4.963 -0.8143  0.4525 -0.1942
 2076SOL    HW117861   2.088   2.768   4.894  1.4747  0.0962  0.5025
 2076SOL    HW217862   2.054   2.634   4.905  1.6670  0.7897 -0.7867
 2077SOL     OW17863   1.259   0.145   8.461 -0.0891  0.5079  0.7275
 2077SOL    HW117864   1.197   0.176   8.526 -4.1000 -2.3791 -1.7592
 2077SOL    HW217865   1.303   0.228   8.442 -1.8742  1.2667 -0.0830
 2078SOL     OW17866   3.505   3.126  16.353 -0.2619 -0.6676 -0.1405
 2078SOL    HW117867   3.516   3.031  16.355 -1.4335 -0.8025 -0.0660
 2078SOL    HW217868   3.411   3.143  16.364  0.3631  2.4474  0.3574
 2079SOL     OW17869   0.163   0.574   5.344 -0.2510  0.5033 -0.1061
 2079SOL    HW117870   0.070   0.554   5.334  0.0194 -1.1226  0.6201
 2079SOL    HW217871   0.172   0.611   5.257  0.5082 -0.6177 -0.5054
 2080SOL     OW17872   0.159   1.962  10.394 -0.1189  0.5919 -0.2336
 2080SOL    HW117873   0.109   2.000  10.466  2.4040  0.2366  1.7311
 2080SOL    HW217874   0.248   1.990  10.417  0.4382  0.5805 -2.3990
 2081SOL     OW17875   0.091   0.496   5.989 -0.4466 -0.3510 -0.3729
 2081SOL    HW117876   0.079   0.576   5.939 -1.6910 -0.6118 -0.4867
 2081SOL    HW217877   0.187   0.500   5.992 -0.4242 -1.0039 -0.1958
 2082SOL     OW17878   1.974   3.348   7.110 -0.0108 -0.1007 -1.0631
 2082SOL    HW117879   2.018   3.413   7.055 -0.7140  1.1478 -0.1419
 2082SOL    HW217880   1.880   3.355   7.095  0.0398 -1.1687 -1.8379
 2083SOL     OW17881   4.638   2.769   9.432  0.0047 -0.0932  0.1219
 2083SOL    HW117882   4.592   2.852   9.445  0.3874 -0.2461  2.3352
 2083SOL    HW217883   4.569   2.705   9.450  0.5916 -1.0305 -0.9390
 2084SOL     OW17884   2.228   3.984   7.144  0.5771  0.0303  0.5296
 2084SOL    HW117885   2.192   3.897   7.160 -0.5195  0.4633  0.3745
 2084SOL    HW217886   2.155   4.040   7.118 -1.0390 -1.8332  1.0822
 2085SOL     OW17887   4.632   1.842   4.018  0.2520  0.2209 -0.2454
 2085SOL    HW117888   4.703   1.892   3.978 -0.5219  0.9311 -0.7269
 2085SOL    HW217889   4.644   1.877   4.107  1.3200  1.2013 -0.7684
 2086SOL     OW17890   1.922   4.008   6.047  0.5517  0.0708 -0.0759
 2086SOL    HW117891   1.852   3.982   6.107  0.4943  0.5970  0.0919
 2086SOL    HW217892   1.930   3.919   6.013 -1.5257  0.0162 -0.4698
 2087SOL     OW17893   3.157   3.042   6.354  0.2906  0.2367  0.2775
 2087SOL    HW117894   3.205   3.075   6.429  0.9853  0.2398 -0.1672
 2087SOL    HW217895   3.226   2.984   6.322  0.1510 -0.6172  1.5435
 2088SOL     OW17896   0.831   1.233   6.166  0.1275  0.5382 -0.2352
 2088SOL    HW117897   0.829   1.146   6.205  1.0815 -0.1164 -1.6390
 2088SOL    HW217898   0.781   1.210   6.088  0.8653  0.6133 -0.7293
 2089SOL     OW17899   1.121   3.180   6.378  0.3499  0.0830 -0.1480
 2089SOL    HW117900   1.181   3.109   6.400 -1.3860 -0.9635  1.2872
 2089SOL    HW217901   1.094   3.198   6.469 -0.1000  2.6464 -0.7861
 2090SOL     OW17902   4.432   1.436   3.482 -0.5718  0.0995  0.1790
 2090SOL    HW117903   4.485   1.424   3.403 -3.4531 -0.9359 -1.5845
 2090SOL    HW217904   4.447   1.530   3.493  0.6304 -0.0800  0.0244
 2091SOL     OW17905   1.441   2.175   9.119  0.3846 -0.5827  0.2627
 2091SOL    HW117906   1.347   2.174   9.139  0.3211  1.8240 -0.0031
 2091SOL    HW217907   1.426   2.172   9.025 -0.1558  0.2722  0.3275
 2092SOL     OW17908   2.831   4.718   0.974 -0.2676  0.3747 -0.4169
 2092SOL    HW117909   2.788   4.734   1.058  2.2227  1.5102  0.6531
 2092SOL    HW217910   2.903   4.659   0.996 -0.0495  1.2974  1.3522
 2093SOL     OW17911   1.846   1.566   4.281 -0.1843  0.1470 -0.0772
 2093SOL    HW117912   1.754   1.575   4.254 -0.1273 -0.0703 -0.3469
 2093SOL    HW217913   1.854   1.636   4.345 -0.0693 -0.1570  0.2444
 2094SOL     OW17914   3.933   0.270   6.300  0.2980 -0.1166  0.0644
 2094SOL    HW117915   3.954   0.235   6.387 -0.7664  1.1778  0.8444
 2094SOL    HW217916   3.861   0.326   6.331  0.8678  0.0570  1.0791
 2095SOL     OW17917   1.031   1.294  12.362 -0.1206  0.4774 -0.1167
 2095SOL    HW117918   1.022   1.245  12.444 -1.9713  1.1882  0.1143
 2095SOL    HW217919   1.089   1.240  12.310 -1.2982  0.0156 -0.9437
 2096SOL     OW17920   0.507   1.804   9.267 -0.7186 -0.0836 -0.6856
 2096SOL    HW117921   0.450   1.846   9.332  0.6977  0.9333 -0.0965
 2096SOL    HW217922   0.497   1.869   9.198 -1.4886 -1.2355 -1.6415
 2097SOL     OW17923   3.205   0.560  15.704  0.0087 -0.7411  0.1442
 2097SOL    HW117924   3.218   0.647  15.666 -3.8188  0.0301  0.6930
 2097SOL    HW217925   3.112   0.565  15.725 -0.4575  2.0751 -2.4409
 2098SOL     OW17926   2.547   1.170   6.911  0.7601 -0.3846  0.1787
 2098SOL    HW117927   2.527   1.147   7.002  2.1872 -0.2210  0.5251
 2098SOL    HW217928   2.592   1.091   6.884  0.6688 -0.3917  0.0451
 2099SOL     OW17929   0.030   2.463   7.291 -0.2291  1.0561  0.7639
 2099SOL    HW117930   0.118   2.483   7.321 -0.7660  0.0112  3.0591
 2099SOL    HW217931   0.046   2.381   7.245  0.5917  1.2221  0.7641
 2100SOL     OW17932   3.598   1.508  16.005  0.2672  0.3383 -0.1012
 2100SOL    HW117933   3.690   1.514  15.979 -0.3429  1.3221 -2.0171
 2100SOL    HW217934   3.599   1.558  16.087 -0.0657 -1.7741  1.1796
 2101SOL     OW17935   4.646   1.451   0.523  0.3528  0.3459 -0.1688
 2101SOL    HW117936   4.599   1.389   0.579 -0.7848  2.0203  0.6990
 2101SOL    HW217937   4.607   1.448   0.435 -2.0922 -3.4969  1.0538
 2102SOL     OW17938   2.254   3.732   6.268 -0.1487 -0.1382  0.1319
 2102SOL    HW117939   2.240   3.812   6.320 -1.2632  0.7059 -1.4775
 2102SOL    HW217940   2.165   3.698   6.263  0.2834 -0.8439 -2.5377
 2103SOL     OW17941   1.854   0.861   6.774  0.1619 -0.1906 -0.0704
 2103SOL    HW117942   1.779   0.875   6.832  0.7070 -1.7336  0.9968
 2103SOL    HW217943   1.921   0.827   6.832  1.4972 -0.8985 -2.0393
 2104SOL     OW17944   0.326   1.654   1.145 -0.2156 -0.1905 -0.2714
 2104SOL    HW117945   0.324   1.621   1.235 -0.1281 -0.6864 -0.4489
 2104SOL    HW217946   0.370   1.739   1.152 -1.6089  0.7973 -3.5160
 2105SOL     OW17947   3.118   2.365   6.785  0.3351 -0.5710  0.0910
 2105SOL    HW117948   3.029   2.359   6.820  0.6717 -0.7783  0.9167
 2105SOL    HW217949   3.154   2.307   6.853 -0.6634 -0.1543  0.9790
 2106SOL     OW17950   0.985   4.023   5.860  0.2294  0.7076 -0.4230
 2106SOL    HW117951   0.924   4.086   5.898 -0.6276 -0.7907  0.6689
 2106SOL    HW217952   0.962   3.944   5.907  3.8134 -0.3422 -0.3970
 2107SOL     OW17953   3.347   1.009   3.125  0.0442 -0.1843 -0.8803
 2107SOL    HW117954   3.297   1.086   3.152  3.0481  2.3059 -2.3953
 2107SOL    HW217955   3.412   1.051   3.068  4.4481 -1.9938  2.8103
 2108SOL     OW17956   2.901   0.018   4.190  1.1783 -0.0806  0.6538
 2108SOL    HW117957   2.871   0.078   4.122 -0.4899 -1.4183  0.2205
 2108SOL    HW217958   2.853   0.054   4.265  1.2675 -0.7108  1.0135
 2109SOL     OW17959   0.416   2.733  13.839  0.3599 -0.6824 -0.6306
 2109SOL    HW117960   0.438   2.692  13.922  0.8042 -1.2293 -1.0191
 2109SOL    HW217961   0.467   2.814  13.837  0.2033 -0.6130 -1.8251
 2110SOL     OW17962   3.221   1.882   2.992 -0.0090 -0.4553  0.5372
 2110SOL    HW117963   3.299   1.934   2.975  0.0816 -0.1225  1.9629
 2110SOL    HW217964   3.179   1.929   3.064 -1.0126 -0.0992 -0.2807
 2111SOL     OW17965   4.183   0.466   4.188  0.1714  0.2618 -0.1525
 2111SOL    HW117966   4.254   0.529   4.175  0.2032  0.1773 -0.3862
 2111SOL    HW217967   4.228   0.381   4.190  0.1969  0.3213  2.4020
 2112SOL     OW17968   2.165   3.256   6.177  0.6425  0.1628  0.1106
 2112SOL    HW117969   2.250   3.260   6.220  0.5888  1.1306  0.1297
 2112SOL    HW217970   2.183   3.317   6.105  1.8447  0.0431  0.3147
 2113SOL     OW17971   1.532   2.216   3.980  0.4893  0.1419  0.0852
 2113SOL    HW117972   1.567   2.170   3.904  2.9965 -0.7516  1.7839
 2113SOL    HW217973   1.617   2.211   4.025  0.3611 -0.0617  0.3067
 2114SOL     OW17974   1.721   3.223   1.294 -0.0815  0.3330 -0.7248
 2114SOL    HW117975   1.671   3.305   1.287  0.5400  0.6951 -0.9151
 2114SOL    HW217976   1.693   3.161   1.227 -3.6840  0.6102  0.5238
 2115SOL     OW17977   1.048   2.600   7.545  0.2525  0.0052 -0.0108
 2115SOL    HW117978   1.016   2.519   7.506  0.8106 -0.0256 -0.4048
 2115SOL    HW217979   0.979   2.613   7.610  0.7597  2.1509  0.1269
 2116SOL     OW17980   0.677   0.178  14.534  0.3902  0.2792  0.3670
 2116SOL    HW117981   0.603   0.233  14.560  1.1559  1.8250 -0.7020
 2116SOL    HW217982   0.740   0.203  14.601  0.2141  1.7257  0.0058
 2117SOL     OW17983   1.992   4.618   4.474 -0.6216 -0.2512 -0.2318
 2117SOL    HW117984   1.994   4.637   4.568  0.7937 -0.2203 -0.2661
 2117SOL    HW217985   2.062   4.559   4.447 -1.4123 -0.5114 -1.6916
 2118SOL     OW17986   4.610   3.436  15.656  0.4328 -0.3838  0.7894
 2118SOL    HW117987   4.575   3.458  15.570 -0.8225  1.1301  1.6874
 2118SOL    HW217988   4.597   3.341  15.651  0.1532 -0.3115  0.1442
 2119SOL     OW17989   1.969   1.080  17.163 -0.2172 -0.6082  0.2791
 2119SOL    HW117990   2.051   1.050  17.204 -0.9597 -1.9675  0.7819
 2119SOL    HW217991   1.989   1.088  17.070 -1.9450 -0.5795 -0.0848
 2120SOL     OW17992   2.767   1.195   1.895  0.3595  0.1395  0.6105
 2120SOL    HW117993   2.823   1.240   1.832  1.5852 -1.4392  0.5656
 2120SOL    HW217994   2.685   1.244   1.893  0.3484  0.0316 -1.4861
 2121SOL     OW17995   2.212   4.734  11.216  0.7089 -0.4940  0.4244
 2121SOL    HW117996   2.305   4.725  11.236  0.5781  3.6822  2.9153
 2121SOL    HW217997   2.201   0.091  11.200 -0.1980  0.0800  4.4240
 2122SOL     OW17998   3.204   2.965   6.014 -0.6147 -0.0570 -0.3300
 2122SOL    HW117999   3.169   3.052   5.994 -2.2535 -0.6184  0.1183
 2122SOL    HW218000   3.298   2.969   5.998 -0.6260 -0.5528 -0.5413
 2123SOL     OW18001   3.214   0.127   7.628 -1.0231 -0.2449 -0.1451
 2123SOL    HW118002   3.293   0.081   7.657 -0.5582  3.3917  4.2516
 2123SOL    HW218003   3.143   0.078   7.668  1.0297 -1.2150  2.3184
 2124SOL     OW18004   2.883   4.561   2.484 -0.1208 -1.0495  0.8457
 2124SOL    HW118005   2.959   4.513   2.452 -0.6010  1.5913 -4.3036
 2124SOL    HW218006   2.817   4.492   2.494 -1.8189  0.3898 -0.4589
 2125SOL     OW18007   0.297   1.065   4.735 -0.3157 -0.0028 -0.2272
 2125SOL    HW118008   0.365   1.049   4.670 -0.2611 -0.7847  0.0241
 2125SOL    HW218009   0.307   1.159   4.749  0.9935 -0.1428 -0.2386
 2126SOL     OW18010   2.737   0.644  14.493 -0.1194 -0.7111 -0.7104
 2126SOL    HW118011   2.643   0.627  14.492 -0.3670  0.5577  0.0484
 2126SOL    HW218012   2.733   0.736  14.520  1.7824 -1.4043  1.9001
 2127SOL     OW18013   0.113   3.387  11.860 -0.0211 -0.4765  0.1508
 2127SOL    HW118014   0.102   3.432  11.776  1.7020  2.2158  1.3706
 2127SOL    HW218015   0.206   3.381  11.878 -0.0427 -2.0019 -0.2519
 2128SOL     OW18016   4.337   3.520   2.057 -0.5438  0.3912 -0.0163
 2128SOL    HW118017   4.294   3.435   2.044 -0.2903  0.4762 -1.3749
 2128SOL    HW218018   4.311   3.560   1.974  1.5789  0.8500 -0.4528
 2129SOL     OW18019   2.420   3.738   2.048  0.4067 -0.1783  0.2114
 2129SOL    HW118020   2.397   3.735   1.956 -0.6897  0.6179  0.4640
 2129SOL    HW218021   2.515   3.725   2.043  0.3789 -0.1200 -0.4490
 2130SOL     OW18022   2.684   0.687   6.409 -0.0508  0.0167  0.3654
 2130SOL    HW118023   2.616   0.663   6.346  0.3887  2.0750 -0.8888
 2130SOL    HW218024   2.635   0.702   6.489  0.0924 -0.4729  0.5486
 2131SOL     OW18025   2.259   3.453   5.311 -0.2331 -0.2021  0.1275
 2131SOL    HW118026   2.173   3.438   5.272 -0.0451  0.5026 -0.5662
 2131SOL    HW218027   2.295   3.525   5.259 -1.4284  0.9260  0.8680
 2132SOL     OW18028   2.333   0.977   8.881 -0.4062 -0.3483 -0.0138
 2132SOL    HW118029   2.305   0.894   8.918  1.6092 -1.1453 -0.2942
 2132SOL    HW218030   2.312   0.958   8.789 -1.1719  0.3069  0.0289
 2133SOL     OW18031   4.534   4.690   3.384 -0.6148 -0.1677  0.1102
 2133SOL    HW118032   4.464   0.011   3.415  0.1047 -0.5638  2.3878
 2133SOL    HW218033   4.587   0.020   3.339  1.8999 -1.6044  0.9312
 2134SOL     OW18034   1.749   3.065   2.784 -0.3610 -0.2500 -0.2084
 2134SOL    HW118035   1.679   3.061   2.718  0.6111  0.6723 -1.2901
 2134SOL    HW218036   1.802   2.999   2.739  2.5144  1.8962  0.0807
 2135SOL     OW18037   4.182   0.891   6.095  0.4076 -0.6541  0.4729
 2135SOL    HW118038   4.131   0.970   6.111 -0.1356 -1.2090  1.4452
 2135SOL    HW218039   4.235   0.881   6.174  0.0316  0.1997  0.8276
 2136SOL     OW18040   2.674   4.652   3.249 -0.5562  0.3236 -0.3663
 2136SOL    HW118041   2.704   4.689   3.332  1.1111 -1.6148 -0.0999
 2136SOL    HW218042   2.606   4.713   3.220 -1.5630 -1.2108 -1.1934
 2137SOL     OW18043   2.991   0.739   2.912 -0.6086  0.1204 -0.2562
 2137SOL    HW118044   3.086   0.736   2.902 -0.8846 -0.2821 -2.6989
 2137SOL    HW218045   2.973   0.678   2.840 -2.5193  1.2533 -0.7406
 2138SOL     OW18046   3.918   0.234   6.016 -0.6045  0.0501 -0.4387
 2138SOL    HW118047   3.943   0.216   6.107  2.7279 -1.2904 -1.6396
 2138SOL    HW218048   3.925   0.329   6.020  1.1047 -0.1420  1.2428
 2139SOL     OW18049   2.227   3.226   5.693 -0.0522  0.0529 -0.0533
 2139SOL    HW118050   2.195   3.293   5.632 -0.5940 -0.7042 -0.5984
 2139SOL    HW218051   2.161   3.159   5.674  2.0120 -1.1590 -2.8606
 2140SOL     OW18052   1.902   4.554   2.020  0.0576  0.4657  0.2142
 2140SOL    HW118053   1.837   4.569   2.089 -1.5782  1.1944 -1.5000
 2140SOL    HW218054   1.890   4.459   2.010  1.1971  0.3675 -0.1812
 2141SOL     OW18055   1.459   0.948   1.926 -0.2243  0.1908 -0.6700
 2141SOL    HW118056   1.477   1.037   1.896  1.1011 -0.6338 -2.3103
 2141SOL    HW218057   1.364   0.950   1.913 -0.4276  1.6576  0.9646
 2142SOL     OW18058   1.481   2.053   6.842  0.1741 -0.0296 -0.0573
 2142SOL    HW118059   1.436   2.084   6.921  0.7301  0.4516  0.0701
 2142SOL    HW218060   1.412   2.054   6.776 -0.0688 -1.4833  0.1611
 2143SOL     OW18061   1.804   4.416  13.186 -0.1308  0.0870  0.4007
 2143SOL    HW118062   1.720   4.461  13.196  1.3728  2.8949  0.4589
 2143SOL    HW218063   1.850   4.500  13.192 -2.7786  1.5558  0.2910
 2144SOL     OW18064   2.718   3.680   0.925 -0.1155  0.6451 -0.1934
 2144SOL    HW118065   2.779   3.665   0.852  2.3843  0.9953  1.8318
 2144SOL    HW218066   2.667   3.754   0.893 -0.5859 -0.1513 -1.3183
 2145SOL     OW18067   2.029   4.081   5.221 -0.3955  0.1396 -0.0766
 2145SOL    HW118068   1.988   4.143   5.281 -1.4336  0.8903 -1.5748
 2145SOL    HW218069   1.988   4.109   5.139  1.0864  2.7525  0.0869
 2146SOL     OW18070   3.565   4.616   0.826 -0.0293  0.0049  0.2980
 2146SOL    HW118071   3.478   4.626   0.787  0.7029 -0.2423 -1.4114
 2146SOL    HW218072   3.617   4.576   0.756  1.2445  1.5215  0.3692
 2147SOL     OW18073   3.585   3.889  12.090  0.6230  0.2461  0.2343
 2147SOL    HW118074   3.673   3.854  12.077  1.1367  0.5802  2.6901
 2147SOL    HW218075   3.601   3.982  12.074  1.5636  0.4443  2.2198
 2148SOL     OW18076   2.561   0.506   2.411  0.2326  0.1408  0.2610
 2148SOL    HW118077   2.494   0.553   2.462 -0.2613  1.3977 -1.5581
 2148SOL    HW218078   2.640   0.560   2.412 -0.1160  0.6431  2.3315
 2149SOL     OW18079   3.428   4.521   7.784 -0.8802 -0.3088  0.5221
 2149SOL    HW118080   3.491   4.510   7.855 -0.3293 -0.9182 -0.0650
 2149SOL    HW218081   3.410   4.427   7.784  3.4299 -1.1290 -0.6089
 2150SOL     OW18082   0.190   1.050   7.920  0.0735  0.7931  0.8373
 2150SOL    HW118083   0.223   0.977   7.867  2.6014  2.2544  0.4034
 2150SOL    HW218084   0.196   1.123   7.859  1.1024  0.0429  0.0366
 2151SOL     OW18085   4.004   0.551  14.145  0.4781  0.0113  0.2751
 2151SOL    HW118086   3.914   0.577  14.125  1.1321  4.0960  2.5958
 2151SOL    HW218087   4.037   0.554  14.055 -0.3548  0.9164 -0.0157
 2152SOL     OW18088   3.150   4.073   6.951 -0.0099  0.0230  0.1277
 2152SOL    HW118089   3.114   4.058   6.864 -0.6639 -0.8364  0.5283
 2152SOL    HW218090   3.138   3.986   6.990 -2.4425  0.1856 -0.2008
 2153SOL     OW18091   4.038   1.841   3.782  0.1619 -0.5396 -0.4332
 2153SOL    HW118092   4.098   1.802   3.846 -1.0817 -1.3800  0.2250
 2153SOL    HW218093   3.963   1.783   3.792  0.3360 -0.9616 -1.5371
 2154SOL     OW18094   0.503   0.735   0.574 -0.4462  0.1526  0.1943
 2154SOL    HW118095   0.458   0.819   0.577 -0.2376  0.3420 -2.2625
 2154SOL    HW218096   0.455   0.687   0.642 -0.1789 -1.6596 -0.9165
 2155SOL     OW18097   3.808   3.750   6.775 -0.2694 -0.4228  0.1332
 2155SOL    HW118098   3.739   3.685   6.785  0.1047 -0.5899  1.6200
 2155SOL    HW218099   3.791   3.772   6.683 -2.0244 -1.3816  0.2290
 2156SOL     OW18100   4.154   1.881   6.664 -0.3457 -0.5992  0.6495
 2156SOL    HW118101   4.118   1.793   6.678  1.1687 -1.4659 -0.8918
 2156SOL    HW218102   4.247   1.868   6.686 -0.4394 -0.8900  0.8677
 2157SOL     OW18103   3.263   1.946  17.390  0.3243  0.0796  0.9220
 2157SOL    HW118104   3.283   1.907  17.305 -0.4927  1.9477 -0.1241
 2157SOL    HW218105   3.177   1.912  17.415  0.0815  1.9844  2.6517
 2158SOL     OW18106   2.733   1.805   4.165  0.0245 -0.0138  0.1814
 2158SOL    HW118107   2.659   1.754   4.131  0.6841 -0.9784  0.1802
 2158SOL    HW218108   2.709   1.843   4.249  0.5068  2.5007 -0.8281
 2159SOL     OW18109   3.046   4.265  14.613 -0.0617 -0.2312 -0.3226
 2159SOL    HW118110   3.058   4.191  14.673 -1.1535  1.9069  2.5523
 2159SOL    HW218111   3.050   4.226  14.526  2.7349 -2.2055  0.6848
 2160SOL     OW18112   3.990   3.375   8.269 -0.1607  0.6414  0.1806
 2160SOL    HW118113   4.017   3.431   8.196 -0.7869 -0.3550 -0.8381
 2160SOL    HW218114   4.060   3.310   8.275  1.3765  2.0780 -2.0412
 2161SOL     OW18115   2.359   0.056   0.507 -0.0144 -0.2468 -0.6873
 2161SOL    HW118116   2.375   0.145   0.477  3.3728 -0.3357  0.7971
 2161SOL    HW218117   2.305   0.065   0.585 -0.7520 -3.6152 -0.7852
 2162SOL     OW18118   2.224   0.918   8.626 -0.1688 -0.6704 -0.9199
 2162SOL    HW118119   2.295   0.871   8.584 -0.1908 -0.7887 -0.8261
 2162SOL    HW218120   2.156   0.853   8.607 -0.5709 -0.1464 -1.2702
 2163SOL     OW18121   3.578   3.761  17.457 -0.2290  0.3609  0.7344
 2163SOL    HW118122   3.640   3.790  17.390  0.2647  0.4945  1.2584
 2163SOL    HW218123   3.507   3.825  17.446  0.6503  0.9131 -1.7415
 2164SOL     OW18124   2.485   1.895  11.260 -0.6367  0.5833 -0.2004
 2164SOL    HW118125   2.544   1.966  11.285  0.7142 -0.9914  1.0457
 2164SOL    HW218126   2.454   1.938  11.179 -2.4895 -1.9403 -0.8296
 2165SOL     OW18127   1.798   1.611   6.673  0.0582 -0.5815  0.1059
 2165SOL    HW118128   1.754   1.529   6.693 -0.1549 -0.1988  1.2096
 2165SOL    HW218129   1.885   1.590   6.640 -0.7435 -1.8411 -1.1979
 2166SOL     OW18130   3.169   2.311   8.163 -0.3725 -0.3872  0.4837
 2166SOL    HW118131   3.152   2.244   8.097 -1.3092  1.8378 -1.5298
 2166SOL    HW218132   3.265   2.305   8.160 -0.2291  1.9121  0.5871
 2167SOL     OW18133   1.066   1.568  10.633 -0.1293  0.5627 -0.3271
 2167SOL    HW118134   1.054   1.538  10.723  1.9508 -1.4829 -0.7237
 2167SOL    HW218135   1.137   1.632  10.637 -0.6230  0.9678  2.2709
 2168SOL     OW18136   3.127   0.138   6.016 -0.2342  0.1114 -0.1031
 2168SOL    HW118137   3.061   0.194   5.975  0.4208  1.1491  0.2715
 2168SOL    HW218138   3.186   0.212   6.027 -0.9983  0.0891  4.0356
 2169SOL     OW18139   1.015   1.973   2.700  0.5273  0.1949  0.1548
 2169SOL    HW118140   0.946   1.986   2.635 -1.2131 -1.3064  1.7247
 2169SOL    HW218141   1.086   1.962   2.636  0.3873 -1.4188  0.2749
 2170SOL     OW18142   2.360   4.238   8.152 -0.0307 -0.1517 -0.6791
 2170SOL    HW118143   2.431   4.299   8.171 -0.9526  0.1506  1.8090
 2170SOL    HW218144   2.361   4.220   8.058  0.3127 -0.8033 -0.5563
 2171SOL     OW18145   2.309   3.149   6.932 -0.1816 -0.8229 -0.6603
 2171SOL    HW118146   2.306   3.244   6.942 -1.1741 -0.9124 -0.0730
 2171SOL    HW218147   2.390   3.140   6.883  0.1202 -0.6125 -0.2023
 2172SOL     OW18148   1.242   0.846   6.426  0.1626 -0.3517 -0.4563
 2172SOL    HW118149   1.149   0.867   6.433  0.5523  0.7857  1.3520
 2172SOL    HW218150   1.259   0.860   6.333  0.2210 -1.4350 -0.6160
 2173SOL     OW18151   3.716   0.832   4.258 -0.0828 -0.3080  0.0206
 2173SOL    HW118152   3.670   0.900   4.209  1.3874 -1.2253 -2.6002
 2173SOL    HW218153   3.803   0.871   4.260  0.5545 -1.8362  1.9230
 2174SOL     OW18154   3.138   2.625   3.155  0.9035 -0.3275  0.5757
 2174SOL    HW118155   3.123   2.717   3.135 -1.6099 -1.3998 -2.4767
 2174SOL    HW218156   3.230   2.633   3.179  0.8208  0.1078  0.7455
 2175SOL     OW18157   4.672   0.525   7.798 -0.0209  0.3001  0.1512
 2175SOL    HW118158   4.703   0.494   7.883  3.0883  1.7799 -0.4459
 2175SOL    HW218159   4.730   0.474   7.741  0.8708  1.6015 -0.1326
 2176SOL     OW18160   2.165   2.539   9.297  0.5060 -0.7832  0.4801
 2176SOL    HW118161   2.247   2.544   9.347  0.3136  0.9667  0.6387
 2176SOL    HW218162   2.126   2.624   9.317 -0.3686 -1.1555  0.3493
 2177SOL     OW18163   2.594   3.935   3.124 -0.1688 -0.2086  0.3338
 2177SOL    HW118164   2.538   3.873   3.172  1.2451 -1.7865 -0.0443
 2177SOL    HW218165   2.678   3.892   3.141 -0.7632 -2.2167 -1.8650
 2178SOL     OW18166   4.174   0.759  11.443 -0.0558  1.0733 -0.0707
 2178SOL    HW118167   4.213   0.842  11.469  0.9575  0.6617 -0.2421
 2178SOL    HW218168   4.119   0.784  11.370 -2.1574  0.3197  1.2531
 2179SOL     OW18169   4.011   2.779  13.695  0.1053 -0.6693  0.5046
 2179SOL    HW118170   4.032   2.778  13.601 -3.2577  0.9715 -0.2534
 2179SOL    HW218171   4.096   2.816  13.720 -0.2297  0.3630  0.1271
 2180SOL     OW18172   2.782   4.065   9.090 -0.2561 -0.0689  0.7701
 2180SOL    HW118173   2.748   3.977   9.075  1.2917 -0.1294 -2.2485
 2180SOL    HW218174   2.852   4.055   9.155  0.3215 -1.7609 -0.1452
 2181SOL     OW18175   4.286   3.233   3.488  0.1756  0.0718 -0.0895
 2181SOL    HW118176   4.297   3.326   3.510  0.8551  0.1214 -0.6427
 2181SOL    HW218177   4.219   3.197   3.546  0.9753 -0.2222  0.6548
 2182SOL     OW18178   4.591   0.337   0.807 -0.3399  0.5239 -0.1760
 2182SOL    HW118179   4.560   0.248   0.790 -1.0609  0.6939  0.2752
 2182SOL    HW218180   4.667   0.334   0.748 -0.3199  0.5116 -0.1496
 2183SOL     OW18181   1.563   1.238  10.966  0.0001  1.0801 -0.1752
 2183SOL    HW118182   1.601   1.198  11.045  1.4464  0.5189 -1.1446
 2183SOL    HW218183   1.644   1.244  10.915 -0.5641 -0.9939 -1.2914
 2184SOL     OW18184   0.339   0.343   7.544 -0.6289  0.2133 -0.0253
 2184SOL    HW118185   0.287   0.395   7.482  1.1147  1.8007 -0.1505
 2184SOL    HW218186   0.317   0.251   7.529 -1.8865  0.3284  1.1277
 2185SOL     OW18187   3.038   3.023  14.856  0.1161  0.2987  0.1972
 2185SOL    HW118188   2.945   3.041  14.870 -0.1124 -1.5332  1.0157
 2185SOL    HW218189   3.070   3.083  14.923 -1.1170 -1.4133  2.3581
 2186SOL     OW18190   4.586   0.206   6.392 -0.4191  0.0113  0.1090
 2186SOL    HW118191   4.564   0.283   6.341  2.4886  0.4243 -0.5372
 2186SOL    HW218192   4.679   0.230   6.400 -0.7570  1.0522  0.9021
 2187SOL     OW18193   0.792   2.294   4.174 -0.4449 -0.2093  0.5384
 2187SOL    HW118194   0.834   2.373   4.209 -2.3333  0.7596  0.6471
 2187SOL    HW218195   0.833   2.225   4.225  2.4800  1.5176  0.4861
 2188SOL     OW18196   0.056   3.593   6.114 -0.4732 -0.0265 -0.1920
 2188SOL    HW118197   0.106   3.519   6.150 -1.6279 -0.5021  0.4311
 2188SOL    HW218198   4.714   3.603   6.168 -0.4225  0.5486 -0.2265
 2189SOL     OW18199   1.464   1.656   0.194  0.7073  0.3609 -0.2404
 2189SOL    HW118200   1.546   1.610   0.211 -0.4446 -1.4465  0.5019
 2189SOL    HW218201   1.461   1.716   0.268 -2.8727 -0.2273  0.1104
 2190SOL     OW18202   0.962   0.866   3.527 -0.1721 -0.2489 -0.5511
 2190SOL    HW118203   1.036   0.900   3.576 -0.9464 -0.7268  0.9590
 2190SOL    HW218204   0.992   0.894   3.441  3.1829  0.4865  0.8557
 2191SOL     OW18205   0.994   0.209  12.421 -0.0818  0.1250 -0.6446
 2191SOL    HW118206   1.080   0.237  12.453  0.1219 -1.0610 -0.1762
 2191SOL    HW218207   0.961   0.299  12.423  0.4480  0.3753 -2.5857
 2192SOL     OW18208   4.168   0.774   3.273  0.5122 -0.1936 -0.7987
 2192SOL    HW118209   4.114   0.755   3.350  1.3262 -0.7105 -0.3601
 2192SOL    HW218210   4.174   0.869   3.283 -0.7802 -0.1060 -0.8355
 2193SOL     OW18211   3.620   4.598  17.707  0.5392  0.2140 -0.2819
 2193SOL    HW118212   3.525   4.589  17.701  0.6389  0.5783 -2.7869
 2193SOL    HW218213   3.632   4.638  17.620 -1.3652 -1.2460 -1.2123
 2194SOL     OW18214   4.285   1.014   5.580 -0.0799 -0.6334  0.1668
 2194SOL    HW118215   4.336   1.045   5.654 -0.7063  1.2399 -0.1654
 2194SOL    HW218216   4.265   0.926   5.610  0.9721 -1.3720 -1.3000
 2195SOL     OW18217   3.377   2.167  17.494 -0.3254 -0.0741 -0.0767
 2195SOL    HW118218   3.353   2.076  17.477 -1.1038  0.0516  0.3829
 2195SOL    HW218219   3.382   2.203  17.405 -2.4654 -0.3787 -0.3007
 2196SOL     OW18220   3.429   2.683  11.658  0.7946  0.0562 -0.0997
 2196SOL    HW118221   3.338   2.663  11.682  1.3735 -1.0921  1.1513
 2196SOL    HW218222   3.459   2.611  11.603 -1.0717  0.2287 -1.3440
 2197SOL     OW18223   1.212   2.689  13.160 -0.2665 -0.6638  0.7458
 2197SOL    HW118224   1.245   2.645  13.082 -3.1381 -1.1653 -0.2082
 2197SOL    HW218225   1.189   2.776  13.128  1.3141  0.0288  1.5035
 2198SOL     OW18226   0.719   4.638   1.560 -0.1147 -0.4569 -0.0794
 2198SOL    HW118227   0.764   4.557   1.585 -1.5618 -1.3579 -0.4386
 2198SOL    HW218228   0.649   4.650   1.624 -0.5946  0.1879 -0.7282
 2199SOL     OW18229   2.632   1.614   1.434  0.1241 -0.2321  0.1948
 2199SOL    HW118230   2.620   1.701   1.471 -2.4001 -0.5649  0.1866
 2199SOL    HW218231   2.635   1.636   1.341  0.9613 -0.5531  0.1472
 2200SOL     OW18232   1.802   2.718   6.255  0.6013  0.4461 -0.2491
 2200SOL    HW118233   1.883   2.668   6.238  1.6281  2.3118 -0.8131
 2200SOL    HW218234   1.737   2.648   6.263  2.4053 -1.2507 -0.2798
 2201SOL     OW18235   3.292   0.445  17.540  0.2934 -0.1532  0.0989
 2201SOL    HW118236   3.331   0.519  17.493 -0.6801  2.5920  3.6259
 2201SOL    HW218237   3.198   0.461  17.535  0.5332  1.9861  2.8765
 2202SOL     OW18238   3.501   4.393   5.254 -0.0520  0.2247  0.1507
 2202SOL    HW118239   3.595   4.378   5.245  0.1455  0.5293  1.7732
 2202SOL    HW218240   3.492   4.473   5.305 -0.3243  0.9960 -1.1020
 2203SOL     OW18241   2.508   3.538   6.696 -0.1418  0.0443 -0.0900
 2203SOL    HW118242   2.456   3.522   6.617  1.8308 -2.3186 -0.9040
 2203SOL    HW218243   2.585   3.580   6.658 -0.7844  0.9922 -0.3589
 2204SOL     OW18244   3.265   3.145   1.583  0.4771  0.6485  0.1641
 2204SOL    HW118245   3.179   3.153   1.624 -0.0180  0.3864 -0.8295
 2204SOL    HW218246   3.244   3.098   1.503  2.7446 -1.0728  0.5733
 2205SOL     OW18247   4.382   2.127   6.560 -0.0598 -0.3647  0.0149
 2205SOL    HW118248   4.301   2.117   6.509 -0.3260 -0.5677  0.4790
 2205SOL    HW218249   4.423   2.194   6.505  0.7840  0.2826  1.4239
 2206SOL     OW18250   1.002   3.191   2.148 -0.2597 -0.2167  0.4741
 2206SOL    HW118251   1.073   3.146   2.103 -0.5642  1.2632 -1.4813
 2206SOL    HW218252   0.929   3.133   2.126 -1.4246  0.7567  1.8138
 2207SOL     OW18253   0.095   0.730  14.437  0.4982  0.1666 -0.4115
 2207SOL    HW118254   0.022   0.699  14.490 -0.2039  2.0807 -0.2837
 2207SOL    HW218255   0.155   0.774  14.497 -0.0408 -1.1376  1.0728
 2208SOL     OW18256   2.318   0.137   4.561  0.3945  0.4524 -0.0106
 2208SOL    HW118257   2.356   0.135   4.473  1.8639  0.5507  0.6211
 2208SOL    HW218258   2.236   0.176   4.531  0.8785  2.3976  1.2191
 2209SOL     OW18259   2.825   0.919   2.965 -0.7785  0.6028 -0.6990
 2209SOL    HW118260   2.880   0.841   2.975 -1.6163 -0.1221 -1.6865
 2209SOL    HW218261   2.899   0.971   2.934  0.8688 -0.5112  1.4078
 2210SOL     OW18262   1.211   4.729  14.887  0.2331 -0.4739  0.7269
 2210SOL    HW118263   1.229   0.054  14.958  0.4391  2.1386 -1.5820
 2210SOL    HW218264   1.287   4.674  14.901  0.2347 -0.3404  1.2586
 2211SOL     OW18265   2.087   1.425   8.934  0.4371  0.2867  0.1724
 2211SOL    HW118266   2.173   1.440   8.973  0.4497  1.0251 -0.1465
 2211SOL    HW218267   2.078   1.330   8.936  1.1467  0.3104  4.8750
 2212SOL     OW18268   4.128   1.923  11.265 -0.3567  0.4703 -0.1530
 2212SOL    HW118269   4.155   1.858  11.330 -0.1567  0.1426 -0.5679
 2212SOL    HW218270   4.193   1.993  11.273  0.7437 -0.3177 -2.4703
 2213SOL     OW18271   3.478   3.533   1.819 -0.5880 -0.1666 -0.2909
 2213SOL    HW118272   3.478   3.503   1.910  0.6331 -0.8667 -0.5223
 2213SOL    HW218273   3.386   3.509   1.801 -0.5816  0.6026 -1.3807
 2214SOL     OW18274   2.905   1.689  15.352  0.3092 -0.1203  0.2762
 2214SOL    HW118275   2.821   1.710  15.312 -1.4633 -2.7728  2.6643
 2214SOL    HW218276   2.951   1.627  15.294  1.7557  1.6548 -0.4640
 2215SOL     OW18277   0.294   0.316  16.086 -0.7604 -0.1534  0.2887
 2215SOL    HW118278   0.228   0.325  16.154 -2.8073  1.3261 -1.8891
 2215SOL    HW218279   0.317   0.224  16.093 -1.3269 -0.3077  0.0879
 2216SOL     OW18280   3.280   0.312   1.875  0.1369 -0.6538 -0.5774
 2216SOL    HW118281   3.220   0.367   1.925 -1.0153 -2.0573 -0.4135
 2216SOL    HW218282   3.218   0.267   1.817  0.6685 -2.4902  0.2660
 2217SOL     OW18283   2.719   3.018   1.795  0.2231  0.2274  0.3232
 2217SOL    HW118284   2.726   2.933   1.751  0.5586  1.1030 -1.3262
 2217SOL    HW218285   2.811   3.043   1.781 -0.3121  0.6666 -2.3641
 2218SOL     OW18286   1.894   1.293   1.283  0.6418  0.2723  0.0548
 2218SOL    HW118287   1.967   1.323   1.338 -0.6682  1.8205  0.9596
 2218SOL    HW218288   1.827   1.308   1.351  0.0557 -0.9022 -0.2683
 2219SOL     OW18289   4.400   2.774   5.773  0.0359 -0.5219 -0.3250
 2219SOL    HW118290   4.420   2.730   5.855 -1.3507  0.2393  0.4272
 2219SOL    HW218291   4.484   2.805   5.740  0.6585  0.8110  2.4977
 2220SOL     OW18292   2.890   1.717   5.073 -0.5118  0.0185 -0.1145
 2220SOL    HW118293   2.934   1.662   5.008  1.4699  0.5024  0.8398
 2220SOL    HW218294   2.869   1.798   5.026  2.1808  1.2930  0.9163
 2221SOL     OW18295   1.239   3.094  10.507  0.1089 -0.3884 -0.4743
 2221SOL    HW118296   1.168   3.039  10.541 -0.2938 -0.5228 -1.5513
 2221SOL    HW218297   1.298   3.021  10.489 -0.3016 -1.0420  0.8146
 2222SOL     OW18298   3.253   4.397  10.834  0.0952 -0.2072  0.3037
 2222SOL    HW118299   3.179   4.417  10.891 -1.3522 -0.8259 -1.3487
 2222SOL    HW218300   3.293   4.323  10.878  0.5141  1.7553  3.1869
 2223SOL     OW18301   1.346   3.522  14.915  0.8954  0.5512  0.0056
 2223SOL    HW118302   1.411   3.547  14.850  1.7843  0.8736  1.0159
 2223SOL    HW218303   1.386   3.531  15.002 -0.0787  1.2695  0.3751
 2224SOL     OW18304   4.258   0.193   5.319  0.0430 -0.2986 -0.5810
 2224SOL    HW118305   4.195   0.250   5.276 -0.1607 -1.9660 -2.4813
 2224SOL    HW218306   4.206   0.129   5.368 -1.8687 -0.0144 -2.2609
 2225SOL     OW18307   0.070   0.256  13.688 -0.1652 -0.4581 -0.5270
 2225SOL    HW118308   0.115   0.325  13.638  0.5455  1.6460  3.0470
 2225SOL    HW218309   0.035   0.306  13.762  0.2553  1.0127 -1.3097
 2226SOL     OW18310   3.183   2.365   3.098  0.2115  0.1382  0.2404
 2226SOL    HW118311   3.187   2.384   3.004  1.4077  0.6469  0.3855
 2226SOL    HW218312   3.165   2.457   3.118  0.3837 -0.1791  1.8180
 2227SOL     OW18313   3.562   1.618   6.015  0.4373  0.0713 -0.8931
 2227SOL    HW118314   3.502   1.688   5.989 -0.0114  0.9239  2.3989
 2227SOL    HW218315   3.524   1.543   5.971 -1.6343  0.7536 -0.2922
 2228SOL     OW18316   3.234   3.716  16.889 -0.0417 -0.3563 -0.5825
 2228SOL    HW118317   3.188   3.653  16.945 -1.9290 -0.3522 -2.1161
 2228SOL    HW218318   3.323   3.692  16.912 -0.7617  0.6006  3.1932
 2229SOL     OW18319   2.018   0.342  17.066  1.0764 -0.1151 -0.3781
 2229SOL    HW118320   1.965   0.401  17.011 -0.1464 -0.3990  0.5034
 2229SOL    HW218321   2.044   0.284  16.995 -0.9520  0.4068 -1.5669
 2230SOL     OW18322   0.979   3.837   4.935 -0.5400 -0.0694  0.3972
 2230SOL    HW118323   0.938   3.899   4.996 -2.0295 -0.4444 -0.2097
 2230SOL    HW218324   0.904   3.781   4.913  0.3057 -0.8517 -0.5381
 2231SOL     OW18325   0.980   1.728  14.543 -0.0476  0.1658 -0.1505
 2231SOL    HW118326   1.017   1.651  14.499  0.5459 -0.0676  0.7540
 2231SOL    HW218327   0.960   1.683  14.625  0.7761 -0.3645 -0.2352
 2232SOL     OW18328   0.066   0.746  11.739  0.4770 -0.2192 -0.1281
 2232SOL    HW118329   0.128   0.737  11.812  0.1637 -2.3622 -0.1382
 2232SOL    HW218330   0.130   0.746  11.668 -0.2407 -0.6762 -0.7721
 2233SOL     OW18331   2.162   0.801   7.590 -0.6163 -0.2465  0.5819
 2233SOL    HW118332   2.150   0.795   7.495  0.5961  0.9686  0.3525
 2233SOL    HW218333   2.216   0.880   7.598  1.9795 -1.8731 -0.8081
 2234SOL     OW18334   1.388   1.050  12.668 -0.3875 -0.3598 -0.0228
 2234SOL    HW118335   1.406   1.077  12.759  0.4997 -3.2688  0.6653
 2234SOL    HW218336   1.410   0.958  12.678 -0.4168 -0.0687  2.9746
 2235SOL     OW18337   2.078   1.414   1.450 -0.0008 -1.0064  0.4879
 2235SOL    HW118338   2.138   1.488   1.454  0.0037 -0.9191 -1.3418
 2235SOL    HW218339   2.021   1.452   1.517 -0.3485 -0.1200 -0.3074
 2236SOL     OW18340   3.586   3.437   0.515 -0.1346  0.0757 -0.0249
 2236SOL    HW118341   3.589   3.488   0.434 -0.5463 -1.6823 -1.1402
 2236SOL    HW218342   3.606   3.350   0.481  0.6393  0.4220 -0.4918
 2237SOL     OW18343   2.322   2.134   8.626 -0.5790  0.2786 -0.6458
 2237SOL    HW118344   2.407   2.177   8.640 -0.8927  0.6981 -0.0167
 2237SOL    HW218345   2.352   2.048   8.599 -0.1398 -0.0086  0.7737
 2238SOL     OW18346   0.494   3.612   9.348 -0.3206  0.1439 -0.2511
 2238SOL    HW118347   0.517   3.601   9.440  1.5157 -2.7779 -1.0639
 2238SOL    HW218348   0.510   3.527   9.308 -0.7357 -0.3209  0.5737
 2239SOL     OW18349   0.529   1.528   2.744  0.4472 -0.4623  0.0637
 2239SOL    HW118350   0.619   1.500   2.762 -0.2858 -1.9732  1.3317
 2239SOL    HW218351   0.515   1.597   2.809  1.7473  1.5200 -1.7070
 2240SOL     OW18352   4.138   1.745   8.588 -0.0936  0.2395 -0.4638
 2240SOL    HW118353   4.066   1.802   8.616  0.9638  0.7159  1.2292
 2240SOL    HW218354   4.160   1.775   8.500 -0.1776  2.5820  0.3144
 2241SOL     OW18355   0.486   0.134   5.839  0.0318 -0.7969  0.4182
 2241SOL    HW118356   0.498   0.126   5.744  2.2431  0.6930  0.5996
 2241SOL    HW218357   0.390   0.129   5.841  0.0076 -1.5986 -2.5708
 2242SOL     OW18358   1.354   1.559   4.436  0.0213 -0.5070 -0.6650
 2242SOL    HW118359   1.383   1.642   4.399 -3.2337  1.2506  0.7015
 2242SOL    HW218360   1.384   1.572   4.526  0.7573 -0.1852 -0.9579
 2243SOL     OW18361   2.978   3.135   1.666  0.0023  1.0279 -0.5453
 2243SOL    HW118362   2.929   3.164   1.589 -0.1249  1.2773 -0.3722
 2243SOL    HW218363   2.966   3.219   1.711 -3.1091  0.8773 -1.0898
 2244SOL     OW18364   1.238   1.860   1.497 -0.2587  0.6448  0.7067
 2244SOL    HW118365   1.240   1.766   1.478 -2.4338  1.3430 -2.8779
 2244SOL    HW218366   1.163   1.859   1.557  0.2751  2.3697  1.4187
 2245SOL     OW18367   3.430   2.892   5.379  0.3285  0.0929  0.1885
 2245SOL    HW118368   3.429   2.852   5.466 -2.1987  0.4788  0.3472
 2245SOL    HW218369   3.486   2.831   5.333  0.4561  0.3501  0.0022
 2246SOL     OW18370   4.237   1.668   5.670 -0.4451  0.6149  0.1888
 2246SOL    HW118371   4.193   1.729   5.729  1.6115  0.4072  1.9458
 2246SOL    HW218372   4.300   1.729   5.632  0.4132 -0.5773 -0.3145
 2247SOL     OW18373   4.667   1.022   7.462  0.3891  0.1896 -0.3749
 2247SOL    HW118374   4.600   1.003   7.396  1.3309  0.1479 -1.3058
 2247SOL    HW218375   4.618   1.066   7.532  0.4000 -2.4040  1.2664
 2248SOL     OW18376   1.167   0.232   4.853 -0.3449 -0.5506  0.1955
 2248SOL    HW118377   1.161   0.188   4.939  0.6432  0.1850  0.6344
 2248SOL    HW218378   1.076   0.242   4.824 -0.0795 -0.1927 -0.5026
 2249SOL     OW18379   0.011   2.984   3.231  0.2699  0.5773 -0.5415
 2249SOL    HW118380   4.710   2.956   3.314 -1.1203  1.1367 -0.9879
 2249SOL    HW218381   4.671   2.979   3.174 -0.2987 -1.8847  0.4341
 2250SOL     OW18382   1.051   2.483   9.135  0.6046  0.6313  0.3780
 2250SOL    HW118383   1.046   2.572   9.100  1.4364  0.1551 -0.9698
 2250SOL    HW218384   1.045   2.507   9.227 -0.6000 -0.7605  0.6619
 2251SOL     OW18385   1.577   3.996  14.290 -0.6906  0.2922  0.1478
 2251SOL    HW118386   1.496   3.975  14.336 -1.4289 -2.6531 -2.4566
 2251SOL    HW218387   1.536   4.039  14.215 -1.3708  0.9356  0.8907
 2252SOL     OW18388   1.062   3.217   6.674  0.3074  0.6770 -0.0424
 2252SOL    HW118389   0.996   3.154   6.702 -0.9763  1.8126 -0.5358
 2252SOL    HW218390   1.144   3.168   6.678 -0.1801 -0.3274 -2.1362
 2253SOL     OW18391   4.480   4.519   5.346 -0.0919  0.0359  0.0132
 2253SOL    HW118392   4.573   4.531   5.367 -0.3869  0.5643  0.9693
 2253SOL    HW218393   4.457   4.592   5.288 -0.3489  0.2636  0.4065
 2254SOL     OW18394   1.161   0.375   7.970 -0.3000  0.0120  0.5043
 2254SOL    HW118395   1.071   0.407   7.970 -0.7750 -1.3415 -1.2618
 2254SOL    HW218396   1.168   0.333   8.056 -0.1715  0.9072  0.9373
 2255SOL     OW18397   1.209   4.387  12.702 -0.1167 -0.2842  0.3359
 2255SOL    HW118398   1.177   4.391  12.612  0.9609  1.6956  0.0264
 2255SOL    HW218399   1.164   4.466  12.732  2.4493  0.0281  3.3966
 2256SOL     OW18400   1.737   0.688   9.124  0.2373 -0.1754  0.5567
 2256SOL    HW118401   1.792   0.739   9.065 -1.9116  0.3719 -0.9812
 2256SOL    HW218402   1.793   0.687   9.202  0.3282 -0.1288  0.4916
 2257SOL     OW18403   0.399   1.422  11.684  0.6574 -0.2298  0.0303
 2257SOL    HW118404   0.333   1.426  11.753  2.1251 -0.2496  1.4456
 2257SOL    HW218405   0.428   1.509  11.658  1.0245 -1.8719 -4.9945
 2258SOL     OW18406   2.117   0.254  10.540  0.2765  0.8566  0.3077
 2258SOL    HW118407   2.057   0.328  10.538 -0.0341  0.5928 -0.1325
 2258SOL    HW218408   2.074   0.195  10.601  0.4820 -0.0372 -0.4123
 2259SOL     OW18409   3.461   0.462   0.047  0.1819  0.1782  0.1071
 2259SOL    HW118410   3.421   0.449  17.706 -1.4632  0.8219  0.7907
 2259SOL    HW218411   3.498   0.375   0.064 -1.4438 -0.6764 -0.7633
 2260SOL     OW18412   0.963   3.731  15.212  0.2824  0.0613 -0.0090
 2260SOL    HW118413   1.017   3.798  15.255  0.4142  0.1016 -0.2404
 2260SOL    HW218414   1.022   3.703  15.142  0.5628 -0.8935  0.6039
 2261SOL     OW18415   1.172   0.038  11.801 -0.1769 -0.1208  0.6263
 2261SOL    HW118416   1.100   0.042  11.863 -1.5382  0.7085 -1.0098
 2261SOL    HW218417   1.246   0.044  11.862  1.7931  2.0280 -1.9772
 2262SOL     OW18418   4.731   3.895   5.472  0.1934  0.5820 -0.1340
 2262SOL    HW118419   4.695   3.968   5.521  0.4612  1.3028 -0.9954
 2262SOL    HW218420   4.675   3.886   5.394 -0.3335 -2.2324  0.5582
 2263SOL     OW18421   1.374   1.786  14.884 -0.1052  0.2674 -0.5390
 2263SOL    HW118422   1.314   1.845  14.837 -0.2954 -0.4646 -1.2202
 2263SOL    HW218423   1.362   1.698  14.849  1.0391  0.5982 -1.7441
 2264SOL     OW18424   4.495   0.132  10.002  1.2806  0.6711 -0.4197
 2264SOL    HW118425   4.449   0.085  10.071  0.8785  1.0251 -0.4520
 2264SOL    HW218426   4.528   0.059   9.948  0.6088  0.5368 -0.6470
 2265SOL     OW18427   0.413   1.874  13.183 -0.0479  0.1066 -0.1653
 2265SOL    HW118428   0.491   1.900  13.135  0.3866 -0.0339  0.4652
 2265SOL    HW218429   0.349   1.856  13.114  0.7402  1.8281 -1.3421
 2266SOL     OW18430   4.021   2.101   8.208 -0.5379 -0.2297 -0.3371
 2266SOL    HW118431   3.962   2.138   8.274  2.9648  0.1249  2.5960
 2266SOL    HW218432   3.963   2.052   8.149 -0.3020 -0.9285  0.0108
 2267SOL     OW18433   3.217   1.515   7.985 -0.0551  0.2222 -0.3887
 2267SOL    HW118434   3.234   1.519   8.079  1.6792 -1.3502 -0.6284
 2267SOL    HW218435   3.297   1.481   7.944  0.8927 -0.3941  1.9753
 2268SOL     OW18436   0.893   3.880   5.415 -0.0344  0.3150  0.2486
 2268SOL    HW118437   0.867   3.962   5.458  2.3243  0.8083  0.7365
 2268SOL    HW218438   0.823   3.826   5.452  0.1259 -0.8087 -1.0918
 2269SOL     OW18439   1.738   0.431   3.042 -0.0547 -0.1236  0.5076
 2269SOL    HW118440   1.647   0.434   3.074 -0.4399  1.7587 -0.7850
 2269SOL    HW218441   1.776   0.356   3.089  3.3593  0.4489 -1.3917
 2270SOL     OW18442   1.024   1.107   6.456 -0.0208 -0.0236 -0.0353
 2270SOL    HW118443   1.088   1.130   6.523 -0.7708  1.1679  0.2827
 2270SOL    HW218444   1.071   1.142   6.380 -0.6256  1.0942  0.0951
 2271SOL     OW18445   1.493   3.684   4.884  0.0334  0.5235  0.4333
 2271SOL    HW118446   1.434   3.676   4.809  1.1521 -1.7324 -0.2166
 2271SOL    HW218447   1.441   3.657   4.960 -2.3698  0.2984 -1.2790
 2272SOL     OW18448   3.432   3.734   6.988 -0.7007 -0.3349  0.0370
 2272SOL    HW118449   3.411   3.822   6.958  0.2238 -0.1336 -0.0164
 2272SOL    HW218450   3.394   3.683   6.917  1.7416 -1.6893 -0.2886
 2273SOL     OW18451   2.839   1.014  17.480 -0.2675  0.0424  0.2156
 2273SOL    HW118452   2.857   1.103  17.509  4.0611 -1.0645  1.0306
 2273SOL    HW218453   2.913   0.995  17.422 -0.9187 -0.6857 -0.3881
 2274SOL     OW18454   1.098   0.904   2.731 -0.1638  0.0491  0.3962
 2274SOL    HW118455   1.053   0.850   2.666  1.6160 -1.5874  0.5094
 2274SOL    HW218456   1.117   0.979   2.674 -0.7890  0.0869  0.2371
 2275SOL     OW18457   1.764   3.597   9.937  0.1489 -0.5785  0.4795
 2275SOL    HW118458   1.844   3.593   9.990 -0.6609  0.0938  1.7229
 2275SOL    HW218459   1.784   3.556   9.852 -1.0134 -0.6207  0.2277
 2276SOL     OW18460   0.139   3.737   4.683 -0.9680 -0.0729 -0.2087
 2276SOL    HW118461   0.224   3.767   4.716 -1.0426  1.0663 -1.0243
 2276SOL    HW218462   0.077   3.793   4.730 -0.1233 -0.6491  1.5774
 2277SOL     OW18463   4.387   0.396   9.647 -0.2689  0.1468  0.2032
 2277SOL    HW118464   4.400   0.328   9.582 -0.7600 -0.3992  0.6812
 2277SOL    HW218465   4.477   0.401   9.679 -0.9691 -1.9151  2.4718
 2278SOL     OW18466   2.809   2.258  15.785 -0.3817 -0.7875 -0.4942
 2278SOL    HW118467   2.809   2.221  15.873 -1.7153  1.7223  0.5886
 2278SOL    HW218468   2.875   2.326  15.799  0.1595 -0.9373 -2.4352
 2279SOL     OW18469   4.323   2.335   8.065  0.1864  0.3619 -0.0306
 2279SOL    HW118470   4.369   2.413   8.096 -1.3949  1.3035 -0.0455
 2279SOL    HW218471   4.311   2.282   8.144  1.6404  0.3117  0.1598
 2280SOL     OW18472   2.963   2.247   2.416 -0.3986 -0.0660 -0.1617
 2280SOL    HW118473   2.908   2.209   2.485  0.7359  0.5430  1.0884
 2280SOL    HW218474   2.891   2.297   2.377 -1.1932 -0.9064  0.2175
 2281SOL     OW18475   1.471   0.504   2.194 -0.2936  0.1459  0.2298
 2281SOL    HW118476   1.512   0.524   2.278  0.2890 -0.0476 -0.0137
 2281SOL    HW218477   1.468   0.583   2.140 -0.1266 -0.1892 -0.2670
 2282SOL     OW18478   2.177   1.995   4.638  0.0899  0.0275 -0.3044
 2282SOL    HW118479   2.267   2.018   4.663  0.6839 -1.9392 -0.6932
 2282SOL    HW218480   2.170   2.064   4.572  1.3168 -0.0339 -0.4991
 2283SOL     OW18481   0.517   3.411  11.265 -0.1069  0.0633 -0.1016
 2283SOL    HW118482   0.495   3.455  11.184 -1.9396 -1.2105 -0.3083
 2283SOL    HW218483   0.588   3.470  11.291  1.3828  0.0722 -4.2108
 2284SOL     OW18484   1.530   1.181   8.943 -0.7511  0.7200  0.1849
 2284SOL    HW118485   1.443   1.221   8.939 -0.0026  2.4681  1.5744
 2284SOL    HW218486   1.508   1.100   8.896 -2.5424 -0.4324  3.0494
 2285SOL     OW18487   1.291   3.344   1.093  0.1188  0.2604  0.4240
 2285SOL    HW118488   1.232   3.411   1.127 -0.8238  0.4008 -1.4935
 2285SOL    HW218489   1.342   3.338   1.174 -1.1483  0.2654  1.2341
 2286SOL     OW18490   0.101   3.614  17.465 -0.1291 -0.0148  0.4384
 2286SOL    HW118491   0.095   3.651  17.553 -2.5816 -1.4553  0.8873
 2286SOL    HW218492   0.183   3.565  17.461 -0.3769 -0.4413  0.6355
 2287SOL     OW18493   0.576   0.317   1.214  0.0957  0.0148  0.7603
 2287SOL    HW118494   0.538   0.324   1.301 -0.9558 -0.5435  0.3478
 2287SOL    HW218495   0.624   0.234   1.218  1.8443  0.9492 -0.7831
 2288SOL     OW18496   2.768   1.113   2.276  0.7009  0.0878  1.0213
 2288SOL    HW118497   2.841   1.078   2.327  1.7008 -0.3057 -0.6677
 2288SOL    HW218498   2.722   1.032   2.252 -0.3758  1.4001 -1.4461
 2289SOL     OW18499   3.487   4.057  10.106  0.2675 -0.0089 -0.2520
 2289SOL    HW118500   3.560   3.999  10.128  1.3204  1.7814  0.9688
 2289SOL    HW218501   3.488   4.118  10.180 -0.8844 -0.0226 -0.2217
 2290SOL     OW18502   1.391   3.506   9.769  0.4959  0.3554 -0.0903
 2290SOL    HW118503   1.376   3.584   9.716 -0.0597  1.8289  2.2402
 2290SOL    HW218504   1.335   3.521   9.845 -0.2106 -2.5628 -0.0328
 2291SOL     OW18505   4.588   0.704   7.309 -0.0227 -0.2552  0.0749
 2291SOL    HW118506   4.520   0.637   7.309  1.1496 -1.4437  1.1367
 2291SOL    HW218507   4.596   0.722   7.403  1.2282 -0.6761  0.0487
 2292SOL     OW18508   4.178   2.993  11.663  0.1008 -0.1454  0.7021
 2292SOL    HW118509   4.119   3.037  11.602 -1.8562 -1.7318  1.4410
 2292SOL    HW218510   4.123   2.957  11.732 -0.3638 -2.1969 -0.7238
 2293SOL     OW18511   0.774   1.063  12.769  0.4987  0.4867  0.3723
 2293SOL    HW118512   0.863   1.048  12.801  0.1511  0.0516  1.1364
 2293SOL    HW218513   0.740   1.124  12.834 -1.9438 -0.7723  0.2700
 2294SOL     OW18514   1.405   2.258   4.271 -0.5999 -0.3901  0.3433
 2294SOL    HW118515   1.334   2.283   4.212 -0.0630  2.5751  0.9556
 2294SOL    HW218516   1.444   2.344   4.286 -2.1135  0.4248 -0.4120
 2295SOL     OW18517   1.133   1.115   6.036  0.2555 -0.2536  0.1679
 2295SOL    HW118518   1.049   1.091   5.998 -0.0491  0.4718  0.3865
 2295SOL    HW218519   1.146   1.192   5.982  0.1475 -0.0356  0.4530
 2296SOL     OW18520   1.868   1.425  15.708  0.2379 -0.5059  0.0332
 2296SOL    HW118521   1.955   1.429  15.667  1.1470  0.9238  2.0551
 2296SOL    HW218522   1.888   1.377  15.788 -2.7842  0.3930  1.3387
 2297SOL     OW18523   0.117   2.343   0.308  0.1340  0.8399  0.1251
 2297SOL    HW118524   0.157   2.426   0.335  2.0163 -0.2176  0.5698
 2297SOL    HW218525   0.148   2.347   0.218  0.1835 -0.6073  0.0803
 2298SOL     OW18526   1.347   3.258   4.636  0.3678 -0.0290  0.0870
 2298SOL    HW118527   1.290   3.279   4.710 -2.4202 -2.6794 -1.2901
 2298SOL    HW218528   1.374   3.345   4.609  0.4239 -0.4970 -1.3470
 2299SOL     OW18529   1.275   2.149   5.535 -0.0002 -0.5708  0.5518
 2299SOL    HW118530   1.295   2.226   5.482  0.4374 -0.7904  0.4031
 2299SOL    HW218531   1.334   2.092   5.486  0.8399 -0.4527  1.4189
 2300SOL     OW18532   1.869   4.210   7.965 -0.0931  0.1062 -0.6954
 2300SOL    HW118533   1.781   4.197   7.931 -1.8257  3.4159  2.5656
 2300SOL    HW218534   1.864   4.166   8.049  0.7541 -1.4237 -1.4527
 2301SOL     OW18535   2.540   3.558   7.253  0.0130 -0.0861  0.0083
 2301SOL    HW118536   2.627   3.588   7.227 -0.8359  2.9170  0.5255
 2301SOL    HW218537   2.565   3.471   7.283  0.4304  0.4635  1.2830
 2302SOL     OW18538   4.299   2.032   9.589 -0.2206  0.3674  0.0571
 2302SOL    HW118539   4.223   2.080   9.556 -0.7496 -0.1820  0.4680
 2302SOL    HW218540   4.343   2.001   9.510 -2.2526  1.2881 -1.4298
 2303SOL     OW18541   4.303   0.880   7.347  0.4433 -0.5363 -0.3030
 2303SOL    HW118542   4.349   0.907   7.426 -0.2190  2.3927 -0.8996
 2303SOL    HW218543   4.326   0.788   7.339  1.1377 -0.4046  0.2960
 2304SOL     OW18544   1.392   3.139   2.672  0.2966 -0.0493  0.5159
 2304SOL    HW118545   1.471   3.193   2.675  0.4161 -0.1915 -0.1942
 2304SOL    HW218546   1.355   3.153   2.760 -0.9997 -0.2235  0.0061
 2305SOL     OW18547   2.069   2.169   2.351  0.9681  0.4288  0.6325
 2305SOL    HW118548   2.090   2.139   2.262  0.8340 -1.9422  1.4215
 2305SOL    HW218549   2.052   2.092   2.404  4.3272 -0.6213  0.1683
 2306SOL     OW18550   3.749   4.483  15.871 -0.5019  0.0465  0.2512
 2306SOL    HW118551   3.842   4.474  15.850 -0.6194  1.1414 -0.6916
 2306SOL    HW218552   3.749   4.561  15.926  1.1510 -1.6304  2.6168
 2307SOL     OW18553   1.433   1.295   4.576 -0.3634 -0.0310 -0.5037
 2307SOL    HW118554   1.483   1.332   4.649  2.9392 -0.1073 -2.7500
 2307SOL    HW218555   1.495   1.301   4.503 -0.4436  3.1646 -0.3111
 2308SOL     OW18556   4.094   1.603   6.794  0.1565  0.0277 -0.1867
 2308SOL    HW118557   4.057   1.593   6.881  0.8324  1.5219  0.2689
 2308SOL    HW218558   4.013   1.580   6.749  0.4430  0.8100 -1.1036
 2309SOL     OW18559   0.026   3.206   9.049 -0.1102 -0.0051 -0.1875
 2309SOL    HW118560   4.721   3.258   8.980 -0.6475 -1.3342 -0.8506
 2309SOL    HW218561   4.737   3.259   9.124  0.1476 -0.3487  0.1432
 2310SOL     OW18562   1.478   1.552   7.376  0.4783 -0.0620 -0.3150
 2310SOL    HW118563   1.560   1.507   7.394 -0.1460 -1.5302 -1.2362
 2310SOL    HW218564   1.502   1.636   7.416 -0.1756  0.4538 -1.0078
 2311SOL     OW18565   1.964   4.641  13.139  0.2561  0.4027 -0.2757
 2311SOL    HW118566   1.981   4.603  13.053  0.0537  0.8216 -0.5004
 2311SOL    HW218567   2.052   4.651  13.175  0.5295 -1.7996 -0.3089
 2312SOL     OW18568   2.555   0.009   2.819 -0.0676  0.3351  0.2493
 2312SOL    HW118569   2.543   4.684   2.747 -1.8271 -1.1571  1.8301
 2312SOL    HW218570   2.605   4.691   2.878  1.4840  1.4683 -0.0095
 2313SOL     OW18571   3.289   0.143   5.679 -0.0660 -0.0181 -0.4423
 2313SOL    HW118572   3.202   0.103   5.673  0.0820 -0.4858  0.4906
 2313SOL    HW218573   3.323   0.111   5.763  0.2862  0.2124 -0.4994
 2314SOL     OW18574   2.276   0.894   9.920 -0.4478  0.5075 -0.2320
 2314SOL    HW118575   2.206   0.855   9.973  0.2530  0.9071  0.9875
 2314SOL    HW218576   2.353   0.880   9.975  0.0276  2.2492 -0.4516
 2315SOL     OW18577   1.544   1.414   9.671 -0.1549 -0.2447 -0.3931
 2315SOL    HW118578   1.552   1.506   9.697  1.5454 -1.4131  3.2204
 2315SOL    HW218579   1.467   1.397   9.726  0.5323 -0.4941  0.4925
 2316SOL     OW18580   4.101   2.747   6.154  0.2494 -0.7230 -0.5086
 2316SOL    HW118581   4.193   2.751   6.180 -0.0770 -0.2531  0.5891
 2316SOL    HW218582   4.074   2.712   6.239  0.1804 -2.4757 -1.2516
 2317SOL     OW18583   0.936   3.885   3.560 -0.2541  0.3297  0.2952
 2317SOL    HW118584   0.886   3.966   3.553 -0.4414  0.1814 -0.1143
 2317SOL    HW218585   0.988   3.892   3.480 -1.6866 -0.1174 -0.6790
 2318SOL     OW18586   1.181   1.232   5.779  0.4801  0.4295 -0.1742
 2318SOL    HW118587   1.258   1.278   5.745 -0.1408  1.0301 -0.7829
 2318SOL    HW218588   1.175   1.156   5.722  1.8027 -0.5815  1.0484
 2319SOL     OW18589   3.673   1.745   4.715 -0.4499 -0.2905 -0.5832
 2319SOL    HW118590   3.768   1.741   4.709 -0.4003  0.5723 -0.3541
 2319SOL    HW218591   3.673   1.655   4.747  0.3399  0.4992  1.6408
 2320SOL     OW18592   4.285   1.765   8.904  0.0670  0.0557  0.0319
 2320SOL    HW118593   4.218   1.735   8.843 -0.6486 -1.2765  1.4894
 2320SOL    HW218594   4.369   1.740   8.864  0.8343  0.1209  1.5927
 2321SOL     OW18595   4.067   3.729   5.751 -0.3214  0.0605  0.3976
 2321SOL    HW118596   4.050   3.814   5.791  2.2154  0.0804  1.4007
 2321SOL    HW218597   4.060   3.668   5.825  3.4788 -0.7812  0.0450
 2322SOL     OW18598   3.965   0.240   2.119 -0.1841  0.4179 -0.2733
 2322SOL    HW118599   3.959   0.192   2.202  0.4411  2.6622  1.0460
 2322SOL    HW218600   3.879   0.282   2.115  0.1640  1.2171  0.7393
 2323SOL     OW18601   2.532   3.758   0.534  0.4783  0.1639  0.3733
 2323SOL    HW118602   2.549   3.850   0.512  0.2792  0.2983  0.7746
 2323SOL    HW218603   2.519   3.768   0.628  1.3150  0.6032  0.4471
 2324SOL     OW18604   0.652   1.642   4.776 -0.1119  0.1003 -0.1931
 2324SOL    HW118605   0.702   1.562   4.791  1.2461  1.0468  0.4460
 2324SOL    HW218606   0.687   1.660   4.689 -0.1444 -1.3392 -0.5057
 2325SOL     OW18607   4.716   1.115  11.823 -0.0318  0.5335 -0.9519
 2325SOL    HW118608   4.686   1.026  11.802  2.3354 -0.5737  0.3307
 2325SOL    HW218609   0.025   1.103  11.907 -0.7016 -0.3592 -0.7113
 2326SOL     OW18610   0.053   2.707   9.646  0.1260  0.1680  0.1518
 2326SOL    HW118611   4.736   2.723   9.568 -0.3409 -1.3279  0.1653
 2326SOL    HW218612   4.728   2.706   9.719  0.3856  0.9936  0.3917
 2327SOL     OW18613   3.096   1.425   2.291  0.3282 -0.1543  0.3945
 2327SOL    HW118614   3.038   1.388   2.225 -0.8860  1.1580  0.7420
 2327SOL    HW218615   3.185   1.394   2.270 -0.7953 -0.8273 -3.3272
 2328SOL     OW18616   0.338   4.284  12.724 -0.1553 -0.4304  0.3525
 2328SOL    HW118617   0.280   4.216  12.758 -1.2340  2.2635  3.9260
 2328SOL    HW218618   0.308   4.365  12.765  2.1051 -0.4809  2.0627
 2329SOL     OW18619   0.668   1.190   4.984  0.8387 -0.1148 -0.1317
 2329SOL    HW118620   0.630   1.104   5.001 -1.0092  0.5081 -1.0554
 2329SOL    HW218621   0.686   1.216   5.074 -1.3200 -0.9518  0.5369
 2330SOL     OW18622   1.017   2.191   1.293 -0.5058 -0.1493 -0.0791
 2330SOL    HW118623   0.971   2.138   1.358  0.0685 -0.3549  0.1576
 2330SOL    HW218624   1.098   2.140   1.289 -0.5307 -0.2695  1.0285
 2331SOL     OW18625   1.696   3.184  15.124  0.3317  0.0935 -0.6783
 2331SOL    HW118626   1.726   3.223  15.206 -2.2483 -1.9684  1.2394
 2331SOL    HW218627   1.666   3.264  15.082  0.3603  0.1485 -0.5942
 2332SOL     OW18628   1.707   1.696  14.671  0.1649 -0.1612 -0.6032
 2332SOL    HW118629   1.757   1.622  14.639  0.1338  0.2703 -1.6377
 2332SOL    HW218630   1.731   1.698  14.764  0.3075 -1.0955 -0.6277
 2333SOL     OW18631   1.189   2.163   5.103  0.1476  0.1802 -0.3079
 2333SOL    HW118632   1.148   2.153   5.188 -1.3792 -0.9228 -1.1920
 2333SOL    HW218633   1.279   2.142   5.128  0.3046 -0.5097 -1.4424
 2334SOL     OW18634   0.072   1.126   3.025  0.0531 -0.3600  0.6029
 2334SOL    HW118635   0.068   1.222   3.020  0.3145 -0.2299  2.9876
 2334SOL    HW218636   4.717   1.099   3.022  0.3478 -1.3869  0.7476
 2335SOL     OW18637   0.609   1.291   7.571 -0.1838  0.2597  0.1806
 2335SOL    HW118638   0.598   1.229   7.643 -0.0997 -1.4048 -1.2493
 2335SOL    HW218639   0.594   1.379   7.607 -0.2497  0.2808  0.1035
 2336SOL     OW18640   3.488   2.015   3.471  0.0660 -0.1790  0.3648
 2336SOL    HW118641   3.570   1.972   3.495  1.2941  1.0725 -1.5900
 2336SOL    HW218642   3.432   2.007   3.548 -0.8184 -1.1984 -0.3973
 2337SOL     OW18643   2.174   0.641  13.029 -0.1823  0.8199 -0.3395
 2337SOL    HW118644   2.176   0.559  12.979 -1.2954  0.0636  0.8740
 2337SOL    HW218645   2.091   0.634  13.074  0.8165 -0.6270  1.2538
 2338SOL     OW18646   1.577   2.606   8.913  0.0810  0.6269 -0.3496
 2338SOL    HW118647   1.590   2.677   8.976 -1.5644  2.3153 -1.9279
 2338SOL    HW218648   1.609   2.539   8.974  0.5149  0.2145 -1.0337
 2339SOL     OW18649   0.435   3.333   7.636  0.4849  0.2058  0.6002
 2339SOL    HW118650   0.388   3.270   7.692  0.8958  1.1116  1.9760
 2339SOL    HW218651   0.490   3.365   7.708 -0.1376 -0.5392  1.4236
 2340SOL     OW18652   1.246   2.764   1.567  0.3781 -0.2919  0.1575
 2340SOL    HW118653   1.245   2.843   1.620 -0.9945 -1.1094  1.3774
 2340SOL    HW218654   1.171   2.782   1.510  1.1539  0.9888 -0.4624
 2341SOL     OW18655   1.985   2.024   5.996  0.2089  0.4853  0.5272
 2341SOL    HW118656   1.953   1.943   5.957 -0.0442  1.3578 -1.0861
 2341SOL    HW218657   2.020   2.070   5.920  0.6863  0.0286  0.4760
 2342SOL     OW18658   2.848   3.773   2.286  0.4123  0.1848 -0.0738
 2342SOL    HW118659   2.874   3.824   2.363  0.7352  1.9701 -1.3700
 2342SOL    HW218660   2.929   3.780   2.235  0.2292 -2.1388 -0.7126
 2343SOL     OW18661   4.234   3.523   4.449  0.6067  0.2136  0.3179
 2343SOL    HW118662   4.258   3.521   4.542  0.1927  1.2441  0.4463
 2343SOL    HW218663   4.307   3.464   4.428  0.9327  0.1318  1.6413
 2344SOL     OW18664   2.590   3.351   7.651 -0.1025 -0.4293  1.1098
 2344SOL    HW118665   2.565   3.344   7.559  1.6823  1.7938  0.4481
 2344SOL    HW218666   2.671   3.299   7.654  1.0877  1.1918 -2.3016
 2345SOL     OW18667   2.126   2.782  13.514  0.1644  0.1978  0.3217
 2345SOL    HW118668   2.218   2.755  13.517  0.4345  0.9415 -0.9916
 2345SOL    HW218669   2.129   2.865  13.465 -1.8499  0.2090  0.2151
 2346SOL     OW18670   2.483   2.053   3.484  0.3858  0.3524 -0.0930
 2346SOL    HW118671   2.436   2.135   3.468 -1.3952 -0.3779  1.4488
 2346SOL    HW218672   2.471   2.014   3.398 -0.1470 -0.3617  0.3120
 2347SOL     OW18673   1.903   2.019   8.443 -1.2977  0.5638  0.1894
 2347SOL    HW118674   1.974   2.084   8.448 -1.4025  0.5734  1.5482
 2347SOL    HW218675   1.869   2.032   8.354 -0.1902  0.2796 -0.2688
 2348SOL     OW18676   2.757   1.543   8.436 -0.1257  0.5657 -0.2977
 2348SOL    HW118677   2.786   1.608   8.371  0.0344  2.8405  2.0138
 2348SOL    HW218678   2.810   1.466   8.415 -0.4878  0.1975  0.1458
 2349SOL     OW18679   2.097   0.280   4.417  0.3429 -0.2470 -0.0595
 2349SOL    HW118680   2.009   0.270   4.454  0.3743  0.2051  0.1379
 2349SOL    HW218681   2.090   0.373   4.393 -0.4634 -0.2361  0.2185
 2350SOL     OW18682   1.091   2.101   3.888 -0.7977 -0.3072  0.1859
 2350SOL    HW118683   1.152   2.051   3.942 -0.8925 -2.2086 -1.4392
 2350SOL    HW218684   1.136   2.185   3.884 -1.1678 -0.1325 -0.4069
 2351SOL     OW18685   4.050   3.438  16.219 -0.3136 -0.4111  0.7695
 2351SOL    HW118686   4.022   3.459  16.308  0.0442  2.2117  0.2682
 2351SOL    HW218687   3.985   3.374  16.193  0.5929 -0.6533 -0.8917
 2352SOL     OW18688   4.490   1.525   5.309  0.2390  0.1710 -0.4654
 2352SOL    HW118689   4.434   1.509   5.234 -0.9715 -1.5933  0.8232
 2352SOL    HW218690   4.440   1.600   5.342 -1.0116 -1.2245  0.7994
 2353SOL     OW18691   1.915   0.677   9.327 -0.3704 -0.1423  0.6140
 2353SOL    HW118692   1.930   0.605   9.389 -2.0534 -0.4665  0.6480
 2353SOL    HW218693   1.960   0.747   9.374 -1.3798  0.6576  0.3963
 2354SOL     OW18694   2.134   0.272   5.608  0.2008 -0.3075  0.4901
 2354SOL    HW118695   2.150   0.355   5.653 -2.8134  0.4513  0.1782
 2354SOL    HW218696   2.172   0.289   5.522  0.0374  1.0564  0.6983
 2355SOL     OW18697   3.538   4.373   4.013 -0.5252 -0.3936  0.7754
 2355SOL    HW118698   3.455   4.414   3.991 -0.5172 -0.2770  0.9622
 2355SOL    HW218699   3.587   4.374   3.931 -2.7649 -3.2108 -0.5870
 2356SOL     OW18700   2.614   1.261   3.464  0.1613 -0.5471  0.5336
 2356SOL    HW118701   2.533   1.221   3.432  0.5831 -0.7682 -0.2624
 2356SOL    HW218702   2.595   1.354   3.465  1.3961 -0.3032  1.1247
 2357SOL     OW18703   2.721   3.628   7.637  0.2745 -0.7420 -0.0268
 2357SOL    HW118704   2.660   3.555   7.625  0.6834 -1.2364  0.8953
 2357SOL    HW218705   2.776   3.602   7.711  1.3964 -0.5717 -0.8094
 2358SOL     OW18706   4.251   2.551   0.548 -0.2219  0.3131  0.1335
 2358SOL    HW118707   4.326   2.504   0.584 -0.4627 -0.5012 -0.4141
 2358SOL    HW218708   4.192   2.554   0.623 -1.7592  1.5770 -1.1382
 2359SOL     OW18709   2.686   1.894   3.178  0.8542  0.6351  0.0068
 2359SOL    HW118710   2.591   1.908   3.179  0.5487 -1.3506 -1.3614
 2359SOL    HW218711   2.716   1.985   3.181  1.7858  0.4054 -2.3200
 2360SOL     OW18712   4.623   0.665   1.798 -0.2516  0.3703  0.5056
 2360SOL    HW118713   4.641   0.732   1.864 -0.8351  0.6668  0.3716
 2360SOL    HW218714   4.662   0.589   1.841  1.0572  0.0609 -1.2866
 2361SOL     OW18715   0.625   1.346  17.549  0.4921 -0.6985  0.0428
 2361SOL    HW118716   0.704   1.398  17.563  0.9462 -1.2741 -0.3253
 2361SOL    HW218717   0.577   1.399  17.485  2.0098 -0.8150 -1.2118
 2362SOL     OW18718   1.243   3.158   2.911  0.5266  0.4928 -0.1197
 2362SOL    HW118719   1.239   3.097   2.985 -1.7962 -2.0224 -2.2777
 2362SOL    HW218720   1.155   3.195   2.907 -0.0882 -0.8249  1.0185
 2363SOL     OW18721   1.112   1.888  10.527 -0.3139  0.6184 -0.2571
 2363SOL    HW118722   1.052   1.821  10.559  0.5907 -0.7423 -1.3758
 2363SOL    HW218723   1.124   1.940  10.606  0.9283  0.2302 -0.1883
 2364SOL     OW18724   0.384   2.886   8.152  0.0277 -0.0967 -0.4518
 2364SOL    HW118725   0.330   2.956   8.189 -0.5931 -1.3078  0.9355
 2364SOL    HW218726   0.332   2.808   8.171  0.4800 -0.1419  0.6350
 2365SOL     OW18727   1.277   3.445   9.480  0.3413  0.6592 -0.2853
 2365SOL    HW118728   1.338   3.377   9.454  0.5197  0.9852 -0.7189
 2365SOL    HW218729   1.338   3.506   9.520  0.9004  0.6339 -1.1128
 2366SOL     OW18730   2.629   3.687  14.932 -0.3919 -0.1405 -0.2724
 2366SOL    HW118731   2.609   3.593  14.931  0.6011 -0.3519 -0.1494
 2366SOL    HW218732   2.613   3.710  14.840  0.5975 -1.0446 -0.6658
 2367SOL     OW18733   1.779   1.899   3.331 -0.2645 -0.0756 -0.3699
 2367SOL    HW118734   1.722   1.959   3.283 -0.7133  1.5652  2.1996
 2367SOL    HW218735   1.864   1.917   3.291 -0.5026  1.1126 -0.3292
 2368SOL     OW18736   3.879   4.730   1.025  0.4377 -0.2133 -0.3586
 2368SOL    HW118737   3.916   4.736   0.937  1.3600 -0.8816 -0.0216
 2368SOL    HW218738   3.805   0.052   1.012 -0.8025 -1.6415  0.3353
 2369SOL     OW18739   4.374   4.642  14.957  0.4402 -0.0134 -0.0634
 2369SOL    HW118740   4.338   4.706  14.896 -0.0204 -1.8149 -1.7113
 2369SOL    HW218741   4.304   4.649  15.022 -0.5662 -0.2294 -1.1264
 2370SOL     OW18742   2.256   1.796   8.353  0.1793  0.6496  0.7588
 2370SOL    HW118743   2.170   1.812   8.313  0.1342  1.8616  1.3137
 2370SOL    HW218744   2.229   1.765   8.439 -0.5778 -0.2678  0.1898
 2371SOL     OW18745   2.258   1.150   6.826  0.0527 -0.1056 -0.0416
 2371SOL    HW118746   2.275   1.205   6.903  0.1769  0.1807 -0.2723
 2371SOL    HW218747   2.301   1.206   6.761 -0.5201  1.2848  0.7700
 2372SOL     OW18748   3.197   0.011  17.556  0.0542  0.0871 -0.3224
 2372SOL    HW118749   3.193   0.018  17.460  0.6872  1.5707 -0.2299
 2372SOL    HW218750   3.162   4.659  17.566  1.1255 -0.3231 -0.2582
 2373SOL     OW18751   1.795   0.788   7.686  0.1800  0.1101 -0.4810
 2373SOL    HW118752   1.783   0.705   7.639 -1.7778  0.0672  0.1025
 2373SOL    HW218753   1.874   0.775   7.738 -0.3513 -2.0692 -0.1850
 2374SOL     OW18754   4.064   2.885  12.894 -0.2159 -0.8860  0.4894
 2374SOL    HW118755   4.042   2.977  12.906  1.0634 -0.3465 -1.3290
 2374SOL    HW218756   3.975   2.856  12.871 -0.6023  0.6328  0.0967
 2375SOL     OW18757   4.473   2.973   0.887  0.1466  0.3772 -0.4740
 2375SOL    HW118758   4.393   2.982   0.940 -0.5931  2.6241 -1.9677
 2375SOL    HW218759   4.534   3.012   0.949 -1.2032  3.0574 -0.8142
 2376SOL     OW18760   4.080   3.847  15.408 -0.4977 -0.2337  0.2789
 2376SOL    HW118761   4.041   3.835  15.321 -0.3409  2.4449 -0.1596
 2376SOL    HW218762   4.152   3.905  15.386 -0.4779 -0.8154 -1.2328
 2377SOL     OW18763   3.440   2.614   0.821  0.1110 -0.1817  0.4324
 2377SOL    HW118764   3.398   2.562   0.889 -0.6224  0.0708  0.1706
 2377SOL    HW218765   3.530   2.626   0.853 -0.4940  0.3282  1.9479
 2378SOL     OW18766   2.434   1.078   9.543  0.1946  0.4168  0.5085
 2378SOL    HW118767   2.444   1.157   9.595 -2.6995  0.5608  0.8407
 2378SOL    HW218768   2.351   1.045   9.577 -0.4207 -0.2329 -1.6223
 2379SOL     OW18769   3.784   2.700   4.392 -0.2824  0.1374 -0.1314
 2379SOL    HW118770   3.764   2.621   4.342 -0.5099 -0.7051  1.3309
 2379SOL    HW218771   3.703   2.751   4.380 -0.7140 -0.9996 -2.1066
 2380SOL     OW18772   4.341   1.969   9.091  0.0208  0.0365 -0.1490
 2380SOL    HW118773   4.308   1.895   9.039 -0.3010 -0.6607  1.0366
 2380SOL    HW218774   4.260   2.002   9.128  1.0763  3.0269 -0.5713
 2381SOL     OW18775   3.014   1.112   8.667  0.0826 -0.1706  0.3907
 2381SOL    HW118776   3.106   1.128   8.649  0.2663 -0.5093  1.0299
 2381SOL    HW218777   3.000   1.032   8.615  0.2132  0.9264 -1.3290
 2382SOL     OW18778   1.661   1.343   4.777  0.5591  0.3606 -0.0598
 2382SOL    HW118779   1.715   1.267   4.753 -0.9780 -0.6466 -0.3310
 2382SOL    HW218780   1.697   1.411   4.721 -0.1115  0.4302 -0.4091
 2383SOL     OW18781   0.214   0.221   5.160 -0.2253 -0.1418 -0.6380
 2383SOL    HW118782   0.195   0.127   5.160  1.1783 -0.4276  0.5015
 2383SOL    HW218783   0.130   0.262   5.139 -0.8870 -0.5944  1.1408
 2384SOL     OW18784   3.293   1.046   8.636 -0.2496 -0.1247  0.0812
 2384SOL    HW118785   3.352   1.027   8.709  0.4148 -2.4057 -1.0606
 2384SOL    HW218786   3.355   1.041   8.563  0.5742 -1.5608  0.8901
 2385SOL     OW18787   2.156   3.444   7.903 -0.4472  0.3224  0.5969
 2385SOL    HW118788   2.245   3.414   7.924 -0.7798 -2.0631 -1.3996
 2385SOL    HW218789   2.171   3.539   7.905  0.8494  0.0581  4.1470
 2386SOL     OW18790   4.598   4.374   7.876 -0.3643 -0.0941  0.4697
 2386SOL    HW118791   4.551   4.353   7.795 -0.6350 -0.3454  0.6887
 2386SOL    HW218792   4.525   4.377   7.938 -1.4919  1.8372 -0.9726
 2387SOL     OW18793   2.785   1.080  11.690  0.5316  0.3743  0.0176
 2387SOL    HW118794   2.718   1.145  11.668 -1.1094 -1.5217 -0.5313
 2387SOL    HW218795   2.724   1.008  11.706  0.8919  0.6282  2.4728
 2388SOL     OW18796   2.963   4.312   0.826  0.3769 -0.4453  0.0608
 2388SOL    HW118797   3.021   4.355   0.763 -1.8471  0.0379 -1.6356
 2388SOL    HW218798   2.965   4.388   0.885 -1.5403 -2.0051  2.1426
 2389SOL     OW18799   3.003   1.311  12.893 -0.6169  0.4248  0.0157
 2389SOL    HW118800   3.014   1.221  12.862 -0.8737  0.0670  0.9529
 2389SOL    HW218801   3.053   1.359  12.828 -0.0777  0.9970  0.8546
 2390SOL     OW18802   3.399   1.307   6.203 -0.4507 -0.4983  0.2154
 2390SOL    HW118803   3.390   1.333   6.294  1.3840 -2.6131  1.0274
 2390SOL    HW218804   3.315   1.291   6.160 -0.0568 -2.9083  0.3138
 2391SOL     OW18805   1.314   0.212   3.271  0.2804  0.1422 -0.1174
 2391SOL    HW118806   1.392   0.255   3.307  1.7610 -1.6177 -1.2049
 2391SOL    HW218807   1.335   0.222   3.178  0.9964 -1.1687 -0.0917
 2392SOL     OW18808   3.232   2.720   5.030  0.1251 -0.2088  0.5967
 2392SOL    HW118809   3.203   2.674   5.109  1.8810  0.4853  1.6343
 2392SOL    HW218810   3.180   2.673   4.963  0.6139  1.5226 -1.0023
 2393SOL     OW18811   0.919   1.025   8.278 -0.2820  0.3326 -0.6179
 2393SOL    HW118812   0.884   0.938   8.258  1.6126 -0.5605 -0.0901
 2393SOL    HW218813   0.985   1.029   8.209  0.2332 -0.4521 -0.1774
 2394SOL     OW18814   2.450   3.439   9.133  0.1453  0.5119 -0.5168
 2394SOL    HW118815   2.486   3.399   9.212  0.2213  0.5901 -0.5123
 2394SOL    HW218816   2.425   3.525   9.167  0.3792  0.7387 -0.9079
 2395SOL     OW18817   0.955   3.880   7.714 -0.5516  0.0701 -0.8444
 2395SOL    HW118818   0.894   3.886   7.640 -0.4637  0.6782 -0.8649
 2395SOL    HW218819   1.018   3.814   7.685  0.2727  1.1467 -1.4783
 2396SOL     OW18820   4.598   1.040   1.975  0.2319  0.1461  0.5868
 2396SOL    HW118821   4.672   1.063   1.919  1.5620 -0.5021  2.0870
 2396SOL    HW218822   4.591   1.116   2.034 -1.8125  0.0170  0.5215
 2397SOL     OW18823   3.098   4.398  17.405 -0.4569  0.4787  0.1846
 2397SOL    HW118824   3.023   4.431  17.356  1.4529  3.1217 -0.9425
 2397SOL    HW218825   3.078   4.442  17.488 -1.9871  0.4227 -0.1507
 2398SOL     OW18826   0.673   4.012   7.454  0.7106 -0.1455 -0.3667
 2398SOL    HW118827   0.759   3.978   7.426  0.5989 -0.7547  0.0181
 2398SOL    HW218828   0.693   4.105   7.454  1.9275 -0.4047 -0.3547
 2399SOL     OW18829   1.341   0.581   6.912  0.2004  0.3897  0.3529
 2399SOL    HW118830   1.334   0.673   6.887 -0.8666 -0.6498 -3.1861
 2399SOL    HW218831   1.282   0.576   6.987  0.1331 -2.3142  0.1326
 2400SOL     OW18832   2.936   1.904   5.616  0.0199 -0.0619  0.4895
 2400SOL    HW118833   2.868   1.952   5.568  0.3661 -0.3666 -0.3009
 2400SOL    HW218834   2.993   1.977   5.642  3.3486 -2.5068  0.0459
 2401SOL     OW18835   1.913   3.581   7.372  0.3171 -0.2475  0.6407
 2401SOL    HW118836   1.894   3.591   7.465  0.5036 -1.0318  0.7619
 2401SOL    HW218837   1.847   3.516   7.350  0.2029  0.2470 -0.5131
 2402SOL     OW18838   2.622   2.983  16.160  0.0787  0.1793 -0.3573
 2402SOL    HW118839   2.563   3.041  16.207 -1.6238 -3.4899  2.0609
 2402SOL    HW218840   2.703   3.032  16.145 -0.8431  1.7016 -0.3019
 2403SOL     OW18841   2.749   2.245   6.056  0.4608 -0.2760  0.0955
 2403SOL    HW118842   2.786   2.323   6.015 -2.9389  2.7955  2.7665
 2403SOL    HW218843   2.792   2.180   6.001 -1.3416 -1.5067  0.1263
 2404SOL     OW18844   4.186   1.793   6.987  0.7327  0.4562 -0.2224
 2404SOL    HW118845   4.201   1.788   6.892 -1.8691  1.7258 -0.7172
 2404SOL    HW218846   4.139   1.711   7.004  1.0230  0.2920 -0.2120
 2405SOL     OW18847   3.500   2.622   8.488 -0.8199  0.0639  1.0823
 2405SOL    HW118848   3.476   2.663   8.572 -0.0914  1.1983  0.7424
 2405SOL    HW218849   3.595   2.634   8.491 -0.8947  1.0052 -0.4504
 2406SOL     OW18850   3.757   4.171   3.991  0.1756  0.1993 -0.5276
 2406SOL    HW118851   3.708   4.090   3.992  0.7942 -0.2088 -2.2934
 2406SOL    HW218852   3.707   4.228   4.049  0.0512 -0.9537  0.4862
 2407SOL     OW18853   2.633   3.857  17.507 -0.5418 -0.4179  0.6854
 2407SOL    HW118854   2.709   3.816  17.466 -0.9834 -2.1916  1.6799
 2407SOL    HW218855   2.672   3.930  17.555 -0.3614 -0.0044 -0.0820
 2408SOL     OW18856   0.642   0.650   0.047 -0.2328 -0.0838  0.0607
 2408SOL    HW118857   0.697   0.587   0.093  1.1690 -0.5301 -2.2791
 2408SOL    HW218858   0.578   0.658   0.118 -0.0352 -1.2769  0.3798
 2409SOL     OW18859   3.396   2.933   6.225 -0.0977 -0.0806 -0.5461
 2409SOL    HW118860   3.448   2.945   6.145  0.7543  1.4996  0.2481
 2409SOL    HW218861   3.312   2.913   6.184 -0.2817 -0.1806 -0.1091
 2410SOL     OW18862   4.612   2.862   1.322  0.3332  0.2406 -0.3638
 2410SOL    HW118863   4.593   2.942   1.372  0.8348 -0.8882  1.6414
 2410SOL    HW218864   4.596   2.797   1.390  0.3280  1.4809  0.8193
 2411SOL     OW18865   3.544   1.561   5.608  0.1282 -0.1459 -0.2980
 2411SOL    HW118866   3.586   1.647   5.608  0.1096 -0.1388  2.7092
 2411SOL    HW218867   3.564   1.542   5.517  1.4899 -1.1748  0.2209
 2412SOL     OW18868   0.850   1.586  15.689  0.2258 -0.1714  0.3527
 2412SOL    HW118869   0.784   1.517  15.692 -0.8912  0.8187 -1.0523
 2412SOL    HW218870   0.935   1.543  15.695  0.3081 -0.1345 -0.5613
 2413SOL     OW18871   1.564   3.219   3.096 -0.1017  0.4591  0.1800
 2413SOL    HW118872   1.651   3.178   3.092 -0.2488  0.3174 -1.4995
 2413SOL    HW218873   1.571   3.260   3.182  1.2282  0.2414  0.1827
 2414SOL     OW18874   2.636   4.638  16.995 -0.1709  0.3566  0.3422
 2414SOL    HW118875   2.695   4.696  16.946  1.4676 -0.8301  0.9111
 2414SOL    HW218876   2.564   4.627  16.933 -0.7764  1.2318  0.8973
 2415SOL     OW18877   4.530   4.172  11.161 -0.0438 -0.0763  0.1147
 2415SOL    HW118878   4.610   4.171  11.109  0.6197  0.9391  1.1134
 2415SOL    HW218879   4.476   4.133  11.092  0.7547 -0.9611 -0.0068
 2416SOL     OW18880   4.089   4.693  12.037 -0.6547 -0.1853  0.5474
 2416SOL    HW118881   3.995   4.692  12.018 -0.5809  1.2178  0.0683
 2416SOL    HW218882   4.116   4.698  11.946 -1.8480  0.7098  0.2487
 2417SOL     OW18883   4.127   0.225  13.522 -0.3472  0.1681 -0.0679
 2417SOL    HW118884   4.049   0.175  13.494 -0.2133 -0.2320  0.2743
 2417SOL    HW218885   4.186   0.150  13.522 -2.0301 -1.1690 -0.5678
 2418SOL     OW18886   3.266   1.122   9.588  0.1676  0.3000  0.1423
 2418SOL    HW118887   3.341   1.083   9.632 -1.5698 -1.6675  1.3484
 2418SOL    HW218888   3.295   1.211   9.565  1.8025 -0.5464 -1.0507
 2419SOL     OW18889   2.559   0.434   3.048  0.4270 -0.0518 -0.2494
 2419SOL    HW118890   2.563   0.382   2.968  1.9783 -1.0252  0.4699
 2419SOL    HW218891   2.645   0.474   3.039 -0.1297  1.2304  0.0225
 2420SOL     OW18892   2.135   4.083  13.458  0.0725 -0.1935 -0.1702
 2420SOL    HW118893   2.175   4.025  13.393 -1.3856 -0.1650 -1.0959
 2420SOL    HW218894   2.065   4.122  13.406 -0.0511  0.8033  0.7219
 2421SOL     OW18895   2.483   0.433   3.305  0.4407  0.8458  0.0198
 2421SOL    HW118896   2.487   0.446   3.211  1.1908 -0.3632 -0.1123
 2421SOL    HW218897   2.575   0.439   3.331  0.9701 -1.6934 -1.3326
 2422SOL     OW18898   3.683   1.472   4.809  0.4737 -0.1227  0.0145
 2422SOL    HW118899   3.632   1.415   4.751 -0.4059 -0.3974  1.0574
 2422SOL    HW218900   3.771   1.434   4.816  0.3556 -0.4141 -0.0658
 2423SOL     OW18901   1.512   3.961  13.316  0.5848  0.1540 -0.1198
 2423SOL    HW118902   1.588   3.907  13.337  0.0538  0.0417  1.5022
 2423SOL    HW218903   1.545   4.004  13.237 -2.3202  0.0015 -1.4246
 2424SOL     OW18904   3.564   0.455   6.129 -0.5420 -0.4010  0.7919
 2424SOL    HW118905   3.622   0.467   6.205  0.4214  1.4114 -0.2183
 2424SOL    HW218906   3.503   0.529   6.132 -0.6016 -0.4390  0.4793
 2425SOL     OW18907   2.812   4.238   7.487 -0.0187  0.2235  0.9214
 2425SOL    HW118908   2.874   4.259   7.418 -0.6465 -1.0332 -0.0218
 2425SOL    HW218909   2.846   4.153   7.516  1.1023  0.1543 -0.6393
 2426SOL     OW18910   0.801   0.604   5.654  0.1004  0.3982  0.6753
 2426SOL    HW118911   0.805   0.658   5.732  3.4547  0.5721  0.3723
 2426SOL    HW218912   0.732   0.540   5.673 -0.6542  0.8925 -0.3763
 2427SOL     OW18913   2.333   4.456   5.587  0.1265  0.1859  0.5407
 2427SOL    HW118914   2.388   4.412   5.523 -1.2532 -2.0451  0.8772
 2427SOL    HW218915   2.398   4.470   5.656  0.1530 -0.8460  0.7174
 2428SOL     OW18916   1.386   1.689  10.351 -0.0657 -0.1809 -0.0750
 2428SOL    HW118917   1.364   1.601  10.382 -0.6495 -0.0516 -0.1266
 2428SOL    HW218918   1.474   1.670  10.320 -0.2339  0.4033 -0.9212
 2429SOL     OW18919   2.607   3.804   5.078 -0.2022  0.3376 -0.0383
 2429SOL    HW118920   2.639   3.760   4.999 -1.4517  0.8496 -0.8385
 2429SOL    HW218921   2.633   3.738   5.142 -2.8393 -0.5612  0.1113
 2430SOL     OW18922   0.586   1.168   7.079  0.6530  0.0384 -0.7000
 2430SOL    HW118923   0.506   1.134   7.040  1.3292 -0.3110 -1.7873
 2430SOL    HW218924   0.544   1.174   7.165  2.5560  2.6699  0.0348
 2431SOL     OW18925   2.340   3.694   7.385 -0.1908  0.3725 -0.2630
 2431SOL    HW118926   2.419   3.657   7.346 -0.6159 -1.0313  0.2177
 2431SOL    HW218927   2.290   3.621   7.422  1.0938 -0.7302 -0.7002
 2432SOL     OW18928   2.094   3.177   0.415  0.4706 -0.7494  0.4072
 2432SOL    HW118929   2.160   3.188   0.347 -1.0973  2.7580 -0.5845
 2432SOL    HW218930   2.022   3.219   0.368  1.0285  0.4853  0.6329
 2433SOL     OW18931   1.181   1.316   3.202  0.1683 -0.4042 -0.4752
 2433SOL    HW118932   1.122   1.333   3.275 -0.8437 -1.0014 -1.1682
 2433SOL    HW218933   1.125   1.348   3.132 -0.5516  1.5168  0.9695
 2434SOL     OW18934   3.132   2.669  11.768 -0.3524 -0.8317  0.3153
 2434SOL    HW118935   3.088   2.591  11.801 -0.8252 -1.4721 -1.7946
 2434SOL    HW218936   3.067   2.739  11.778  0.9120  0.2738  0.8251
 2435SOL     OW18937   4.034   2.954   8.149 -0.2691 -0.5285  0.2743
 2435SOL    HW118938   3.972   2.882   8.139 -1.3472  0.3193  0.8165
 2435SOL    HW218939   4.056   2.949   8.242 -4.5290 -0.6359  1.2830
 2436SOL     OW18940   4.062   0.555   5.009  0.0111  0.4880 -0.3350
 2436SOL    HW118941   3.989   0.608   5.039 -0.0728  0.1574  0.0588
 2436SOL    HW218942   4.140   0.607   5.029  0.8452 -1.1456  0.7021
 2437SOL     OW18943   0.491   0.128   5.573  0.3142 -0.4065 -0.8394
 2437SOL    HW118944   0.423   0.074   5.532 -1.3110  0.0858  1.2200
 2437SOL    HW218945   0.503   0.203   5.514  0.5297 -0.2217 -0.5588
 2438SOL     OW18946   2.271   4.286   9.483  0.0609  0.2549  0.4235
 2438SOL    HW118947   2.251   4.307   9.574  0.4281 -2.8829  1.2110
 2438SOL    HW218948   2.268   4.191   9.485  1.1739  0.2263  0.6378
 2439SOL     OW18949   2.096   3.383   6.558  0.0581 -0.1005  0.3850
 2439SOL    HW118950   2.161   3.333   6.607 -0.0204 -0.6518 -0.0665
 2439SOL    HW218951   2.013   3.339   6.576 -0.0845 -0.2516 -0.6718
 2440SOL     OW18952   4.113   4.269   3.203 -0.0830  0.0446  0.1004
 2440SOL    HW118953   4.200   4.251   3.168 -0.6550 -3.2268  0.3244
 2440SOL    HW218954   4.105   4.192   3.259 -2.5908 -1.7342 -2.6606
 2441SOL     OW18955   0.821   1.969   4.434  0.0734 -0.1759 -0.1165
 2441SOL    HW118956   0.894   1.988   4.375 -0.4482  1.4057 -0.2470
 2441SOL    HW218957   0.852   1.905   4.499 -1.1511  0.8237  1.4461
 2442SOL     OW18958   4.660   1.939   7.607  0.2017 -0.0916 -0.0596
 2442SOL    HW118959   4.703   1.991   7.539 -0.0785 -1.4383 -1.2577
 2442SOL    HW218960   4.619   1.863   7.568 -0.6346 -0.3577  1.3467
 2443SOL     OW18961   0.216   3.971   8.390  0.0130 -0.2724  0.1067
 2443SOL    HW118962   0.207   4.062   8.417  2.5444 -0.1460  0.5010
 2443SOL    HW218963   0.133   3.950   8.348 -0.3457  1.3783  0.0266
 2444SOL     OW18964   1.645   0.905   5.034 -0.1220  0.0739 -0.7416
 2444SOL    HW118965   1.668   0.893   4.942  0.4639 -0.4627 -0.5215
 2444SOL    HW218966   1.665   0.997   5.052  0.0389 -0.0403 -0.3272
 2445SOL     OW18967   4.178   2.346   3.431  0.4123  0.6002 -0.2518
 2445SOL    HW118968   4.185   2.441   3.433  0.1748  0.5759  1.6272
 2445SOL    HW218969   4.092   2.335   3.472 -0.8189  1.5768 -2.5586
 2446SOL     OW18970   2.134   3.890   9.173 -0.0209 -0.4487 -0.6837
 2446SOL    HW118971   2.138   3.976   9.130  0.5336 -0.0979  0.0693
 2446SOL    HW218972   2.042   3.882   9.198  0.7037 -1.4065  1.7125
 2447SOL     OW18973   1.092   0.887   3.261  0.3495  0.9091 -0.1424
 2447SOL    HW118974   1.179   0.919   3.237 -0.0795  1.7248 -0.6302
 2447SOL    HW218975   1.091   0.821   3.192  1.3627  1.4749 -0.6835
 2448SOL     OW18976   2.903   2.672   7.283 -0.0234 -0.1942 -0.1841
 2448SOL    HW118977   2.875   2.657   7.373  1.2128 -1.2326  0.0352
 2448SOL    HW218978   2.969   2.740   7.291  0.2091 -0.7389  2.5469
 2449SOL     OW18979   4.677   2.245   5.004 -0.4853  0.4829 -0.1923
 2449SOL    HW118980   4.604   2.206   4.956  0.1005  0.7837 -1.3238
 2449SOL    HW218981   0.016   2.221   4.951 -0.1948  0.4706  0.2246
 2450SOL     OW18982   1.989   3.995   0.463 -0.2063  0.3541  0.4206
 2450SOL    HW118983   1.925   3.929   0.436 -0.1345  0.5394 -0.2066
 2450SOL    HW218984   1.972   4.060   0.395 -2.6682 -1.0454 -0.2976
 2451SOL     OW18985   2.438   0.458  15.011 -0.0325 -0.4613  0.2342
 2451SOL    HW118986   2.506   0.499  14.958 -1.0409  1.4427  0.3751
 2451SOL    HW218987   2.409   0.401  14.940 -1.5221 -0.7816  1.0957
 2452SOL     OW18988   0.352   4.440   8.811 -0.0867 -0.0640 -0.6987
 2452SOL    HW118989   0.330   4.357   8.853  0.9295 -0.2404 -0.5286
 2452SOL    HW218990   0.358   4.415   8.718  2.0049  0.0322 -0.5901
 2453SOL     OW18991   2.060   2.604  14.874  0.3487  0.4391  0.3604
 2453SOL    HW118992   2.046   2.548  14.950  0.4722  1.2373  0.9760
 2453SOL    HW218993   1.998   2.677  14.882  0.6390  0.6350  0.8163
 2454SOL     OW18994   4.173   1.802   7.567  0.4217 -0.4403 -0.0578
 2454SOL    HW118995   4.130   1.882   7.598 -0.5613 -0.5048 -1.2544
 2454SOL    HW218996   4.265   1.825   7.553 -0.1464  3.2356  2.3329
 2455SOL     OW18997   3.206   1.894  13.287  0.0688 -0.2662  0.7894
 2455SOL    HW118998   3.247   1.873  13.203  0.4081 -2.4281  1.4893
 2455SOL    HW218999   3.116   1.870  13.266  0.3742 -1.3043  0.6721
 2456SOL     OW19000   2.601   4.539   8.462  0.2921 -0.2604  0.9532
 2456SOL    HW119001   2.618   4.448   8.436  0.4515  0.4827 -1.5118
 2456SOL    HW219002   2.630   4.541   8.553 -0.5340  0.9750  1.1785
 2457SOL     OW19003   1.484   3.504   4.508  0.4836  0.4512  0.1420
 2457SOL    HW119004   1.546   3.575   4.497 -1.1772  2.1564  1.7969
 2457SOL    HW219005   1.423   3.529   4.438  1.2941  1.1838 -0.2944
 2458SOL     OW19006   1.481   2.849  16.808 -0.5893 -0.1688  0.1763
 2458SOL    HW119007   1.538   2.895  16.869 -1.4170  1.1631 -0.0373
 2458SOL    HW219008   1.405   2.847  16.867 -1.0795  1.3200 -0.3977
 2459SOL     OW19009   0.164   3.519  11.144 -0.2880 -0.5527  0.3617
 2459SOL    HW119010   0.101   3.476  11.087 -1.4865  1.9905 -0.2337
 2459SOL    HW219011   0.220   3.449  11.177  1.9244 -0.0761 -2.3715
 2460SOL     OW19012   0.808   2.874  11.518  0.1895 -0.2981  0.1872
 2460SOL    HW119013   0.834   2.952  11.469 -0.3020 -0.3857 -0.2083
 2460SOL    HW219014   0.745   2.906  11.583  1.8445  0.7744  1.2836
 2461SOL     OW19015   1.256   3.754  16.510  0.2813 -0.0899  0.8437
 2461SOL    HW119016   1.299   3.711  16.584  0.8143 -0.2115  0.4579
 2461SOL    HW219017   1.253   3.692  16.438 -0.8220  1.6546 -0.6192
 2462SOL     OW19018   4.400   3.077  13.119  0.4056  0.4224  0.6385
 2462SOL    HW119019   4.405   3.112  13.030  0.4516 -0.3574  0.3338
 2462SOL    HW219020   4.375   2.987  13.102  2.6378 -0.2898  1.1427
 2463SOL     OW19021   2.168   1.101  12.165 -0.3726  0.4602  0.3146
 2463SOL    HW119022   2.222   1.177  12.145 -0.6766  0.3984 -0.7299
 2463SOL    HW219023   2.170   1.060  12.078 -1.6703 -1.4039  1.1587
 2464SOL     OW19024   1.156   4.443   9.850 -0.5261 -0.1289 -0.0518
 2464SOL    HW119025   1.143   4.349   9.835  2.7383 -0.7044  0.7479
 2464SOL    HW219026   1.109   4.491   9.781 -0.0129  2.0453  1.1049
 2465SOL     OW19027   1.252   3.993  12.345  0.1460 -0.0332  0.3191
 2465SOL    HW119028   1.180   4.055  12.346  0.0169 -0.1519 -1.5799
 2465SOL    HW219029   1.280   4.001  12.254 -0.4655  1.2357  0.2457
 2466SOL     OW19030   1.840   3.405   5.321  0.4520  0.2627  0.2495
 2466SOL    HW119031   1.755   3.435   5.351 -0.1194  0.4368 -1.5270
 2466SOL    HW219032   1.830   3.381   5.229  0.6522  0.2762  0.2244
 2467SOL     OW19033   0.443   3.821   1.981  0.3144 -0.1073  0.2642
 2467SOL    HW119034   0.361   3.816   2.031  0.1374  1.9029  0.1598
 2467SOL    HW219035   0.505   3.783   2.042  1.7365 -0.9749 -1.7304
 2468SOL     OW19036   1.053   1.362   9.484 -0.1786  0.0195 -0.2465
 2468SOL    HW119037   1.116   1.421   9.442 -0.2953  0.7804  0.6450
 2468SOL    HW219038   0.985   1.352   9.417 -0.7153  0.8245  0.1688
 2469SOL     OW19039   0.220   0.065   7.522  0.7031  0.4153  0.0961
 2469SOL    HW119040   0.263   4.721   7.548  2.9510  1.4496 -0.3776
 2469SOL    HW219041   0.188   0.101   7.605  0.4798  0.4898 -0.0215
 2470SOL     OW19042   4.504   0.742   5.139 -0.0298 -0.2400 -0.2105
 2470SOL    HW119043   4.573   0.680   5.165  0.2257 -0.2845 -0.9961
 2470SOL    HW219044   4.543   0.822   5.173 -2.6218 -0.3241  3.0441
 2471SOL     OW19045   2.827   4.675   8.681  0.0450 -0.0871 -1.0307
 2471SOL    HW119046   2.795   0.026   8.704  2.5692 -0.4701  3.8204
 2471SOL    HW219047   2.907   4.699   8.635  0.2280 -0.1208 -0.7243
 2472SOL     OW19048   3.121   0.850  13.276  0.2746  0.0621 -0.3578
 2472SOL    HW119049   3.100   0.920  13.338  1.1714  1.5003 -1.6989
 2472SOL    HW219050   3.168   0.786  13.329 -0.0306  2.6215  3.0085
 2473SOL     OW19051   0.577   4.160   3.892  0.4871  0.0117  0.4335
 2473SOL    HW119052   0.546   4.075   3.863 -2.4862  0.4203  2.3965
 2473SOL    HW219053   0.521   4.212   3.835  0.6242 -0.4750 -0.1369
 2474SOL     OW19054   0.460   2.268  10.609 -0.3099  1.1644 -0.0316
 2474SOL    HW119055   0.435   2.195  10.552  1.6515 -0.0046  0.5814
 2474SOL    HW219056   0.407   2.333  10.563  0.1632  1.4628 -0.1584
 2475SOL     OW19057   3.722   1.093   3.165 -0.2376  0.1812 -0.5110
 2475SOL    HW119058   3.645   1.100   3.109 -0.6455  0.5652  0.0892
 2475SOL    HW219059   3.770   1.018   3.130  0.4445  0.1523  0.4894
 2476SOL     OW19060   1.209   1.225  17.174 -0.0292  0.5043 -0.3426
 2476SOL    HW119061   1.292   1.193  17.138  1.1845 -0.2383  3.1273
 2476SOL    HW219062   1.222   1.210  17.268  1.5893  3.1114 -0.1260
 2477SOL     OW19063   1.382   0.571   3.950 -0.0968 -0.1598 -0.1797
 2477SOL    HW119064   1.381   0.512   3.874  0.4614 -0.2260 -0.1383
 2477SOL    HW219065   1.462   0.541   3.993  1.2373  0.0052 -2.5024
 2478SOL     OW19066   0.852   0.959  15.342  0.3134 -0.0206 -0.3341
 2478SOL    HW119067   0.860   1.028  15.276 -1.6179  1.4044  0.9407
 2478SOL    HW219068   0.799   0.896  15.293 -0.9865  1.9216 -1.4051
 2479SOL     OW19069   2.720   0.085   1.200 -0.5230  0.6392  0.4350
 2479SOL    HW119070   2.667   0.070   1.278 -3.4196 -1.9587 -2.0458
 2479SOL    HW219071   2.779   0.154   1.231  0.6336 -0.5155  0.7910
 2480SOL     OW19072   2.020   3.687   1.538 -0.1201  0.4977 -0.2367
 2480SOL    HW119073   1.945   3.692   1.479  0.9087  0.2447 -1.5637
 2480SOL    HW219074   2.059   3.773   1.525  2.5777 -0.8936 -1.4697
 2481SOL     OW19075   1.350   0.761   3.556 -0.3918 -0.5337  0.2265
 2481SOL    HW119076   1.319   0.848   3.531 -2.5536 -1.6925 -1.1733
 2481SOL    HW219077   1.298   0.693   3.512 -0.9211 -1.2029  1.8923
 2482SOL     OW19078   0.928   3.158   5.034 -0.1458  0.3364 -0.3174
 2482SOL    HW119079   0.905   3.132   5.123 -0.8977 -0.9781 -0.8962
 2482SOL    HW219080   0.905   3.087   4.975  1.2232  1.6059 -2.3730
 2483SOL     OW19081   0.529   1.283  15.342  0.1114 -0.2453  0.1545
 2483SOL    HW119082   0.503   1.203  15.388  0.5736 -0.7530 -0.4702
 2483SOL    HW219083   0.621   1.295  15.365 -0.2662 -0.8741  2.0539
 2484SOL     OW19084   4.216   2.659   8.306 -0.2871 -0.4372 -0.2683
 2484SOL    HW119085   4.290   2.598   8.307  2.7675  3.2436 -2.8252
 2484SOL    HW219086   4.206   2.676   8.213 -3.0676 -0.9912 -0.0714
 2485SOL     OW19087   4.478   4.001   6.941 -0.4056  0.5120  0.5246
 2485SOL    HW119088   4.493   4.095   6.944 -0.8990  0.6083 -0.1381
 2485SOL    HW219089   4.399   4.000   6.887  1.9418  1.6689 -2.9235
 2486SOL     OW19090   2.948   2.143  17.457 -0.7179  0.4091 -0.6369
 2486SOL    HW119091   2.983   2.168  17.543 -2.2002  0.7306 -0.1384
 2486SOL    HW219092   2.972   2.220  17.405  0.2146 -0.0805 -0.9282
 2487SOL     OW19093   3.094   4.388   5.105  0.7755  0.4706 -0.9736
 2487SOL    HW119094   3.112   4.402   5.013  0.5128  0.6331 -1.0009
 2487SOL    HW219095   3.168   4.329   5.122 -0.0551  0.5342  3.0705
 2488SOL     OW19096   1.871   0.556  10.908  0.0067  0.0123  0.1147
 2488SOL    HW119097   1.813   0.485  10.880  0.8287  0.4296 -2.6132
 2488SOL    HW219098   1.848   0.613  10.835 -1.9786 -2.7933 -1.5104
 2489SOL     OW19099   2.582   3.111   9.015  0.0118 -0.2777 -0.0577
 2489SOL    HW119100   2.503   3.148   8.977 -0.7941 -1.2161  0.6821
 2489SOL    HW219101   2.537   3.041   9.063  1.1845  0.0504  1.5164
 2490SOL     OW19102   2.189   4.332  12.382  0.4775 -0.0638 -0.1423
 2490SOL    HW119103   2.094   4.339  12.379  0.6524  1.7544 -1.5806
 2490SOL    HW219104   2.203   4.276  12.306  0.9014  0.3284 -0.3491
 2491SOL     OW19105   3.755   0.531   5.528 -0.0123 -0.0494 -0.0070
 2491SOL    HW119106   3.692   0.484   5.582 -1.5087  1.7034 -0.2321
 2491SOL    HW219107   3.738   0.501   5.438 -0.0191 -1.4085  0.4454
 2492SOL     OW19108   4.372   3.229   9.057 -0.3660  0.1818  0.2845
 2492SOL    HW119109   4.415   3.243   9.142 -1.0567  2.0285  0.3473
 2492SOL    HW219110   4.295   3.185   9.094 -0.2036 -0.3581 -0.0219
 2493SOL     OW19111   0.463   2.577   5.746 -0.1651  0.5116  0.7148
 2493SOL    HW119112   0.558   2.584   5.756  0.2695 -2.9506 -1.0702
 2493SOL    HW219113   0.458   2.673   5.740 -1.5098  0.3488 -0.8157
 2494SOL     OW19114   4.672   2.924   5.686 -0.4676 -0.1287  0.0802
 2494SOL    HW119115   4.731   2.983   5.732  0.9403 -0.9244 -0.6999
 2494SOL    HW219116   4.728   2.891   5.615 -1.3039  2.1050 -1.6368
 2495SOL     OW19117   4.684   3.126   1.556  0.4166  0.0923 -0.0722
 2495SOL    HW119118   4.671   3.081   1.640 -0.5982 -0.8023 -0.6985
 2495SOL    HW219119   0.042   3.117   1.549  0.5552  0.3022  1.6030
 2496SOL     OW19120   2.685   1.768  15.224  0.3546  0.3887  0.3229
 2496SOL    HW119121   2.591   1.786  15.220  0.3410  0.1646 -0.4781
 2496SOL    HW219122   2.726   1.814  15.150 -1.4242  1.9339  0.3147
 2497SOL     OW19123   2.875   4.446   2.173 -0.2471 -0.0391  0.1776
 2497SOL    HW119124   2.948   4.432   2.233  2.0942 -1.2557 -2.9518
 2497SOL    HW219125   2.847   4.536   2.185 -0.7269 -0.6134  3.1973
 2498SOL     OW19126   4.636   3.617   4.442 -0.5903  0.1447  0.0534
 2498SOL    HW119127   4.616   3.661   4.524  1.5326 -2.0750  1.7742
 2498SOL    HW219128   4.634   3.680   4.370 -2.5635 -0.5467 -0.4806
 2499SOL     OW19129   3.373   3.561   6.793 -0.2242  0.1699 -0.1841
 2499SOL    HW119130   3.332   3.506   6.859  0.5804 -0.2139  0.0067
 2499SOL    HW219131   3.309   3.562   6.723  1.7097 -0.2156 -1.9618
 2500SOL     OW19132   0.792   2.941   9.761  0.3682 -0.0022 -0.0349
 2500SOL    HW119133   0.766   2.955   9.852 -0.0300  1.4651 -0.3853
 2500SOL    HW219134   0.731   2.868   9.744 -0.0381  0.2553  0.3157
 2501SOL     OW19135   3.887   0.967  15.691 -0.7544  0.5625  0.4129
 2501SOL    HW119136   3.830   1.030  15.646 -0.0586 -0.4863 -1.9147
 2501SOL    HW219137   3.963   0.980  15.635 -0.5892 -1.9773  0.0476
 2502SOL     OW19138   1.683   0.200   5.458 -0.5039  0.9761  0.1658
 2502SOL    HW119139   1.717   0.163   5.539 -0.0660 -2.6386 -1.6746
 2502SOL    HW219140   1.697   0.294   5.470  1.5580  1.0959 -3.0875
 2503SOL     OW19141   0.957   4.719   5.519 -0.4754  0.2953 -0.1799
 2503SOL    HW119142   0.892   4.665   5.473 -0.1264 -1.1083  0.9527
 2503SOL    HW219143   0.987   4.659   5.587 -3.0676 -2.2939 -1.3168
 2504SOL     OW19144   1.938   4.467   2.790 -0.4797  0.0357  0.1179
 2504SOL    HW119145   1.912   4.407   2.720  0.2715  0.3581 -0.4392
 2504SOL    HW219146   2.006   4.518   2.745  1.0390 -1.6799  0.4188
 2505SOL     OW19147   0.228   4.150  13.065 -0.6799  0.0639 -0.2430
 2505SOL    HW119148   0.226   4.076  13.004 -2.3955  1.2725 -1.6740
 2505SOL    HW219149   0.152   4.197  13.029 -1.3478 -1.0409 -0.2627
 2506SOL     OW19150   2.646   0.805   5.292  0.1085 -0.0669 -0.4755
 2506SOL    HW119151   2.703   0.858   5.235  2.3050 -1.7470  0.1470
 2506SOL    HW219152   2.704   0.784   5.365 -0.1002 -1.0557 -0.5933
 2507SOL     OW19153   1.815   3.846   0.361 -0.2356  0.3988 -0.3718
 2507SOL    HW119154   1.818   3.803   0.275 -1.1142  1.8909 -1.1633
 2507SOL    HW219155   1.755   3.791   0.411 -2.0824  0.7037 -2.2328
 2508SOL     OW19156   0.891   4.643  16.616 -0.2773  0.2710  0.3528
 2508SOL    HW119157   0.889   4.685  16.702 -0.1284  1.9041 -0.4367
 2508SOL    HW219158   0.913   4.553  16.640  2.9938  1.6838  2.5808
 2509SOL     OW19159   0.841   2.350   7.643 -0.2171  0.1787  0.5638
 2509SOL    HW119160   0.807   2.397   7.567  3.0701  2.1192  0.2690
 2509SOL    HW219161   0.813   2.408   7.713  0.9094  1.2057  0.1608
 2510SOL     OW19162   4.723   4.686   0.207  0.3763 -0.2120  0.4786
 2510SOL    HW119163   0.025   4.599   0.211 -0.8413 -0.7258  1.0781
 2510SOL    HW219164   4.636   4.657   0.178  0.5652  0.0762 -0.3961
 2511SOL     OW19165   4.066   2.710   2.471  0.4360  0.0712  0.0496
 2511SOL    HW119166   4.001   2.779   2.465  2.5300  1.9525 -0.9515
 2511SOL    HW219167   4.143   2.745   2.425  0.9891  0.8230  1.5258
 2512SOL     OW19168   1.979   3.595   0.858 -0.3794  0.3352 -0.0314
 2512SOL    HW119169   1.935   3.529   0.911 -1.0266  0.4923 -0.3806
 2512SOL    HW219170   2.071   3.585   0.883 -0.2388 -0.6021 -0.9360
 2513SOL     OW19171   3.479   0.523   2.307  0.5166 -0.1245  1.0778
 2513SOL    HW119172   3.455   0.475   2.228 -1.0588  3.4710 -0.6512
 2513SOL    HW219173   3.533   0.455   2.348 -2.7679 -1.4025  3.3117
 2514SOL     OW19174   1.027   1.486  11.303 -0.2835 -0.1203  0.1168
 2514SOL    HW119175   1.077   1.447  11.374  0.0398 -0.8041 -0.4788
 2514SOL    HW219176   1.083   1.563  11.289  0.4770 -0.7891 -0.5540
 2515SOL     OW19177   1.530   1.183   1.800  0.0884  0.1828 -0.0114
 2515SOL    HW119178   1.573   1.219   1.878 -0.0235 -0.3315  0.2910
 2515SOL    HW219179   1.455   1.239   1.781 -1.2453 -1.7051 -0.3075
 2516SOL     OW19180   3.184   2.723   4.677 -0.1557 -0.2635  0.1256
 2516SOL    HW119181   3.268   2.769   4.681  0.2724 -0.9634 -0.6585
 2516SOL    HW219182   3.129   2.787   4.722  0.6287  0.0541  0.6208
 2517SOL     OW19183   1.780   4.379   6.714  0.3625 -0.0163 -0.3786
 2517SOL    HW119184   1.688   4.389   6.687  0.6213 -0.0100 -1.2541
 2517SOL    HW219185   1.781   4.284   6.720  1.3277  0.0645  0.6493
 2518SOL     OW19186   2.987   0.480  14.708  0.4692 -0.8552  0.2990
 2518SOL    HW119187   3.064   0.525  14.673 -1.3398  3.3001  1.7180
 2518SOL    HW219188   2.954   0.441  14.626 -0.8209 -3.5544  2.0808
 2519SOL     OW19189   2.211   0.012   6.746  0.4250  0.2167  0.8462
 2519SOL    HW119190   2.185   4.698   6.823  0.1056 -3.3268 -1.6417
 2519SOL    HW219191   2.191   0.099   6.779  0.7648  0.8662 -0.6567
 2520SOL     OW19192   1.326   1.727   3.948 -0.7241 -0.3904 -0.1633
 2520SOL    HW119193   1.406   1.709   3.900 -0.1752  1.0447  0.2006
 2520SOL    HW219194   1.314   1.646   3.997 -0.6906 -0.0221  0.4589
 2521SOL     OW19195   3.771   4.488   6.439  0.5694  0.0600  0.2657
 2521SOL    HW119196   3.750   4.577   6.411  1.5134  0.3258  0.3984
 2521SOL    HW219197   3.684   4.449   6.433  0.2755  1.0304 -1.8349
 2522SOL     OW19198   2.040   4.674   4.737  0.3887 -0.3883  0.2860
 2522SOL    HW119199   2.097   0.012   4.753 -0.9638  0.9454 -1.0408
 2522SOL    HW219200   1.988   4.678   4.817 -0.0256  0.8950 -0.0526
 2523SOL     OW19201   0.044   1.844   8.229 -0.5482 -0.0856  0.3284
 2523SOL    HW119202   0.045   1.769   8.288  0.5136 -0.3472 -0.0197
 2523SOL    HW219203   0.089   1.917   8.273 -0.3774  0.1590 -0.2472
 2524SOL     OW19204   0.041   1.638   4.891  0.3284 -0.2083 -0.0978
 2524SOL    HW119205   0.036   1.715   4.947 -2.0410  0.0473 -0.6708
 2524SOL    HW219206   0.075   1.685   4.814  1.3601  1.3569  1.3237
 2525SOL     OW19207   0.909   4.659   1.195  0.1727  0.7545  0.1446
 2525SOL    HW119208   0.882   4.659   1.103  2.8110  0.1927 -0.6359
 2525SOL    HW219209   1.004   4.672   1.187  0.2958  0.5606  1.1927
 2526SOL     OW19210   2.344   3.179  13.290  0.1312  0.1250 -0.0095
 2526SOL    HW119211   2.359   3.261  13.336 -1.7688  0.6996 -0.4010
 2526SOL    HW219212   2.424   3.163  13.240  0.3413  0.7981  0.1039
 2527SOL     OW19213   2.827   3.537   6.576 -0.0800 -0.0795 -0.2954
 2527SOL    HW119214   2.865   3.488   6.503 -3.3073 -1.5867 -0.9552
 2527SOL    HW219215   2.827   3.626   6.541 -3.2148 -0.6251 -1.6793
 2528SOL     OW19216   0.314   1.235  17.417 -0.4590  0.1305 -0.0981
 2528SOL    HW119217   0.361   1.231  17.334  2.0457  2.8922  1.1644
 2528SOL    HW219218   0.358   1.166  17.466 -0.2614 -0.0606 -0.5529
 2529SOL     OW19219   4.014   3.625   7.256 -0.0865  0.5403 -0.2560
 2529SOL    HW119220   3.921   3.637   7.277  0.3376 -2.1554  3.2127
 2529SOL    HW219221   4.038   3.708   7.215  1.6454 -0.1435 -0.5938
 2530SOL     OW19222   1.033   0.491   6.363  0.1641 -0.3619  0.0744
 2530SOL    HW119223   0.978   0.522   6.435 -1.6037 -1.0399 -0.9819
 2530SOL    HW219224   1.118   0.477   6.403  1.1641 -0.2728 -2.0383
 2531SOL     OW19225   4.533   3.605   2.659  0.1524 -0.4631  0.0274
 2531SOL    HW119226   4.531   3.671   2.728  2.3506  0.6391 -0.9628
 2531SOL    HW219227   4.554   3.664   2.586 -0.3701  0.2272  0.4371
 2532SOL     OW19228   2.959   1.201   6.610  0.5352 -0.3357  0.4036
 2532SOL    HW119229   3.006   1.261   6.552  0.0133 -2.5209 -2.2673
 2532SOL    HW219230   2.911   1.146   6.548  0.0838 -0.1486  0.5901
 2533SOL     OW19231   1.181   1.674   4.842  0.0159 -0.3257 -0.0273
 2533SOL    HW119232   1.247   1.689   4.774  1.6027  1.4512  1.9122
 2533SOL    HW219233   1.166   1.582   4.820 -1.9559  0.1051 -0.5386
 2534SOL     OW19234   1.324   2.022  12.524  0.0431 -0.5455  0.0246
 2534SOL    HW119235   1.376   2.007  12.603  0.2865  1.1459  0.1931
 2534SOL    HW219236   1.345   1.935  12.489  1.1266  0.1192 -1.0076
 2535SOL     OW19237   4.649   2.242  11.127  0.8629 -0.3015 -0.2728
 2535SOL    HW119238   4.611   2.157  11.148  0.2980  0.6460  2.4064
 2535SOL    HW219239   4.716   2.241  11.195 -0.8986  0.0322  1.4664
 2536SOL     OW19240   4.315   4.348  15.052  1.1041 -0.0358  0.4364
 2536SOL    HW119241   4.235   4.297  15.043  0.5183  0.6184  1.9769
 2536SOL    HW219242   4.287   4.433  15.018 -2.0277 -1.4837 -0.6494
 2537SOL     OW19243   3.587   1.540   2.261  0.3887 -0.4576  0.2560
 2537SOL    HW119244   3.656   1.509   2.203 -0.0735 -0.3788 -0.3348
 2537SOL    HW219245   3.579   1.634   2.244 -0.7150 -0.5580  0.1933
 2538SOL     OW19246   3.011   2.835   2.065 -0.2978  0.1635 -0.0674
 2538SOL    HW119247   3.004   2.790   1.981  0.4487 -0.9080  0.4409
 2538SOL    HW219248   2.970   2.768   2.120  0.2675 -1.5767 -1.7678
 2539SOL     OW19249   4.543   3.021   7.737  0.1139  0.1733 -0.0001
 2539SOL    HW119250   4.499   3.089   7.787  0.5458  1.7235 -1.7099
 2539SOL    HW219251   4.475   2.958   7.717 -0.6554  0.0495  3.0254
 2540SOL     OW19252   0.908   3.417   5.899 -0.2274  0.0860 -0.2295
 2540SOL    HW119253   0.899   3.450   5.988 -4.0649  0.4209 -0.7112
 2540SOL    HW219254   0.980   3.354   5.907 -0.5675  0.0125  2.0228
 2541SOL     OW19255   1.455   3.765   3.588 -0.2488 -0.2468 -0.6992
 2541SOL    HW119256   1.499   3.840   3.629  1.6525 -1.0518 -1.2525
 2541SOL    HW219257   1.367   3.799   3.578 -0.0410  0.9680  1.6632
 2542SOL     OW19258   4.541   1.950   7.876 -0.3387 -0.1299 -0.1728
 2542SOL    HW119259   4.528   2.043   7.894 -2.1255 -0.2314 -0.9561
 2542SOL    HW219260   4.603   1.951   7.804  1.1427  1.4112  1.0994
 2543SOL     OW19261   1.368   4.231   7.031  0.1250  0.0289  0.4886
 2543SOL    HW119262   1.462   4.233   7.051  0.1879  2.4318 -0.0950
 2543SOL    HW219263   1.358   4.319   6.996  0.1945  0.1661  0.8163
 2544SOL     OW19264   3.772   1.261   2.383 -0.1417 -0.5684  0.9509
 2544SOL    HW119265   3.816   1.323   2.325 -1.8731 -0.5975 -0.3878
 2544SOL    HW219266   3.688   1.244   2.340  0.7295 -0.4105 -0.7944
 2545SOL     OW19267   0.617   2.646   8.683  0.1112  1.0071 -0.1759
 2545SOL    HW119268   0.672   2.624   8.758 -1.1451  1.9299  1.0251
 2545SOL    HW219269   0.534   2.644   8.732  1.5497  0.6911  2.2451
 2546SOL     OW19270   4.528   0.012   6.724 -0.1744 -0.1441  0.1992
 2546SOL    HW119271   4.541   0.060   6.642 -0.4320 -0.3108  0.0648
 2546SOL    HW219272   4.447   0.034   6.770 -0.2582  0.8332 -0.4126
 2547SOL     OW19273   2.112   0.074   2.309 -0.4176 -0.0705 -0.0257
 2547SOL    HW119274   2.165   0.012   2.260 -1.3521 -0.2838 -0.7627
 2547SOL    HW219275   2.092   0.147   2.250  1.6094  0.7294  0.2712
 2548SOL     OW19276   3.249   2.026  12.342  0.1808 -0.2819  0.2871
 2548SOL    HW119277   3.182   1.960  12.323  0.9846 -0.8800 -0.4447
 2548SOL    HW219278   3.244   2.092  12.273  1.1018 -0.9103 -0.3766
 2549SOL     OW19279   3.110   2.537   4.860  0.0924 -0.8820  0.0134
 2549SOL    HW119280   3.162   2.593   4.803  0.5295  0.0792  1.3496
 2549SOL    HW219281   3.145   2.450   4.842 -2.2169 -1.7336 -0.4070
 2550SOL     OW19282   2.977   2.854   4.748  0.5942  0.0549 -0.0909
 2550SOL    HW119283   2.902   2.897   4.707 -0.3597 -0.5183  1.0344
 2550SOL    HW219284   3.001   2.916   4.816 -1.0152 -1.1706  1.6215
 2551SOL     OW19285   1.391   2.060  13.111  0.2321  0.1244  0.1445
 2551SOL    HW119286   1.406   2.131  13.048 -1.1209 -1.1297 -1.6039
 2551SOL    HW219287   1.367   1.988  13.053 -2.0799  0.5700  0.5364
 2552SOL     OW19288   2.756   3.364   8.935 -0.3605 -0.2488 -0.8272
 2552SOL    HW119289   2.698   3.306   8.984 -0.1780  0.8997  0.7940
 2552SOL    HW219290   2.840   3.356   8.981 -0.0130  0.6442 -1.2981
 2553SOL     OW19291   3.783   1.627  12.925  0.0960 -0.3089  0.7839
 2553SOL    HW119292   3.854   1.585  12.875 -1.1125 -0.4377 -0.8506
 2553SOL    HW219293   3.770   1.709  12.877 -0.3782 -0.0021  1.4357
 2554SOL     OW19294   2.314   1.048   7.590  0.8706 -0.1721 -0.4894
 2554SOL    HW119295   2.277   1.130   7.622  0.6890 -0.7747  0.8085
 2554SOL    HW219296   2.387   1.080   7.536  1.5185 -0.8609 -0.0389
 2555SOL     OW19297   0.596   2.554   6.596 -0.5290 -0.0668  0.8900
 2555SOL    HW119298   0.527   2.502   6.554 -0.6751  0.3575  0.6048
 2555SOL    HW219299   0.595   2.513   6.682 -1.9747 -0.1396  0.8417
 2556SOL     OW19300   1.435   4.732  10.112  0.1640 -0.2050 -0.0299
 2556SOL    HW119301   1.430   4.667  10.042 -0.8221 -1.1301  0.9005
 2556SOL    HW219302   1.386   4.689  10.182  0.1850  0.4955  0.4146
 2557SOL     OW19303   2.771   2.015   4.661  0.0484 -0.0249  0.7137
 2557SOL    HW119304   2.717   2.062   4.597 -0.7869 -0.4209  1.1332
 2557SOL    HW219305   2.796   1.930   4.625 -0.5268  0.6297 -1.2337
 2558SOL     OW19306   3.339   0.950  10.812 -0.5628 -0.5251  0.6488
 2558SOL    HW119307   3.388   0.960  10.730 -0.1180 -1.8750  0.7476
 2558SOL    HW219308   3.263   1.008  10.809 -0.2890 -0.1076  1.9510
 2559SOL     OW19309   0.920   2.117   2.919  0.4119  0.3974 -0.0532
 2559SOL    HW119310   0.995   2.176   2.918 -0.0707  1.0513  2.8823
 2559SOL    HW219311   0.947   2.049   2.857  1.5917  2.0515 -1.3316
 2560SOL     OW19312   2.619   0.824   4.750  0.1145 -0.0602  0.3384
 2560SOL    HW119313   2.591   0.842   4.660 -2.1111  2.0863  1.4172
 2560SOL    HW219314   2.603   0.915   4.778  3.1490  0.7533 -0.6522
 2561SOL     OW19315   2.280   2.715   2.637  0.3278 -0.1458  0.3969
 2561SOL    HW119316   2.300   2.738   2.546 -1.2982  1.1696  0.3678
 2561SOL    HW219317   2.312   2.627   2.652 -0.0827 -0.4195 -0.3158
 2562SOL     OW19318   0.804   1.496  11.601 -0.5271 -0.2264 -0.0765
 2562SOL    HW119319   0.828   1.552  11.528 -1.0416  1.1491  0.8123
 2562SOL    HW219320   0.850   1.415  11.579  0.0874  0.2252 -0.4485
 2563SOL     OW19321   2.771   4.695  10.703 -0.3648 -0.1441  0.5268
 2563SOL    HW119322   2.785   4.639  10.626 -0.4544  0.6693 -0.0785
 2563SOL    HW219323   2.851   4.673  10.751 -0.0883  1.9309  1.0169
 2564SOL     OW19324   0.504   0.396  10.469  0.9164  0.2190  0.2942
 2564SOL    HW119325   0.531   0.389  10.561  2.4986  1.1408 -0.1029
 2564SOL    HW219326   0.471   0.485  10.457 -0.2275  0.2069  3.2220
 2565SOL     OW19327   2.899   4.033   0.330  0.0090 -0.0140  0.2021
 2565SOL    HW119328   2.910   3.955   0.276 -1.1839 -0.4140  0.5213
 2565SOL    HW219329   2.827   4.008   0.388 -1.8692 -0.8265 -2.4711
 2566SOL     OW19330   3.424   2.120   2.629  0.1318 -0.0863  0.2532
 2566SOL    HW119331   3.421   2.025   2.618  0.0074 -0.1231  0.6026
 2566SOL    HW219332   3.343   2.140   2.675 -0.7441  0.5894 -1.5676
 2567SOL     OW19333   0.991   0.998  14.077 -0.6821 -0.0472 -0.4096
 2567SOL    HW119334   1.043   0.960  14.007 -1.4813  1.7807 -1.9847
 2567SOL    HW219335   1.059   1.002  14.144  0.5545 -1.0376 -1.6072
 2568SOL     OW19336   3.970   3.174   2.061  0.0984  0.0917 -0.4314
 2568SOL    HW119337   3.976   3.081   2.042 -1.6200  0.0071 -0.5647
 2568SOL    HW219338   4.029   3.217   1.999  2.8664 -2.5418  0.3635
 2569SOL     OW19339   0.757   3.505  11.369  0.5040 -0.2834 -0.0905
 2569SOL    HW119340   0.740   3.533  11.459  1.6379  1.3929 -0.4114
 2569SOL    HW219341   0.837   3.552  11.345  0.8459 -0.5742  0.4568
 2570SOL     OW19342   1.507   4.231   0.523 -0.1554 -0.4834 -0.3772
 2570SOL    HW119343   1.430   4.215   0.469 -2.0082  0.5552  1.9699
 2570SOL    HW219344   1.567   4.283   0.470 -0.9431  0.3973 -0.3925
 2571SOL     OW19345   3.821   0.336   4.820 -0.0286 -0.3285 -0.5808
 2571SOL    HW119346   3.796   0.420   4.857 -0.0834 -0.4468 -0.3498
 2571SOL    HW219347   3.773   0.351   4.739 -1.2029  0.8324  0.3378
 2572SOL     OW19348   1.853   0.095  11.035  0.4772  0.3478 -0.7269
 2572SOL    HW119349   1.765   0.078  11.071  0.8744 -0.1546 -0.0025
 2572SOL    HW219350   1.893   0.009  11.046  0.3056  0.3289 -0.2461
 2573SOL     OW19351   0.943   1.356   5.725  0.2724 -0.1386  0.5068
 2573SOL    HW119352   0.945   1.342   5.630  0.9633  1.5758  0.2677
 2573SOL    HW219353   1.013   1.297   5.753  1.4441 -0.2708 -2.6301
 2574SOL     OW19354   3.637   1.862  16.383 -0.1832 -0.0873 -0.0558
 2574SOL    HW119355   3.579   1.875  16.458 -1.6799  1.6439 -1.5127
 2574SOL    HW219356   3.651   1.950  16.347 -0.8274 -0.0575 -0.2316
 2575SOL     OW19357   1.715   0.831  14.173 -0.0298 -0.4814  0.0036
 2575SOL    HW119358   1.665   0.883  14.236 -0.9361 -1.2831 -0.0471
 2575SOL    HW219359   1.697   0.742  14.204 -0.2741 -0.4669 -0.0984
 2576SOL     OW19360   1.333   2.936   2.071  0.5598  0.2646 -0.0434
 2576SOL    HW119361   1.270   2.986   2.021 -0.6933  0.6288  1.8928
 2576SOL    HW219362   1.295   2.851   2.091  1.1094  0.1490  0.5089
 2577SOL     OW19363   1.802   2.399  13.498  0.6422  0.0374 -0.0161
 2577SOL    HW119364   1.748   2.330  13.462 -2.3135  2.9785 -1.1965
 2577SOL    HW219365   1.750   2.477  13.478  0.9749  0.6402  1.4794
 2578SOL     OW19366   3.717   1.473   7.252 -0.4785  0.0827 -0.3298
 2578SOL    HW119367   3.725   1.408   7.322 -0.4319  1.6070  1.0576
 2578SOL    HW219368   3.635   1.448   7.210 -0.7352 -0.8090  0.6947
 2579SOL     OW19369   1.862   0.119   7.059 -0.1802 -0.0908 -0.2196
 2579SOL    HW119370   1.849   0.186   6.993  3.2984  1.9359  1.1819
 2579SOL    HW219371   1.785   0.062   7.055 -2.3179  2.7032  0.8973
 2580SOL     OW19372   1.621   3.647   7.126 -0.2985 -0.0434 -0.2024
 2580SOL    HW119373   1.539   3.663   7.173  0.3410  0.6557  0.6757
 2580SOL    HW219374   1.681   3.715   7.156 -0.7657  0.6866 -0.9320
 2581SOL     OW19375   1.857   4.292   3.552  0.3482 -0.1891 -0.4268
 2581SOL    HW119376   1.937   4.258   3.592 -0.8552 -1.0199  1.2962
 2581SOL    HW219377   1.883   4.280   3.461  2.1145 -0.0147  0.0474
 2582SOL     OW19378   1.244   2.947   9.094  0.3899  0.1753 -0.2655
 2582SOL    HW119379   1.275   2.949   9.185 -0.1962 -2.6954 -0.0157
 2582SOL    HW219380   1.295   2.879   9.050 -0.4902  0.1487 -1.2231
 2583SOL     OW19381   4.462   2.514   2.907  0.5622  0.5605  0.1490
 2583SOL    HW119382   4.377   2.478   2.884  1.8476 -2.2534 -0.1489
 2583SOL    HW219383   4.510   2.432   2.908 -0.0162  0.2508  2.2944
 2584SOL     OW19384   0.284   2.467   4.760  0.0313  0.1203 -0.0104
 2584SOL    HW119385   0.348   2.405   4.794 -2.0990 -1.7130  0.6143
 2584SOL    HW219386   0.265   2.436   4.671  1.0164 -0.7382  0.0712
 2585SOL     OW19387   1.664   3.837   8.157  0.1847  0.0722  0.2997
 2585SOL    HW119388   1.743   3.863   8.203 -1.1175  1.1679  1.9070
 2585SOL    HW219389   1.620   3.766   8.204 -0.3115 -0.1672 -0.5066
 2586SOL     OW19390   1.778   0.472   8.791  0.0621 -0.0893 -0.2866
 2586SOL    HW119391   1.743   0.438   8.873  0.5093  1.0132  0.3569
 2586SOL    HW219392   1.717   0.544   8.773 -1.3961 -1.2072  0.1517
 2587SOL     OW19393   0.487   1.896   9.873  0.7855  0.0362 -0.6249
 2587SOL    HW119394   0.542   1.820   9.891  0.2166 -0.2395 -0.0068
 2587SOL    HW219395   0.420   1.875   9.939  0.9216 -1.3456 -0.9146
 2588SOL     OW19396   3.699   1.141   5.322 -0.2247 -0.0698 -0.3355
 2588SOL    HW119397   3.675   1.148   5.414  1.4485  2.3199 -0.1032
 2588SOL    HW219398   3.613   1.133   5.280  0.0760  2.0688 -1.3294
 2589SOL     OW19399   1.038   3.510   6.532 -0.4244 -0.1871 -0.4720
 2589SOL    HW119400   1.069   3.480   6.447  1.1878 -0.8092  0.3180
 2589SOL    HW219401   1.120   3.503   6.581  0.5104  0.7704 -1.8957
 2590SOL     OW19402   1.026   2.151   4.271 -0.3846 -0.0633 -1.2479
 2590SOL    HW119403   1.049   2.073   4.221  2.0752 -0.5912  0.6946
 2590SOL    HW219404   1.095   2.207   4.234  0.0340 -1.5135 -2.6620
 2591SOL     OW19405   0.591   1.819   6.522 -0.3388  0.1319 -0.6741
 2591SOL    HW119406   0.568   1.728   6.503  0.3613 -0.5324  1.6552
 2591SOL    HW219407   0.550   1.846   6.440  0.1374 -1.2151 -1.3462
 2592SOL     OW19408   3.394   2.506   3.530 -0.1162 -0.0200 -0.0232
 2592SOL    HW119409   3.384   2.543   3.442  0.6327  1.2531  0.4222
 2592SOL    HW219410   3.440   2.428   3.500  0.6517 -0.0104  1.1362
 2593SOL     OW19411   0.729   4.694   3.569 -0.0537  0.0916  0.2191
 2593SOL    HW119412   0.693   0.016   3.635 -0.4017 -0.6535  0.6980
 2593SOL    HW219413   0.650   4.686   3.516  1.7353  0.8404 -2.5503
 2594SOL     OW19414   4.473   2.777   2.877 -0.0969  0.7513  0.6689
 2594SOL    HW119415   4.429   2.773   2.792  0.6516  0.7525  0.2759
 2594SOL    HW219416   4.467   2.684   2.895  3.6472  0.2122 -0.7329
 2595SOL     OW19417   0.616   1.637   8.331 -0.0172 -0.2469  0.5853
 2595SOL    HW119418   0.631   1.712   8.273  2.1135 -1.2317 -0.1409
 2595SOL    HW219419   0.523   1.650   8.347  0.2932  1.6707  0.8503
 2596SOL     OW19420   2.135   4.236   7.849 -0.2357 -0.4954 -0.0110
 2596SOL    HW119421   2.043   4.251   7.873  0.2034  1.6640  0.3328
 2596SOL    HW219422   2.122   4.217   7.756  0.2288  2.4371 -0.6647
 2597SOL     OW19423   0.578   3.848   4.408  0.3330 -0.3413 -0.5949
 2597SOL    HW119424   0.643   3.802   4.356  0.8672  1.2726 -1.3124
 2597SOL    HW219425   0.538   3.908   4.346  0.3241 -1.0704 -1.2934
 2598SOL     OW19426   3.503   2.853   1.424  0.0672  0.2974 -0.3293
 2598SOL    HW119427   3.559   2.895   1.488  3.3482 -2.4193 -1.3838
 2598SOL    HW219428   3.559   2.856   1.346  1.4918 -1.4641  0.6330
 2599SOL     OW19429   0.943   1.416  12.794 -0.1502  0.1816  0.7117
 2599SOL    HW119430   1.024   1.371  12.771 -2.6602 -3.4447 -1.1651
 2599SOL    HW219431   0.898   1.357  12.854  3.6128  0.3449  3.6228
 2600SOL     OW19432   0.278   4.400   6.799  0.2872  0.0185 -0.2533
 2600SOL    HW119433   0.239   4.430   6.881  0.0273 -0.5128 -0.1816
 2600SOL    HW219434   0.329   4.479   6.779 -0.6190  0.2618 -1.5329
 2601SOL     OW19435   1.444   2.027   3.386  0.2498 -0.0535 -0.4098
 2601SOL    HW119436   1.373   2.091   3.381 -0.0221 -0.3508 -0.4179
 2601SOL    HW219437   1.458   2.015   3.479  0.5083  3.2219 -0.0638
 2602SOL     OW19438   4.726   0.653   1.551 -0.2925  0.5502  0.0915
 2602SOL    HW119439   4.680   0.668   1.633  1.8451  1.4337  1.1296
 2602SOL    HW219440   4.690   0.722   1.495 -1.8407  0.2944  0.7828
 2603SOL     OW19441   4.124   1.368  11.746 -0.5286 -0.2096  0.1765
 2603SOL    HW119442   4.200   1.370  11.687 -0.9248  1.6887 -0.2498
 2603SOL    HW219443   4.137   1.437  11.811  0.4542 -0.5590  0.3602
 2604SOL     OW19444   4.217   1.660  13.000 -0.1419  0.5054  0.2599
 2604SOL    HW119445   4.180   1.597  12.938  3.1205 -1.0417 -0.1065
 2604SOL    HW219446   4.290   1.607  13.033 -1.5677 -1.2674  0.5615
 2605SOL     OW19447   3.800   4.199   2.308 -0.4930  0.2421 -0.3233
 2605SOL    HW119448   3.818   4.199   2.402  0.5303  2.0316 -0.5070
 2605SOL    HW219449   3.802   4.107   2.281 -2.6479  0.0482  0.2046
 2606SOL     OW19450   0.631   4.703   6.125 -0.1554 -0.1982 -0.5075
 2606SOL    HW119451   0.719   4.701   6.088  0.5296  0.7892  1.0945
 2606SOL    HW219452   0.604   4.611   6.128 -0.2075 -0.1171  1.9027
 2607SOL     OW19453   0.887   1.228   7.036  0.1665 -0.3245 -0.1664
 2607SOL    HW119454   0.896   1.161   6.967  0.1014  0.0722 -0.5600
 2607SOL    HW219455   0.828   1.191   7.101 -1.2000 -0.5876 -1.5490
 2608SOL     OW19456   1.298   2.983   6.381  0.2632  0.0015  0.1256
 2608SOL    HW119457   1.376   2.966   6.433 -1.2812 -0.5453  2.2640
 2608SOL    HW219458   1.284   2.893   6.352 -0.3299  0.8473 -2.2097
 2609SOL     OW19459   0.500   0.849   9.275 -0.8462  0.3952  0.4352
 2609SOL    HW119460   0.549   0.901   9.339 -3.4862  0.1355  2.6782
 2609SOL    HW219461   0.569   0.829   9.212  1.9813 -0.2837  3.7554
 2610SOL     OW19462   4.203   1.366  13.812  0.4493 -0.0378 -0.6655
 2610SOL    HW119463   4.254   1.400  13.885 -1.7799 -0.8468  1.2447
 2610SOL    HW219464   4.188   1.448  13.765  0.8663 -0.2723 -1.2079
 2611SOL     OW19465   2.930   2.184  11.309  0.0719 -0.3283 -0.2678
 2611SOL    HW119466   2.975   2.124  11.250  0.7422 -1.0622  0.9877
 2611SOL    HW219467   2.942   2.132  11.389 -1.9666 -0.3060  0.0501
 2612SOL     OW19468   0.692   3.238   1.302  0.0131  0.4098 -0.1752
 2612SOL    HW119469   0.709   3.322   1.259  1.8626 -0.2148 -0.6723
 2612SOL    HW219470   0.649   3.187   1.233 -0.5935  1.1026 -0.3164
 2613SOL     OW19471   4.154   3.187   5.760  0.5086  0.0168 -0.6023
 2613SOL    HW119472   4.091   3.129   5.804 -0.2183  1.1037 -0.2079
 2613SOL    HW219473   4.231   3.130   5.764  1.0981  1.1297  3.6538
 2614SOL     OW19474   2.124   3.909   2.410 -0.3513 -0.7289  0.2587
 2614SOL    HW119475   2.197   3.850   2.427  0.6638  0.4465 -0.0368
 2614SOL    HW219476   2.052   3.855   2.443 -1.8639  0.8270 -0.4689
 2615SOL     OW19477   1.264   0.109   3.611 -0.5062  0.2518 -0.2711
 2615SOL    HW119478   1.260   0.064   3.527  0.4982 -1.6312  0.6737
 2615SOL    HW219479   1.230   0.197   3.600  0.4033  0.4518 -1.5398
 2616SOL     OW19480   1.253   2.824   7.597 -0.2915  0.0924  0.0350
 2616SOL    HW119481   1.179   2.829   7.659 -0.8183  0.4968 -0.6224
 2616SOL    HW219482   1.280   2.733   7.588 -3.0816 -0.5995 -1.2449
 2617SOL     OW19483   4.184   2.524   0.806 -0.2987  0.0871 -0.5069
 2617SOL    HW119484   4.258   2.520   0.866 -0.4076 -1.7157 -0.5050
 2617SOL    HW219485   4.161   2.432   0.799 -0.0328 -0.0405  0.3069
 2618SOL     OW19486   1.987   1.376   2.446 -0.0808 -0.3967  0.4334
 2618SOL    HW119487   2.006   1.292   2.404  2.8660  1.0574 -1.1354
 2618SOL    HW219488   2.078   1.406   2.451 -0.0247 -0.8674  2.2783
 2619SOL     OW19489   1.184   2.804  15.065 -0.2920  0.0594  0.1401
 2619SOL    HW119490   1.211   2.748  15.138  1.1067  1.8313  0.9938
 2619SOL    HW219491   1.266   2.802  15.016 -0.3911  3.2354 -0.1658
 2620SOL     OW19492   2.140   4.606   2.653  0.2517  0.8547 -0.1533
 2620SOL    HW119493   2.207   4.570   2.594 -0.5676 -0.7636 -0.0998
 2620SOL    HW219494   2.114   4.687   2.609 -0.5769  0.2761 -0.7208
 2621SOL     OW19495   3.114   3.736   6.729  0.3196  0.1139 -0.3684
 2621SOL    HW119496   3.121   3.827   6.701  0.1440 -0.1177 -1.1427
 2621SOL    HW219497   3.036   3.760   6.780 -1.7606  0.6693 -3.8448
 2622SOL     OW19498   4.348   3.200   6.383 -0.1260  0.3679  0.1760
 2622SOL    HW119499   4.257   3.196   6.351 -0.5709 -1.2852  1.6650
 2622SOL    HW219500   4.392   3.203   6.298 -1.8580 -0.0288 -0.7513
 2623SOL     OW19501   0.255   2.759   1.606  0.2677 -0.7393  1.0645
 2623SOL    HW119502   0.236   2.669   1.631 -1.9123 -0.8045 -0.8935
 2623SOL    HW219503   0.340   2.768   1.651  1.7306  0.2474 -1.8984
 2624SOL     OW19504   3.139   4.585   7.446 -1.4843 -0.0162 -0.0912
 2624SOL    HW119505   3.215   4.535   7.417 -0.0414  0.4646  2.8753
 2624SOL    HW219506   3.106   4.537   7.522  0.2864 -1.1851 -0.0788
 2625SOL     OW19507   3.294   1.116   6.742 -0.3321  0.2261  0.3189
 2625SOL    HW119508   3.229   1.065   6.693  1.3328 -0.8113 -0.7752
 2625SOL    HW219509   3.336   1.042   6.786 -1.3975  1.3130  3.1807
 2626SOL     OW19510   1.109   4.254   6.144 -0.5997  0.7682  0.1507
 2626SOL    HW119511   1.129   4.348   6.150 -0.1558  0.6196  0.9026
 2626SOL    HW219512   1.037   4.251   6.207  0.7375 -2.4391  1.4917
 2627SOL     OW19513   3.294   4.393  12.256  0.4951  0.2137  0.3628
 2627SOL    HW119514   3.311   4.304  12.284  0.7967 -0.3470 -1.6003
 2627SOL    HW219515   3.362   4.436  12.308  1.2247  0.2510 -0.6320
 2628SOL     OW19516   2.951   4.467  15.215 -0.3347  0.1450  0.0304
 2628SOL    HW119517   2.895   4.461  15.137 -0.9344 -0.5139  0.5057
 2628SOL    HW219518   2.896   4.500  15.285  1.0905  0.2364  1.0893
 2629SOL     OW19519   4.288   1.648  11.715  0.3824  0.0359  0.4707
 2629SOL    HW119520   4.319   1.560  11.694 -0.7045  0.4166 -2.6494
 2629SOL    HW219521   4.370   1.694  11.735 -0.5538  0.6283  2.9221
 2630SOL     OW19522   2.956   3.980   2.479 -0.5471  0.0505 -0.1973
 2630SOL    HW119523   2.982   4.033   2.554 -0.0754  2.1858 -1.8403
 2630SOL    HW219524   2.985   4.037   2.407  1.4186 -2.4021 -1.3365
 2631SOL     OW19525   2.820   0.615   2.431  0.5538 -0.1993  0.0182
 2631SOL    HW119526   2.837   0.577   2.517  0.4395 -0.5225 -0.1024
 2631SOL    HW219527   2.884   0.687   2.428 -0.9388  1.0261 -2.9406
 2632SOL     OW19528   4.213   4.075   4.249  0.1789  0.0488 -0.1090
 2632SOL    HW119529   4.223   4.143   4.316  0.6577 -0.2648  0.1393
 2632SOL    HW219530   4.242   3.995   4.292 -0.0364 -0.4935 -0.9653
 2633SOL     OW19531   2.442   2.358   2.062 -0.1630 -0.1059 -0.1391
 2633SOL    HW119532   2.458   2.299   2.136 -0.5096  1.6256  1.2903
 2633SOL    HW219533   2.425   2.444   2.099  1.7747  0.8091 -1.3818
 2634SOL     OW19534   1.544   4.403   6.610  0.4543 -0.3371 -0.3944
 2634SOL    HW119535   1.572   4.427   6.522  1.7734  2.0228  0.6646
 2634SOL    HW219536   1.522   4.489   6.645  0.3563 -0.5312  0.0298
 2635SOL     OW19537   3.989   4.251   5.474 -0.4838 -0.0053 -1.0336
 2635SOL    HW119538   4.003   4.162   5.445  0.9379 -0.7077  1.7290
 2635SOL    HW219539   4.075   4.273   5.511 -0.6059  1.1438 -1.4103
 2636SOL     OW19540   1.409   1.656   1.858 -1.0740 -0.0511 -0.0875
 2636SOL    HW119541   1.382   1.653   1.767 -1.8850  0.4355  0.1358
 2636SOL    HW219542   1.404   1.564   1.883 -1.1572 -0.4475 -1.5650
 2637SOL     OW19543   1.617   0.908   2.456 -0.3013 -0.6237  0.0543
 2637SOL    HW119544   1.649   0.852   2.527 -0.3586 -0.5744  0.1186
 2637SOL    HW219545   1.523   0.889   2.459 -0.0277 -1.5669  2.8922
 2638SOL     OW19546   4.220   0.293   2.298 -0.2095 -0.6616 -0.1542
 2638SOL    HW119547   4.242   0.206   2.264 -1.8457 -0.3601 -2.0015
 2638SOL    HW219548   4.222   0.294   2.394 -1.7702  1.3265 -0.1421
 2639SOL     OW19549   4.237   4.694   9.836 -0.5750  0.3894 -0.7807
 2639SOL    HW119550   4.271   4.736   9.915 -0.2700  0.0599 -0.7358
 2639SOL    HW219551   4.314   4.687   9.780  1.0665  0.4529  1.4659
 2640SOL     OW19552   1.030   2.185   8.278 -0.2138 -0.1429 -0.6697
 2640SOL    HW119553   0.937   2.192   8.302 -0.0330 -4.0517  1.1790
 2640SOL    HW219554   1.034   2.090   8.273  2.6561  0.0082 -0.9653
 2641SOL     OW19555   1.027   0.512  14.055  0.1481  0.4617 -0.3619
 2641SOL    HW119556   1.020   0.534  13.962  0.5814  0.1376 -0.4702
 2641SOL    HW219557   1.122   0.512  14.071 -0.0008  0.9486  0.5379
 2642SOL     OW19558   3.465   2.405  14.412 -0.5553  1.0028 -0.2983
 2642SOL    HW119559   3.420   2.339  14.466  0.5633  0.3535 -0.1561
 2642SOL    HW219560   3.385   2.436  14.369  1.7729  1.2822 -4.3921
 2643SOL     OW19561   0.278   3.336   4.546 -0.0349 -1.0555 -0.0804
 2643SOL    HW119562   0.193   3.363   4.578  0.8869  1.2552  0.4053
 2643SOL    HW219563   0.314   3.423   4.526  1.3271 -1.4495  0.6036
 2644SOL     OW19564   1.581   0.974  15.201  0.6740  0.6537  0.1310
 2644SOL    HW119565   1.552   0.890  15.165  1.2484 -0.3226  1.9458
 2644SOL    HW219566   1.674   0.957  15.219  0.2733  0.0779  1.6126
 2645SOL     OW19567   2.539   4.180   0.223 -0.3784  0.1705  0.5466
 2645SOL    HW119568   2.530   4.215   0.134 -2.4851  0.5361  0.9020
 2645SOL    HW219569   2.454   4.207   0.257  1.3046  4.3181  1.4477
 2646SOL     OW19570   1.586   1.936   4.188 -0.3529 -0.2175 -0.3567
 2646SOL    HW119571   1.651   1.889   4.135  1.1771  0.0186  1.3096
 2646SOL    HW219572   1.630   2.020   4.180  0.0537 -0.3348  0.6261
 2647SOL     OW19573   0.492   2.391   4.547  0.5012 -0.3885  0.0643
 2647SOL    HW119574   0.447   2.324   4.598  0.7441 -1.4012 -1.0573
 2647SOL    HW219575   0.432   2.396   4.472  2.2351  3.2416 -1.0883
 2648SOL     OW19576   3.688   2.812  13.464  0.0420  0.1611 -0.6181
 2648SOL    HW119577   3.663   2.809  13.556  0.0967  2.0225 -0.5374
 2648SOL    HW219578   3.736   2.895  13.458 -2.1504  1.5623  1.1432
 2649SOL     OW19579   0.667   3.775   7.877  0.0265 -0.2747  0.0319
 2649SOL    HW119580   0.709   3.692   7.856 -0.0595 -0.6107  1.2074
 2649SOL    HW219581   0.652   3.801   7.786 -1.3826 -0.6937  0.1422
 2650SOL     OW19582   1.429   3.276   6.399 -0.1729  0.4098 -0.0056
 2650SOL    HW119583   1.522   3.289   6.418 -0.1696 -0.8048  0.8514
 2650SOL    HW219584   1.400   3.205   6.457 -1.0113  0.1562 -0.7265
 2651SOL     OW19585   2.663   3.670   6.395  0.2219  0.4968 -0.2520
 2651SOL    HW119586   2.664   3.755   6.352 -2.2648  0.5548 -0.1861
 2651SOL    HW219587   2.571   3.653   6.414  0.0110 -0.0670 -1.8008
 2652SOL     OW19588   0.725   3.880   6.863 -0.2541  0.5781  0.6690
 2652SOL    HW119589   0.632   3.860   6.871  0.1004 -1.4858 -0.3019
 2652SOL    HW219590   0.759   3.823   6.932 -1.4452 -0.7230  0.1738
 2653SOL     OW19591   0.035   4.164   7.586  0.4024  0.1828  0.4297
 2653SOL    HW119592   0.112   4.107   7.585  0.1194 -0.1879 -0.3861
 2653SOL    HW219593   0.070   4.252   7.578  2.0994 -0.5920 -0.6529
 2654SOL     OW19594   1.744   2.236   7.426 -0.2020  0.8277  0.1595
 2654SOL    HW119595   1.728   2.204   7.337  2.7014  1.0666 -0.4516
 2654SOL    HW219596   1.827   2.193   7.448 -0.1385  0.5929 -0.5351
 2655SOL     OW19597   2.208   0.673   9.500 -0.3870  0.1817  0.1480
 2655SOL    HW119598   2.170   0.760   9.491  0.3275  0.4190 -0.5114
 2655SOL    HW219599   2.245   0.678   9.588 -1.0732 -1.6313  0.5468
 2656SOL     OW19600   2.468   3.222  11.117 -0.1307  0.8984  0.0142
 2656SOL    HW119601   2.516   3.304  11.128  0.2517  0.3463  2.5882
 2656SOL    HW219602   2.423   3.251  11.038 -0.1476 -0.6153 -0.5307
 2657SOL     OW19603   0.818   0.322   7.107 -0.5296 -0.6938 -0.1850
 2657SOL    HW119604   0.770   0.322   7.189  0.2428 -1.8951  0.2707
 2657SOL    HW219605   0.750   0.359   7.050  0.5398  2.0761  0.3190
 2658SOL     OW19606   1.692   3.883   6.781  0.4484 -0.1475 -0.4892
 2658SOL    HW119607   1.680   3.978   6.793 -0.4306 -0.6384  2.4171
 2658SOL    HW219608   1.786   3.874   6.798  0.2370 -1.5172 -0.0573
 2659SOL     OW19609   4.310   0.860  13.509  0.4234 -0.3386 -1.2328
 2659SOL    HW119610   4.323   0.797  13.580 -1.0882  0.1985 -0.4806
 2659SOL    HW219611   4.393   0.851  13.462  1.6451  0.7099  0.7267
 2660SOL     OW19612   4.337   2.936   8.713  0.2183  0.5303  0.5291
 2660SOL    HW119613   4.395   2.948   8.789  1.2961  0.2291 -0.2360
 2660SOL    HW219614   4.384   2.861   8.678  0.2251  0.9746 -0.4065
 2661SOL     OW19615   3.562   3.646   5.170  0.0866  0.4034 -0.6607
 2661SOL    HW119616   3.584   3.554   5.154  0.4226  0.2564  0.6274
 2661SOL    HW219617   3.612   3.668   5.248  0.0595 -0.4148 -0.4125
 2662SOL     OW19618   4.638   0.495   9.762 -0.2129  0.3135  0.0159
 2662SOL    HW119619   4.628   0.452   9.847 -1.2738 -1.8409 -1.2026
 2662SOL    HW219620   4.588   0.575   9.774  1.6545  1.5453 -0.3109
 2663SOL     OW19621   2.868   4.486  17.309 -0.9430  0.4566 -0.2621
 2663SOL    HW119622   2.840   4.573  17.281  0.9527  1.0856 -0.1614
 2663SOL    HW219623   2.812   4.446  17.242  2.1502 -2.4575 -1.0961
 2664SOL     OW19624   1.773   1.480  11.189 -0.0167  0.4143  0.4434
 2664SOL    HW119625   1.824   1.559  11.209  1.2381  0.0921 -1.4811
 2664SOL    HW219626   1.820   1.419  11.245 -1.8093 -1.7506 -0.4039
 2665SOL     OW19627   1.740   1.161   8.169  0.2361 -1.0742  0.6132
 2665SOL    HW119628   1.811   1.214   8.206 -0.8367 -0.0913  1.2501
 2665SOL    HW219629   1.667   1.182   8.227  0.4280  0.6255  0.2543
 2666SOL     OW19630   1.330   3.726  12.345 -0.4047 -0.0237 -0.1480
 2666SOL    HW119631   1.289   3.809  12.367 -0.1243  0.1673 -0.3525
 2666SOL    HW219632   1.250   3.686  12.311 -0.5570 -0.3220  0.5427
 2667SOL     OW19633   3.789   2.340   2.204 -0.2483 -0.2105  0.0952
 2667SOL    HW119634   3.784   2.431   2.236 -1.6725 -0.5091  0.7165
 2667SOL    HW219635   3.713   2.296   2.243  0.4117 -2.4570 -1.2237
 2668SOL     OW19636   3.394   0.964   3.413 -0.0151 -0.5989  0.4913
 2668SOL    HW119637   3.401   0.972   3.318 -1.2480  0.8537  0.5188
 2668SOL    HW219638   3.299   0.969   3.426 -0.2026 -0.4498 -0.9284
 2669SOL     OW19639   1.427   1.618  12.757 -0.3221  0.2924 -0.2576
 2669SOL    HW119640   1.406   1.567  12.836 -0.1387 -0.6366 -0.8052
 2669SOL    HW219641   1.340   1.652  12.740 -0.2804  0.6328  0.2221
 2670SOL     OW19642   3.372   3.696  12.735  0.3254  0.0566 -0.2284
 2670SOL    HW119643   3.407   3.726  12.652  0.2513 -1.4022 -0.7829
 2670SOL    HW219644   3.366   3.778  12.784 -1.0451 -1.7713  2.6706
 2671SOL     OW19645   2.391   4.525   6.014  0.4862 -0.3895  0.0655
 2671SOL    HW119646   2.299   4.500   6.021  0.1797  1.7140  3.6230
 2671SOL    HW219647   2.401   4.578   6.094  0.5068  2.5268 -1.8668
 2672SOL     OW19648   4.667   0.784   3.766 -1.0421 -0.8450 -0.0010
 2672SOL    HW119649   0.015   0.820   3.740 -0.8438 -1.4731 -0.2292
 2672SOL    HW219650   4.616   0.863   3.782 -1.7279 -1.3935  0.5475
 2673SOL     OW19651   0.221   2.822   6.773  0.2436  0.3690 -0.7712
 2673SOL    HW119652   0.255   2.806   6.685  0.6001  0.5516 -0.6657
 2673SOL    HW219653   0.298   2.863   6.811  0.6950 -0.6693 -0.5759
 2674SOL     OW19654   2.209   1.228   1.615  0.0492  0.4980 -0.2429
 2674SOL    HW119655   2.139   1.205   1.676  0.1733 -0.9556 -0.6500
 2674SOL    HW219656   2.166   1.292   1.558  0.4013  1.2519  0.3457
 2675SOL     OW19657   0.637   0.557   9.724 -0.3044 -0.5745 -0.1191
 2675SOL    HW119658   0.583   0.612   9.781 -0.4743  0.6691 -1.4987
 2675SOL    HW219659   0.704   0.521   9.783 -1.2982 -0.0249  1.3370
 2676SOL     OW19660   3.453   1.916   6.629  0.3640 -0.2448 -0.2097
 2676SOL    HW119661   3.461   1.821   6.635 -3.9591 -0.7735 -3.1928
 2676SOL    HW219662   3.363   1.922   6.598  0.7702  1.3656 -1.0664
 2677SOL     OW19663   2.325   4.523  12.210  0.0308 -0.1045  0.2537
 2677SOL    HW119664   2.244   4.574  12.208  0.3162  0.3611  0.6009
 2677SOL    HW219665   2.324   4.474  12.293 -3.6792  1.0649  0.9086
 2678SOL     OW19666   0.022   2.273   7.637 -0.2477 -0.3624 -0.0468
 2678SOL    HW119667   4.672   2.232   7.636  0.4244 -1.7721  0.3629
 2678SOL    HW219668   0.050   2.231   7.717  0.6953 -2.4875 -1.5000
 2679SOL     OW19669   0.559   3.380   7.374  0.0908 -0.7728 -0.2126
 2679SOL    HW119670   0.614   3.303   7.377 -0.8813 -1.4198  1.2343
 2679SOL    HW219671   0.517   3.375   7.460  0.5527  1.0995  0.1313
 2680SOL     OW19672   2.889   3.166   6.188  0.0978  0.2301 -0.2864
 2680SOL    HW119673   2.840   3.215   6.123 -0.3735  0.7441  0.4611
 2680SOL    HW219674   2.969   3.143   6.139  0.9812  0.6387  0.9526
 2681SOL     OW19675   2.659   3.016   5.692 -0.2480  0.1566  0.2284
 2681SOL    HW119676   2.587   3.066   5.656  0.8031  2.1217  0.8692
 2681SOL    HW219677   2.606   2.947   5.734 -2.0058  0.6152 -1.2707
 2682SOL     OW19678   4.494   3.517  15.427  0.0173 -0.2001 -0.0372
 2682SOL    HW119679   4.456   3.434  15.399 -0.7260  0.2356 -0.3252
 2682SOL    HW219680   4.417   3.568  15.402 -0.2742 -0.5522  0.1457
 2683SOL     OW19681   1.013   3.820   6.169  0.0922  0.0103  0.2255
 2683SOL    HW119682   1.082   3.887   6.170  0.6797 -0.6326  1.8464
 2683SOL    HW219683   0.976   3.815   6.257  1.0680  1.8496  0.7467
 2684SOL     OW19684   2.969   1.810   2.857  0.1567  0.9541  0.0341
 2684SOL    HW119685   3.049   1.811   2.908  0.4406 -2.5673 -0.3597
 2684SOL    HW219686   2.998   1.844   2.772 -0.3287  1.4474  0.0597
 2685SOL     OW19687   2.957   4.219   3.163 -0.1676 -0.7319 -0.1735
 2685SOL    HW119688   2.899   4.292   3.184 -1.2376 -1.7010  0.2736
 2685SOL    HW219689   2.884   4.157   3.167 -0.4170 -0.4174  0.1923
 2686SOL     OW19690   3.579   3.845   1.885 -0.4393  0.0784 -0.4935
 2686SOL    HW119691   3.565   3.760   1.843  0.3283 -0.5754  0.5976
 2686SOL    HW219692   3.580   3.913   1.817 -1.5444  1.2298  0.6337
 2687SOL     OW19693   4.154   2.692  14.131 -0.0821  0.3096  0.1413
 2687SOL    HW119694   4.192   2.702  14.043 -1.6802  0.7404 -0.5048
 2687SOL    HW219695   4.230   2.669  14.184  0.9239  0.9860 -1.0024
 2688SOL     OW19696   0.789   1.670   6.616  0.0693 -0.0973  0.4795
 2688SOL    HW119697   0.739   1.589   6.604  0.9415 -0.4877 -0.4756
 2688SOL    HW219698   0.720   1.730   6.586 -0.3633 -0.3659  0.9333
 2689SOL     OW19699   2.118   0.428   9.793  0.2164 -0.4929  0.5879
 2689SOL    HW119700   2.168   0.347   9.803 -0.8709 -0.9436  2.4530
 2689SOL    HW219701   2.142   0.471   9.875  2.4532 -1.1729  0.2953
 2690SOL     OW19702   3.840   2.910   9.027 -0.5304 -0.2155  0.3665
 2690SOL    HW119703   3.882   2.932   9.110 -1.2192  1.3182  0.2892
 2690SOL    HW219704   3.924   2.906   8.980 -0.4112  0.4754  0.5324
 2691SOL     OW19705   0.757   3.883   3.942 -0.3641  0.0212  0.4175
 2691SOL    HW119706   0.731   3.913   4.029 -0.1741 -0.7765  0.7552
 2691SOL    HW219707   0.670   3.872   3.905 -0.3140  1.8064 -0.2197
 2692SOL     OW19708   1.884   0.163   6.065  0.5949 -0.2135 -0.1603
 2692SOL    HW119709   1.844   0.228   6.124 -0.9176 -0.9436 -0.3802
 2692SOL    HW219710   1.912   0.214   5.989  0.1689  1.0293  0.5110
 2693SOL     OW19711   2.070   1.153  15.121  0.2584  0.3565  0.2098
 2693SOL    HW119712   2.108   1.143  15.209  1.9252 -1.8783 -0.7839
 2693SOL    HW219713   2.134   1.116  15.061  0.7772  1.9854 -0.2587
 2694SOL     OW19714   0.825   2.900  13.898 -0.7377 -0.4922  0.0911
 2694SOL    HW119715   0.737   2.937  13.887 -0.3125  0.0263 -1.4638
 2694SOL    HW219716   0.813   2.811  13.867 -0.0930 -0.3145 -0.6539
 2695SOL     OW19717   1.304   4.326   3.838 -0.0973  1.0539 -0.6378
 2695SOL    HW119718   1.303   4.376   3.920  2.3291  0.4850 -0.2819
 2695SOL    HW219719   1.394   4.327   3.807 -0.2152 -1.7975 -1.0614
 2696SOL     OW19720   1.101   2.529   5.276 -0.5299  1.2320  0.4579
 2696SOL    HW119721   1.060   2.602   5.229 -5.7470 -0.8369  1.8098
 2696SOL    HW219722   1.033   2.462   5.272 -0.0057  0.6974  0.4816
 2697SOL     OW19723   1.914   4.203  13.371 -0.3689  0.4382 -0.4827
 2697SOL    HW119724   1.891   4.263  13.300 -1.2278 -0.1824 -0.7291
 2697SOL    HW219725   1.899   4.265  13.442  0.4565  0.6998 -0.5342
 2698SOL     OW19726   3.257   0.241  14.455 -0.0686  0.2509  0.0356
 2698SOL    HW119727   3.223   0.312  14.401 -0.3739  1.3000  1.5926
 2698SOL    HW219728   3.350   0.260  14.467 -0.0956 -0.6287  1.6025
 2699SOL     OW19729   4.469   1.788   7.044  0.2654 -0.2059 -0.1196
 2699SOL    HW119730   4.523   1.717   7.007  1.5328  0.3733  0.6204
 2699SOL    HW219731   4.401   1.784   6.977 -0.1348 -1.9611  0.3741
 2700SOL     OW19732   0.151   1.823   2.070 -0.1768 -0.1288  0.3536
 2700SOL    HW119733   0.225   1.763   2.061  0.0489  0.2249 -0.1156
 2700SOL    HW219734   0.192   1.907   2.091 -2.0139  0.3452  2.0930
 2701SOL     OW19735   3.657   3.703   8.220  0.8234  0.1183  0.2261
 2701SOL    HW119736   3.694   3.620   8.248 -2.0430 -1.5812 -1.0597
 2701SOL    HW219737   3.564   3.683   8.209  0.6674  2.0215 -2.0993
 2702SOL     OW19738   0.852   2.443   3.407 -0.0950 -0.2390 -0.4128
 2702SOL    HW119739   0.841   2.367   3.464  1.7430 -0.0369  0.2428
 2702SOL    HW219740   0.896   2.413   3.328  0.8527 -2.8793  1.1115
 2703SOL     OW19741   0.052   2.444   4.103 -0.7238  0.0063  0.5038
 2703SOL    HW119742   4.698   2.418   4.091 -0.7249 -0.5387  1.6969
 2703SOL    HW219743   0.047   2.484   4.190 -0.8258  2.1942 -0.5048
 2704SOL     OW19744   1.196   1.720  13.121 -0.0010  0.3285  0.1566
 2704SOL    HW119745   1.110   1.724  13.079 -1.2379 -1.2893  2.5363
 2704SOL    HW219746   1.249   1.668  13.061 -3.6620 -2.5573 -0.5798
 2705SOL     OW19747   0.282   1.541   2.080 -0.2710 -0.2676 -0.2397
 2705SOL    HW119748   0.335   1.536   2.000  0.7886  1.6272  0.3389
 2705SOL    HW219749   0.323   1.614   2.127  0.2761 -1.9204  1.8450
 2706SOL     OW19750   3.672   2.109   6.958 -0.1849 -0.5099  0.2799
 2706SOL    HW119751   3.723   2.067   6.889  0.7204  1.8122 -0.4660
 2706SOL    HW219752   3.586   2.075   6.931 -0.0144 -0.0138 -0.9071
 2707SOL     OW19753   1.624   2.845   9.071 -0.9096  0.3760 -0.3275
 2707SOL    HW119754   1.666   2.921   9.031  2.3820 -1.8227 -0.9954
 2707SOL    HW219755   1.697   2.799   9.111 -0.8029  0.7479 -0.1045
 2708SOL     OW19756   4.411   1.456   8.669  0.5319 -0.3182 -0.1723
 2708SOL    HW119757   4.465   1.433   8.594  0.8606  1.4197 -0.4751
 2708SOL    HW219758   4.430   1.381   8.724  1.0149  0.5229  0.8059
 2709SOL     OW19759   0.026   3.763   5.092  0.2978  0.3425  0.3631
 2709SOL    HW119760   0.105   3.769   5.145  0.2072  2.4679  0.2590
 2709SOL    HW219761   4.719   3.686   5.129 -1.9142  0.9002 -1.0658
 2710SOL     OW19762   4.377   2.334   5.637 -0.4069  0.6671 -0.2901
 2710SOL    HW119763   4.359   2.378   5.721  3.2414  1.7260 -0.0676
 2710SOL    HW219764   4.397   2.245   5.664 -0.7646  0.9565  0.9309
 2711SOL     OW19765   4.584   0.927  12.338  0.3695 -0.7481 -0.6843
 2711SOL    HW119766   4.532   1.001  12.371  1.2477  0.1310 -1.2653
 2711SOL    HW219767   4.667   0.959  12.374  0.7312 -0.7797 -1.4881
 2712SOL     OW19768   2.795   0.720   5.587  0.0233  0.2618  0.6539
 2712SOL    HW119769   2.890   0.728   5.585  0.0207 -0.2608 -2.0992
 2712SOL    HW219770   2.758   0.799   5.625 -1.1856 -0.8139  1.7337
 2713SOL     OW19771   4.293   3.039  13.391  0.0368 -0.3679  0.0736
 2713SOL    HW119772   4.271   3.120  13.436 -3.4943 -0.4106 -1.5892
 2713SOL    HW219773   4.322   3.080  13.310  0.2280 -2.5290 -0.9607
 2714SOL     OW19774   0.371   0.444  11.817 -0.0114 -0.2275 -0.0681
 2714SOL    HW119775   0.412   0.361  11.794  0.6930 -0.2192  1.1679
 2714SOL    HW219776   0.333   0.470  11.733  1.4827 -1.4683 -1.1163
 2715SOL     OW19777   1.909   3.390   9.755  0.0481 -0.4554  0.0063
 2715SOL    HW119778   1.821   3.392   9.718 -0.5371 -2.8273  1.2120
 2715SOL    HW219779   1.917   3.300   9.787  2.6851 -0.9612 -2.0829
 2716SOL     OW19780   0.318   3.131   3.417 -0.4187  0.4071 -0.5132
 2716SOL    HW119781   0.305   3.074   3.341  2.0255 -0.9358  0.1096
 2716SOL    HW219782   0.389   3.086   3.462 -0.7123  2.7010  2.2552
 2717SOL     OW19783   3.505   3.971   7.763 -0.3977 -0.2731 -0.1434
 2717SOL    HW119784   3.542   3.883   7.766 -1.8639 -0.9568 -2.4558
 2717SOL    HW219785   3.576   4.034   7.772 -0.9138  0.0443  1.7107
 2718SOL     OW19786   4.591   1.506   9.208  0.7605 -0.2010  0.1366
 2718SOL    HW119787   4.565   1.422   9.246 -4.5274  1.6097  0.5412
 2718SOL    HW219788   4.611   1.565   9.281  0.8072  0.1379 -0.1483
 2719SOL     OW19789   1.491   2.681   4.514 -0.3956  0.8246  0.0956
 2719SOL    HW119790   1.568   2.711   4.466 -1.6344  1.4723 -1.4542
 2719SOL    HW219791   1.426   2.685   4.444 -0.8883 -0.8722  0.4763
 2720SOL     OW19792   0.796   0.575  16.542 -0.2440 -0.9270  0.4661
 2720SOL    HW119793   0.725   0.599  16.482 -0.5531 -1.4466  0.6237
 2720SOL    HW219794   0.809   0.649  16.602  0.3509  0.2135 -1.0572
 2721SOL     OW19795   2.209   1.499   5.265 -0.2685 -0.5972 -0.7266
 2721SOL    HW119796   2.134   1.528   5.213 -1.3788  0.3496  1.3514
 2721SOL    HW219797   2.250   1.432   5.212  0.2406 -1.0422  0.2246
 2722SOL     OW19798   0.988   0.851  15.804 -0.2507 -0.1458  0.2616
 2722SOL    HW119799   0.929   0.887  15.737  0.4129  1.1545  0.3728
 2722SOL    HW219800   0.970   0.761  15.776  1.8575 -0.4831  0.0446
 2723SOL     OW19801   3.178   2.051   2.286 -0.3749  0.3965  0.2220
 2723SOL    HW119802   3.156   1.975   2.340 -1.0966  0.9495  0.7023
 2723SOL    HW219803   3.090   2.088   2.285 -1.3520 -1.9442  0.7431
 2724SOL     OW19804   0.716   0.398  14.882 -0.0482 -0.0024  0.2730
 2724SOL    HW119805   0.771   0.476  14.883 -1.0341  0.6778  0.4099
 2724SOL    HW219806   0.653   0.423  14.949  0.5265 -0.4427  0.9715
 2725SOL     OW19807   0.969   3.958   8.095  0.3964 -0.2450  0.0232
 2725SOL    HW119808   0.991   3.972   8.187  1.4509 -1.1363 -0.1013
 2725SOL    HW219809   1.053   3.992   8.067 -0.0575 -0.6490 -1.8304
 2726SOL     OW19810   4.626   1.978  17.625 -0.0732  0.2801 -0.0377
 2726SOL    HW119811   4.596   1.888  17.611  1.3227 -0.1391 -0.3164
 2726SOL    HW219812   4.560   2.022  17.572 -1.0045 -1.0996 -0.0387
 2727SOL     OW19813   4.123   3.915   6.494  0.2009  0.0192  0.0170
 2727SOL    HW119814   4.061   3.842   6.504 -0.7720  1.3343  3.5696
 2727SOL    HW219815   4.150   3.900   6.404 -3.4913 -0.5643 -0.9983
 2728SOL     OW19816   1.208   1.877   4.477  0.2643  0.4506 -0.3625
 2728SOL    HW119817   1.234   1.965   4.503  0.0805  0.6867 -0.9740
 2728SOL    HW219818   1.294   1.845   4.450 -0.3164 -0.4029 -1.1866
 2729SOL     OW19819   3.551   4.610   4.421 -0.2142  0.3567  0.4618
 2729SOL    HW119820   3.620   4.576   4.364  0.7701 -1.5345  2.7894
 2729SOL    HW219821   3.482   4.563   4.375 -0.3213  0.5112  0.4675
 2730SOL     OW19822   2.476   3.066   3.558 -0.1539 -0.7279  0.4225
 2730SOL    HW119823   2.466   3.160   3.538  2.6792 -0.5682 -0.2290
 2730SOL    HW219824   2.385   3.038   3.565 -0.1146 -0.5515  1.6962
 2731SOL     OW19825   4.559   3.252   2.157 -1.0606 -0.8552 -0.0857
 2731SOL    HW119826   4.614   3.229   2.232 -0.7770 -1.3875 -0.4595
 2731SOL    HW219827   4.537   3.169   2.115 -0.6178  0.0601 -2.1001
 2732SOL     OW19828   2.669   3.660   1.802  0.0178 -0.3704  0.0172
 2732SOL    HW119829   2.693   3.679   1.892 -0.4374  0.1924  0.0140
 2732SOL    HW219830   2.586   3.612   1.809 -1.2457  1.3480 -3.0765
 2733SOL     OW19831   1.287   2.569   3.762  0.2935 -0.1478 -0.4172
 2733SOL    HW119832   1.342   2.522   3.824 -1.3444 -1.0653  0.3454
 2733SOL    HW219833   1.340   2.638   3.723  0.3468 -1.1375 -2.1399
 2734SOL     OW19834   4.320   3.633   1.808 -0.2195  0.5984 -0.7644
 2734SOL    HW119835   4.320   3.591   1.722 -0.1824 -2.2335  0.6155
 2734SOL    HW219836   4.306   3.720   1.771 -0.7821  1.2229  0.9428
 2735SOL     OW19837   0.158   3.122   3.896 -0.5492  0.0744 -0.3916
 2735SOL    HW119838   0.064   3.136   3.902 -0.6200  0.1683 -1.6886
 2735SOL    HW219839   0.160   3.165   3.811  0.7310  0.3124 -0.2507
 2736SOL     OW19840   3.765   4.153   6.224  0.0259 -0.4382 -0.5852
 2736SOL    HW119841   3.768   4.129   6.132 -2.5140 -2.6175 -0.1040
 2736SOL    HW219842   3.826   4.091   6.264 -0.7613  0.0599  1.3926
 2737SOL     OW19843   1.839   2.845   6.750 -0.0304 -0.1142  0.2349
 2737SOL    HW119844   1.857   2.831   6.657  2.3777 -0.1084  0.7022
 2737SOL    HW219845   1.911   2.907   6.762 -0.4606  1.0575 -2.9757
 2738SOL     OW19846   0.135   4.299   6.600  0.3085 -0.2915  0.8982
 2738SOL    HW119847   0.060   4.332   6.650  0.1824  1.2600 -0.3355
 2738SOL    HW219848   0.203   4.322   6.662  0.7644 -1.9921  1.0333
 2739SOL     OW19849   1.351   4.665   3.791 -0.1463 -0.1310 -0.4008
 2739SOL    HW119850   1.333   4.693   3.881 -3.2686  0.4284 -1.2006
 2739SOL    HW219851   1.308   4.726   3.731  0.1669 -0.7908 -1.2872
 2740SOL     OW19852   3.277   2.072   4.926  0.4703  0.8905 -0.7917
 2740SOL    HW119853   3.266   2.096   5.018  1.6553 -0.8135 -0.1996
 2740SOL    HW219854   3.372   2.068   4.913  0.4618 -1.5193 -0.1686
 2741SOL     OW19855   3.492   3.604   8.014 -0.1589  0.1175  0.1848
 2741SOL    HW119856   3.559   3.553   7.969 -0.7743 -0.4002 -0.1345
 2741SOL    HW219857   3.533   3.691   8.018 -1.4091  0.6489  1.4725
 2742SOL     OW19858   3.376   1.639   9.813  0.4195 -0.1463  0.4236
 2742SOL    HW119859   3.283   1.659   9.827  0.4033  0.0532  0.0201
 2742SOL    HW219860   3.418   1.713   9.857 -0.8015  0.9225 -0.2140
 2743SOL     OW19861   0.555   0.007   7.749  0.2148 -0.4562 -0.2321
 2743SOL    HW119862   0.552   0.062   7.827  1.0068 -0.5732 -0.1263
 2743SOL    HW219863   0.562   4.660   7.794 -0.2024 -0.7656 -0.7452
 2744SOL     OW19864   3.138   2.868  15.770 -0.0070 -0.0261 -0.2067
 2744SOL    HW119865   3.234   2.864  15.768  0.0410  1.3546 -0.5186
 2744SOL    HW219866   3.111   2.780  15.745 -2.5845  0.6504  0.2402
 2745SOL     OW19867   0.486   2.100   7.484 -0.1249 -0.0582 -0.0435
 2745SOL    HW119868   0.460   2.181   7.528  1.0282 -0.7394  1.8705
 2745SOL    HW219869   0.579   2.099   7.506  0.4154  3.4153 -2.1675
 2746SOL     OW19870   0.428   0.185   2.303  0.2441 -0.2459  0.1494
 2746SOL    HW119871   0.478   0.189   2.385  0.5775  2.8895 -0.1957
 2746SOL    HW219872   0.439   0.098   2.264 -0.5551 -0.2589 -0.0425
 2747SOL     OW19873   1.078   4.607   6.383 -0.8568  0.3995  0.2743
 2747SOL    HW119874   1.039   4.527   6.349  2.5183 -0.3179 -1.8284
 2747SOL    HW219875   1.170   4.594   6.361 -0.3428 -0.5034  2.9874
 2748SOL     OW19876   0.578   0.152   2.526  0.1367 -0.2556  0.4766
 2748SOL    HW119877   0.543   0.227   2.575 -3.1749 -0.4666 -1.5301
 2748SOL    HW219878   0.671   0.160   2.546  0.0232  0.7942  0.5923
 2749SOL     OW19879   4.650   2.134   5.594  0.2862  0.4197  0.5394
 2749SOL    HW119880   4.671   2.227   5.599  0.5742  0.4920 -2.0743
 2749SOL    HW219881   4.616   2.127   5.505  0.7974  0.9010  0.3091
 2750SOL     OW19882   3.978   1.884   8.913 -0.4492  0.8597 -0.5220
 2750SOL    HW119883   3.950   1.804   8.957  1.3565 -0.4111 -1.6931
 2750SOL    HW219884   3.973   1.871   8.819  0.1198 -0.3757 -0.3746
 2751SOL     OW19885   3.173   0.476   2.584  0.0535 -0.1360 -0.3918
 2751SOL    HW119886   3.264   0.445   2.590 -0.8657 -2.4417  1.4080
 2751SOL    HW219887   3.184   0.547   2.521 -1.3888  1.0936  0.7576
 2752SOL     OW19888   0.536   1.649   5.422 -0.1956 -0.2831  0.2765
 2752SOL    HW119889   0.593   1.725   5.435  0.7691 -0.8164 -0.8415
 2752SOL    HW219890   0.588   1.575   5.450  0.4756  0.6500  1.4978
 2753SOL     OW19891   2.532   3.430  14.916 -0.3905  0.2355 -0.3360
 2753SOL    HW119892   2.574   3.436  14.830 -2.2921 -2.1932 -1.4427
 2753SOL    HW219893   2.477   3.352  14.908 -0.9652  0.4406  1.5009
 2754SOL     OW19894   3.698   3.285  16.511 -0.5550  0.2804  0.0677
 2754SOL    HW119895   3.627   3.228  16.480  0.6958  0.3707 -2.9629
 2754SOL    HW219896   3.679   3.364  16.459  0.4834  0.5833  0.1572
 2755SOL     OW19897   2.034   3.278  11.858  0.3989  0.3094  0.2638
 2755SOL    HW119898   1.941   3.282  11.879  0.6802 -1.6140  1.8809
 2755SOL    HW219899   2.036   3.342  11.787  0.5737 -1.1666 -1.0637
 2756SOL     OW19900   4.412   2.097   5.101  0.2586  0.1878  0.2206
 2756SOL    HW119901   4.329   2.099   5.148 -1.4421 -0.5074 -2.7712
 2756SOL    HW219902   4.394   2.137   5.016  2.1662  0.6586  0.0368
 2757SOL     OW19903   4.585   4.082   4.316  0.0493 -0.4112  0.4410
 2757SOL    HW119904   4.500   4.051   4.346 -1.4890  2.2960 -1.0672
 2757SOL    HW219905   4.644   4.064   4.389 -0.8065  2.0202  1.7132
 2758SOL     OW19906   2.200   1.563   2.438  0.0994 -0.1012  0.3433
 2758SOL    HW119907   2.240   1.606   2.362 -0.2394  1.1079  0.8525
 2758SOL    HW219908   2.276   1.547   2.494 -0.6750 -3.0745  0.5442
 2759SOL     OW19909   1.088   4.143   7.541  0.3322 -0.0194 -0.3001
 2759SOL    HW119910   1.160   4.187   7.498 -0.4051  1.6256  0.1568
 2759SOL    HW219911   1.108   4.057   7.504 -1.4888 -2.0090  3.3329
 2760SOL     OW19912   1.036   0.527   6.061 -0.0976 -0.7001 -0.3842
 2760SOL    HW119913   0.943   0.531   6.084  0.0379 -2.0740  0.4044
 2760SOL    HW219914   1.035   0.461   5.992  1.0977 -2.1219  0.9550
 2761SOL     OW19915   0.257   0.387  12.414 -0.3850 -0.3474  0.5482
 2761SOL    HW119916   0.205   0.467  12.422  1.3663  0.8812 -0.4530
 2761SOL    HW219917   0.214   0.339  12.485  0.5737  2.6319  3.1149
 2762SOL     OW19918   3.613   1.155   7.796 -0.2798  0.1257 -0.0655
 2762SOL    HW119919   3.657   1.092   7.853 -0.0860  2.1756  2.0622
 2762SOL    HW219920   3.684   1.178   7.736 -0.9388 -1.9693 -1.6329
 2763SOL     OW19921   1.580   2.904   8.523 -0.7701  0.1585  0.5480
 2763SOL    HW119922   1.562   2.891   8.430  0.8245  2.0491 -0.0144
 2763SOL    HW219923   1.664   2.949   8.507 -0.9045 -0.5684 -2.2536
 2764SOL     OW19924   4.332   0.327   2.588  0.0116 -0.2535 -0.0294
 2764SOL    HW119925   4.346   0.244   2.542  1.1330  1.0836 -2.1089
 2764SOL    HW219926   4.388   0.314   2.665 -1.2461 -1.0194  0.7653
 2765SOL     OW19927   3.153   2.359   7.372  0.0561 -0.2371 -0.4955
 2765SOL    HW119928   3.105   2.284   7.405 -1.0005 -0.2746 -2.1273
 2765SOL    HW219929   3.137   2.421   7.444  0.7481 -2.6618  1.7343
 2766SOL     OW19930   0.350   4.175   2.739 -0.0575  0.3827 -0.0520
 2766SOL    HW119931   0.261   4.149   2.714  0.3173 -0.7375 -0.1988
 2766SOL    HW219932   0.383   4.088   2.759 -0.7080  0.1496  0.0070
 2767SOL     OW19933   3.002   1.607  13.034  0.3866 -0.5389  0.6304
 2767SOL    HW119934   2.988   1.531  13.091  5.0957 -2.2477 -0.4743
 2767SOL    HW219935   3.087   1.575  13.004 -0.7833 -2.2233 -0.8546
 2768SOL     OW19936   1.006   2.959  14.130  0.0739 -0.0347  0.0323
 2768SOL    HW119937   1.090   2.948  14.085  0.4823  2.6486  0.1113
 2768SOL    HW219938   0.954   2.904  14.071 -0.7893  1.5941 -0.7076
 2769SOL     OW19939   1.197   4.221   4.918  0.3476  0.2564 -0.2042
 2769SOL    HW119940   1.289   4.214   4.895 -0.4398 -3.6871 -2.2332
 2769SOL    HW219941   1.198   4.257   5.007  0.1868 -0.6921  0.1820
 2770SOL     OW19942   0.200   3.088   2.093 -0.0251  0.0546  0.1096
 2770SOL    HW119943   0.243   3.161   2.137  1.2782 -0.2741 -0.6434
 2770SOL    HW219944   0.270   3.030   2.121 -1.2771 -0.2330  2.6943
 2771SOL     OW19945   0.552   0.497   7.175 -0.2624 -0.3162 -0.5195
 2771SOL    HW119946   0.495   0.547   7.117  0.7241  1.6571  0.2499
 2771SOL    HW219947   0.520   0.406   7.168  0.9813 -0.7705 -0.1729
 2772SOL     OW19948   1.078   2.461   7.870  0.1084  0.0220  0.0266
 2772SOL    HW119949   1.145   2.526   7.852 -0.8260  1.3727  1.4122
 2772SOL    HW219950   1.010   2.517   7.909  1.7542  1.3903  0.9604
 2773SOL     OW19951   0.275   2.376  10.420  0.5542  0.4847 -0.5157
 2773SOL    HW119952   0.281   2.283  10.397  0.3556  0.2512  0.3907
 2773SOL    HW219953   0.182   2.391  10.407  0.2485  1.2987  2.7758
 2774SOL     OW19954   0.937   1.618   1.090  0.1493  0.0200 -0.1010
 2774SOL    HW119955   0.925   1.596   0.997  2.9027 -0.4812 -0.3639
 2774SOL    HW219956   0.861   1.674   1.103  0.1605  0.0849 -0.3128
 2775SOL     OW19957   1.610   4.412   3.674  0.3338 -0.5360 -0.5492
 2775SOL    HW119958   1.522   4.423   3.638  0.4658  0.9184 -0.4244
 2775SOL    HW219959   1.662   4.419   3.594 -0.8627 -2.2902 -1.4785
 2776SOL     OW19960   3.400   4.433   6.739 -0.3375  0.3918  0.2496
 2776SOL    HW119961   3.447   4.451   6.657 -0.4134 -3.3488 -0.6170
 2776SOL    HW219962   3.319   4.481   6.724 -1.4298 -2.1235 -1.8643
 2777SOL     OW19963   1.464   3.047   8.738 -0.3519  0.0025  0.0273
 2777SOL    HW119964   1.462   3.013   8.648  3.4757  1.0792 -0.4413
 2777SOL    HW219965   1.557   3.043   8.757 -0.2660 -1.5012 -0.6775
 2778SOL     OW19966   0.320   2.111   8.721 -0.1219 -0.0978 -0.2708
 2778SOL    HW119967   0.244   2.072   8.679  1.2407  0.8041 -3.5714
 2778SOL    HW219968   0.394   2.052   8.709  0.0207 -0.4340  2.2737
 2779SOL     OW19969   4.190   1.180   7.752  0.4144 -0.1529 -0.4711
 2779SOL    HW119970   4.213   1.177   7.845 -0.2973 -1.5631 -0.3290
 2779SOL    HW219971   4.185   1.274   7.735 -1.3487  0.4033  3.0361
 2780SOL     OW19972   0.825   1.601   8.059 -0.3802  0.0612  0.0682
 2780SOL    HW119973   0.812   1.551   7.979 -1.6101 -0.4230  0.5620
 2780SOL    HW219974   0.821   1.531   8.124 -1.4083  0.4989  0.4896
 2781SOL     OW19975   1.948   1.197   3.330 -0.0318 -0.2298 -0.4871
 2781SOL    HW119976   1.863   1.159   3.306 -0.2419 -1.1570  1.7272
 2781SOL    HW219977   1.982   1.132   3.391 -3.2107  0.0657  1.6467
 2782SOL     OW19978   1.272   0.212  10.934  0.2537  0.0442  0.1490
 2782SOL    HW119979   1.191   0.238  10.978  1.1295 -0.0833  1.8612
 2782SOL    HW219980   1.235   0.169  10.857 -1.1158 -0.5423  1.1210
 2783SOL     OW19981   0.150   3.720  16.978  0.5221 -0.5923 -0.2534
 2783SOL    HW119982   0.058   3.729  16.952  0.7493  0.3975 -0.7006
 2783SOL    HW219983   0.179   3.811  16.969 -2.5055  0.3555 -0.5200
 2784SOL     OW19984   2.171   2.201  15.514 -0.4912 -0.1384  0.1936
 2784SOL    HW119985   2.146   2.288  15.544  2.1959  0.9428 -0.7186
 2784SOL    HW219986   2.214   2.169  15.593  0.9505 -0.9872 -0.9404
 2785SOL     OW19987   2.584   0.221   0.730  0.7399 -0.0379  0.0429
 2785SOL    HW119988   2.488   0.224   0.723  0.9517  0.7850 -2.5945
 2785SOL    HW219989   2.598   0.268   0.813  0.9483  1.8536 -1.0609
 2786SOL     OW19990   3.813   3.000   4.570  0.3194 -0.2989 -0.3498
 2786SOL    HW119991   3.748   2.930   4.569  0.8434 -0.8269  1.9108
 2786SOL    HW219992   3.817   3.024   4.663 -0.7941  3.1926 -1.1983
 2787SOL     OW19993   4.465   3.686  13.832  0.4363 -0.2325  0.0359
 2787SOL    HW119994   4.482   3.691  13.926  1.4193 -0.3136 -0.1432
 2787SOL    HW219995   4.455   3.591  13.830  0.8333 -0.2578 -0.7011
 2788SOL     OW19996   0.424   2.692   1.923  0.1342 -0.2721  0.1662
 2788SOL    HW119997   0.398   2.622   1.864 -1.2598 -1.5657  2.3500
 2788SOL    HW219998   0.444   2.637   1.999 -0.6273  4.0147  3.4810
 2789SOL     OW19999   3.695   2.476   4.163 -0.1328  0.7450 -0.7370
 2789SOL    HW120000   3.613   2.524   4.177 -1.0542  0.0261 -3.5821
 2789SOL    HW220001   3.656   2.390   4.145 -0.4963  0.0253  3.4300
 2790SOL     OW20002   3.560   0.698   1.940 -0.2059 -0.0463  0.6800
 2790SOL    HW120003   3.592   0.728   2.025  2.4284 -0.5994 -0.1022
 2790SOL    HW220004   3.639   0.648   1.920 -1.7727 -1.5536 -1.6884
 2791SOL     OW20005   4.551   3.880  11.337 -0.0595 -0.4893  0.4324
 2791SOL    HW120006   4.482   3.814  11.332 -0.0903 -0.3985 -0.3200
 2791SOL    HW220007   4.495   3.955  11.319 -0.6134 -0.7175  1.2306
 2792SOL     OW20008   2.228   1.492   8.579 -0.2050 -0.7325  0.5858
 2792SOL    HW120009   2.290   1.554   8.616  0.6783 -1.7659  0.8090
 2792SOL    HW220010   2.220   1.430   8.651  1.0147 -0.2868  1.0932
 2793SOL     OW20011   0.553   1.992   4.495  0.0855  0.7577  0.0104
 2793SOL    HW120012   0.503   1.919   4.458  1.3104 -0.2973  0.4521
 2793SOL    HW220013   0.644   1.978   4.470 -0.1208 -0.9559  0.2275
 2794SOL     OW20014   0.114   4.465   7.642  0.2502 -0.1793 -0.1708
 2794SOL    HW120015   0.205   4.491   7.625  0.3385 -1.2071 -1.2679
 2794SOL    HW220016   0.126   4.423   7.727  0.5440 -0.7030 -0.4733
 2795SOL     OW20017   0.440   1.114   6.385  0.4278 -0.4447 -0.3128
 2795SOL    HW120018   0.402   1.178   6.445  1.5072  0.2201 -0.3313
 2795SOL    HW220019   0.461   1.041   6.443  0.5698  0.1571  0.3995
 2796SOL     OW20020   3.165   1.557   0.277 -0.3884 -0.3410  0.0930
 2796SOL    HW120021   3.227   1.500   0.323  0.9034 -0.2358 -1.5296
 2796SOL    HW220022   3.104   1.567   0.351  0.0199  0.9030  0.2612
 2797SOL     OW20023   2.209   1.629   4.436 -0.1124  0.0054 -0.1486
 2797SOL    HW120024   2.237   1.667   4.519 -0.3131 -1.7657  0.7275
 2797SOL    HW220025   2.201   1.705   4.378  0.5345  1.0213  1.0809
 2798SOL     OW20026   3.523   0.109   0.313 -1.0322  0.0461 -0.3719
 2798SOL    HW120027   3.565   0.023   0.315 -0.4947  0.3174  0.0639
 2798SOL    HW220028   3.554   0.137   0.227  1.8276  0.8879  0.9307
 2799SOL     OW20029   2.281   2.921   1.667  0.5350 -0.1007  0.1511
 2799SOL    HW120030   2.342   2.966   1.609  0.5217  0.4134  0.5354
 2799SOL    HW220031   2.222   2.889   1.599 -2.5586  0.5336  2.5519
 2800SOL     OW20032   3.911   4.003   6.921  0.2841  0.3698 -0.4496
 2800SOL    HW120033   3.817   4.004   6.937  0.0477 -0.9096 -1.7595
 2800SOL    HW220034   3.910   3.923   6.868 -1.7162 -0.5316  0.9388
 2801SOL     OW20035   4.103   1.840   8.301 -0.4436 -0.0918 -0.0476
 2801SOL    HW120036   4.197   1.834   8.314 -0.7416 -1.4237  1.4526
 2801SOL    HW220037   4.082   1.932   8.314  2.2613  0.6556 -1.0319
 2802SOL     OW20038   1.516   2.509   2.951  0.2459  0.8785  0.3348
 2802SOL    HW120039   1.515   2.529   2.858  1.5963 -0.1267  0.1058
 2802SOL    HW220040   1.556   2.587   2.991  0.3887  0.1827  1.5490
 2803SOL     OW20041   0.005   0.608  17.263  0.0779 -0.1456  0.5135
 2803SOL    HW120042   0.026   0.515  17.252 -2.3974 -0.6051 -0.2947
 2803SOL    HW220043   4.655   0.613  17.304 -0.2729  0.9153 -0.3701
 2804SOL     OW20044   3.034   0.315   5.827  0.7354  0.1681  0.3649
 2804SOL    HW120045   2.966   0.378   5.850  0.4871  0.6194 -1.6536
 2804SOL    HW220046   3.101   0.377   5.800  1.3407 -1.0120 -0.8412
 2805SOL     OW20047   2.154   4.084   8.476  0.2493  0.0645  0.1422
 2805SOL    HW120048   2.122   4.098   8.386 -1.1488  2.2507  0.9684
 2805SOL    HW220049   2.193   4.170   8.491 -0.3971  0.3986 -0.0774
 2806SOL     OW20050   3.959   3.398   7.782 -0.6084 -0.7237 -0.0606
 2806SOL    HW120051   3.983   3.485   7.816  1.9298 -0.3972 -2.6428
 2806SOL    HW220052   3.887   3.374   7.840  1.4695 -0.1005  2.8137
 2807SOL     OW20053   3.693   0.752   4.712  0.1419 -0.1322  0.0154
 2807SOL    HW120054   3.689   0.841   4.747 -2.1752 -1.9218  4.2032
 2807SOL    HW220055   3.627   0.765   4.643  0.1592 -2.2692 -0.3815
 2808SOL     OW20056   4.579   0.027  12.880  0.3363  0.3061 -0.3911
 2808SOL    HW120057   4.623   4.721  12.806  0.8734  0.3088 -0.0710
 2808SOL    HW220058   4.496   4.716  12.879 -0.0797  1.0391 -1.3521
 2809SOL     OW20059   0.229   0.748   3.336 -0.2619 -0.0726 -0.2857
 2809SOL    HW120060   0.291   0.791   3.395 -0.0051 -2.7270  1.3888
 2809SOL    HW220061   0.184   0.694   3.401  1.2108  1.5199  2.0793
 2810SOL     OW20062   4.602   3.228  12.753  0.1461 -0.2883  0.4294
 2810SOL    HW120063   4.575   3.204  12.664  0.8387 -1.0384  0.4095
 2810SOL    HW220064   4.523   3.220  12.806  1.0802 -3.3052  1.4123
 2811SOL     OW20065   3.375   2.934   9.303  0.0236  0.2289 -0.7188
 2811SOL    HW120066   3.307   2.988   9.344  1.3019  0.8792  0.5270
 2811SOL    HW220067   3.387   2.864   9.366  1.8089  1.0395 -0.1826
 2812SOL     OW20068   1.555   0.410   2.734 -0.3436  0.2192 -0.0942
 2812SOL    HW120069   1.489   0.462   2.780 -0.5584  0.7509 -1.0223
 2812SOL    HW220070   1.639   0.440   2.768 -0.6867  0.1865  0.7817
 2813SOL     OW20071   3.019   3.220   6.710  0.5600  0.0350  0.2760
 2813SOL    HW120072   3.005   3.232   6.616  1.6459  0.6845  0.2050
 2813SOL    HW220073   2.930   3.187   6.721  0.1928  0.7329 -0.5675
 2814SOL     OW20074   4.721   4.051  11.476  0.0419  0.2428 -0.2879
 2814SOL    HW120075   4.677   3.976  11.437  1.1365  0.5207 -2.0816
 2814SOL    HW220076   0.024   4.089  11.398 -1.6214  2.0651 -0.2260
 2815SOL     OW20077   2.105   4.234   8.239 -0.0264  0.3884  0.0495
 2815SOL    HW120078   2.195   4.248   8.210 -0.9087 -0.4761 -3.1442
 2815SOL    HW220079   2.086   4.322   8.271  1.8118  0.8942 -0.2464
 2816SOL     OW20080   2.336   1.219   2.659 -0.1890  0.4639  0.2467
 2816SOL    HW120081   2.405   1.163   2.693 -0.0868  0.4346 -0.0048
 2816SOL    HW220082   2.329   1.182   2.571  0.3354 -0.9270  0.7906
 2817SOL     OW20083   1.298   3.671   8.352 -0.2078  0.6900  0.1229
 2817SOL    HW120084   1.219   3.646   8.400 -0.9072  2.1988 -0.2411
 2817SOL    HW220085   1.361   3.617   8.401  0.9458  1.2130 -0.7850
 2818SOL     OW20086   2.565   0.414   3.912  0.0474 -0.1620 -0.0109
 2818SOL    HW120087   2.651   0.415   3.870  1.5618 -0.1597  3.0779
 2818SOL    HW220088   2.518   0.446   3.835 -0.5390 -2.0569 -0.4288
 2819SOL     OW20089   0.153   0.823   8.094 -0.3244  0.0755  0.3386
 2819SOL    HW120090   0.120   0.752   8.039  0.8631  1.2675 -1.9197
 2819SOL    HW220091   0.207   0.870   8.030  0.2102  0.2131  0.8923
 2820SOL     OW20092   1.176   1.974   9.900 -0.3723  0.3241  0.2068
 2820SOL    HW120093   1.260   2.017   9.887 -0.8418  1.3361  0.5078
 2820SOL    HW220094   1.171   1.925   9.817  1.7946  1.8622 -0.8262
 2821SOL     OW20095   4.661   0.490   8.275 -0.0314  0.0390 -0.1446
 2821SOL    HW120096   4.601   0.436   8.327 -0.1328  0.6643  0.3789
 2821SOL    HW220097   4.603   0.547   8.224  0.5482  1.9090  1.2889
 2822SOL     OW20098   3.248   4.208   2.387  0.1937  0.3073 -0.3410
 2822SOL    HW120099   3.288   4.129   2.423 -0.8218  0.8313  1.9176
 2822SOL    HW220100   3.317   4.244   2.333  1.9677 -0.3455  1.5073
 2823SOL     OW20101   3.806   3.066   7.091 -0.1687  0.0534  0.4125
 2823SOL    HW120102   3.812   3.076   7.186  0.0583 -0.4635  0.4529
 2823SOL    HW220103   3.745   3.137   7.070  0.6150 -0.1711 -2.6500
 2824SOL     OW20104   3.991   1.076  16.987  0.2341  0.3018 -0.2323
 2824SOL    HW120105   4.040   1.157  16.999 -1.6834  1.3371  0.6075
 2824SOL    HW220106   3.924   1.116  16.931 -1.1704 -1.2272  0.3537
 2825SOL     OW20107   3.422   0.448   4.095  0.2929 -0.2636  0.0528
 2825SOL    HW120108   3.445   0.378   4.034  0.2247  1.2291 -1.6870
 2825SOL    HW220109   3.487   0.454   4.165  2.0974 -1.4373 -1.5335
 2826SOL     OW20110   0.371   1.756   6.766 -0.3623 -0.0176 -0.5501
 2826SOL    HW120111   0.328   1.730   6.685 -2.0201 -1.8433  0.9128
 2826SOL    HW220112   0.359   1.673   6.812  0.4533  1.0646  1.6163
 2827SOL     OW20113   1.913   0.038   8.846  0.4760  0.3768  0.1070
 2827SOL    HW120114   1.959   0.014   8.927  0.7022 -0.8025 -0.3711
 2827SOL    HW220115   1.917   0.133   8.851  0.8389  0.4898 -2.2774
 2828SOL     OW20116   3.448   1.711   5.138 -0.4306 -0.0110  0.3834
 2828SOL    HW120117   3.464   1.627   5.183 -0.0270 -0.3169 -0.3464
 2828SOL    HW220118   3.407   1.676   5.059 -0.5445 -0.6223  0.7101
 2829SOL     OW20119   2.934   1.274   6.864  0.7576 -0.4776  0.0692
 2829SOL    HW120120   2.935   1.255   6.770 -0.0416 -1.4066  0.2465
 2829SOL    HW220121   3.020   1.316   6.858 -0.0842  1.3908  1.0104
 2830SOL     OW20122   3.419   3.733   3.118  0.5862 -0.4198 -0.0846
 2830SOL    HW120123   3.332   3.733   3.157  1.0098  0.7616  0.8812
 2830SOL    HW220124   3.385   3.762   3.034  0.3827 -2.6035 -0.7402
 2831SOL     OW20125   1.900   0.355  16.630  0.1518 -0.4100  0.1696
 2831SOL    HW120126   1.902   0.396  16.543  0.1485 -2.0292 -0.5805
 2831SOL    HW220127   1.834   0.408  16.675 -1.1683 -2.0537  0.1563
 2832SOL     OW20128   4.167   1.172  14.054 -0.1762 -0.1397  0.4183
 2832SOL    HW120129   4.076   1.185  14.029  0.1527 -1.2538 -1.3580
 2832SOL    HW220130   4.214   1.192  13.973 -0.7081 -3.8510 -0.8392
 2833SOL     OW20131   3.438   2.015   9.452  0.1797  0.3044  0.0019
 2833SOL    HW120132   3.408   1.942   9.398  0.5053 -0.5856  1.0323
 2833SOL    HW220133   3.351   2.047   9.475  1.5241  2.6863  1.6905
 2834SOL     OW20134   4.686   1.834   5.625  0.5233 -0.0919 -0.0697
 2834SOL    HW120135   4.666   1.925   5.600  0.2447 -0.3851 -0.9029
 2834SOL    HW220136   4.691   1.790   5.540 -0.9302  1.6547 -1.0730
 2835SOL     OW20137   0.367   4.257   5.582  0.3677 -0.2659 -0.3976
 2835SOL    HW120138   0.461   4.273   5.588  0.1121  0.9889  0.2392
 2835SOL    HW220139   0.372   4.173   5.537  0.9710  0.1911 -1.1696
 2836SOL     OW20140   2.541   2.422  12.117 -0.4681  0.2219 -0.0774
 2836SOL    HW120141   2.525   2.406  12.024  0.1937  0.8613 -0.3060
 2836SOL    HW220142   2.480   2.360  12.157  0.7303  1.4681  3.6774
 2837SOL     OW20143   1.433   0.063   5.482  0.0045 -0.1541  0.2149
 2837SOL    HW120144   1.474   0.033   5.564  2.7700 -0.0047 -1.1225
 2837SOL    HW220145   1.500   0.126   5.456  0.2611 -0.8889 -0.9070
 2838SOL     OW20146   0.611   3.443   8.127 -0.2986  0.0217 -0.2246
 2838SOL    HW120147   0.693   3.394   8.118 -1.1374 -1.3471 -0.3594
 2838SOL    HW220148   0.576   3.404   8.208  2.7248 -0.3813  0.9068
 2839SOL     OW20149   1.935   0.504   7.551 -0.2221 -0.5176  0.2471
 2839SOL    HW120150   1.937   0.547   7.637  1.8044 -1.9199  0.9225
 2839SOL    HW220151   1.990   0.428   7.572 -0.9408 -0.2274  3.2112
 2840SOL     OW20152   3.731   0.174   3.216 -0.5751 -0.1000  0.0672
 2840SOL    HW120153   3.687   0.166   3.131 -0.9826  0.6451  0.2087
 2840SOL    HW220154   3.657   0.160   3.276  0.5344 -0.9809  1.2259
 2841SOL     OW20155   2.078   4.702   3.815  0.4091  0.0060  0.2657
 2841SOL    HW120156   2.032   0.031   3.763  0.0450 -1.1147 -0.8433
 2841SOL    HW220157   2.063   4.620   3.768  0.5696 -0.1052  0.4095
 2842SOL     OW20158   2.553   4.315  16.179 -0.0958 -0.6815 -0.2058
 2842SOL    HW120159   2.572   4.272  16.095 -0.2630 -0.8593 -0.1525
 2842SOL    HW220160   2.458   4.316  16.178 -0.1181 -1.9160  1.4241
 2843SOL     OW20161   1.510   0.895   5.820  0.2255  0.0752 -1.0660
 2843SOL    HW120162   1.539   0.986   5.806  0.0840  0.2158 -0.4064
 2843SOL    HW220163   1.490   0.875   5.728 -0.2570  0.4021 -1.0284
 2844SOL     OW20164   1.766   3.458  17.631  0.4400 -0.1010 -0.0846
 2844SOL    HW120165   1.756   3.385  17.691 -0.1430  0.5677  0.6315
 2844SOL    HW220166   1.706   3.516  17.677  0.7294  1.4472 -1.6536
 2845SOL     OW20167   2.999   4.318  10.712  0.1948 -0.0536  0.0269
 2845SOL    HW120168   3.002   4.335  10.806 -0.5604 -0.4004  0.1091
 2845SOL    HW220169   2.905   4.329  10.704 -0.0501 -1.5970  0.9106
 2846SOL     OW20170   2.341   2.233   2.442  0.4645  0.5587 -0.2824
 2846SOL    HW120171   2.251   2.200   2.438  0.6166  0.0293  0.6286
 2846SOL    HW220172   2.338   2.308   2.501 -1.1055  0.2030  0.0968
 2847SOL     OW20173   0.880   2.510  10.692 -0.3701  0.5074  0.5642
 2847SOL    HW120174   0.860   2.463  10.611 -0.3462  1.7986 -0.1929
 2847SOL    HW220175   0.843   2.444  10.750  1.9448 -0.3866  1.0381
 2848SOL     OW20176   2.383   1.784   7.845  0.5436 -0.5536 -0.3148
 2848SOL    HW120177   2.414   1.706   7.892 -1.2011 -2.8546 -2.9707
 2848SOL    HW220178   2.415   1.857   7.897 -1.2599 -0.0968  0.1755
 2849SOL     OW20179   2.912   2.132   3.279 -0.3000  0.1192 -0.5913
 2849SOL    HW120180   2.974   2.125   3.206 -2.1965  0.4553 -2.2456
 2849SOL    HW220181   2.971   2.139   3.354 -1.6329 -2.4853  0.6715
 2850SOL     OW20182   3.272   4.099   7.474  0.3344  0.2805  0.1345
 2850SOL    HW120183   3.190   4.098   7.425  1.0374 -1.0485 -0.9969
 2850SOL    HW220184   3.305   4.187   7.452  0.3982  0.5772  1.4036
 2851SOL     OW20185   3.334   3.787  12.098 -0.3957 -0.3228  0.6863
 2851SOL    HW120186   3.415   3.829  12.127  1.6708 -1.9596 -2.6476
 2851SOL    HW220187   3.364   3.774  12.008 -1.6029 -0.1048  0.2611
 2852SOL     OW20188   2.694   0.968  13.294 -0.6439 -0.1521 -0.0971
 2852SOL    HW120189   2.604   0.966  13.324 -1.2292  1.5043 -1.7915
 2852SOL    HW220190   2.726   0.888  13.336 -0.2508  0.7264  1.2748
 2853SOL     OW20191   2.416   2.655   4.989  0.3294  0.6510 -0.1256
 2853SOL    HW120192   2.497   2.706   4.999 -0.6793  2.0787  0.8017
 2853SOL    HW220193   2.420   2.648   4.894  1.2434 -1.3471  0.0679
 2854SOL     OW20194   0.355   3.746   3.659 -0.1542 -0.4178 -0.5823
 2854SOL    HW120195   0.263   3.759   3.639 -0.2050 -0.1956 -0.1992
 2854SOL    HW220196   0.349   3.654   3.686  0.0880 -0.6548 -1.3615
 2855SOL     OW20197   3.463   2.034   8.056  0.9211  0.7562 -0.1007
 2855SOL    HW120198   3.445   2.075   7.972 -1.6476  1.0696  0.5967
 2855SOL    HW220199   3.392   1.970   8.050  1.0043  0.5035  1.4612
 2856SOL     OW20200   2.572   2.145  13.674 -0.2536  0.1001  0.3539
 2856SOL    HW120201   2.617   2.182  13.598 -4.2804  5.0172  0.3255
 2856SOL    HW220202   2.513   2.214  13.705 -0.9517  0.8478 -2.6517
 2857SOL     OW20203   4.113   3.805   2.723 -0.2238  0.1715 -0.2396
 2857SOL    HW120204   4.206   3.802   2.747 -0.1568 -0.7923 -0.6092
 2857SOL    HW220205   4.118   3.828   2.630 -0.3399  1.1877  0.0043
 2858SOL     OW20206   1.176   2.777   2.653 -0.1317 -0.3576 -0.1845
 2858SOL    HW120207   1.110   2.723   2.696 -1.9310  1.6073 -0.5211
 2858SOL    HW220208   1.130   2.821   2.582  0.5232  1.8203  0.7366
 2859SOL     OW20209   1.751   1.756   2.578 -0.0584 -0.5007 -0.9192
 2859SOL    HW120210   1.684   1.814   2.614 -0.0165 -0.4806 -0.8743
 2859SOL    HW220211   1.754   1.690   2.647  0.8782  1.4061  0.8570
 2860SOL     OW20212   0.185   1.004   9.471  0.2940  0.6863  0.1001
 2860SOL    HW120213   0.271   1.041   9.449  0.9841  0.0864  1.8011
 2860SOL    HW220214   0.134   1.082   9.490  1.9903  2.1114 -1.2427
 2861SOL     OW20215   4.562   3.028   6.193 -0.2409  0.2097  0.3873
 2861SOL    HW120216   4.575   3.122   6.189 -0.6463  0.1228 -3.6525
 2861SOL    HW220217   4.648   2.986   6.197 -0.8951 -1.1449  0.2740
 2862SOL     OW20218   3.048   3.843   7.061 -0.2135 -0.3250  0.2430
 2862SOL    HW120219   3.081   3.805   7.143  2.1998  0.1564 -0.4968
 2862SOL    HW220220   2.958   3.858   7.090  0.3202  0.5239  1.5045
 2863SOL     OW20221   4.375   1.577  14.923  0.1610 -0.1451 -0.5964
 2863SOL    HW120222   4.335   1.640  14.864  0.2994 -0.3594 -0.9178
 2863SOL    HW220223   4.312   1.507  14.905 -0.2394 -0.2240  1.0480
 2864SOL     OW20224   0.453   3.361   9.269 -0.1265 -0.7959  0.9208
 2864SOL    HW120225   0.496   3.306   9.334 -1.6441 -1.0947  1.6679
 2864SOL    HW220226   0.436   3.294   9.203  0.3204  0.2820 -0.3090
 2865SOL     OW20227   0.360   2.092   6.571  0.0960  0.1522  0.1626
 2865SOL    HW120228   0.289   2.153   6.594 -0.4211  0.2975 -1.8709
 2865SOL    HW220229   0.367   2.050   6.657  0.9302  0.6353  0.3267
 2866SOL     OW20230   3.559   4.102   3.080  0.4008  0.5584  0.4268
 2866SOL    HW120231   3.495   4.046   3.124  2.0780  0.1332  2.3312
 2866SOL    HW220232   3.505   4.168   3.038 -0.9083 -0.4421  0.5156
 2867SOL     OW20233   4.001   1.087   6.218  0.3387 -0.0679  0.1408
 2867SOL    HW120234   4.065   1.148   6.181 -1.3678  1.8343  0.2968
 2867SOL    HW220235   4.054   1.023   6.266 -0.0147  0.0634  0.7149
 2868SOL     OW20236   1.917   4.381   5.000 -0.3355  0.5158 -0.5682
 2868SOL    HW120237   1.969   4.404   4.923  1.7273  1.6566  1.1612
 2868SOL    HW220238   1.981   4.403   5.068 -0.1013 -1.4761 -0.1222
 2869SOL     OW20239   1.099   3.657   8.531 -0.0188 -0.6332 -0.0254
 2869SOL    HW120240   1.024   3.603   8.554  1.2498 -2.2567  0.2534
 2869SOL    HW220241   1.081   3.747   8.560 -0.8322 -0.7396 -0.1967
 2870SOL     OW20242   2.679   3.276   4.441  0.3632  0.3491  0.3224
 2870SOL    HW120243   2.585   3.263   4.436  0.1966  1.1633  1.1972
 2870SOL    HW220244   2.708   3.186   4.429  1.2541  0.6264  0.4055
 2871SOL     OW20245   2.091   4.565   0.629 -0.5032 -0.0112 -0.0428
 2871SOL    HW120246   2.170   4.572   0.683  0.3209  2.7245 -1.5729
 2871SOL    HW220247   2.027   4.611   0.683 -0.2396 -0.4238  0.6120
 2872SOL     OW20248   0.775   3.768   8.471 -0.1600  0.1909 -0.2954
 2872SOL    HW120249   0.817   3.771   8.385  0.7980 -0.7005  0.1368
 2872SOL    HW220250   0.841   3.798   8.534  0.4921 -0.1135 -0.8233
 2873SOL     OW20251   2.490   2.478   7.478 -0.1910 -0.1077 -0.1182
 2873SOL    HW120252   2.545   2.511   7.550  0.0662 -1.0688  0.1305
 2873SOL    HW220253   2.407   2.519   7.501  1.3095  2.1151  1.3911
 2874SOL     OW20254   0.995   0.721   4.688 -0.3018 -0.1619 -0.2093
 2874SOL    HW120255   1.035   0.634   4.686  0.3574  0.0946  1.2390
 2874SOL    HW220256   0.918   0.697   4.637 -0.0343  1.9956 -1.6366
 2875SOL     OW20257   2.075   2.873   2.804 -0.4396  0.1894  0.0232
 2875SOL    HW120258   2.153   2.830   2.769 -0.8043 -0.9872  0.6432
 2875SOL    HW220259   2.093   2.965   2.784  2.7306 -0.3838  0.2502
 2876SOL     OW20260   1.773   2.167   3.840  0.5502 -0.5269 -0.1901
 2876SOL    HW120261   1.862   2.190   3.868  1.2980 -1.2065 -2.0003
 2876SOL    HW220262   1.794   2.106   3.770 -1.1317  1.2206 -2.2357
 2877SOL     OW20263   0.594   0.325   6.799  0.1568  0.5264 -0.6563
 2877SOL    HW120264   0.527   0.272   6.842  1.1988 -0.6173 -0.4335
 2877SOL    HW220265   0.623   0.272   6.726  3.6175  0.3063  0.8398
 2878SOL     OW20266   0.600   4.488   3.758  0.7218 -0.1278  0.4826
 2878SOL    HW120267   0.631   4.416   3.703 -1.0918  1.2690 -2.3711
 2878SOL    HW220268   0.661   4.558   3.735 -2.2848  2.0183 -0.9661
 2879SOL     OW20269   2.320   0.186   4.924  0.1114  0.2267  0.1443
 2879SOL    HW120270   2.243   0.131   4.945  0.9526 -0.5224  1.2855
 2879SOL    HW220271   2.361   0.121   4.866 -0.3197 -0.2121  0.3256
 2880SOL     OW20272   1.156   3.592   1.682  0.2519 -0.2865  0.0147
 2880SOL    HW120273   1.170   3.552   1.597 -1.8473 -1.9607  0.4798
 2880SOL    HW220274   1.082   3.644   1.652 -0.6190 -1.8507 -0.4847
 2881SOL     OW20275   3.942   3.118   3.904  0.1652 -0.0864 -0.0282
 2881SOL    HW120276   4.031   3.102   3.935 -0.1427 -1.2899  0.2603
 2881SOL    HW220277   3.916   3.191   3.960  2.0666  1.4161 -1.1195
 2882SOL     OW20278   0.779   3.095   5.941 -0.2319 -0.7896 -0.6319
 2882SOL    HW120279   0.854   3.137   5.983 -2.1913 -1.0952  3.1709
 2882SOL    HW220280   0.722   3.069   6.013  1.3810 -1.7311  0.2887
 2883SOL     OW20281   1.743   3.564   4.897 -0.5613  0.0696  0.6402
 2883SOL    HW120282   1.657   3.603   4.881 -0.7378 -0.8901 -0.7077
 2883SOL    HW220283   1.798   3.602   4.828 -1.1952 -0.3524 -0.0936
 2884SOL     OW20284   0.060   0.767   2.402  0.0734 -0.1277 -0.7108
 2884SOL    HW120285   0.101   0.687   2.435 -0.7292 -0.9555 -1.7547
 2884SOL    HW220286   0.043   0.735   2.314 -1.3072  2.0833 -1.2226
 2885SOL     OW20287   2.005   4.151   7.071 -0.3039  0.2076  0.0544
 2885SOL    HW120288   1.937   4.146   7.138  0.4420  1.7784  0.9303
 2885SOL    HW220289   1.990   4.242   7.044  0.2144 -0.4327 -2.3922
 2886SOL     OW20290   2.509   2.629   2.223  0.1479  0.5789  0.0705
 2886SOL    HW120291   2.565   2.692   2.269  0.3139 -0.7563  1.6560
 2886SOL    HW220292   2.575   2.561   2.211 -0.7008 -0.4339  1.2289
 2887SOL     OW20293   3.156   4.524   8.586  0.2736  0.3132  0.3159
 2887SOL    HW120294   3.199   4.518   8.671 -0.4523 -1.0959  0.5838
 2887SOL    HW220295   3.146   4.618   8.577  0.0583  0.2936  0.3525
 2888SOL     OW20296   0.431   2.374   7.605  0.0013  0.4313  0.1525
 2888SOL    HW120297   0.362   2.432   7.574 -0.5952 -0.3065  0.1159
 2888SOL    HW220298   0.413   2.369   7.699 -2.6698  2.5077 -0.2604
 2889SOL     OW20299   1.924   3.912   1.723  0.1637 -0.1505 -0.0696
 2889SOL    HW120300   1.983   3.938   1.652  0.3375 -0.2747  0.0292
 2889SOL    HW220301   1.918   3.819   1.702 -2.3070 -0.4710  2.0386
 2890SOL     OW20302   2.123   0.402  14.104  0.1072 -0.8121  0.1065
 2890SOL    HW120303   2.148   0.483  14.148  0.6973 -1.3145  0.7035
 2890SOL    HW220304   2.212   0.367  14.092  0.3904  0.4363 -1.5146
 2891SOL     OW20305   1.954   4.479   6.201 -0.1888 -0.1555 -0.1017
 2891SOL    HW120306   1.989   4.484   6.112  2.9879 -0.6917  1.1152
 2891SOL    HW220307   1.885   4.413   6.200  0.6336 -1.0000 -0.3546
 2892SOL     OW20308   3.038   1.229   5.330  0.0401 -0.5539 -0.1078
 2892SOL    HW120309   3.075   1.314   5.306  0.1142 -0.1624  1.4180
 2892SOL    HW220310   2.974   1.262   5.393 -0.2189  0.7343 -1.0468
 2893SOL     OW20311   1.499   4.627   3.365 -0.4026 -0.2406  0.0825
 2893SOL    HW120312   1.583   4.664   3.393 -1.4059  0.4568  2.2200
 2893SOL    HW220313   1.466   4.599   3.450  0.4323 -0.6551  0.2738
 2894SOL     OW20314   0.466   1.460   4.042 -0.1677 -0.0630  0.0282
 2894SOL    HW120315   0.509   1.529   3.991 -0.7603  2.6687  3.2350
 2894SOL    HW220316   0.469   1.493   4.132 -0.9527  1.4009 -0.4946
 2895SOL     OW20317   1.127   2.748   4.477  0.1912 -0.6368 -0.2564
 2895SOL    HW120318   1.134   2.834   4.518 -0.1991 -0.6205 -0.2176
 2895SOL    HW220319   1.199   2.740   4.415 -0.8092  0.6062 -1.5838
 2896SOL     OW20320   2.243   1.121  17.681  0.1332 -0.1022 -0.2284
 2896SOL    HW120321   2.315   1.124  17.618  0.9319 -0.7743  0.6541
 2896SOL    HW220322   2.174   1.112  17.614 -1.5377  1.2123  1.3444
 2897SOL     OW20323   3.643   3.802   4.797 -0.5172 -0.1526 -0.5623
 2897SOL    HW120324   3.694   3.728   4.765  0.4689  0.2183  0.1584
 2897SOL    HW220325   3.670   3.873   4.740  1.0351 -0.5136 -0.2775
 2898SOL     OW20326   0.649   0.687   3.435  0.1893  0.1925  0.2606
 2898SOL    HW120327   0.663   0.698   3.341  0.5129 -1.0434  0.1565
 2898SOL    HW220328   0.574   0.744   3.454 -2.4183 -3.9751  2.4767
 2899SOL     OW20329   3.341   2.168   4.182 -0.1600  0.1739 -0.3569
 2899SOL    HW120330   3.343   2.248   4.235 -1.2018 -0.0180 -0.0202
 2899SOL    HW220331   3.263   2.123   4.215 -1.0366  1.9246 -0.0333
 2900SOL     OW20332   1.238   4.462   4.700 -0.1772 -0.2430  0.3320
 2900SOL    HW120333   1.282   4.387   4.741 -1.0968 -1.4497 -0.8934
 2900SOL    HW220334   1.258   4.440   4.610  1.2857  0.2460  0.5404
 2901SOL     OW20335   0.456   0.038   4.911 -0.1490 -0.3821 -0.4691
 2901SOL    HW120336   0.487   0.080   4.830 -0.1060 -0.3907 -0.4569
 2901SOL    HW220337   0.374   0.087   4.918  0.7055  0.5899  2.4075
 2902SOL     OW20338   1.184   4.199   3.621  0.5809  0.1045 -0.0922
 2902SOL    HW120339   1.222   4.244   3.696  1.1744  0.2962 -0.5071
 2902SOL    HW220340   1.145   4.275   3.579  0.1092  0.6390  1.3259
 2903SOL     OW20341   2.904   4.426  10.208  0.0869  0.2632  0.0549
 2903SOL    HW120342   2.863   4.463  10.286  0.5180  1.5896 -0.3429
 2903SOL    HW220343   2.991   4.468  10.211  0.6364 -0.7105 -2.0626
 2904SOL     OW20344   1.200   2.647   9.330  0.1162  0.0351  0.4530
 2904SOL    HW120345   1.145   2.571   9.349  1.2959 -0.9764 -0.2154
 2904SOL    HW220346   1.138   2.720   9.317  1.0055  0.4869 -1.2059
 2905SOL     OW20347   1.891   0.106   2.971  0.1434  0.7541  0.7163
 2905SOL    HW120348   1.848   0.184   3.005 -0.8773  0.7322 -0.5386
 2905SOL    HW220349   1.974   0.109   3.019  0.3510 -0.1530  0.4219
 2906SOL     OW20350   0.729   2.408  17.166  0.7931  0.5409 -0.3494
 2906SOL    HW120351   0.811   2.452  17.144  1.2092  0.6821  1.4339
 2906SOL    HW220352   0.660   2.426  17.102  0.3001 -0.3461 -0.0720
 2907SOL     OW20353   1.026   0.377  13.640 -0.1043 -0.2134 -0.3575
 2907SOL    HW120354   1.050   0.360  13.549  0.5126 -1.7802  0.0989
 2907SOL    HW220355   1.088   0.316  13.679  1.2682  0.9491 -0.7439
 2908SOL     OW20356   3.834   2.320   4.782  0.1787  0.2930  0.2153
 2908SOL    HW120357   3.909   2.376   4.798 -0.6046  1.9839 -2.1228
 2908SOL    HW220358   3.771   2.360   4.843 -0.8106 -1.7571  0.5494
 2909SOL     OW20359   2.495   0.227  11.094 -0.3866 -0.0067 -0.3444
 2909SOL    HW120360   2.507   0.148  11.147 -0.9440  0.3829  0.3703
 2909SOL    HW220361   2.575   0.279  11.095  0.6006 -1.5596  0.6216
 2910SOL     OW20362   2.522   0.854   2.529 -0.2446 -0.2605  0.2341
 2910SOL    HW120363   2.558   0.900   2.604  0.7332 -0.2656 -0.2359
 2910SOL    HW220364   2.436   0.894   2.511 -0.0892  0.6775  1.5715
 2911SOL     OW20365   1.269   0.491   3.297 -0.2891 -0.1544 -0.3930
 2911SOL    HW120366   1.247   0.408   3.340 -0.3187 -0.3215 -0.7277
 2911SOL    HW220367   1.190   0.526   3.258  0.3006  0.3026 -1.1676
 2912SOL     OW20368   3.759   3.496  11.809 -0.0372 -0.1981 -0.5733
 2912SOL    HW120369   3.696   3.426  11.820  0.4197 -0.1397  2.4327
 2912SOL    HW220370   3.808   3.488  11.891 -0.7569  1.2223 -0.0017
 2913SOL     OW20371   2.548   1.181  11.231 -0.4189 -0.5569 -0.4061
 2913SOL    HW120372   2.625   1.177  11.287  2.1713  0.6627 -3.8509
 2913SOL    HW220373   2.541   1.092  11.197 -0.7915  0.1828 -2.3071
 2914SOL     OW20374   3.327   1.136   9.915  0.2845 -0.0557  0.3766
 2914SOL    HW120375   3.314   1.227   9.939  0.6246 -0.5374  2.3570
 2914SOL    HW220376   3.307   1.093   9.998  1.0882  2.3278  1.7857
 2915SOL     OW20377   0.971   2.780   0.846  0.6637  0.3760  0.0480
 2915SOL    HW120378   1.037   2.768   0.915  1.8556  0.3683 -1.0997
 2915SOL    HW220379   0.944   2.690   0.827  0.9749  0.4770 -0.8513
 2916SOL     OW20380   0.956   1.404   5.445 -0.5436  0.2758  0.1459
 2916SOL    HW120381   0.991   1.414   5.357  0.2548  0.6846  0.5100
 2916SOL    HW220382   1.016   1.467   5.484 -1.6118  0.6007  1.2833
 2917SOL     OW20383   3.583   3.730   4.220  0.3954  0.2251 -0.3301
 2917SOL    HW120384   3.540   3.814   4.204 -1.3411 -0.4240  0.8860
 2917SOL    HW220385   3.671   3.757   4.247  0.3507 -0.1981  0.2434
 2918SOL     OW20386   3.357   0.694   4.897 -0.4251 -0.0468 -0.8698
 2918SOL    HW120387   3.432   0.729   4.944 -0.6945 -1.4879  0.6267
 2918SOL    HW220388   3.370   0.600   4.907  1.4164  0.3424  0.2851
 2919SOL     OW20389   2.911   2.263   4.251 -0.5550 -0.0830 -0.4695
 2919SOL    HW120390   2.887   2.185   4.202 -0.2088 -0.4634 -0.0310
 2919SOL    HW220391   2.968   2.307   4.189  0.7881 -1.9034 -0.5194
 2920SOL     OW20392   0.448   2.611   5.193 -0.0803 -0.5179 -0.0652
 2920SOL    HW120393   0.521   2.669   5.215  0.7247 -1.3762 -0.4511
 2920SOL    HW220394   0.485   2.592   5.106  0.1811 -2.3681  0.4444
 2921SOL     OW20395   2.551   0.678  16.820  0.0239  0.4605  0.4537
 2921SOL    HW120396   2.479   0.685  16.883 -0.3694  0.2168  0.0384
 2921SOL    HW220397   2.610   0.634  16.881 -1.3467 -0.8313  0.8783
 2922SOL     OW20398   2.320   0.658   9.742 -0.0775  0.1105  0.1510
 2922SOL    HW120399   2.265   0.591   9.784  1.0296 -0.4321  0.7145
 2922SOL    HW220400   2.319   0.728   9.806  1.4917  2.1217 -2.0372
 2923SOL     OW20401   0.255   1.060   7.367  0.0283 -0.0604  0.1117
 2923SOL    HW120402   0.228   0.969   7.369  0.5434 -0.2314 -0.4937
 2923SOL    HW220403   0.179   1.117   7.356 -0.8671 -0.9056  2.0709
 2924SOL     OW20404   3.723   3.202  17.622  0.6831  0.0446 -0.4773
 2924SOL    HW120405   3.677   3.221  17.540 -0.2279 -0.8094 -0.1655
 2924SOL    HW220406   3.689   3.270  17.679  0.5136 -0.0470 -0.4709
 2925SOL     OW20407   1.466   0.661   5.088  0.2005  0.2900  0.0429
 2925SOL    HW120408   1.517   0.734   5.122  0.7645 -0.7700  1.4824
 2925SOL    HW220409   1.537   0.597   5.097  0.2957  0.6494  1.8842
 2926SOL     OW20410   2.187   2.075   9.293  0.6260  0.1912  0.6121
 2926SOL    HW120411   2.227   2.158   9.318  2.8255 -0.7210  0.1011
 2926SOL    HW220412   2.219   2.058   9.204 -0.1948  2.2930 -0.1037
 2927SOL     OW20413   4.454   0.809   8.699  0.5167 -0.1433  0.1765
 2927SOL    HW120414   4.497   0.732   8.661 -0.3289 -1.5954  2.0885
 2927SOL    HW220415   4.422   0.784   8.786 -2.1646 -2.3905 -1.4496
 2928SOL     OW20416   1.539   2.826   3.793  0.1565  0.3873 -0.0226
 2928SOL    HW120417   1.453   2.869   3.799 -0.4294 -0.6523 -1.0584
 2928SOL    HW220418   1.598   2.901   3.783 -0.6807  1.1030  0.3519
 2929SOL     OW20419   4.613   3.188  15.518  0.3739  0.2240 -0.2933
 2929SOL    HW120420   4.523   3.158  15.505  0.4955 -0.6517  0.8865
 2929SOL    HW220421   4.654   3.184  15.432 -0.1517 -0.0719 -0.5302
 2930SOL     OW20422   4.673   1.270   7.710  0.4093  0.2784  0.1267
 2930SOL    HW120423   4.696   1.309   7.625  0.6960 -0.1753 -0.0072
 2930SOL    HW220424   4.684   1.178   7.684  0.5176  0.2975  0.1024
 2931SOL     OW20425   4.514   0.620   8.076  0.0886 -0.0126 -0.0633
 2931SOL    HW120426   4.431   0.596   8.034  0.4654  0.5978 -1.1527
 2931SOL    HW220427   4.572   0.594   8.004  1.7333  0.6890  1.0137
 2932SOL     OW20428   2.187   2.280   9.665 -0.2710  0.3104 -0.2651
 2932SOL    HW120429   2.151   2.246   9.747  1.1281 -2.7243 -0.9263
 2932SOL    HW220430   2.275   2.309   9.691 -0.5667  1.4912 -0.5504
 2933SOL     OW20431   2.512   4.356  12.423 -0.5227 -0.3368  0.8305
 2933SOL    HW120432   2.486   4.429  12.479 -1.1595  1.0594 -1.2886
 2933SOL    HW220433   2.541   4.305  12.499  1.4182  0.0656  0.3619
 2934SOL     OW20434   4.236   1.931   3.566  0.1688 -0.0900  0.2121
 2934SOL    HW120435   4.315   1.920   3.619  0.9649  2.2863 -0.4501
 2934SOL    HW220436   4.158   1.928   3.622  0.0533 -1.0116 -0.0059
 2935SOL     OW20437   3.041   1.249   2.746  0.2159  0.1485  0.2194
 2935SOL    HW120438   3.066   1.340   2.763  2.3000 -0.3337 -0.2252
 2935SOL    HW220439   3.054   1.206   2.831 -1.0874 -0.5293  0.0684
 2936SOL     OW20440   0.402   3.892   7.769  0.0327  0.3828 -0.1311
 2936SOL    HW120441   0.467   3.851   7.712  1.1957  0.0628  1.4096
 2936SOL    HW220442   0.385   3.831   7.841  1.8983  1.3071  1.0918
 2937SOL     OW20443   4.505   0.560   2.747  0.5024 -0.4541  0.0170
 2937SOL    HW120444   4.563   0.634   2.731  2.7792 -2.0866  0.6734
 2937SOL    HW220445   4.579   0.507   2.779  0.4746 -0.5112 -0.0133
 2938SOL     OW20446   4.581   2.432   9.963  0.4673  0.3073  0.0062
 2938SOL    HW120447   4.570   2.376   9.887 -2.0813  0.5581  0.2010
 2938SOL    HW220448   4.550   2.369  10.027  3.2452 -3.1490 -2.0525
 2939SOL     OW20449   4.105   1.496   4.929 -0.2163 -0.3637 -0.1937
 2939SOL    HW120450   4.130   1.477   5.019  1.2583  0.3188 -0.4687
 2939SOL    HW220451   4.062   1.415   4.899  1.5133 -1.2014 -0.4112
 2940SOL     OW20452   2.535   1.691   4.538 -0.7353  0.4355  0.1150
 2940SOL    HW120453   2.521   1.615   4.481 -1.0425  0.6254 -0.0694
 2940SOL    HW220454   2.449   1.701   4.579 -0.3968 -1.4845  1.2595
 2941SOL     OW20455   0.279   0.930  11.972 -0.2157  0.0026 -0.3782
 2941SOL    HW120456   0.243   0.846  12.000 -0.0978  0.0670 -0.0355
 2941SOL    HW220457   0.220   0.994  12.011  1.5141  0.8406  0.8551
 2942SOL     OW20458   3.284   2.345  11.879 -0.2915  0.4725 -0.9037
 2942SOL    HW120459   3.343   2.419  11.893  0.6386 -0.8084  2.0046
 2942SOL    HW220460   3.199   2.385  11.901 -0.2643  0.8307 -1.4472
 2943SOL     OW20461   0.559   0.318   4.415  0.5929  0.3334  0.6567
 2943SOL    HW120462   0.550   0.336   4.509 -1.8081 -0.1957  0.5317
 2943SOL    HW220463   0.635   0.260   4.406 -1.0159 -1.9087  1.3715
 2944SOL     OW20464   0.478   0.537   2.120 -0.2530 -0.3295 -0.4555
 2944SOL    HW120465   0.388   0.566   2.135 -0.3126 -1.0672  0.6788
 2944SOL    HW220466   0.458   0.444   2.104 -0.9855 -0.0043 -1.3826
 2945SOL     OW20467   4.314   4.358   7.447 -0.2206  0.0832  0.2153
 2945SOL    HW120468   4.275   4.273   7.429  1.2773 -1.0998  2.6485
 2945SOL    HW220469   4.272   4.395   7.369  0.4896 -0.2150 -0.3035
 2946SOL     OW20470   2.712   0.089   3.452 -0.3180  0.3628 -0.8602
 2946SOL    HW120471   2.751   0.031   3.517  0.1038 -0.0160 -1.4429
 2946SOL    HW220472   2.698   0.172   3.497  0.0069 -0.6282  1.0822
 2947SOL     OW20473   3.384   2.579  15.836 -0.1131  0.3711 -0.5663
 2947SOL    HW120474   3.311   2.573  15.897 -0.6435  2.8429 -0.9389
 2947SOL    HW220475   3.395   2.674  15.844 -0.9099  0.4926 -0.8600
 2948SOL     OW20476   4.471   4.457  13.421  0.0143 -0.2014  0.3552
 2948SOL    HW120477   4.479   4.493  13.509 -1.8088  1.6285 -0.2365
 2948SOL    HW220478   4.562   4.431  13.409 -0.4929 -1.7033 -0.3062
 2949SOL     OW20479   3.144   1.723  14.034  0.1922  0.2332  0.0264
 2949SOL    HW120480   3.049   1.732  14.029 -0.0499 -0.8281  2.7361
 2949SOL    HW220481   3.169   1.757  13.948 -3.4779  1.3090 -0.5934
 2950SOL     OW20482   1.211   1.571   7.465  0.1509  0.0636  0.3785
 2950SOL    HW120483   1.218   1.652   7.415 -1.9505 -0.9802 -1.6408
 2950SOL    HW220484   1.304   1.549   7.462 -0.2519 -1.9681  3.2055
 2951SOL     OW20485   3.475   2.651  13.652 -0.1151  0.5282  0.7646
 2951SOL    HW120486   3.472   2.706  13.731 -0.1290  1.9274 -0.2062
 2951SOL    HW220487   3.549   2.596  13.676 -0.8564  0.1915  2.2439
 2952SOL     OW20488   4.588   3.506  13.445 -0.4927 -0.3568 -0.7420
 2952SOL    HW120489   4.606   3.475  13.534  0.9758  1.1522 -0.5306
 2952SOL    HW220490   4.578   3.600  13.454  0.0263 -0.5877  2.4868
 2953SOL     OW20491   1.345   4.594   6.350 -0.2704 -0.2718  0.0624
 2953SOL    HW120492   1.344   4.669   6.409 -0.4845 -0.3965  0.2165
 2953SOL    HW220493   1.431   4.559   6.372 -0.2000 -0.1672 -0.0474
 2954SOL     OW20494   2.107   3.489   9.361 -0.0081  0.1234 -0.6073
 2954SOL    HW120495   2.141   3.411   9.405 -1.0243  0.6824  1.1797
 2954SOL    HW220496   2.019   3.496   9.399  0.0530  1.1229 -0.6730
 2955SOL     OW20497   2.311   1.187  12.721  0.6051 -0.0091 -0.1810
 2955SOL    HW120498   2.314   1.132  12.800 -1.7074  2.5596  1.6776
 2955SOL    HW220499   2.218   1.206  12.705  0.4193 -2.3633 -2.0132
 2956SOL     OW20500   0.415   2.717   9.962 -0.0428 -0.4591 -0.1533
 2956SOL    HW120501   0.356   2.779   9.919  2.1664  0.4596 -1.8180
 2956SOL    HW220502   0.352   2.662  10.010 -1.9864  2.2104  0.3629
 2957SOL     OW20503   1.577   3.237   5.858  0.3435  0.3552  0.7413
 2957SOL    HW120504   1.563   3.188   5.776  0.6178  3.0026 -0.8972
 2957SOL    HW220505   1.523   3.314   5.840  0.6590 -0.2512 -2.9477
 2958SOL     OW20506   2.981   0.874   9.397 -0.0827  0.0939  0.1179
 2958SOL    HW120507   3.007   0.796   9.347  0.9135  1.3411 -1.3007
 2958SOL    HW220508   2.969   0.836   9.484 -2.4337 -1.7308 -1.0091
 2959SOL     OW20509   2.144   1.373   6.486 -0.2564  0.4043 -0.2391
 2959SOL    HW120510   2.065   1.324   6.507 -0.5807  0.5127 -1.2154
 2959SOL    HW220511   2.213   1.308   6.495 -2.0402 -1.0392  2.9486
 2960SOL     OW20512   1.252   4.316   2.523 -0.1163  0.0775 -0.6698
 2960SOL    HW120513   1.178   4.307   2.584 -1.3899 -0.3042 -2.2600
 2960SOL    HW220514   1.254   4.227   2.487 -0.5555  0.7270 -2.2826
 2961SOL     OW20515   1.882   2.567   5.760  0.1411 -0.2404 -0.4815
 2961SOL    HW120516   1.866   2.578   5.666 -0.2957 -1.3467 -0.5365
 2961SOL    HW220517   1.977   2.565   5.767  0.0034  2.6557  1.8388
 2962SOL     OW20518   0.455   2.959   3.659 -0.3090  0.3677  0.2272
 2962SOL    HW120519   0.380   2.909   3.692 -0.8692 -0.1555 -1.8442
 2962SOL    HW220520   0.479   3.006   3.739 -0.8395  2.6071 -0.9495
 2963SOL     OW20521   2.897   4.229   4.946 -0.3453 -0.1100  0.6991
 2963SOL    HW120522   2.886   4.275   5.030  0.6306 -0.8291  1.2247
 2963SOL    HW220523   2.989   4.202   4.940 -0.1135  0.4615  1.5835
 2964SOL     OW20524   0.874   1.245   6.650 -0.6303 -0.1553  0.0717
 2964SOL    HW120525   0.905   1.177   6.590  3.4202 -0.0722  2.0480
 2964SOL    HW220526   0.959   1.280   6.677 -0.6561  0.4898 -0.6609
 2965SOL     OW20527   1.701   3.367  10.914  0.1172  0.3128  0.0007
 2965SOL    HW120528   1.735   3.278  10.926 -0.6593 -0.5305 -3.9283
 2965SOL    HW220529   1.781   3.420  10.923 -0.0971  0.4073  1.2765
 2966SOL     OW20530   2.156   2.966   0.563 -0.4955 -0.1290 -0.4179
 2966SOL    HW120531   2.149   3.045   0.510  0.0643  0.5433  0.5240
 2966SOL    HW220532   2.084   2.908   0.538  0.1806 -1.5753  0.9364
 2967SOL     OW20533   2.231   2.926  10.657  0.1655  0.0375 -0.1960
 2967SOL    HW120534   2.227   2.831  10.640 -0.2096 -0.2309  1.4039
 2967SOL    HW220535   2.239   2.918  10.752  0.0509  0.5841 -0.1429
 2968SOL     OW20536   3.212   2.964   4.043  0.2316 -0.1032 -0.1406
 2968SOL    HW120537   3.230   2.994   4.132  0.4426 -0.6099 -0.0077
 2968SOL    HW220538   3.298   2.927   4.025  1.5470  1.4475  2.9906
 2969SOL     OW20539   4.053   2.061   7.016  0.3603 -0.1936 -0.3443
 2969SOL    HW120540   4.138   2.068   6.973  1.0599  0.4473  1.1462
 2969SOL    HW220541   4.003   2.000   6.962  0.1782  1.3888 -2.0065
 2970SOL     OW20542   0.767   2.653   2.567 -0.4637 -0.2819 -0.9359
 2970SOL    HW120543   0.682   2.691   2.588 -0.5122 -1.0461  0.2103
 2970SOL    HW220544   0.828   2.713   2.610 -3.0172  1.1508  0.6526
 2971SOL     OW20545   4.543   2.091   5.364 -0.0743  0.1918 -0.0595
 2971SOL    HW120546   4.504   2.087   5.276  0.0010 -2.6558  0.0507
 2971SOL    HW220547   4.627   2.122   5.331 -0.9114  0.7638 -1.6682
 2972SOL     OW20548   3.596   4.238   7.065  0.3352  0.0535 -0.4436
 2972SOL    HW120549   3.620   4.211   7.154  0.3311  0.9572 -0.1640
 2972SOL    HW220550   3.630   4.170   7.007  0.8007 -1.2598  1.3475
 2973SOL     OW20551   0.140   2.836   7.440 -0.0678  0.6140  0.2847
 2973SOL    HW120552   0.087   2.798   7.370  0.3118  1.2598 -0.3532
 2973SOL    HW220553   0.136   2.931   7.432 -1.9113  0.4914 -0.2878
 2974SOL     OW20554   3.539   0.033   5.878  0.0536 -0.3108 -0.2397
 2974SOL    HW120555   3.607   0.058   5.815 -0.6300 -1.1799 -1.3244
 2974SOL    HW220556   3.562   0.092   5.950 -0.2001 -0.0552 -0.3659
 2975SOL     OW20557   3.103   1.220   4.670  0.3448 -0.5896  0.0258
 2975SOL    HW120558   3.023   1.174   4.698  2.0442 -0.8404  4.4553
 2975SOL    HW220559   3.157   1.141   4.678  1.6354  0.4045  1.0355
 2976SOL     OW20560   1.258   0.902   2.231  0.1067 -0.2946 -0.0861
 2976SOL    HW120561   1.271   0.928   2.140  0.8217  1.0259  0.3930
 2976SOL    HW220562   1.167   0.927   2.245 -0.1803 -1.0857 -0.5620
 2977SOL     OW20563   1.288   1.693   5.753 -0.0575 -0.1414  0.2106
 2977SOL    HW120564   1.243   1.710   5.836  1.2171 -1.8952  1.2418
 2977SOL    HW220565   1.254   1.768   5.704  0.4745 -1.7359 -2.6074
 2978SOL     OW20566   4.505   2.845  12.580 -0.2940  0.0024 -0.0447
 2978SOL    HW120567   4.480   2.811  12.494 -0.3748  0.7184 -0.3016
 2978SOL    HW220568   4.499   2.940  12.569  0.2724  0.0084 -0.3400
 2979SOL     OW20569   1.368   3.850   2.230 -0.1174  0.1912 -0.9683
 2979SOL    HW120570   1.283   3.827   2.191  0.0479  0.3550 -1.4179
 2979SOL    HW220571   1.381   3.774   2.287 -2.4320  0.7741  0.3556
 2980SOL     OW20572   2.092   3.587   2.981  0.2777 -0.6671  0.1815
 2980SOL    HW120573   2.052   3.500   2.983  0.9807 -0.9514  1.7101
 2980SOL    HW220574   2.106   3.601   2.887  0.8880  1.4435  0.5767
 2981SOL     OW20575   3.476   1.423   5.214  0.5147  0.0535 -0.1884
 2981SOL    HW120576   3.482   1.328   5.222  1.0531  0.0958 -0.0905
 2981SOL    HW220577   3.382   1.434   5.200  0.1366 -0.7173  1.7179
 2982SOL     OW20578   1.730   0.248   9.279  0.2354  0.3946 -0.1441
 2982SOL    HW120579   1.680   0.245   9.360 -1.4164  0.2038 -1.1746
 2982SOL    HW220580   1.821   0.249   9.309 -0.2603  1.6795  1.2616
 2983SOL     OW20581   2.582   3.229   1.099 -0.5933  0.2453  0.5594
 2983SOL    HW120582   2.586   3.292   1.028 -0.3713 -2.1665 -1.5489
 2983SOL    HW220583   2.523   3.280   1.155 -1.7404  0.5314 -0.9198
 2984SOL     OW20584   0.470   0.904   3.490 -0.4402  0.1811  0.6684
 2984SOL    HW120585   0.396   0.956   3.523  0.2156  0.7831  1.1675
 2984SOL    HW220586   0.545   0.940   3.536 -0.4030  1.4149 -0.3632
 2985SOL     OW20587   1.213   2.385  15.560  0.2762 -0.8273  0.6219
 2985SOL    HW120588   1.296   2.349  15.528  1.0068  1.3298  0.0831
 2985SOL    HW220589   1.208   2.479  15.539 -0.2798 -1.2948 -1.3019
 2986SOL     OW20590   1.592   3.606   8.296 -0.2408 -0.0688  0.0312
 2986SOL    HW120591   1.588   3.664   8.372 -0.0263 -1.5430  1.1533
 2986SOL    HW220592   1.551   3.527   8.329 -1.5186  0.3021 -0.6543
 2987SOL     OW20593   0.162   4.336   5.982 -0.1484  0.3700 -0.0301
 2987SOL    HW120594   0.133   4.309   5.895 -1.1836  2.8241 -0.4389
 2987SOL    HW220595   0.162   4.250   6.025  0.0451  0.1199 -0.5339
 2988SOL     OW20596   3.894   1.053   4.778  0.3825 -0.6480  0.3342
 2988SOL    HW120597   3.893   1.023   4.687  1.0266  3.9860 -1.1659
 2988SOL    HW220598   3.937   0.978   4.821 -1.4173 -1.7640  0.1924
 2989SOL     OW20599   4.588   4.606   7.068  0.3709 -0.7260 -0.1129
 2989SOL    HW120600   4.607   4.521   7.106  0.1637 -1.7130 -2.2123
 2989SOL    HW220601   4.674   4.631   7.033  0.0152  1.7877  0.8077
 2990SOL     OW20602   4.174   3.810   2.297 -0.0901 -0.1378  0.1282
 2990SOL    HW120603   4.174   3.844   2.208 -0.6869 -0.6079 -0.0530
 2990SOL    HW220604   4.132   3.880   2.348  1.4774  2.3998 -2.0882
 2991SOL     OW20605   1.371   0.207  13.272  0.7320 -0.2834  0.3368
 2991SOL    HW120606   1.343   0.123  13.307  0.0115  0.3995  1.4064
 2991SOL    HW220607   1.292   0.226  13.221  0.3250 -2.4376  0.1832
 2992SOL     OW20608   3.787   0.582   6.777  0.1354  0.4109 -0.6047
 2992SOL    HW120609   3.854   0.600   6.711 -0.2177  3.2613 -0.1541
 2992SOL    HW220610   3.780   0.487   6.766  1.7508  0.2126  0.0444
 2993SOL     OW20611   3.572   3.376  13.620  0.2965 -0.4996 -0.2184
 2993SOL    HW120612   3.560   3.298  13.675  0.8656 -1.5726 -1.6125
 2993SOL    HW220613   3.583   3.338  13.532 -0.1137 -2.1950  0.4452
 2994SOL     OW20614   2.158   3.141   1.214  0.8373  0.3384 -0.1279
 2994SOL    HW120615   2.102   3.072   1.178 -0.2205  1.3062 -0.3733
 2994SOL    HW220616   2.241   3.096   1.207  0.3550 -0.1690 -2.6236
 2995SOL     OW20617   0.711   4.403   6.944 -0.0691 -0.2759 -0.2107
 2995SOL    HW120618   0.796   4.385   6.903 -0.0910 -1.7084  0.3568
 2995SOL    HW220619   0.645   4.361   6.888  0.2989 -1.3994  0.1925
 2996SOL     OW20620   3.681   1.011   4.945  0.6882  0.1692 -0.0287
 2996SOL    HW120621   3.744   1.028   4.875  0.7075  2.2896  0.5226
 2996SOL    HW220622   3.738   1.035   5.018 -2.4131  2.3555  1.6808
 2997SOL     OW20623   3.652   3.487   4.542  0.6483  0.0853 -0.1584
 2997SOL    HW120624   3.613   3.421   4.599 -0.9190  1.0301 -0.1234
 2997SOL    HW220625   3.708   3.537   4.600  0.1275  2.0132 -1.3060
 2998SOL     OW20626   2.764   0.631  11.423  0.0814 -0.3346  0.4560
 2998SOL    HW120627   2.820   0.699  11.460  0.4178 -0.0433 -0.6063
 2998SOL    HW220628   2.680   0.657  11.459  0.3187  2.0763 -0.7310
 2999SOL     OW20629   2.437   0.508   5.315  0.2374 -0.2635  0.2486
 2999SOL    HW120630   2.486   0.537   5.238 -1.0894  2.2909  0.3830
 2999SOL    HW220631   2.510   0.465   5.359  0.8337 -1.1147 -1.5881
 3000SOL     OW20632   2.542   3.630   5.441  1.0531  0.2187 -0.6150
 3000SOL    HW120633   2.460   3.584   5.459  0.6991  0.6851 -1.0512
 3000SOL    HW220634   2.601   3.557   5.420 -0.5284 -1.4147  0.5928
 3001SOL     OW20635   2.467   3.307  16.709 -0.0957  0.0802 -0.4312
 3001SOL    HW120636   2.521   3.298  16.630  0.1503  0.5068 -0.3108
 3001SOL    HW220637   2.410   3.369  16.664 -0.0054  0.0670 -0.5650
 3002SOL     OW20638   4.491   2.635   4.104  0.4666 -0.4218 -0.0545
 3002SOL    HW120639   4.491   2.571   4.032  0.6123 -0.7421  0.2303
 3002SOL    HW220640   4.409   2.618   4.150  0.0424  4.3923  0.9339
 3003SOL     OW20641   0.893   2.413   7.354 -0.8640  0.9359  0.1719
 3003SOL    HW120642   0.819   2.427   7.295 -0.4550  2.2905 -0.0208
 3003SOL    HW220643   0.899   2.318   7.363  0.1970  1.0857  1.0705
 3004SOL     OW20644   1.373   1.654  13.556  0.1364  0.1728  0.2504
 3004SOL    HW120645   1.354   1.709  13.479  0.0868 -0.7905 -0.4187
 3004SOL    HW220646   1.340   1.718  13.619 -1.2880 -0.1355 -0.1719
 3005SOL     OW20647   2.479   4.653   6.240  0.0205  0.0401  0.1697
 3005SOL    HW120648   2.569   4.622   6.241 -0.6340 -1.8705  1.1515
 3005SOL    HW220649   2.461   4.637   6.333 -0.8268  2.5143  0.4416
 3006SOL     OW20650   2.773   3.714   9.206  0.0973  0.1338 -0.2893
 3006SOL    HW120651   2.774   3.680   9.116 -0.1809  2.9802 -1.3640
 3006SOL    HW220652   2.802   3.630   9.241  0.1695 -0.0281 -0.7270
 3007SOL     OW20653   1.427   3.803   1.960 -0.0553  0.4399 -0.2074
 3007SOL    HW120654   1.424   3.819   2.054  0.0124  1.4786 -0.3886
 3007SOL    HW220655   1.473   3.879   1.925 -1.3739  1.8434  1.1368
 3008SOL     OW20656   3.783   2.850   5.197  0.1073 -0.6340  0.1097
 3008SOL    HW120657   3.846   2.820   5.132 -0.9548  1.2142 -1.7789
 3008SOL    HW220658   3.733   2.771   5.215  0.1343 -0.7749 -0.4480
 3009SOL     OW20659   1.919   4.573   4.196  0.0947  0.0847  0.7782
 3009SOL    HW120660   1.853   4.642   4.203 -1.1941 -1.0793  0.1320
 3009SOL    HW220661   1.944   4.573   4.288  0.3278  2.0160  0.7272
 3010SOL     OW20662   4.093   0.269  12.061  0.1466 -0.1572 -0.3771
 3010SOL    HW120663   4.045   0.215  12.123 -0.9697 -1.0167 -1.9767
 3010SOL    HW220664   4.158   0.306  12.120  1.1061 -0.7254 -1.0677
 3011SOL     OW20665   2.670   2.739   4.905 -0.2005  0.0376 -0.3258
 3011SOL    HW120666   2.740   2.690   4.947 -0.9453 -0.4476  0.3456
 3011SOL    HW220667   2.699   2.731   4.814  3.2652 -0.2638  0.8046
 3012SOL     OW20668   3.342   0.604   6.075  0.5519 -0.1264  0.3469
 3012SOL    HW120669   3.293   0.642   6.148 -1.3458 -1.5068 -0.2105
 3012SOL    HW220670   3.309   0.659   6.003  0.0341  1.5428  1.8431
 3013SOL     OW20671   1.996   1.804   2.242  0.0893  0.5893  0.2661
 3013SOL    HW120672   1.911   1.769   2.270  0.5023 -0.0612  0.7062
 3013SOL    HW220673   1.972   1.891   2.211  1.2123 -0.4209 -3.4034
 3014SOL     OW20674   0.977   1.156   5.075 -0.6343  0.2544  0.1807
 3014SOL    HW120675   1.046   1.122   5.017 -0.7405 -1.1142  0.8632
 3014SOL    HW220676   0.896   1.139   5.027 -0.2266  0.0467 -0.4354
 3015SOL     OW20677   2.926   0.187   0.112 -0.0433 -0.0239 -0.4551
 3015SOL    HW120678   2.952   0.095   0.104  2.4464  0.7893 -1.8121
 3015SOL    HW220679   3.007   0.235   0.100 -0.3384  0.6120  0.1102
 3016SOL     OW20680   3.681   4.179   7.783  0.0117 -0.2665 -0.6387
 3016SOL    HW120681   3.690   4.273   7.798 -1.9492 -0.3264  0.9257
 3016SOL    HW220682   3.712   4.166   7.873  1.7232 -0.7514 -1.2960
 3017SOL     OW20683   1.667   4.397  12.232 -0.2701  0.3682  0.0128
 3017SOL    HW120684   1.602   4.371  12.297 -0.8069  2.3891  0.2826
 3017SOL    HW220685   1.745   4.374  12.281 -0.6364 -0.8028  0.0412
 3018SOL     OW20686   2.460   4.510   7.806 -0.0398 -0.0413  0.0655
 3018SOL    HW120687   2.463   4.415   7.808 -1.6581 -0.0550  1.6865
 3018SOL    HW220688   2.395   4.536   7.872 -1.8314  1.1519 -2.1760
 3019SOL     OW20689   3.367   1.360  11.698  0.2996 -0.7493 -0.3180
 3019SOL    HW120690   3.399   1.441  11.657  0.7179 -1.0716 -0.6212
 3019SOL    HW220691   3.407   1.296  11.641 -1.7365 -3.3610  1.1954
 3020SOL     OW20692   2.207   2.000  15.075  0.5476  0.0155  0.2317
 3020SOL    HW120693   2.149   1.995  14.999  0.3043 -0.7153  0.4687
 3020SOL    HW220694   2.149   2.052  15.132 -2.1190  0.9457 -3.3117
 3021SOL     OW20695   3.787   3.883   5.237  0.2985 -0.0189  0.7312
 3021SOL    HW120696   3.773   3.810   5.298  0.2169 -0.3728  0.2881
 3021SOL    HW220697   3.709   3.936   5.249  1.0671  1.1878  0.3504
 3022SOL     OW20698   2.428   1.189   3.023  0.1294  0.2890  0.0932
 3022SOL    HW120699   2.362   1.127   2.993  1.4031 -0.3952 -1.2732
 3022SOL    HW220700   2.375   1.263   3.052  0.3188  0.3014  0.4075
 3023SOL     OW20701   2.264   4.628   0.279  0.3647 -0.2940 -0.1174
 3023SOL    HW120702   2.282   4.687   0.352 -0.4897 -0.6018  0.3405
 3023SOL    HW220703   2.350   4.591   0.258 -0.2520 -0.7457 -1.8701
 3024SOL     OW20704   0.613   0.597  12.474 -0.4232  0.2408  0.2960
 3024SOL    HW120705   0.552   0.597  12.548 -1.3671  0.4858 -0.4719
 3024SOL    HW220706   0.627   0.691  12.476 -0.3235  0.2536 -0.9507
 3025SOL     OW20707   1.693   0.377   2.090 -0.4722  0.3368  0.1634
 3025SOL    HW120708   1.653   0.320   2.024 -1.0677 -0.1578  0.9640
 3025SOL    HW220709   1.619   0.410   2.140 -0.1630  0.0570  0.8125
 3026SOL     OW20710   3.441   0.443   4.922  0.0511  0.0612  0.5324
 3026SOL    HW120711   3.453   0.389   5.001  1.3638 -1.4999 -0.7270
 3026SOL    HW220712   3.528   0.483   4.925 -0.0011  0.3260 -1.7447
 3027SOL     OW20713   0.778   2.400   2.665 -0.3663 -0.4285 -0.4154
 3027SOL    HW120714   0.779   2.485   2.620  0.0650 -0.5694 -0.6739
 3027SOL    HW220715   0.844   2.365   2.605  1.6268 -0.1027  1.5911
 3028SOL     OW20716   3.048   0.055   3.790 -0.4520  0.1603  0.6202
 3028SOL    HW120717   2.957   0.076   3.810 -0.9863 -0.7722 -0.8719
 3028SOL    HW220718   3.060   0.058   3.695  0.4618 -0.5431  0.7151
 3029SOL     OW20719   0.709   2.631   4.560  0.1001 -0.2116  0.0304
 3029SOL    HW120720   0.633   2.579   4.533  0.1991  0.1547 -0.9556
 3029SOL    HW220721   0.774   2.561   4.566 -0.3610 -0.8256 -1.9674
 3030SOL     OW20722   3.080   0.365   3.651  0.2272  0.4280  0.4366
 3030SOL    HW120723   3.084   0.284   3.601  0.4008  1.6377 -1.4963
 3030SOL    HW220724   3.159   0.358   3.704  0.8304  0.5731 -0.4561
 3031SOL     OW20725   4.378   0.706   9.570  0.5107 -0.0694  0.0085
 3031SOL    HW120726   4.387   0.611   9.571 -0.1317 -0.1318 -0.1595
 3031SOL    HW220727   4.288   0.718   9.539  0.3541 -0.3101  0.3772
 3032SOL     OW20728   3.492   2.603  13.991 -0.4213 -0.4082  0.1858
 3032SOL    HW120729   3.468   2.511  14.001  1.4020 -0.8343  0.7839
 3032SOL    HW220730   3.583   2.600  14.023 -0.3075 -1.0511 -0.2117
 3033SOL     OW20731   1.026   2.270   3.243 -0.9344  0.6150  0.1697
 3033SOL    HW120732   1.061   2.239   3.159 -2.3945 -1.2659  0.2550
 3033SOL    HW220733   1.102   2.250   3.299 -1.0544  0.5464  0.3076
 3034SOL     OW20734   2.620   4.253  12.696  0.1321 -0.3536  0.4502
 3034SOL    HW120735   2.646   4.199  12.771 -0.2881  0.9924  1.5484
 3034SOL    HW220736   2.677   4.226  12.624 -0.1324 -0.0439  0.1250
 3035SOL     OW20737   4.030   0.013   6.790  0.2243 -0.4764  0.1070
 3035SOL    HW120738   4.026   0.072   6.866 -0.4536 -0.8395  0.3629
 3035SOL    HW220739   3.990   4.667   6.819 -0.8869 -0.2104 -0.6583
 3036SOL     OW20740   2.166   3.229   4.496 -0.3692 -0.2451  0.1098
 3036SOL    HW120741   2.159   3.171   4.571 -0.4506  0.0763  0.3538
 3036SOL    HW220742   2.090   3.208   4.441  0.8059 -1.1492 -1.1721
 3037SOL     OW20743   2.990   2.698   5.760 -0.1014  0.2894 -0.2938
 3037SOL    HW120744   2.969   2.791   5.769 -0.8752 -0.1543  2.3038
 3037SOL    HW220745   2.923   2.666   5.820  1.1567 -0.1602  0.8645
 3038SOL     OW20746   0.107   0.907   6.679 -0.0185  0.1325 -0.1310
 3038SOL    HW120747   0.061   0.990   6.671 -1.9724 -0.8444  0.7387
 3038SOL    HW220748   0.171   0.909   6.608  2.1820  1.0115  1.8934
 3039SOL     OW20749   0.045   3.798   3.006 -0.1081 -0.3894 -0.4901
 3039SOL    HW120750   0.109   3.736   3.038 -2.2218 -1.6710  1.2756
 3039SOL    HW220751   0.079   3.841   2.928 -0.1406 -2.4175 -1.6140
 3040SOL     OW20752   0.792   3.418   2.258 -0.2220 -0.2319 -0.0701
 3040SOL    HW120753   0.721   3.354   2.250  0.7150 -1.2392 -0.2768
 3040SOL    HW220754   0.864   3.359   2.237 -0.9570 -0.7616 -1.1144
 3041SOL     OW20755   4.306   0.543   7.622 -0.2364  0.0496  0.4311
 3041SOL    HW120756   4.305   0.464   7.675  0.5082 -0.4714 -0.3336
 3041SOL    HW220757   4.212   0.561   7.614 -0.1921 -0.1662 -0.6539
 3042SOL     OW20758   3.570   2.662  16.790  0.1312 -0.1438 -0.2908
 3042SOL    HW120759   3.637   2.612  16.836  0.1133 -0.5951 -0.7539
 3042SOL    HW220760   3.578   2.747  16.833 -2.0490 -0.8159  1.4442
 3043SOL     OW20761   1.984   1.286  17.709 -0.4955  0.2532 -0.2583
 3043SOL    HW120762   1.964   1.203   0.005  5.7158 -0.7841  0.7196
 3043SOL    HW220763   1.995   1.239  17.626  1.8842  1.7518 -0.8215
 3044SOL     OW20764   4.491   2.249  11.499  0.3502  0.1062  0.2125
 3044SOL    HW120765   4.410   2.300  11.498  0.5010  0.3025 -3.3171
 3044SOL    HW220766   4.554   2.318  11.519 -1.9068  2.8594 -2.1830
 3045SOL     OW20767   2.324   0.866  13.139 -0.3967  0.1651  0.1263
 3045SOL    HW120768   2.261   0.805  13.100 -0.8029  0.5636  0.1546
 3045SOL    HW220769   2.295   0.947  13.096  0.9027  0.7949  0.4322
 3046SOL     OW20770   1.254   0.579   0.578 -0.2433 -0.0982 -0.0373
 3046SOL    HW120771   1.179   0.615   0.531  0.2628 -1.3401 -1.7735
 3046SOL    HW220772   1.302   0.540   0.505 -0.1633  0.6499 -0.3927
 3047SOL     OW20773   2.891   4.069  17.335 -0.4661  0.6783  0.3957
 3047SOL    HW120774   2.841   4.022  17.267  1.8040 -1.4067  0.1677
 3047SOL    HW220775   2.968   4.088  17.282 -0.8107 -0.8211 -0.6661
 3048SOL     OW20776   2.438   3.103   5.580  0.0179  0.1063 -0.3698
 3048SOL    HW120777   2.412   3.112   5.488  0.6617 -2.8579 -0.8347
 3048SOL    HW220778   2.361   3.139   5.624 -0.7320 -0.4644 -1.2200
 3049SOL     OW20779   3.825   0.837   3.134 -0.4410 -0.8584  0.2151
 3049SOL    HW120780   3.896   0.780   3.105 -0.3214 -0.1958 -0.7795
 3049SOL    HW220781   3.780   0.784   3.200  0.1246 -1.3723  0.1824
 3050SOL     OW20782   0.082   4.441   0.156  0.5515  0.7261 -0.1060
 3050SOL    HW120783   0.172   4.413   0.142  0.6386  1.2027 -0.4794
 3050SOL    HW220784   0.032   4.362   0.179  1.1564 -0.8188 -4.1134
 3051SOL     OW20785   2.878   3.982   2.879  0.4907 -0.1274  0.0990
 3051SOL    HW120786   2.931   4.043   2.828 -0.3576  0.1192 -0.4934
 3051SOL    HW220787   2.943   3.958   2.944 -1.3856  0.3332  2.1638
 3052SOL     OW20788   0.605   2.279   3.795 -0.0835 -0.6851 -0.4151
 3052SOL    HW120789   0.678   2.237   3.841  1.3839  1.4205 -0.7895
 3052SOL    HW220790   0.639   2.266   3.706 -1.6116 -2.5811 -0.7112
 3053SOL     OW20791   4.645   4.339   7.116  0.1459  0.4443  0.0813
 3053SOL    HW120792   4.721   4.306   7.068  1.1590 -1.5119  2.9782
 3053SOL    HW220793   4.653   4.287   7.196  1.0788  0.9479  0.3298
 3054SOL     OW20794   1.883   2.758  14.559 -0.5859  0.3079 -0.2349
 3054SOL    HW120795   1.952   2.736  14.621 -1.6841  0.2288  0.9667
 3054SOL    HW220796   1.808   2.705  14.587 -0.5799 -0.5171 -1.7962
 3055SOL     OW20797   0.641   4.254   6.436 -0.0379 -0.1970  0.1098
 3055SOL    HW120798   0.651   4.180   6.376 -1.0237 -0.4240  0.2239
 3055SOL    HW220799   0.546   4.256   6.441 -0.1647  0.5476 -2.5482
 3056SOL     OW20800   1.693   3.728   2.120 -0.2671  0.6780  0.1851
 3056SOL    HW120801   1.754   3.655   2.132  0.5014  1.3434  0.3555
 3056SOL    HW220802   1.670   3.729   2.027  2.0098 -0.2778 -0.3890
 3057SOL     OW20803   2.187   3.646   6.823  0.0426  0.0138  0.0753
 3057SOL    HW120804   2.138   3.565   6.837  0.4690 -0.5897 -2.0100
 3057SOL    HW220805   2.206   3.669   6.914 -0.5344 -0.5621  0.3406
 3058SOL     OW20806   4.455   2.623   7.510  0.3291  0.1170 -0.3427
 3058SOL    HW120807   4.494   2.592   7.592 -1.5241 -1.3961 -0.0195
 3058SOL    HW220808   4.527   2.675   7.474  2.2800 -1.7716  0.8522
 3059SOL     OW20809   1.261   1.775   6.585  0.0846  0.1624 -0.4651
 3059SOL    HW120810   1.281   1.861   6.621  0.1941  0.0547 -0.2613
 3059SOL    HW220811   1.190   1.786   6.523  1.4695  2.5940 -1.6123
 3060SOL     OW20812   1.537   0.688   1.998  0.6241  0.1462 -0.8671
 3060SOL    HW120813   1.480   0.648   1.934 -0.1585  1.5624 -1.0425
 3060SOL    HW220814   1.520   0.781   1.990  0.1981  0.0342 -1.2431
 3061SOL     OW20815   3.984   0.676   4.143  0.0777  0.4399  0.2211
 3061SOL    HW120816   3.916   0.659   4.078  2.2887  1.5511 -2.4329
 3061SOL    HW220817   4.050   0.609   4.124  1.4711  1.5802  1.0240
 3062SOL     OW20818   2.050   2.505   2.930  0.0947  0.1504  0.1377
 3062SOL    HW120819   2.023   2.493   3.022 -1.3456  0.0921 -0.2841
 3062SOL    HW220820   2.141   2.528   2.945 -0.0131  1.1463 -0.8246
 3063SOL     OW20821   0.566   4.644   1.798 -0.2651 -0.2958  0.4025
 3063SOL    HW120822   0.476   4.634   1.829 -0.7097 -0.0902 -0.8219
 3063SOL    HW220823   0.606   4.683   1.876  0.8535 -0.2933 -0.1717
 3064SOL     OW20824   4.531   0.506   3.337 -0.0963  0.5923  0.2813
 3064SOL    HW120825   4.465   0.532   3.401  0.2953  0.1807  0.8453
 3064SOL    HW220826   4.480   0.507   3.256  0.2804 -0.8574  0.0427
 3065SOL     OW20827   2.389   0.549   6.801 -0.3865 -0.2304  0.1625
 3065SOL    HW120828   2.304   0.580   6.832  0.6198  2.8209 -0.1232
 3065SOL    HW220829   2.366   0.459   6.778  0.6291 -0.8346  1.5112
 3066SOL     OW20830   3.740   2.182   4.381 -0.8122  0.3870 -0.2451
 3066SOL    HW120831   3.765   2.273   4.396  0.8227 -0.3628  1.6089
 3066SOL    HW220832   3.689   2.189   4.300 -1.8478 -1.2611  0.2689
 3067SOL     OW20833   4.330   1.502   5.103 -0.8053 -0.0196  0.2682
 3067SOL    HW120834   4.334   1.582   5.051  2.0512  2.1535  3.8079
 3067SOL    HW220835   4.389   1.435   5.068 -0.4233 -1.4341  3.6098
 3068SOL     OW20836   3.669   3.918   6.987 -0.5150  0.4014 -0.3396
 3068SOL    HW120837   3.683   3.847   6.924 -2.2824 -1.7545  1.7305
 3068SOL    HW220838   3.577   3.938   6.972 -0.4480  1.0049  0.0776
 3069SOL     OW20839   4.669   4.488   9.860 -0.8493  0.2550  0.4057
 3069SOL    HW120840   0.028   4.499   9.857 -0.8086 -0.1650  0.1926
 3069SOL    HW220841   4.659   4.394   9.845  0.4320  0.5939 -2.5838
 3070SOL     OW20842   1.913   0.560   0.046 -0.0553  0.4863  0.3595
 3070SOL    HW120843   1.998   0.532   0.080  0.0261  0.9810  0.5792
 3070SOL    HW220844   1.921   0.544  17.698 -1.8664 -0.0470  0.3040
 3071SOL     OW20845   4.296   0.991  12.222  0.4288 -0.5311  0.4765
 3071SOL    HW120846   4.281   1.086  12.218 -3.4099 -1.0793  2.2403
 3071SOL    HW220847   4.322   0.964  12.134  0.6621 -0.6525  0.5828
 3072SOL     OW20848   1.029   2.799   9.897  0.4025 -0.1337  0.1434
 3072SOL    HW120849   1.080   2.854   9.838  1.2326  0.7235  1.6768
 3072SOL    HW220850   0.953   2.854   9.916  1.0553  0.6651  0.4015
 3073SOL     OW20851   0.561   4.173   9.117 -0.2512 -0.1333 -0.0233
 3073SOL    HW120852   0.484   4.118   9.100  0.6166 -2.6145  3.9224
 3073SOL    HW220853   0.631   4.108   9.116  1.2036  1.4853 -1.7903
 3074SOL     OW20854   4.172   2.383  14.246 -0.2980 -0.1515 -0.4427
 3074SOL    HW120855   4.137   2.432  14.172 -1.7079 -0.1664  0.2207
 3074SOL    HW220856   4.217   2.306  14.210 -1.4029 -0.5614 -0.9650
 3075SOL     OW20857   2.875   3.236  15.974 -0.3171 -0.0708 -0.2961
 3075SOL    HW120858   2.842   3.273  15.893  2.2026  0.7233 -0.9551
 3075SOL    HW220859   2.950   3.185  15.943 -1.1302 -0.4559 -1.5945
 3076SOL     OW20860   2.662   4.389   0.627  0.6760  0.1689 -0.0374
 3076SOL    HW120861   2.697   4.475   0.650  0.1211  0.2874  0.3723
 3076SOL    HW220862   2.708   4.371   0.546 -1.3019 -1.8741 -0.7107
 3077SOL     OW20863   1.160   2.353   3.832  0.5145  0.4169  0.3399
 3077SOL    HW120864   1.109   2.337   3.752  1.7880  0.3103 -0.4542
 3077SOL    HW220865   1.195   2.439   3.810  0.8758  0.5208  1.3380
 3078SOL     OW20866   3.431   0.623   5.589  0.2600 -0.5213 -0.5076
 3078SOL    HW120867   3.467   0.634   5.677 -1.9229  1.7857  0.1187
 3078SOL    HW220868   3.498   0.675   5.545 -1.0150 -0.0507 -1.8858
 3079SOL     OW20869   2.560   0.206   5.016  0.1126  0.1910 -0.1169
 3079SOL    HW120870   2.562   0.179   5.108 -0.7575 -0.4770 -0.2853
 3079SOL    HW220871   2.469   0.232   5.002  0.0236  0.2115  0.5080
 3080SOL     OW20872   0.297   1.122   9.067 -0.6544 -0.1236 -0.1228
 3080SOL    HW120873   0.236   1.161   9.130  1.4291 -1.0916  2.4482
 3080SOL    HW220874   0.383   1.128   9.107 -1.0240 -0.9805  0.8197
 3081SOL     OW20875   0.562   2.448  10.802 -0.3265 -0.1049 -0.2211
 3081SOL    HW120876   0.515   2.426  10.883 -0.5280  0.0184 -0.3034
 3081SOL    HW220877   0.515   2.393  10.739 -0.5325 -2.0525  1.6276
 3082SOL     OW20878   4.010   3.504  10.408 -0.4454  0.2926  0.5066
 3082SOL    HW120879   3.949   3.449  10.457 -1.5165  1.9386  1.0308
 3082SOL    HW220880   3.947   3.570  10.377  0.5180 -0.0678 -2.2407
 3083SOL     OW20881   0.833   3.103   8.466  0.3037  0.0068  0.1655
 3083SOL    HW120882   0.766   3.080   8.530 -2.8452  2.3958 -2.2061
 3083SOL    HW220883   0.830   3.020   8.418 -1.4323 -0.2674  0.7438
 3084SOL     OW20884   3.142   0.180   3.991  0.1166 -1.3063  0.1487
 3084SOL    HW120885   3.131   0.138   3.906 -1.5755  0.6695 -0.5956
 3084SOL    HW220886   3.075   0.248   3.988  1.3852  0.0335  2.1302
 3085SOL     OW20887   0.043   2.143   4.545  0.2984 -0.0528  0.1228
 3085SOL    HW120888   0.029   2.048   4.539  0.2926  0.0246 -1.0016
 3085SOL    HW220889   0.055   2.143   4.640  1.6339  1.0391 -0.0521
 3086SOL     OW20890   0.621   3.787   3.224 -0.3298 -0.2934  0.7967
 3086SOL    HW120891   0.635   3.753   3.312  3.3926 -0.1974  0.2697
 3086SOL    HW220892   0.549   3.847   3.245 -2.3302 -1.9600 -1.3971
 3087SOL     OW20893   2.460   0.789  15.113 -0.2757 -0.5458  0.2587
 3087SOL    HW120894   2.542   0.799  15.065 -0.0766  1.5051  1.0165
 3087SOL    HW220895   2.493   0.746  15.192  1.1123 -1.2240 -0.6842
 3088SOL     OW20896   3.317   4.145  12.329 -0.1288 -0.0892  0.5909
 3088SOL    HW120897   3.233   4.100  12.325 -0.3008  0.4597 -1.7696
 3088SOL    HW220898   3.370   4.066  12.342 -1.1775 -1.4807 -3.5042
 3089SOL     OW20899   1.771   3.049  14.708 -0.5033 -0.4567 -0.6180
 3089SOL    HW120900   1.821   3.077  14.630  1.0777 -2.6805 -0.4054
 3089SOL    HW220901   1.733   3.131  14.739 -0.4479 -0.7576  0.2421
 3090SOL     OW20902   4.534   2.631  11.238  0.6631  0.0824 -0.3935
 3090SOL    HW120903   4.574   2.650  11.323  1.9491 -1.3941 -0.6712
 3090SOL    HW220904   4.585   2.689  11.182 -0.4868  0.0839 -1.4358
 3091SOL     OW20905   0.064   1.700   5.823 -0.1598  0.3002  0.3279
 3091SOL    HW120906   0.065   1.615   5.778 -0.5789 -0.8890  2.6062
 3091SOL    HW220907   0.033   1.756   5.752 -0.2676  0.3979  0.4521
 3092SOL     OW20908   3.087   0.126   3.499  0.4345 -0.3458 -0.0678
 3092SOL    HW120909   3.144   0.051   3.482  2.2650  0.9715  0.2019
 3092SOL    HW220910   3.046   0.138   3.413 -0.8714  4.3065  1.1744
 3093SOL     OW20911   0.438   2.411   8.673  0.1692 -0.2436 -0.3229
 3093SOL    HW120912   0.438   2.463   8.753 -2.3039  1.6103 -1.5319
 3093SOL    HW220913   0.527   2.375   8.673 -0.1671 -1.0758  0.1208
 3094SOL     OW20914   4.643   0.728   6.689 -0.0185 -0.0168 -0.4198
 3094SOL    HW120915   4.648   0.656   6.752  2.5557  1.3075  0.8922
 3094SOL    HW220916   4.734   0.756   6.693  0.0067 -0.2730  0.7595
 3095SOL     OW20917   3.208   1.616   2.988 -0.2170 -0.3028  0.4197
 3095SOL    HW120918   3.226   1.708   3.009 -1.0185  0.0030 -0.2398
 3095SOL    HW220919   3.292   1.575   3.011  0.7013  2.1566  1.4941
 3096SOL     OW20920   1.942   3.749   9.339 -0.4564 -0.2230 -0.0694
 3096SOL    HW120921   1.909   3.696   9.266 -0.0831 -1.6548  0.8134
 3096SOL    HW220922   1.905   3.703   9.414  1.5763  0.3670  1.2889
 3097SOL     OW20923   3.633   4.117   9.503 -0.1097  0.2648 -0.1520
 3097SOL    HW120924   3.611   4.115   9.410  0.0579 -0.3919 -0.1717
 3097SOL    HW220925   3.559   4.164   9.541 -0.4949 -0.6162  0.1822
 3098SOL     OW20926   1.316   4.616   5.796 -0.3157  0.5131 -0.2722
 3098SOL    HW120927   1.332   4.692   5.742  0.4407  1.4809  1.3065
 3098SOL    HW220928   1.391   4.620   5.856  1.1349 -2.4316 -1.8580
 3099SOL     OW20929   0.949   2.015  10.322  0.0967  0.2114 -0.4054
 3099SOL    HW120930   0.993   1.968  10.251 -0.8257  1.0165 -1.5068
 3099SOL    HW220931   0.995   1.981  10.398  0.8880 -1.2832 -1.5459
 3100SOL     OW20932   3.189   3.734   1.397 -0.2314 -0.2691 -0.6689
 3100SOL    HW120933   3.177   3.646   1.433  1.4595 -0.7079 -1.1735
 3100SOL    HW220934   3.154   3.780   1.473 -1.6103  1.0058 -2.0555
 3101SOL     OW20935   0.018   2.522   8.690  0.1505 -0.2298 -0.0275
 3101SOL    HW120936   4.702   2.443   8.701 -0.1808  0.0024  0.0496
 3101SOL    HW220937   0.043   2.503   8.600  0.2719  0.2068 -0.0871
 3102SOL     OW20938   4.175   4.149  15.241  0.4146  0.1619  0.7852
 3102SOL    HW120939   4.135   4.144  15.154 -0.5042  1.4829  1.1209
 3102SOL    HW220940   4.146   4.238  15.262  0.4300  0.4279 -0.3030
 3103SOL     OW20941   4.156   2.824  13.451 -0.4824 -0.3343 -0.3420
 3103SOL    HW120942   4.104   2.874  13.388 -1.9947 -0.4149  0.8481
 3103SOL    HW220943   4.229   2.886  13.457 -0.7081 -0.2655  1.7117
 3104SOL     OW20944   0.773   4.637   4.909  0.1570  0.5170  0.2089
 3104SOL    HW120945   0.850   4.611   4.858 -0.9552 -1.1775 -0.6174
 3104SOL    HW220946   0.717   4.693   4.855 -1.8586  0.0238  1.7945
 3105SOL     OW20947   4.330   0.516   3.539  0.2181 -0.4689 -0.2938
 3105SOL    HW120948   4.329   0.595   3.593 -0.1081 -0.6739 -0.0023
 3105SOL    HW220949   4.254   0.472   3.576  0.9064  0.2451  1.9901
 3106SOL     OW20950   1.868   2.396   3.374  0.2981  0.1292 -0.1644
 3106SOL    HW120951   1.796   2.347   3.416  0.3983  1.0505  1.0827
 3106SOL    HW220952   1.858   2.487   3.401 -0.0128  0.3667 -1.0942
 3107SOL     OW20953   4.614   3.726  16.915  0.1233  0.4727 -0.3245
 3107SOL    HW120954   4.522   3.723  16.889 -0.6685  1.7808  2.3351
 3107SOL    HW220955   4.645   3.646  16.873 -1.5987 -0.7676  0.7626
 3108SOL     OW20956   1.025   2.749  10.753 -0.0858 -0.2367 -0.3752
 3108SOL    HW120957   1.057   2.716  10.670  1.4801 -0.5290  0.3434
 3108SOL    HW220958   0.964   2.682  10.784 -0.3206  0.6180  1.0396
 3109SOL     OW20959   1.295   3.925  12.614 -0.8123 -0.6558 -0.7643
 3109SOL    HW120960   1.293   3.999  12.674  0.9039 -2.2152  1.1824
 3109SOL    HW220961   1.274   3.970  12.532 -2.1540 -0.7534 -0.4737
 3110SOL     OW20962   1.854   1.365   6.494  0.1958  0.3639 -0.0903
 3110SOL    HW120963   1.793   1.318   6.550 -0.9833  0.8777 -0.9493
 3110SOL    HW220964   1.802   1.438   6.461 -0.9984 -0.2011  0.5628
 3111SOL     OW20965   1.871   2.896   3.807 -0.1985 -0.2625  0.2189
 3111SOL    HW120966   1.852   2.810   3.769 -0.7254  0.3249 -0.8525
 3111SOL    HW220967   1.918   2.866   3.885  0.0821 -2.2081 -0.6801
 3112SOL     OW20968   1.279   0.243   6.895 -0.0920  0.7108  0.1575
 3112SOL    HW120969   1.196   0.263   6.937 -0.7953  0.3866 -1.0721
 3112SOL    HW220970   1.329   0.284   6.966  1.3442  0.9522 -0.9852
 3113SOL     OW20971   0.898   1.407   2.247 -0.2946  0.1235  0.4105
 3113SOL    HW120972   0.957   1.339   2.281 -2.5604 -1.3052  1.4386
 3113SOL    HW220973   0.851   1.398   2.330  2.1103  1.3359  1.8972
 3114SOL     OW20974   0.058   3.012  11.549  0.4563 -0.0310 -0.2084
 3114SOL    HW120975   0.106   3.013  11.632 -0.6775 -0.7855  0.4425
 3114SOL    HW220976   4.730   3.080  11.565  0.5924  0.4586 -1.7749
 3115SOL     OW20977   2.093   0.025   1.594  0.0102  0.2409 -0.7156
 3115SOL    HW120978   2.147   4.685   1.611 -1.0662 -0.7613 -1.8580
 3115SOL    HW220979   2.055   0.040   1.681 -1.1562 -3.1624 -0.6344
 3116SOL     OW20980   0.140   2.443   7.007  0.5919  1.1670 -0.5962
 3116SOL    HW120981   0.131   2.438   6.912 -1.0536 -0.8527 -0.3505
 3116SOL    HW220982   0.140   2.538   7.018  1.1534  0.9251  1.6008
 3117SOL     OW20983   0.752   1.187   4.113 -0.3386 -0.0817 -0.1590
 3117SOL    HW120984   0.749   1.093   4.127 -0.3228 -0.0460  0.0778
 3117SOL    HW220985   0.793   1.231   4.188 -3.1051  1.6530  0.3426
 3118SOL     OW20986   3.128   4.423   0.609 -0.0262  0.0454 -0.1872
 3118SOL    HW120987   3.103   4.339   0.570 -2.1910  0.2992  0.6122
 3118SOL    HW220988   3.115   4.484   0.536  0.2380  0.3045 -0.0180
 3119SOL     OW20989   3.952   3.911   5.024 -0.0186  0.9957 -0.0955
 3119SOL    HW120990   3.866   3.890   5.061 -0.3738 -0.6838 -1.8681
 3119SOL    HW220991   4.003   3.846   5.073  0.0676  1.1395  0.0038
 3120SOL     OW20992   1.014   1.169  12.603  0.1233 -0.4386 -0.7027
 3120SOL    HW120993   1.058   1.088  12.629  0.9110 -0.4723 -2.1724
 3120SOL    HW220994   1.077   1.233  12.636  0.6160 -1.8463  1.0675
 3121SOL     OW20995   3.169   1.491  12.433  0.2990 -0.5965  0.0734
 3121SOL    HW120996   3.076   1.498  12.415  0.9144  1.7404 -2.2291
 3121SOL    HW220997   3.211   1.504  12.348 -1.0028 -0.0014 -0.4646
 3122SOL     OW20998   2.755   2.459   8.195 -0.3857 -0.1050  0.1406
 3122SOL    HW120999   2.688   2.517   8.159  0.0888  1.9243  2.5475
 3122SOL    HW221000   2.817   2.456   8.123  1.3793  0.1220  1.6697
 3123SOL     OW21001   2.000   3.613   6.270  0.1353  0.3313 -0.3532
 3123SOL    HW121002   1.983   3.604   6.363 -0.5227  0.3413 -0.4716
 3123SOL    HW221003   1.986   3.528   6.227  0.1525  1.3391 -2.3756
 3124SOL     OW21004   3.184   3.055   4.865 -0.4865 -0.1316  0.2698
 3124SOL    HW121005   3.194   3.140   4.908 -0.7714 -0.9861  2.0121
 3124SOL    HW221006   3.166   3.084   4.775 -0.5383 -0.4377  0.1819
 3125SOL     OW21007   0.754   4.198  13.732  1.0300  0.5787  0.7994
 3125SOL    HW121008   0.738   4.214  13.639  1.3437 -1.9995  0.3234
 3125SOL    HW221009   0.843   4.231  13.747  0.5238  0.8905  3.1380
 3126SOL     OW21010   4.588   2.763   4.361 -0.1552  0.0486  0.4439
 3126SOL    HW121011   4.608   2.848   4.321 -2.2918  0.1997 -0.2690
 3126SOL    HW221012   4.546   2.719   4.287 -0.7751 -2.8294  2.4919
 3127SOL     OW21013   0.843   1.281   9.311 -0.1817  0.3471 -0.3029
 3127SOL    HW121014   0.841   1.191   9.343 -3.1295 -0.3765 -2.5123
 3127SOL    HW221015   0.749   1.296   9.304 -0.0723  1.2075  0.0293
 3128SOL     OW21016   2.251   0.794  16.410 -0.3842  0.7508  0.1711
 3128SOL    HW121017   2.315   0.790  16.480  0.4641 -1.2449 -0.7191
 3128SOL    HW221018   2.260   0.882  16.372 -2.0875  0.7278 -0.2997
 3129SOL     OW21019   0.090   2.868  15.580  0.3736  0.3971 -0.8319
 3129SOL    HW121020   0.140   2.890  15.501  0.8778 -0.8092 -0.8582
 3129SOL    HW221021   0.005   2.872  15.536 -0.9718 -0.4276  1.6741
 3130SOL     OW21022   4.599   4.526   4.894  0.1630  0.4617  0.2781
 3130SOL    HW121023   4.622   4.466   4.965 -0.1938 -0.3799 -0.3079
 3130SOL    HW221024   4.608   4.458   4.827 -0.8992 -0.3921  0.9993
 3131SOL     OW21025   3.824   0.348  12.332 -0.1587  0.5801 -0.0726
 3131SOL    HW121026   3.827   0.361  12.427  2.3504 -0.1726 -0.0544
 3131SOL    HW221027   3.731   0.357  12.315 -0.5012 -0.2801  1.3135
 3132SOL     OW21028   3.416   1.996   6.887 -0.2663  0.3280  0.0612
 3132SOL    HW121029   3.390   1.995   6.795  0.6104  1.7048 -0.2064
 3132SOL    HW221030   3.339   1.946   6.913 -1.3000  2.3439  0.9546
 3133SOL     OW21031   4.152   3.516   4.201  0.0761 -0.2393 -0.2769
 3133SOL    HW121032   4.228   3.511   4.142  0.1694  0.7129 -0.2283
 3133SOL    HW221033   4.192   3.514   4.289 -0.1751  0.5260 -0.1521
 3134SOL     OW21034   3.154   1.221  14.479  0.6455  0.2045 -0.5661
 3134SOL    HW121035   3.212   1.218  14.555 -1.8923 -1.1307  1.3208
 3134SOL    HW221036   3.210   1.184  14.411  0.5335 -2.4932  0.8065
 3135SOL     OW21037   0.600   0.142   3.723 -0.7142 -0.6187  0.2238
 3135SOL    HW121038   0.510   0.168   3.701 -0.0999  0.9877 -0.3780
 3135SOL    HW221039   0.608   0.182   3.809 -0.1289 -3.2502  1.4166
 3136SOL     OW21040   0.048   4.313   8.320 -0.0283 -0.0900  0.2020
 3136SOL    HW121041   0.000   4.390   8.291  0.6306  0.0095 -0.5971
 3136SOL    HW221042   4.713   4.257   8.351 -1.5701 -0.7318 -4.6466
 3137SOL     OW21043   1.285   2.332   2.723  0.1988 -0.2938  0.2171
 3137SOL    HW121044   1.263   2.282   2.645  0.4543 -0.9359  0.5576
 3137SOL    HW221045   1.288   2.418   2.681  0.9388 -0.1083  0.6406
 3138SOL     OW21046   0.702   1.437   5.537 -0.5781  0.3197  0.0254
 3138SOL    HW121047   0.723   1.450   5.629  0.6596 -1.5575 -0.0054
 3138SOL    HW221048   0.782   1.428   5.486 -0.7136  0.7236 -0.2606
 3139SOL     OW21049   0.933   4.531   8.039 -0.2078 -0.5907  0.4830
 3139SOL    HW121050   0.933   4.625   8.059 -0.5435 -0.0201 -2.1884
 3139SOL    HW221051   0.906   4.548   7.949 -2.0299  1.3031  1.3796
 3140SOL     OW21052   1.659   1.305  15.336  0.1771  0.0005  0.2346
 3140SOL    HW121053   1.675   1.221  15.380 -0.5970  0.1993  0.8995
 3140SOL    HW221054   1.564   1.309  15.324  0.4330 -0.3878 -1.7858
 3141SOL     OW21055   1.891   3.573   7.687  0.2101  0.3748 -0.3625
 3141SOL    HW121056   1.862   3.632   7.757  0.9078  0.9367 -0.5464
 3141SOL    HW221057   1.883   3.490   7.734  0.4940  0.1698 -0.6784
 3142SOL     OW21058   2.405   4.542  17.699  0.2308 -0.1372  0.0202
 3142SOL    HW121059   2.446   4.489   0.022 -1.2328  1.6417  2.2834
 3142SOL    HW221060   2.475   4.526  17.636  0.8490  0.3894  0.5594
 3143SOL     OW21061   3.019   3.053  17.329 -0.6489 -0.2209  0.7589
 3143SOL    HW121062   3.016   3.122  17.262 -1.0732 -1.4964 -0.5111
 3143SOL    HW221063   3.106   3.072  17.365 -0.9469  0.7428  0.9732
 3144SOL     OW21064   3.507   1.052   7.190 -0.1281 -0.0964 -0.0432
 3144SOL    HW121065   3.493   0.959   7.174  3.3350 -0.6636  0.2908
 3144SOL    HW221066   3.579   1.080   7.134  0.9447 -1.6663  0.5591
 3145SOL     OW21067   1.109   0.411   2.286  0.3009 -0.7627  0.0173
 3145SOL    HW121068   1.071   0.330   2.251 -1.0514  0.4326 -1.3113
 3145SOL    HW221069   1.162   0.430   2.210 -1.4655 -0.8194 -1.2364
 3146SOL     OW21070   2.834   1.254   7.391 -0.1644 -0.3767  0.0432
 3146SOL    HW121071   2.889   1.236   7.315 -1.0779  0.4993 -0.8323
 3146SOL    HW221072   2.867   1.341   7.413 -1.5388 -0.8348  3.8566
 3147SOL     OW21073   1.512   4.411   8.342 -0.4303 -0.0980 -0.3706
 3147SOL    HW121074   1.551   4.398   8.428 -1.3148 -1.6170 -0.1971
 3147SOL    HW221075   1.580   4.371   8.288  1.1053  1.4015  0.4489
 3148SOL     OW21076   3.015   3.707   8.021 -0.7374 -0.1050 -0.0451
 3148SOL    HW121077   3.048   3.655   8.094 -1.7842  0.5012  0.8466
 3148SOL    HW221078   2.927   3.672   8.011 -1.3466  1.1436  0.9986
 3149SOL     OW21079   2.640   1.933   6.507 -0.1085 -0.5060  0.4055
 3149SOL    HW121080   2.639   1.990   6.430 -0.9236  1.9148  2.2097
 3149SOL    HW221081   2.594   2.000   6.558  2.6988  1.1250  0.7646
 3150SOL     OW21082   3.448   3.958   4.159  0.0038  0.6864 -0.5575
 3150SOL    HW121083   3.477   4.046   4.182  1.9302  0.1376 -0.8901
 3150SOL    HW221084   3.358   3.986   4.139 -0.2797 -0.1185 -0.3972
 3151SOL     OW21085   1.702   2.669   3.662  0.1235 -0.2769 -0.3983
 3151SOL    HW121086   1.665   2.585   3.689  2.1073 -0.5496  1.4074
 3151SOL    HW221087   1.654   2.733   3.714 -1.2038 -2.2326  0.8041
 3152SOL     OW21088   2.584   4.283  13.083 -0.1897 -0.1455  0.2989
 3152SOL    HW121089   2.658   4.333  13.116 -0.2871 -0.4578  1.0012
 3152SOL    HW221090   2.618   4.212  13.029 -1.5615 -2.4638  2.4557
 3153SOL     OW21091   0.358   0.410   5.300 -0.0064 -0.0015  0.0602
 3153SOL    HW121092   0.301   0.483   5.324 -0.2152  0.1180 -0.8045
 3153SOL    HW221093   0.290   0.359   5.255  0.1455  0.2064 -0.3983
 3154SOL     OW21094   3.146   3.548   6.511  0.0343  0.3598 -0.3163
 3154SOL    HW121095   3.139   3.543   6.606 -1.0387 -1.5189 -0.5037
 3154SOL    HW221096   3.137   3.458   6.481 -0.9412  0.2371  0.3486
 3155SOL     OW21097   1.814   1.039  13.693 -0.3051 -0.4957 -0.1198
 3155SOL    HW121098   1.793   0.991  13.773 -4.6643  1.2586 -0.2160
 3155SOL    HW221099   1.779   1.125  13.715  0.8346  0.5399 -2.3388
 3156SOL     OW21100   1.044   1.894  15.940  0.5772  0.3974  0.1654
 3156SOL    HW121101   1.009   1.904  15.852 -0.7323  1.0371  0.7662
 3156SOL    HW221102   1.057   1.800  15.936 -1.0977  0.1519  0.3864
 3157SOL     OW21103   3.483   4.331   6.101 -0.4489 -0.1913 -0.3351
 3157SOL    HW121104   3.475   4.350   6.195  2.0265  1.0935 -0.3897
 3157SOL    HW221105   3.389   4.316   6.090 -0.2011  0.9727 -3.9309
 3158SOL     OW21106   2.948   3.554   3.021 -0.2679 -0.4087 -0.2347
 3158SOL    HW121107   3.039   3.551   2.992  0.6136  0.0773  2.5310
 3158SOL    HW221108   2.908   3.586   2.940 -2.0144 -0.4722  0.5861
 3159SOL     OW21109   0.584   3.667   7.291  0.3583 -0.7370  0.0749
 3159SOL    HW121110   0.496   3.700   7.271  0.5614  1.4288  2.7476
 3159SOL    HW221111   0.566   3.578   7.318  1.6283 -1.0964 -0.2583
 3160SOL     OW21112   2.583   0.273   2.838  0.0694  0.0183  0.7381
 3160SOL    HW121113   2.639   0.300   2.765  1.2808 -2.4578  0.7585
 3160SOL    HW221114   2.572   0.179   2.821 -1.7167  0.6105 -1.4589
 3161SOL     OW21115   1.825   1.158   4.042  0.2975  0.0904  0.3939
 3161SOL    HW121116   1.902   1.206   4.072  0.5446  0.2427 -0.4795
 3161SOL    HW221117   1.860   1.097   3.977 -1.5747  0.4493 -0.9645
 3162SOL     OW21118   4.414   0.030   6.252 -0.3067 -0.0409  0.2421
 3162SOL    HW121119   4.472   0.103   6.276 -1.2385  0.0426  2.2450
 3162SOL    HW221120   4.442   4.706   6.320  0.7117  0.7697  0.5427
 3163SOL     OW21121   1.732   0.763  17.672  0.7286  0.2339 -0.4041
 3163SOL    HW121122   1.654   0.711  17.688  0.1885  1.1004 -0.2246
 3163SOL    HW221123   1.793   0.700  17.710  1.3063  0.5248 -0.8498
 3164SOL     OW21124   3.827   1.051  17.546  0.4694  0.3841 -0.1291
 3164SOL    HW121125   3.903   1.109  17.549  1.8568 -1.5380  1.7716
 3164SOL    HW221126   3.754   1.107  17.573  0.1032  0.2007 -0.7374
 3165SOL     OW21127   2.202   3.096  15.886  0.0015 -0.2593  0.0670
 3165SOL    HW121128   2.167   3.135  15.966 -1.7456 -1.1715 -0.2409
 3165SOL    HW221129   2.295   3.108  15.901  0.0786  0.3480 -0.8515
 3166SOL     OW21130   1.825   4.259   0.565  0.0759  0.1963 -0.1413
 3166SOL    HW121131   1.755   4.282   0.504  0.3750 -0.0695 -0.5773
 3166SOL    HW221132   1.905   4.257   0.513  0.9441  0.2376  1.1999
 3167SOL     OW21133   3.319   1.245   7.145 -0.2314  0.6963 -0.3651
 3167SOL    HW121134   3.396   1.194   7.168  0.2059  0.7495 -1.6843
 3167SOL    HW221135   3.260   1.176   7.113 -1.0521  2.6022 -3.0726
 3168SOL     OW21136   0.215   2.061   0.231  0.4028 -0.8034 -0.5935
 3168SOL    HW121137   0.213   2.141   0.179 -0.9860  0.1526  0.9578
 3168SOL    HW221138   0.123   2.035   0.229  0.7362 -2.1258  1.1416
 3169SOL     OW21139   3.595   3.626   2.311 -0.4194 -0.2027  0.1220
 3169SOL    HW121140   3.562   3.631   2.401 -0.2274 -0.5842  0.2155
 3169SOL    HW221141   3.668   3.568   2.334  0.0007 -0.6302 -2.3775
 3170SOL     OW21142   2.631   1.648  12.595 -0.5018 -0.0736  0.7510
 3170SOL    HW121143   2.662   1.624  12.683 -3.1068  0.5675  1.8373
 3170SOL    HW221144   2.538   1.650  12.619 -1.4691 -0.2371 -3.0745
 3171SOL     OW21145   0.750   4.505   6.488  0.2277 -0.2028  0.8956
 3171SOL    HW121146   0.726   4.588   6.446 -1.0926 -1.4536 -0.8245
 3171SOL    HW221147   0.665   4.460   6.487 -0.0171  0.2636  0.3056
 3172SOL     OW21148   0.894   2.767   4.727  0.3808  0.2162 -0.2757
 3172SOL    HW121149   0.969   2.707   4.728  0.3049  0.0606 -2.2307
 3172SOL    HW221150   0.829   2.717   4.677  1.0444 -0.7322 -0.1992
 3173SOL     OW21151   2.406   0.808  16.643 -0.4325  0.0728  0.2410
 3173SOL    HW121152   2.470   0.878  16.627  1.0306 -1.3096  0.0675
 3173SOL    HW221153   2.449   0.749  16.705  0.4922 -0.4214 -0.8800
 3174SOL     OW21154   2.704   0.830  13.956  0.2307 -0.1116 -0.1239
 3174SOL    HW121155   2.779   0.829  14.016 -0.9242 -2.3861  1.2650
 3174SOL    HW221156   2.687   0.922  13.936  0.2766 -0.1575 -0.3709
 3175SOL     OW21157   3.513   3.653   9.433 -0.4333 -0.0170  0.6757
 3175SOL    HW121158   3.565   3.574   9.423 -0.3858  0.2389 -1.1434
 3175SOL    HW221159   3.549   3.688   9.515  2.2018  0.7781 -0.7977
 3176SOL     OW21160   1.643   2.536   5.859  0.5653  0.1166 -0.3191
 3176SOL    HW121161   1.730   2.558   5.825  0.5595 -0.2631 -0.5752
 3176SOL    HW221162   1.600   2.490   5.787 -1.2432  1.6789 -0.2492
 3177SOL     OW21163   3.780   1.696   6.360  0.0534 -0.4727 -0.0358
 3177SOL    HW121164   3.728   1.776   6.369  2.7947  1.1622  1.3975
 3177SOL    HW221165   3.779   1.683   6.265  0.6412 -0.5503 -0.0327
 3178SOL     OW21166   2.724   2.324   4.941  0.0386 -0.3525  0.8173
 3178SOL    HW121167   2.770   2.402   4.973 -1.8468  2.0310 -2.3393
 3178SOL    HW221168   2.784   2.305   4.870  0.5817 -0.3750  1.2813
 3179SOL     OW21169   3.819   4.344   5.273 -0.2294  0.2599  0.3439
 3179SOL    HW121170   3.839   4.291   5.195 -1.6316  1.0602 -0.5521
 3179SOL    HW221171   3.857   4.291   5.343 -0.0102  1.8680  1.4193
 3180SOL     OW21172   1.096   0.483   4.671  0.3478 -0.1484 -0.5257
 3180SOL    HW121173   1.132   0.426   4.740 -1.5883 -2.6393 -1.6088
 3180SOL    HW221174   1.133   0.444   4.592  0.3604 -0.7668 -0.2112
 3181SOL     OW21175   2.015   1.557   4.762  0.0940 -0.5090  0.0006
 3181SOL    HW121176   2.002   1.643   4.721  1.1897 -0.5008 -0.3530
 3181SOL    HW221177   1.922   1.536   4.763  0.1524 -0.8002 -0.9103
 3182SOL     OW21178   3.415   2.734   1.788  0.3124 -0.3831 -0.0308
 3182SOL    HW121179   3.461   2.782   1.856 -1.1448  1.4308 -0.3272
 3182SOL    HW221180   3.359   2.804   1.754  1.4191 -0.0908 -1.2565
 3183SOL     OW21181   1.263   1.282   8.513 -0.2679  0.2022  0.1440
 3183SOL    HW121182   1.182   1.331   8.525 -0.6719 -0.8144  1.6270
 3183SOL    HW221183   1.333   1.343   8.535 -0.3302 -0.0645  1.0935
 3184SOL     OW21184   3.865   3.343  15.831  0.2825 -0.0154 -0.7548
 3184SOL    HW121185   3.875   3.343  15.736 -2.6355 -0.7334 -1.0417
 3184SOL    HW221186   3.843   3.252  15.847  3.4850 -0.4699  1.1936
 3185SOL     OW21187   0.368   2.950  11.993 -0.2110  0.0520 -0.2732
 3185SOL    HW121188   0.339   3.033  12.031 -0.3003  0.0193 -0.2714
 3185SOL    HW221189   0.349   2.900  12.072 -0.7544 -0.0933 -0.4994
 3186SOL     OW21190   1.244   3.973   5.833 -0.4541 -0.4118  0.4346
 3186SOL    HW121191   1.151   3.997   5.832  0.0350  1.3384 -2.1811
 3186SOL    HW221192   1.270   4.032   5.904  2.5567  0.3009 -1.2421
 3187SOL     OW21193   0.450   1.739   2.906 -0.0748  0.0244  0.4819
 3187SOL    HW121194   0.454   1.833   2.892  0.9324  0.0544  0.9520
 3187SOL    HW221195   0.357   1.718   2.900 -0.1213  0.7951 -1.4303
 3188SOL     OW21196   2.020   1.546   3.332  0.6055  0.5350 -0.0823
 3188SOL    HW121197   1.986   1.485   3.266 -0.1555  0.3409  0.4985
 3188SOL    HW221198   2.007   1.632   3.291 -0.1367  0.4125 -0.0915
 3189SOL     OW21199   2.875   1.934  13.711 -0.2838 -0.3015  0.3903
 3189SOL    HW121200   2.807   1.885  13.665 -1.2670  1.3127  0.1428
 3189SOL    HW221201   2.906   1.995  13.644 -1.5008  0.8419  0.8729
 3190SOL     OW21202   1.577   1.049   4.052 -0.8468 -0.4085  0.3158
 3190SOL    HW121203   1.661   1.095   4.044 -2.6127  2.8280  0.3628
 3190SOL    HW221204   1.605   0.958   4.042 -0.9473 -0.4785  0.6467
 3191SOL     OW21205   2.215   0.223  11.060  0.1899  0.1648 -0.2097
 3191SOL    HW121206   2.309   0.209  11.069  0.0212  0.9494  2.6982
 3191SOL    HW221207   2.199   0.199  10.969 -1.8211 -0.6420  0.3398
 3192SOL     OW21208   4.403   3.652   4.910  0.1904  0.2329  0.9485
 3192SOL    HW121209   4.318   3.609   4.923 -0.3963  1.7691  2.2122
 3192SOL    HW221210   4.391   3.745   4.927  1.5017  1.0645 -2.6570
 3193SOL     OW21211   3.477   3.827  11.410  0.3014 -0.3649  0.3197
 3193SOL    HW121212   3.477   3.744  11.362 -1.4505  0.8979 -1.8580
 3193SOL    HW221213   3.524   3.889  11.354 -0.0884 -1.0759 -0.7976
 3194SOL     OW21214   1.264   3.444   9.026 -0.6831  0.1490 -0.3133
 3194SOL    HW121215   1.262   3.349   9.013 -1.1545 -0.1652  1.9223
 3194SOL    HW221216   1.173   3.470   9.043 -1.0419 -1.3681  0.1496
 3195SOL     OW21217   0.762   3.518   9.472 -0.6209 -0.2063  0.1580
 3195SOL    HW121218   0.823   3.587   9.447  0.5108 -0.9471  0.8600
 3195SOL    HW221219   0.759   3.453   9.402 -2.3577  1.0423 -0.9119
 3196SOL     OW21220   0.599   4.299   3.388 -0.3771 -0.7071  0.3393
 3196SOL    HW121221   0.681   4.303   3.436 -0.9170  0.0835  1.1891
 3196SOL    HW221222   0.626   4.285   3.297 -2.8222 -0.7282 -0.4003
 3197SOL     OW21223   3.670   3.342   7.644  0.1085  0.3389 -0.5903
 3197SOL    HW121224   3.620   3.391   7.578  1.5594 -0.0659 -1.9846
 3197SOL    HW221225   3.687   3.414   7.705 -0.0886  1.0433 -1.3648
 3198SOL     OW21226   0.487   3.201   4.393  0.1791 -0.2059  0.1631
 3198SOL    HW121227   0.485   3.119   4.443  0.9294  0.0179  0.5531
 3198SOL    HW221228   0.397   3.233   4.391  0.8736  1.5938 -2.1936
 3199SOL     OW21229   4.287   2.940   3.897 -0.0135 -0.1021 -0.0444
 3199SOL    HW121230   4.373   2.903   3.913 -0.7765 -2.1918 -0.8523
 3199SOL    HW221231   4.280   2.981   3.811 -0.6795  3.0579  1.4808
 3200SOL     OW21232   1.071   4.666   7.480  0.1832 -0.2025 -0.3561
 3200SOL    HW121233   0.991   4.660   7.532  0.8807  0.7754  0.8206
 3200SOL    HW221234   1.136   4.661   7.549  0.3325 -0.1024 -0.4908
 3201SOL     OW21235   1.722   3.510   5.646 -0.5836 -0.1777 -0.1180
 3201SOL    HW121236   1.674   3.528   5.565 -0.2483  0.4787 -0.1712
 3201SOL    HW221237   1.728   3.602   5.674 -1.0995  0.1088 -0.9411
 3202SOL     OW21238   0.825   2.299  10.937  1.0602  0.3772 -0.7841
 3202SOL    HW121239   0.889   2.348  10.989 -0.8892  0.2714  1.7569
 3202SOL    HW221240   0.766   2.285  11.012  1.3300  1.6549 -0.3356
 3203SOL     OW21241   1.664   4.058   5.192  0.1130 -0.4682 -0.1762
 3203SOL    HW121242   1.605   4.069   5.118  1.8824  0.1211 -1.4978
 3203SOL    HW221243   1.706   3.974   5.172  1.6153  0.2862 -0.1861
 3204SOL     OW21244   3.206   1.099   4.226 -0.7889  0.0073  0.3345
 3204SOL    HW121245   3.189   1.056   4.310  0.7718 -1.0449  0.1259
 3204SOL    HW221246   3.301   1.112   4.224 -0.5142 -2.2132 -1.3296
 3205SOL     OW21247   2.459   0.641   7.347 -0.0986  0.3418 -0.1457
 3205SOL    HW121248   2.543   0.678   7.374 -0.1283  0.3853 -0.1140
 3205SOL    HW221249   2.405   0.720   7.341  2.1293  2.0472  2.0918
 3206SOL     OW21250   3.877   4.241   1.763  0.2039  0.2963 -0.1099
 3206SOL    HW121251   3.876   4.334   1.786 -0.2700  0.3859 -0.4718
 3206SOL    HW221252   3.860   4.249   1.669 -0.6822  4.8025  0.4512
 3207SOL     OW21253   4.542   3.688   5.301  0.0170 -0.3055 -0.4750
 3207SOL    HW121254   4.466   3.642   5.263  0.6616  0.2458 -2.4313
 3207SOL    HW221255   4.574   3.615   5.354  1.4203 -1.5646 -3.0405
 3208SOL     OW21256   3.161   3.814   8.305 -0.0312  0.4456 -0.3945
 3208SOL    HW121257   3.139   3.733   8.260 -1.9557  0.0079  1.2985
 3208SOL    HW221258   3.097   3.868   8.258  3.1020  1.4393 -3.4691
 3209SOL     OW21259   0.075   0.154   4.140  0.0732 -0.3738  0.1752
 3209SOL    HW121260   0.024   0.234   4.150  1.9750  0.7967  0.5330
 3209SOL    HW221261   0.013   0.110   4.082 -1.8101 -0.0621  1.9256
 3210SOL     OW21262   4.443   2.388   8.907  0.0281  0.0254 -0.2889
 3210SOL    HW121263   4.465   2.379   9.000  0.2795 -2.5251 -0.5929
 3210SOL    HW221264   4.507   2.334   8.861 -1.4827 -3.0065  1.2149
 3211SOL     OW21265   3.989   3.592   9.622 -0.7248 -0.1325 -0.0909
 3211SOL    HW121266   4.005   3.551   9.536  1.8462 -0.4590  0.5151
 3211SOL    HW221267   4.063   3.653   9.623 -0.6658 -0.2399  2.4352
 3212SOL     OW21268   2.434   0.416   1.135  0.2279  0.0238 -0.4240
 3212SOL    HW121269   2.444   0.445   1.226 -0.5861 -0.7639 -0.0870
 3212SOL    HW221270   2.462   0.484   1.074 -1.0230  0.4968 -0.4776
 3213SOL     OW21271   2.548   1.122   5.472  0.4404  0.1697 -0.0102
 3213SOL    HW121272   2.643   1.120   5.467  0.1793 -1.1915 -4.1254
 3213SOL    HW221273   2.539   1.193   5.408  1.8133 -1.1994 -1.6901
 3214SOL     OW21274   1.623   2.941  15.234 -0.4790 -0.5352 -0.2075
 3214SOL    HW121275   1.531   2.969  15.234  0.0760  1.2515  2.1996
 3214SOL    HW221276   1.664   3.009  15.182 -0.9913  1.4370  1.9880
 3215SOL     OW21277   0.870   0.427   3.744  0.3470  0.1344 -0.4420
 3215SOL    HW121278   0.866   0.353   3.683  0.1570 -0.7819  0.6929
 3215SOL    HW221279   0.868   0.501   3.684 -1.3242  0.7329  0.3584
 3216SOL     OW21280   3.179   3.857   5.028  0.1965 -0.4921  0.1455
 3216SOL    HW121281   3.119   3.921   5.067  0.2723 -0.1177 -0.3580
 3216SOL    HW221282   3.180   3.792   5.098 -1.3245 -0.3726  0.2859
 3217SOL     OW21283   0.372   4.509   5.899  0.0663 -0.2685  0.1479
 3217SOL    HW121284   0.343   4.598   5.883  3.1779  0.4801 -1.4429
 3217SOL    HW221285   0.302   4.455   5.935  0.8230 -0.2385  1.6724
 3218SOL     OW21286   4.016   0.747   4.454 -0.3217 -0.1003 -0.0063
 3218SOL    HW121287   4.112   0.745   4.460 -0.3920 -1.5627  0.6118
 3218SOL    HW221288   4.009   0.726   4.361  2.4547 -1.7758  0.1488
 3219SOL     OW21289   0.923   4.454   3.198  0.1285 -0.3454  0.2226
 3219SOL    HW121290   0.962   4.454   3.111 -2.5650  1.4438 -1.0029
 3219SOL    HW221291   0.852   4.519   3.199  0.8581  0.4700 -1.3239
 3220SOL     OW21292   0.169   3.919   7.090  0.0567  0.1164 -0.0874
 3220SOL    HW121293   0.244   3.866   7.117  0.1279 -0.2610 -1.0152
 3220SOL    HW221294   0.099   3.854   7.098  0.9094 -0.8613 -0.5677
 3221SOL     OW21295   0.779   0.631  11.187  0.1838 -0.2384  0.0205
 3221SOL    HW121296   0.844   0.676  11.132 -1.9251  0.3821 -1.9904
 3221SOL    HW221297   0.839   0.572  11.232 -0.5647  1.1829  2.8809
 3222SOL     OW21298   2.016   2.419   1.209  0.2807 -0.0966 -0.5857
 3222SOL    HW121299   1.925   2.389   1.210  0.4583 -0.7126 -2.6344
 3222SOL    HW221300   2.057   2.389   1.128  0.9045 -0.6007 -0.0802
 3223SOL     OW21301   1.016   2.115   6.579 -0.0579  0.1097  0.1715
 3223SOL    HW121302   0.961   2.136   6.654  1.6122  0.4502  1.2988
 3223SOL    HW221303   0.974   2.032   6.554  0.0743  0.2640 -0.5780
 3224SOL     OW21304   3.313   0.332   3.350  0.7613 -0.1084  0.3218
 3224SOL    HW121305   3.221   0.305   3.347  0.7618 -0.2767  1.6331
 3224SOL    HW221306   3.307   0.425   3.328  0.2460 -0.3380 -0.5135
 3225SOL     OW21307   4.361   3.105   5.426 -0.8341 -0.3564  0.4616
 3225SOL    HW121308   4.382   3.199   5.429  0.3595 -0.6171  0.2929
 3225SOL    HW221309   4.386   3.097   5.518 -0.4315  0.0495  0.3862
 3226SOL     OW21310   3.253   2.220  11.202  0.4233 -0.1953  0.7026
 3226SOL    HW121311   3.333   2.185  11.162 -0.1907 -1.1750  0.3381
 3226SOL    HW221312   3.232   2.161  11.274  2.1838 -1.3510  0.2873
 3227SOL     OW21313   1.039   3.379   4.480  0.2614 -0.2123 -0.0795
 3227SOL    HW121314   0.978   3.448   4.457 -1.5688 -1.9250 -0.3981
 3227SOL    HW221315   1.086   3.360   4.399 -0.4775 -0.2165 -0.5025
 3228SOL     OW21316   1.799   1.481   4.578  0.4749 -0.0731  0.0751
 3228SOL    HW121317   1.759   1.449   4.497  1.3058 -1.1405  0.0818
 3228SOL    HW221318   1.829   1.568   4.553  0.7186  0.0822  0.9098
 3229SOL     OW21319   2.204   1.543   3.513  0.5186  0.2241 -0.3753
 3229SOL    HW121320   2.196   1.451   3.536  0.8120 -0.2559 -2.2286
 3229SOL    HW221321   2.149   1.544   3.435 -1.7990  0.9738  1.2528
 3230SOL     OW21322   3.812   1.782   5.005  0.5565 -0.3005  0.1003
 3230SOL    HW121323   3.771   1.781   5.091 -0.2527 -2.2018 -0.3032
 3230SOL    HW221324   3.783   1.857   4.954 -0.1978 -2.7378 -3.0092
 3231SOL     OW21325   1.393   2.459   3.990  0.2017 -0.0894 -0.2692
 3231SOL    HW121326   1.418   2.369   3.967 -0.1389 -0.3388  0.3384
 3231SOL    HW221327   1.352   2.445   4.075  0.9203 -2.0740 -0.2436
 3232SOL     OW21328   2.156   1.379   7.558 -0.3080 -0.6671 -0.2209
 3232SOL    HW121329   2.138   1.473   7.547 -1.0500 -0.9310 -1.2667
 3232SOL    HW221330   2.213   1.378   7.635  0.9607 -1.0196 -1.1861
 3233SOL     OW21331   4.562   4.581   9.437  0.7030  0.0954  0.4427
 3233SOL    HW121332   4.591   4.668   9.409 -1.1622  0.9373  1.1320
 3233SOL    HW221333   4.543   4.535   9.354 -1.6059  0.1026  0.9472
 3234SOL     OW21334   4.446   4.711   1.395  0.4257 -0.1705 -0.3089
 3234SOL    HW121335   4.478   0.020   1.473  0.0566  2.3487 -1.6424
 3234SOL    HW221336   4.355   4.692   1.418  0.3418 -0.8490 -1.2232
 3235SOL     OW21337   2.479   0.886   1.991 -0.3348 -0.3276 -0.3752
 3235SOL    HW121338   2.444   0.927   2.070  0.6349  0.8966 -0.5896
 3235SOL    HW221339   2.407   0.834   1.955 -1.5696  1.6684 -0.7746
 3236SOL     OW21340   4.666   3.190  11.844 -0.1719 -0.5907  0.4748
 3236SOL    HW121341   4.657   3.215  11.752  0.8041 -3.0486 -0.2945
 3236SOL    HW221342   0.001   3.244  11.878 -0.7419 -1.3758  2.9577
 3237SOL     OW21343   4.129   3.254   9.225 -0.5057 -0.7096  0.5883
 3237SOL    HW121344   4.069   3.181   9.239  1.0794 -1.8943  1.0847
 3237SOL    HW221345   4.086   3.320   9.169  0.1321 -1.7276 -1.1002
 3238SOL     OW21346   0.765   0.360  16.010  0.1383  0.1278  0.0784
 3238SOL    HW121347   0.765   0.339  16.104  1.1832  1.1626  0.3120
 3238SOL    HW221348   0.734   0.279  15.971 -1.2085  1.2902 -1.2799
 3239SOL     OW21349   3.809   3.316  13.962 -0.5587  0.6710 -0.1306
 3239SOL    HW121350   3.841   3.232  13.929  1.1470  0.1848  2.7482
 3239SOL    HW221351   3.716   3.296  13.970 -0.1567 -1.2967 -0.1823
 3240SOL     OW21352   0.507   1.044   4.565 -0.5589  0.7315  0.0614
 3240SOL    HW121353   0.477   0.972   4.510 -0.1564 -0.9290  2.0341
 3240SOL    HW221354   0.591   1.016   4.600 -1.1751 -0.7103  0.3677
 3241SOL     OW21355   2.377   0.323   8.781  0.1838  0.1333 -0.1042
 3241SOL    HW121356   2.349   0.240   8.741 -0.3862 -0.1153  0.8056
 3241SOL    HW221357   2.312   0.382   8.742 -1.2979  0.0262  2.2113
 3242SOL     OW21358   2.672   1.174   7.177 -0.1461  0.3855 -0.3530
 3242SOL    HW121359   2.740   1.192   7.241 -1.5525  2.9024  0.4216
 3242SOL    HW221360   2.604   1.240   7.194 -0.2550 -0.3677  2.0593
 3243SOL     OW21361   1.880   1.483  14.639  0.2641  0.5024  0.2356
 3243SOL    HW121362   1.862   1.448  14.726  3.1220 -0.8572  0.2876
 3243SOL    HW221363   1.975   1.494  14.640  0.1548  1.7996 -2.2515
 3244SOL     OW21364   4.262   2.265   9.916 -0.1124 -0.2532 -0.0020
 3244SOL    HW121365   4.265   2.360   9.909 -0.3953 -0.1210  1.6449
 3244SOL    HW221366   4.187   2.251   9.859 -1.7793  0.7787  1.9704
 3245SOL     OW21367   0.739   0.722   6.793 -0.4167  0.8027  0.2919
 3245SOL    HW121368   0.683   0.768   6.855  1.0914 -1.0770  3.0315
 3245SOL    HW221369   0.722   0.775   6.715  0.7563  2.8001  1.3976
 3246SOL     OW21370   3.005   4.697  13.794  0.0274 -0.5306  0.6068
 3246SOL    HW121371   2.947   0.036  13.806  1.1544  0.5198 -0.6407
 3246SOL    HW221372   3.040   4.684  13.882 -0.6956  0.2643  1.0196
 3247SOL     OW21373   1.178   3.704   7.592  0.2048 -0.4013  0.5782
 3247SOL    HW121374   1.242   3.663   7.650 -0.9552 -0.0144  2.1082
 3247SOL    HW221375   1.157   3.632   7.533 -0.6576  0.1434  0.2209
 3248SOL     OW21376   3.423   1.657   3.486  0.4284 -0.7364  0.8326
 3248SOL    HW121377   3.453   1.566   3.478 -1.3620 -1.3119  0.7229
 3248SOL    HW221378   3.346   1.651   3.543  0.9025 -1.7110  1.3755
 3249SOL     OW21379   2.803   1.414   5.245 -0.6208  0.1261 -0.2310
 3249SOL    HW121380   2.827   1.507   5.243  2.0551 -0.6202 -2.0756
 3249SOL    HW221381   2.804   1.394   5.339 -0.4418  0.3655 -0.1830
 3250SOL     OW21382   2.371   3.707   9.221 -0.1294 -0.0501  0.3431
 3250SOL    HW121383   2.278   3.684   9.213 -0.1062  1.1906 -3.5487
 3250SOL    HW221384   2.384   3.726   9.314 -1.1110 -0.8576  0.6502
 3251SOL     OW21385   0.076   3.464   7.036  0.3718 -0.4893  0.3621
 3251SOL    HW121386   0.028   3.403   6.981  0.3252 -0.0357 -0.1021
 3251SOL    HW221387   0.141   3.405   7.073 -1.1089 -3.5259 -1.9283
 3252SOL     OW21388   2.801   0.043   7.191 -0.2757 -0.3298 -0.3844
 3252SOL    HW121389   2.749   0.123   7.176  1.0194  0.4402 -0.7524
 3252SOL    HW221390   2.752   0.009   7.266 -1.7903  2.1709 -0.2321
 3253SOL     OW21391   3.214   1.095   0.504  0.2766  0.0590  0.1782
 3253SOL    HW121392   3.304   1.119   0.529  1.1058 -0.9893 -1.9030
 3253SOL    HW221393   3.228   1.084   0.411 -0.9249  0.1932 -0.0187
 3254SOL     OW21394   2.147   2.839   5.916 -0.5203  0.0287 -0.0573
 3254SOL    HW121395   2.117   2.912   5.970  0.3214 -0.3882  0.9780
 3254SOL    HW221396   2.122   2.875   5.831  0.8899 -0.3664 -0.6420
 3255SOL     OW21397   2.158   1.854   7.089  0.0864  0.0841 -0.2553
 3255SOL    HW121398   2.174   1.847   6.994  0.0024  1.9873 -0.3943
 3255SOL    HW221399   2.065   1.872   7.083 -0.2318 -1.0038  1.3904
 3256SOL     OW21400   0.382   0.339  16.534 -0.0960  0.7288  0.5861
 3256SOL    HW121401   0.384   0.435  16.534  0.3278  0.7242 -1.9786
 3256SOL    HW221402   0.367   0.307  16.445 -1.9838 -0.8005  1.4658
 3257SOL     OW21403   1.415   0.613   2.862  0.0298 -0.3422  0.3802
 3257SOL    HW121404   1.384   0.702   2.879  0.8211 -0.2932  1.5348
 3257SOL    HW221405   1.388   0.609   2.770  0.1182  0.3411  0.3231
 3258SOL     OW21406   0.429   4.701   2.153 -0.6233  0.5119 -0.2113
 3258SOL    HW121407   0.408   4.665   2.067 -3.4371 -0.5029  0.9127
 3258SOL    HW221408   0.357   4.669   2.207 -2.2532  0.7962 -2.2174
 3259SOL     OW21409   1.064   2.513  12.928  0.2164 -0.5995 -0.6712
 3259SOL    HW121410   1.097   2.440  12.981  2.7063  1.3499  0.4861
 3259SOL    HW221411   1.147   2.561  12.920 -0.8593  0.9859 -2.4205
 3260SOL     OW21412   3.311   4.077   2.789 -0.7053  0.0428  0.7900
 3260SOL    HW121413   3.255   4.056   2.863  0.0681 -2.8292  0.5854
 3260SOL    HW221414   3.338   3.990   2.759 -2.4844  0.6732 -2.6637
 3261SOL     OW21415   4.409   3.074   8.416  0.4115 -0.1629 -0.2482
 3261SOL    HW121416   4.439   3.153   8.460  0.7657  0.1423 -1.0305
 3261SOL    HW221417   4.468   3.000   8.427 -1.8964 -1.9864 -0.1281
 3262SOL     OW21418   2.710   4.111   7.798  0.2463  0.4314 -0.2278
 3262SOL    HW121419   2.691   4.051   7.871 -1.3670  2.7476  1.2359
 3262SOL    HW221420   2.713   4.047   7.726  1.8686  1.3508 -0.9871
 3263SOL     OW21421   0.577   2.683   7.253 -0.4063 -0.1199 -0.1352
 3263SOL    HW121422   0.482   2.699   7.253 -0.4842 -0.5576  1.7063
 3263SOL    HW221423   0.612   2.766   7.223  0.4358  0.0427  1.2789
 3264SOL     OW21424   1.311   1.873  16.752  0.1268  0.0929 -0.3999
 3264SOL    HW121425   1.342   1.797  16.801 -1.9926 -2.0893 -2.4486
 3264SOL    HW221426   1.325   1.953  16.803 -0.4876 -0.0464 -0.0166
 3265SOL     OW21427   1.407   2.819  15.455  0.0130  0.3266  0.2788
 3265SOL    HW121428   1.423   2.726  15.439 -1.3066  0.0659  0.4487
 3265SOL    HW221429   1.361   2.814  15.539 -3.1690  1.5835 -1.3723
 3266SOL     OW21430   4.273   0.890   6.343 -0.0284  0.0505  0.2880
 3266SOL    HW121431   4.353   0.841   6.360 -1.0507 -1.0134  1.9629
 3266SOL    HW221432   4.279   0.971   6.393  3.6671 -0.1530  0.1574
 3267SOL     OW21433   3.533   0.603   3.832  0.8047  0.2703  0.1477
 3267SOL    HW121434   3.484   0.615   3.914  2.4310 -1.1042  1.3043
 3267SOL    HW221435   3.620   0.605   3.871  2.0968  1.2998 -2.7594
 3268SOL     OW21436   2.890   1.375   5.514 -0.0681  0.0620 -0.1988
 3268SOL    HW121437   2.838   1.373   5.594  0.4977 -0.3959  0.1553
 3268SOL    HW221438   2.962   1.432   5.538 -1.0491  1.0340  0.4218
 3269SOL     OW21439   1.872   3.114   6.282 -0.2262 -0.5288 -0.6257
 3269SOL    HW121440   1.928   3.092   6.207 -0.1504  0.4211 -0.8451
 3269SOL    HW221441   1.791   3.143   6.239  1.2731  0.5717 -2.6973
 3270SOL     OW21442   2.171   1.246   3.177 -0.3087 -0.9928 -0.4180
 3270SOL    HW121443   2.148   1.327   3.132 -3.2415 -0.6551  1.6858
 3270SOL    HW221444   2.083   1.226   3.210 -0.0181 -3.2454 -1.0181
 3271SOL     OW21445   0.023   2.181   8.086 -0.2234  0.7192 -0.0553
 3271SOL    HW121446   0.017   2.096   8.129  0.4805 -0.0797 -1.5339
 3271SOL    HW221447   4.668   2.199   8.063 -0.4497  0.5846  0.7408
 3272SOL     OW21448   1.671   2.056   7.621 -0.1401 -0.0708 -0.3899
 3272SOL    HW121449   1.675   2.098   7.535 -0.8605 -0.0069 -0.3856
 3272SOL    HW221450   1.766   2.043   7.629 -0.0866  1.3020  1.1857
 3273SOL     OW21451   2.384   2.018   8.289 -0.1651 -0.2064  0.0587
 3273SOL    HW121452   2.451   2.029   8.357  0.9909 -0.5122 -1.0364
 3273SOL    HW221453   2.340   1.938   8.318  0.8287 -1.6042 -2.3776
 3274SOL     OW21454   2.233   0.632   6.347  0.6316 -0.0901  0.6439
 3274SOL    HW121455   2.173   0.576   6.300 -0.1371  1.2844 -0.0192
 3274SOL    HW221456   2.183   0.621   6.428  1.5509 -0.7569  1.1175
 3275SOL     OW21457   1.664   4.163  11.058 -0.2930 -0.2910 -0.0265
 3275SOL    HW121458   1.627   4.251  11.051 -0.8829 -0.7343 -2.3550
 3275SOL    HW221459   1.698   4.161  11.147 -2.0823  1.9014  0.7042
 3276SOL     OW21460   4.256   4.125   9.362 -0.1371 -0.2672 -0.2704
 3276SOL    HW121461   4.218   4.213   9.357 -1.4419 -0.8444 -0.4191
 3276SOL    HW221462   4.183   4.086   9.410 -0.4727  2.5562  1.5796
 3277SOL     OW21463   0.299   4.080   2.132  0.2116 -0.4200  0.6601
 3277SOL    HW121464   0.282   4.050   2.043 -1.2802  0.4251  0.6727
 3277SOL    HW221465   0.380   4.130   2.122  0.0211 -0.0532  0.9354
 3278SOL     OW21466   0.573   3.811   2.296  0.0235  0.3911  0.9519
 3278SOL    HW121467   0.654   3.805   2.346 -0.3289  0.0003  1.4744
 3278SOL    HW221468   0.599   3.743   2.234  0.1302  0.8237  0.5233
 3279SOL     OW21469   2.480   1.932  16.208 -0.3644 -0.7875  0.0187
 3279SOL    HW121470   2.429   1.963  16.133 -1.1174 -1.5727  0.1955
 3279SOL    HW221471   2.400   1.892  16.243 -0.9956  0.3214 -0.1563
 3280SOL     OW21472   3.281   3.452   8.420 -0.4305  0.0428 -0.3477
 3280SOL    HW121473   3.296   3.516   8.490  1.6206 -1.2378  0.3818
 3280SOL    HW221474   3.251   3.377   8.470  3.1932  0.2736  2.1958
 3281SOL     OW21475   4.560   1.033   7.054  0.3734 -0.1248 -0.1898
 3281SOL    HW121476   4.583   0.982   6.977  0.1536  0.3652 -0.5840
 3281SOL    HW221477   4.466   1.017   7.047  0.3646  0.1339 -0.6297
 3282SOL     OW21478   1.681   2.413   3.748 -0.3542 -0.1403 -0.2208
 3282SOL    HW121479   1.763   2.398   3.795  1.2375  1.2079 -2.5839
 3282SOL    HW221480   1.641   2.331   3.777 -0.8342  0.3775  0.5847
 3283SOL     OW21481   0.246   2.285   0.051  0.5425 -0.3022 -0.4737
 3283SOL    HW121482   0.206   2.221  17.737 -0.3075 -1.5669  1.4571
 3283SOL    HW221483   0.301   2.328  17.731  0.7595  0.1138 -0.0151
 3284SOL     OW21484   2.464   1.127   1.613  0.5532  0.2555  0.2006
 3284SOL    HW121485   2.375   1.162   1.624  0.4823  0.2191 -0.2244
 3284SOL    HW221486   2.503   1.182   1.544  1.9414  1.7262  2.1628
 3285SOL     OW21487   1.174   0.461   2.548 -0.1874  0.1109 -0.3036
 3285SOL    HW121488   1.191   0.555   2.558  0.1049  0.0539 -0.2775
 3285SOL    HW221489   1.122   0.459   2.467  1.4525 -2.1161 -1.2883
 3286SOL     OW21490   2.804   2.648   7.532 -0.0669 -0.0264 -0.1208
 3286SOL    HW121491   2.726   2.704   7.541  0.8171  1.1631  0.1751
 3286SOL    HW221492   2.787   2.581   7.598 -0.6416 -1.2792 -1.5594
 3287SOL     OW21493   3.521   4.495   1.433  0.2672 -0.3893  0.4928
 3287SOL    HW121494   3.600   4.501   1.488 -0.5737 -1.7340  1.8431
 3287SOL    HW221495   3.479   4.580   1.449  0.4983 -0.2051  0.1105
 3288SOL     OW21496   2.803   0.271   6.059 -0.0298 -0.0082  0.0860
 3288SOL    HW121497   2.754   0.353   6.065  2.8078  1.6243  1.1880
 3288SOL    HW221498   2.789   0.240   5.969  1.6428  2.8821 -1.1535
 3289SOL     OW21499   2.467   1.199  13.191  0.7665 -0.0712 -0.0607
 3289SOL    HW121500   2.521   1.248  13.253  0.5346  0.9943 -0.7031
 3289SOL    HW221501   2.445   1.119  13.239 -0.2803 -0.1949 -0.7535
 3290SOL     OW21502   2.958   1.580   4.188  0.2385  0.4359  0.4432
 3290SOL    HW121503   3.008   1.507   4.153 -1.3414  1.2729 -3.5823
 3290SOL    HW221504   2.907   1.612   4.113  3.6149  1.6095 -1.3533
 3291SOL     OW21505   2.115   3.809   8.232  0.1351 -0.0007 -0.4814
 3291SOL    HW121506   2.142   3.720   8.206  2.6086  1.0607 -1.5298
 3291SOL    HW221507   2.102   3.787   8.324 -0.8286 -0.5182 -0.7337
 3292SOL     OW21508   0.317   4.631   1.908  0.3195  0.7813 -0.5426
 3292SOL    HW121509   0.293   4.543   1.879 -0.5694  1.1100 -0.7962
 3292SOL    HW221510   0.231   4.672   1.900 -0.1796  0.1412  1.5866
 3293SOL     OW21511   0.872   0.240   1.157  0.1918 -0.4608  0.4992
 3293SOL    HW121512   0.877   0.180   1.231 -2.1844 -0.4039  0.6777
 3293SOL    HW221513   0.949   0.295   1.174 -0.2250  0.6309 -1.2002
 3294SOL     OW21514   1.383   0.900   2.802  0.3724  0.7096  0.3323
 3294SOL    HW121515   1.291   0.890   2.777  0.5136 -1.4689  0.7000
 3294SOL    HW221516   1.422   0.890   2.715 -1.0793  1.0243 -0.3569
 3295SOL     OW21517   0.135   0.915   6.384 -0.1753  0.3688 -0.3236
 3295SOL    HW121518   0.050   0.959   6.393  0.9450  2.2746  0.8486
 3295SOL    HW221519   0.118   0.844   6.322  0.0384  0.3659 -0.3796
 3296SOL     OW21520   0.729   1.728   2.797  0.1077  0.3474  0.3753
 3296SOL    HW121521   0.660   1.793   2.789 -0.5194 -0.7863 -3.5733
 3296SOL    HW221522   0.728   1.714   2.892 -1.5390 -0.5433  0.2120
 3297SOL     OW21523   3.642   0.775  17.703 -0.0275  0.3955  0.6292
 3297SOL    HW121524   3.581   0.834   0.000 -0.0017  0.7072  0.2321
 3297SOL    HW221525   3.634   0.695   0.010  0.2841 -0.3252 -0.4127
 3298SOL     OW21526   4.044   3.283   1.674 -0.2971  0.1345  0.6837
 3298SOL    HW121527   3.995   3.341   1.617  0.4546  1.3114  1.2248
 3298SOL    HW221528   4.080   3.343   1.739  0.1145  0.1368  0.4524
 3299SOL     OW21529   0.125   0.744   9.077  0.3319  0.6429  0.0526
 3299SOL    HW121530   0.041   0.721   9.117 -0.0260 -0.8089 -1.5474
 3299SOL    HW221531   0.111   0.833   9.043  1.6084  1.6519  2.1623
 3300SOL     OW21532   1.571   3.909   3.815  0.1772  0.2554  0.0965
 3300SOL    HW121533   1.524   3.952   3.886  0.9780  1.5740 -0.1672
 3300SOL    HW221534   1.592   3.988   3.764  0.6742  0.0805  0.0227
 3301SOL     OW21535   2.548   3.663  14.279  0.0902  0.2774 -0.0384
 3301SOL    HW121536   2.614   3.628  14.339  2.7607  1.2492 -2.3985
 3301SOL    HW221537   2.473   3.607  14.298  0.1099  0.5988  0.9751
 3302SOL     OW21538   2.965   2.423   7.177  0.1329  0.4527  0.1701
 3302SOL    HW121539   3.054   2.413   7.208  1.5231  2.0159 -3.3261
 3302SOL    HW221540   2.930   2.491   7.234 -0.0507  0.8280 -0.3889
 3303SOL     OW21541   0.462   3.138   6.044  0.0591  0.2693 -0.2260
 3303SOL    HW121542   0.461   3.202   5.974 -2.0939  1.5849  0.9979
 3303SOL    HW221543   0.545   3.095   6.025 -0.4133 -0.6896 -0.1250
 3304SOL     OW21544   2.120   0.475  11.062  0.7660 -0.2407 -0.2767
 3304SOL    HW121545   2.150   0.387  11.042  0.8454 -0.1512 -0.5428
 3304SOL    HW221546   2.058   0.497  10.993  1.5425  1.3242 -0.4830
 3305SOL     OW21547   0.332   2.323   2.833  0.1058  0.1532 -0.1452
 3305SOL    HW121548   0.385   2.347   2.910 -2.1101 -0.8546  1.6932
 3305SOL    HW221549   0.254   2.377   2.847 -1.1986 -1.7018 -0.3244
 3306SOL     OW21550   4.379   1.593   2.342 -0.0426 -0.0271  0.3768
 3306SOL    HW121551   4.360   1.571   2.251 -0.4979 -1.0114  0.7093
 3306SOL    HW221552   4.287   1.593   2.370  0.8216  0.4519  3.1576
 3307SOL     OW21553   1.067   0.203   8.204 -0.5426  0.3794  0.4391
 3307SOL    HW121554   1.152   0.159   8.200 -1.4771 -1.3011 -0.6193
 3307SOL    HW221555   1.012   0.125   8.216 -1.2640  1.1046  1.8522
 3308SOL     OW21556   3.359   1.185   2.599  0.8458  0.5050 -0.2659
 3308SOL    HW121557   3.430   1.144   2.549  1.5142 -0.3155  1.3466
 3308SOL    HW221558   3.395   1.205   2.686 -3.2766 -0.8696  1.7482
 3309SOL     OW21559   0.189   3.500   5.841 -0.4016 -0.7154  0.0649
 3309SOL    HW121560   0.162   3.515   5.932 -2.3928 -0.8015 -0.5183
 3309SOL    HW221561   0.123   3.545   5.788 -0.3871  1.6986  2.0797
 3310SOL     OW21562   1.928   1.424   2.882 -0.6456  0.4316 -0.7928
 3310SOL    HW121563   1.892   1.398   2.967  0.0656  2.8778  0.2631
 3310SOL    HW221564   1.992   1.358   2.855  0.0409  0.9779 -0.5224
 3311SOL     OW21565   0.935   4.617  14.499 -0.2589 -0.0247 -0.4667
 3311SOL    HW121566   0.964   4.663  14.577  1.3615  0.6078 -1.4407
 3311SOL    HW221567   0.976   4.533  14.519  0.6567  0.0125 -2.1875
 3312SOL     OW21568   2.135   4.463  10.892 -0.2657  0.3050  0.6000
 3312SOL    HW121569   2.131   4.474  10.987  1.5682  0.2064  0.6870
 3312SOL    HW221570   2.148   4.554  10.866 -0.1990  0.1835  0.2163
 3313SOL     OW21571   1.907   0.952   3.885  0.0837  0.0950 -0.2699
 3313SOL    HW121572   1.840   0.932   3.820 -3.4177  0.9769  3.0775
 3313SOL    HW221573   1.950   0.867   3.891  2.5209  1.2356 -1.4441
 3314SOL     OW21574   1.355   2.914   5.628 -0.1675  0.1060 -0.4896
 3314SOL    HW121575   1.426   2.977   5.618  2.2244 -2.4427  0.4527
 3314SOL    HW221576   1.371   2.886   5.718 -3.3834 -2.2226 -0.6525
 3315SOL     OW21577   1.226   1.798   2.280  0.1539 -0.2422  1.0020
 3315SOL    HW121578   1.193   1.728   2.337  0.7366 -2.1146 -0.9305
 3315SOL    HW221579   1.153   1.855   2.257  0.5572  0.3493  1.2036
 3316SOL     OW21580   1.940   1.342  11.355 -0.2149  0.1017 -0.6604
 3316SOL    HW121581   1.991   1.262  11.366 -0.7675 -0.2714 -0.8238
 3316SOL    HW221582   1.855   1.304  11.378 -0.2678  0.0471 -0.9492
 3317SOL     OW21583   1.209   4.273  10.328 -0.0710 -0.2513 -0.4996
 3317SOL    HW121584   1.209   4.192  10.379  0.4852 -0.8576 -1.4541
 3317SOL    HW221585   1.196   4.235  10.241  0.9194 -0.3568 -0.6068
 3318SOL     OW21586   2.404   3.648  16.126 -0.2309 -0.6550  0.0393
 3318SOL    HW121587   2.339   3.615  16.188 -0.3837 -0.4761 -0.0252
 3318SOL    HW221588   2.474   3.583  16.127  0.8105  0.4503 -1.3189
 3319SOL     OW21589   1.276   2.651   7.934  0.1256  0.3666  0.0115
 3319SOL    HW121590   1.355   2.706   7.941 -0.7716  1.8335 -1.2980
 3319SOL    HW221591   1.307   2.576   7.883  2.3621  1.8991 -0.8866
 3320SOL     OW21592   1.039   2.640   1.255  0.1626 -0.0173 -0.0551
 3320SOL    HW121593   0.946   2.628   1.236 -0.0935 -0.0662  1.2357
 3320SOL    HW221594   1.044   2.593   1.338 -0.3042 -0.5598 -0.3330
 3321SOL     OW21595   0.098   0.294   6.462 -0.0376  0.2624  0.3285
 3321SOL    HW121596   0.121   0.361   6.525 -1.3363 -0.6291  1.7492
 3321SOL    HW221597   0.160   0.311   6.390  0.2384 -1.2475  0.1941
 3322SOL     OW21598   2.826   2.674  15.713  0.1016 -0.0656 -0.4677
 3322SOL    HW121599   2.790   2.710  15.794  0.7484  1.9216 -1.0638
 3322SOL    HW221600   2.871   2.597  15.747  1.6951  0.7490 -0.7447
 3323SOL     OW21601   0.511   1.334   3.207 -0.0859  0.3477  0.1831
 3323SOL    HW121602   0.451   1.406   3.230 -0.3312  0.4102 -0.6346
 3323SOL    HW221603   0.450   1.263   3.189 -1.1895  1.3690 -0.1336
 3324SOL     OW21604   4.009   1.564   7.053  0.5513  0.0861  0.1714
 3324SOL    HW121605   3.917   1.586   7.065  0.0506 -2.1785  0.4638
 3324SOL    HW221606   4.011   1.476   7.090  1.5927 -0.6151 -1.5371
 3325SOL     OW21607   3.852   3.058   6.647  0.2287 -0.3079  0.0665
 3325SOL    HW121608   3.928   3.000   6.657  0.5441  0.1292  0.1843
 3325SOL    HW221609   3.793   2.996   6.690 -1.4287  0.3798 -1.1996
 3326SOL     OW21610   1.947   1.242   1.758 -0.6289  0.0673  0.1562
 3326SOL    HW121611   1.965   1.292   1.838  1.2774 -2.4126  1.2713
 3326SOL    HW221612   1.932   1.153   1.790  1.0749 -1.0980 -2.2944
 3327SOL     OW21613   1.582   4.066   9.309  0.3337  0.9737 -0.2443
 3327SOL    HW121614   1.583   4.156   9.341 -2.5329  0.3817  1.5348
 3327SOL    HW221615   1.500   4.075   9.261 -0.6207  3.0619  1.7999
 3328SOL     OW21616   2.657   1.924   6.164  0.1285  0.3706 -0.2947
 3328SOL    HW121617   2.576   1.959   6.199  0.1829  1.1927 -0.9929
 3328SOL    HW221618   2.667   1.966   6.078 -0.7376  0.9411 -0.1124
 3329SOL     OW21619   3.615   0.162   6.979 -0.0868 -0.0020 -0.4645
 3329SOL    HW121620   3.627   0.257   6.974  1.6197 -0.1878  0.1247
 3329SOL    HW221621   3.530   0.160   7.023 -0.2277 -4.3834 -0.8972
 3330SOL     OW21622   1.640   4.350   4.983  0.2229 -0.0411 -0.1835
 3330SOL    HW121623   1.650   4.361   5.078  0.7437 -0.5560 -0.1777
 3330SOL    HW221624   1.727   4.358   4.944  1.5713 -2.1995  2.3787
 3331SOL     OW21625   0.909   0.024   6.089  0.0741  0.0216 -0.7120
 3331SOL    HW121626   0.864   0.066   6.016 -2.4986 -1.2459  0.1548
 3331SOL    HW221627   0.929   0.095   6.150 -0.0011  0.7320 -1.5057
 3332SOL     OW21628   3.487   1.744   4.208 -0.1169 -0.0525  0.2018
 3332SOL    HW121629   3.449   1.786   4.285 -0.0439 -0.0430  0.2325
 3332SOL    HW221630   3.414   1.709   4.157  1.0487  0.3040 -1.7159
 3333SOL     OW21631   3.070   0.877  10.096 -0.1790 -0.6159 -0.2422
 3333SOL    HW121632   3.080   0.796  10.146 -0.5926  0.7903  2.1175
 3333SOL    HW221633   3.141   0.928  10.133  1.6926 -1.5072 -2.5501
 3334SOL     OW21634   3.550   3.190   4.125  0.0688  0.0895  0.3202
 3334SOL    HW121635   3.569   3.284   4.123  0.9999 -0.0724  2.7739
 3334SOL    HW221636   3.639   3.157   4.132 -0.5953 -1.2916  2.0711
 3335SOL     OW21637   4.478   1.876   3.676 -0.0710  0.4579  0.0781
 3335SOL    HW121638   4.526   1.796   3.655 -0.1972 -0.1577  2.1893
 3335SOL    HW221639   4.530   1.952   3.650  0.0811  0.6764  1.0182
 3336SOL     OW21640   1.027   3.064   8.650 -0.1322  0.3810  0.6306
 3336SOL    HW121641   1.032   3.159   8.660  0.0224  0.5579 -1.0033
 3336SOL    HW221642   0.966   3.070   8.576 -0.5054  0.2605  0.9304
 3337SOL     OW21643   1.067   2.900   2.413  0.1248  0.2313 -0.2898
 3337SOL    HW121644   0.986   2.946   2.389 -1.3495 -2.0078  0.3989
 3337SOL    HW221645   1.128   2.973   2.427 -0.1968  0.5245 -0.4014
 3338SOL     OW21646   3.985   0.236   2.628  0.8783  0.5829 -0.3400
 3338SOL    HW121647   3.926   0.310   2.644 -2.2531 -2.4846  2.6059
 3338SOL    HW221648   3.963   0.184   2.706  1.9074  0.4875 -0.1148
 3339SOL     OW21649   2.775   0.650   4.904  0.2373  0.4684 -0.2022
 3339SOL    HW121650   2.741   0.701   4.830  0.3801 -0.1950 -0.7176
 3339SOL    HW221651   2.800   0.723   4.961  1.6823  1.6104 -2.3385
 3340SOL     OW21652   2.291   0.994  16.819  0.3973  0.5932  0.4192
 3340SOL    HW121653   2.318   0.929  16.754  4.4976  0.6223  2.0986
 3340SOL    HW221654   2.364   0.999  16.880  0.3192  4.1058  0.2171
 3341SOL     OW21655   4.459   1.901   5.778 -0.3148  0.5133  0.0224
 3341SOL    HW121656   4.552   1.897   5.803 -0.4117  0.9451  0.4442
 3341SOL    HW221657   4.468   1.894   5.683  0.4142 -0.2519  0.1411
 3342SOL     OW21658   2.934   2.565   9.060 -0.5650 -0.0250  0.1638
 3342SOL    HW121659   2.909   2.596   9.147  0.2494  0.3414  0.2695
 3342SOL    HW221660   3.008   2.624   9.044  1.0981 -1.5270  2.3030
 3343SOL     OW21661   1.539   1.723   9.785 -0.4333  0.1257  0.1690
 3343SOL    HW121662   1.590   1.786   9.734  0.5042  0.0893  1.0610
 3343SOL    HW221663   1.608   1.676   9.832  0.7462  0.2262 -1.4583
 3344SOL     OW21664   4.161   4.107   1.753 -0.2113 -0.5409  0.3278
 3344SOL    HW121665   4.069   4.133   1.760 -0.4960 -2.1771  2.4670
 3344SOL    HW221666   4.203   4.193   1.762 -0.6916 -0.4474  1.6779
 3345SOL     OW21667   0.027   1.317  12.441 -0.8758 -0.4277  0.4619
 3345SOL    HW121668   4.719   1.232  12.433 -0.8020 -0.1893 -2.4347
 3345SOL    HW221669   4.705   1.368  12.385  0.6591  0.2603 -0.5480
 3346SOL     OW21670   0.514   2.397   1.940 -0.2540 -0.6596 -0.8888
 3346SOL    HW121671   0.490   2.435   2.024  0.9530  0.7031 -1.1373
 3346SOL    HW221672   0.451   2.439   1.881 -2.3641 -0.1535  1.7413
 3347SOL     OW21673   1.304   0.118   6.162 -0.3059 -0.3761 -0.3323
 3347SOL    HW121674   1.271   0.028   6.171  2.5980 -1.2540  1.4708
 3347SOL    HW221675   1.316   0.140   6.254  0.3248 -2.1355  0.0125
 3348SOL     OW21676   1.994   4.397   7.504  0.0642  0.4130  0.0342
 3348SOL    HW121677   1.917   4.438   7.465  0.1875  0.5908 -0.0214
 3348SOL    HW221678   2.043   4.470   7.542  1.9697 -0.6355 -0.4137
 3349SOL     OW21679   4.314   1.496   1.286  0.6403 -0.2259  0.0038
 3349SOL    HW121680   4.410   1.499   1.279  0.7369 -2.6187  0.4226
 3349SOL    HW221681   4.306   1.511   1.380 -2.2193  0.8456 -0.4157
 3350SOL     OW21682   2.432   3.524   7.852  0.2036  0.1563  0.1065
 3350SOL    HW121683   2.477   3.467   7.790  0.4210  0.3354  0.1019
 3350SOL    HW221684   2.479   3.606   7.841  0.7334  0.1983  2.6812
 3351SOL     OW21685   0.647   0.703  11.954 -0.2020  0.3831 -0.3483
 3351SOL    HW121686   0.609   0.758  11.886  1.8146 -0.1322 -1.8828
 3351SOL    HW221687   0.668   0.628  11.899 -1.7525 -0.1099 -0.2690
 3352SOL     OW21688   4.631   4.335   4.208 -0.5460  0.0970 -0.0059
 3352SOL    HW121689   4.713   4.345   4.256  0.1431 -3.5944 -0.4317
 3352SOL    HW221690   4.585   4.262   4.250 -0.6461  0.5700  0.7129
 3353SOL     OW21691   1.312   1.244  15.841 -0.5995 -0.6703  0.4112
 3353SOL    HW121692   1.311   1.188  15.763 -1.8372 -0.7832  0.5052
 3353SOL    HW221693   1.260   1.313  15.800 -1.0713 -2.5253 -2.1200
 3354SOL     OW21694   1.187   2.534   9.624 -0.2922 -0.1660  0.5947
 3354SOL    HW121695   1.225   2.621   9.622  1.7605 -1.0302  1.8753
 3354SOL    HW221696   1.264   2.486   9.655 -0.7369 -1.7065 -0.6482
 3355SOL     OW21697   2.401   2.305  16.379 -0.0564  0.5386 -0.1620
 3355SOL    HW121698   2.310   2.279  16.362  0.4399 -1.1056 -0.3109
 3355SOL    HW221699   2.426   2.348  16.298 -0.0576  0.7315 -0.0602
 3356SOL     OW21700   1.706   2.605  16.554  0.0564  0.0926  0.0116
 3356SOL    HW121701   1.780   2.623  16.496 -0.8049  1.6472 -0.6074
 3356SOL    HW221702   1.664   2.691  16.550  2.2518  1.1343 -0.9385
 3357SOL     OW21703   3.414   2.263   6.558  0.1314  0.2838  0.0641
 3357SOL    HW121704   3.336   2.221   6.595  0.4226 -2.0013 -1.9554
 3357SOL    HW221705   3.457   2.309   6.630  1.1599 -0.0793 -0.3268
 3358SOL     OW21706   2.825   0.561   7.767 -0.1542 -0.3002 -0.0103
 3358SOL    HW121707   2.895   0.500   7.791  0.6907  0.3389 -0.8339
 3358SOL    HW221708   2.826   0.559   7.671  1.0800 -0.5769  0.0042
 3359SOL     OW21709   2.258   2.367  11.351  0.2298  0.0863 -0.2562
 3359SOL    HW121710   2.234   2.360  11.443  0.0854  2.7295 -0.0800
 3359SOL    HW221711   2.179   2.414  11.324  0.1679 -0.1930 -0.5652
 3360SOL     OW21712   4.386   0.507  12.482 -0.3573  0.2884 -0.3388
 3360SOL    HW121713   4.426   0.562  12.549  0.1203  0.4903 -0.7904
 3360SOL    HW221714   4.340   0.568  12.425 -0.5061  2.1111  1.7413
 3361SOL     OW21715   3.588   0.435   3.617  0.0620  0.4798  0.1746
 3361SOL    HW121716   3.531   0.510   3.602 -1.3472 -0.1989  2.2189
 3361SOL    HW221717   3.526   0.364   3.634 -0.7306  1.1849  0.2004
 3362SOL     OW21718   0.668   4.723  11.148 -0.1850  0.5878  0.0347
 3362SOL    HW121719   0.666   0.064  11.203 -3.0696  0.6521 -0.1638
 3362SOL    HW221720   0.578   4.732  11.118 -0.0564  1.7162 -0.0188
 3363SOL     OW21721   4.600   4.065   5.917 -0.5424  0.3651  0.4738
 3363SOL    HW121722   4.657   4.005   5.965 -1.8750 -1.6848 -0.4934
 3363SOL    HW221723   4.605   4.151   5.958  1.1364  0.6028 -0.2512
 3364SOL     OW21724   1.204   2.002   1.189 -0.3284 -0.2756 -0.9597
 3364SOL    HW121725   1.190   1.957   1.272  1.5713 -0.5193 -0.7730
 3364SOL    HW221726   1.265   1.944   1.143 -0.2247 -1.0615  0.1795
 3365SOL     OW21727   3.753   2.564  14.056  0.0932 -0.4530 -0.3592
 3365SOL    HW121728   3.818   2.530  13.994  1.1458  0.5439  0.2017
 3365SOL    HW221729   3.802   2.642  14.079  0.6743 -1.8176  2.9683
 3366SOL     OW21730   1.740   4.291   6.247 -0.2267 -0.5004  0.1139
 3366SOL    HW121731   1.786   4.253   6.322 -0.4118 -0.7913  0.0812
 3366SOL    HW221732   1.675   4.224   6.224 -0.8601  0.7676 -1.7776
 3367SOL     OW21733   4.481   4.167   8.845 -0.9922  0.1470 -0.2193
 3367SOL    HW121734   4.532   4.237   8.886  0.5593 -1.1499  0.0545
 3367SOL    HW221735   4.533   4.089   8.863  0.1620  0.4360 -2.3127
 3368SOL     OW21736   3.566   3.267   8.858  0.0822  0.6511  0.6620
 3368SOL    HW121737   3.629   3.246   8.789 -0.4688  1.5169 -0.1198
 3368SOL    HW221738   3.510   3.343   8.839  0.4095 -0.0185 -2.9936
 3369SOL     OW21739   2.151   0.375   2.815  0.4893  0.3401 -0.2162
 3369SOL    HW121740   2.121   0.352   2.903 -0.1090  0.7466 -0.3184
 3369SOL    HW221741   2.123   0.466   2.818 -0.5431  0.0165 -0.1027
 3370SOL     OW21742   2.488   0.542   3.668 -0.3016 -0.3443  0.2463
 3370SOL    HW121743   2.447   0.596   3.601 -3.4026 -1.5785  1.1149
 3370SOL    HW221744   2.541   0.477   3.621 -0.8127  0.5475 -1.5831
 3371SOL     OW21745   4.233   4.019   0.900 -0.9288  0.5427 -0.3197
 3371SOL    HW121746   4.327   4.031   0.913 -0.7671  1.9545 -2.9718
 3371SOL    HW221747   4.241   3.965   0.822 -0.4231  0.2134 -0.0462
 3372SOL     OW21748   4.116   4.557   4.100  0.1394 -0.3198 -0.3061
 3372SOL    HW121749   4.063   4.618   4.048  1.1109  0.4188 -0.4317
 3372SOL    HW221750   4.142   4.604   4.179 -1.5265  0.0004  0.0484
 3373SOL     OW21751   3.758   4.071   9.729  0.1869 -0.6635  0.4500
 3373SOL    HW121752   3.708   4.071   9.648 -1.3733  0.3193  1.4147
 3373SOL    HW221753   3.777   4.161   9.755  1.3454 -0.8597  0.2952
 3374SOL     OW21754   2.072   4.614  12.904  0.9306 -0.0318 -1.1906
 3374SOL    HW121755   2.037   4.690  12.858  0.7952  1.2816  1.0605
 3374SOL    HW221756   2.152   4.656  12.934  1.9619 -2.2422 -0.8962
 3375SOL     OW21757   4.076   2.541   5.641 -0.0306  0.1541  0.5919
 3375SOL    HW121758   4.039   2.603   5.579 -1.5245  0.6546  1.9795
 3375SOL    HW221759   4.171   2.548   5.626  0.0870 -0.1505  1.2112
 3376SOL     OW21760   3.998   3.843  15.659  0.0302 -0.2055  0.0549
 3376SOL    HW121761   4.016   3.833  15.565 -3.8614  0.6922 -0.8122
 3376SOL    HW221762   3.942   3.766  15.672  1.7981 -1.5751 -0.2949
 3377SOL     OW21763   4.091   2.350  13.600 -0.2469 -0.0324 -0.1273
 3377SOL    HW121764   4.140   2.423  13.563 -0.4127  0.9541  1.5761
 3377SOL    HW221765   4.005   2.371  13.562  0.7538  1.9732 -1.2465
 3378SOL     OW21766   3.600   0.806   2.870 -0.1569 -0.3201  0.6614
 3378SOL    HW121767   3.678   0.751   2.864  0.8826  1.0343  1.5704
 3378SOL    HW221768   3.550   0.742   2.920  0.9969 -0.7741  1.2326
 3379SOL     OW21769   4.012   1.312   4.066 -0.0316  0.3174  0.3817
 3379SOL    HW121770   4.055   1.391   4.099 -0.6050  0.3119  1.1420
 3379SOL    HW221771   4.089   1.258   4.047 -1.0240 -1.0541  0.3040
 3380SOL     OW21772   3.888   3.158   5.858  0.0083  0.0916 -0.1969
 3380SOL    HW121773   3.937   3.150   5.940 -1.5859 -1.6169  0.5914
 3380SOL    HW221774   3.874   3.252   5.849 -1.6944 -0.3533 -2.2398
 3381SOL     OW21775   0.336   3.925  17.094  0.1964 -0.4869  0.2632
 3381SOL    HW121776   0.382   3.991  17.145  2.3378 -0.0333 -2.2558
 3381SOL    HW221777   0.267   3.897  17.154 -0.6371 -1.7656 -1.2983
 3382SOL     OW21778   0.610   3.249   2.152  0.6304  0.0032  0.0559
 3382SOL    HW121779   0.515   3.250   2.168  1.0188 -0.3735  2.4297
 3382SOL    HW221780   0.627   3.219   2.063 -2.2867  0.4798 -0.6693
 3383SOL     OW21781   4.011   2.840   4.252  0.5942  0.2343 -0.5336
 3383SOL    HW121782   3.937   2.816   4.308  0.1943  0.0154 -1.1445
 3383SOL    HW221783   4.026   2.935   4.252 -1.4767  0.5538 -0.0473
 3384SOL     OW21784   2.236   0.757   8.972  0.5227  0.7352 -0.0666
 3384SOL    HW121785   2.308   0.716   8.924 -1.0257 -0.3247 -1.4819
 3384SOL    HW221786   2.261   0.730   9.060 -0.7358 -4.3158 -1.2865
 3385SOL     OW21787   1.392   2.113  13.960  0.3208  0.1618  0.2094
 3385SOL    HW121788   1.409   2.165  14.038 -1.4846  0.3879  0.4661
 3385SOL    HW221789   1.307   2.149  13.934 -1.0416 -2.7667  0.5985
 3386SOL     OW21790   3.479   1.332  11.029 -0.0052 -0.0464  0.1952
 3386SOL    HW121791   3.428   1.352  10.950 -3.1910 -3.7831  1.3143
 3386SOL    HW221792   3.528   1.253  11.010  0.4322  0.2034  0.2885
 3387SOL     OW21793   1.493   4.599   5.993 -0.3735 -0.5597 -0.2169
 3387SOL    HW121794   1.539   4.681   6.008  0.9850 -0.8785 -2.7348
 3387SOL    HW221795   1.568   4.551   5.958  0.0680 -1.4224  1.9185
 3388SOL     OW21796   2.471   1.660   8.259 -0.0930 -0.0805 -0.3856
 3388SOL    HW121797   2.530   1.713   8.312  0.8151 -1.6108  0.1619
 3388SOL    HW221798   2.385   1.694   8.284 -0.8680 -1.1511 -1.5953
 3389SOL     OW21799   2.721   3.095   6.406  0.2099  0.6796  0.1270
 3389SOL    HW121800   2.756   3.123   6.321  1.6630  0.6601  0.7180
 3389SOL    HW221801   2.789   3.033   6.434  0.8657  0.6905 -1.4038
 3390SOL     OW21802   1.452   2.565   5.234  0.7970 -0.3027 -0.2902
 3390SOL    HW121803   1.450   2.627   5.161 -0.5092 -0.8232 -0.7044
 3390SOL    HW221804   1.512   2.618   5.287 -2.6137  2.6371  0.6954
 3391SOL     OW21805   3.101   2.581   4.459  0.1727  0.8992 -0.5808
 3391SOL    HW121806   3.049   2.514   4.504  2.4941 -0.9148 -0.6254
 3391SOL    HW221807   3.146   2.616   4.536 -1.7096 -1.5228  1.6204
 3392SOL     OW21808   1.506   1.417   7.696 -0.0632  0.8028  0.0516
 3392SOL    HW121809   1.508   1.362   7.774 -0.3598  1.8073  0.7766
 3392SOL    HW221810   1.411   1.428   7.686 -0.1700 -0.3955 -0.1830
 3393SOL     OW21811   1.496   4.629   7.999 -0.4132  0.5499 -0.4155
 3393SOL    HW121812   1.410   4.588   8.000 -0.2234  0.1566 -0.2615
 3393SOL    HW221813   1.502   4.642   7.904 -3.7688 -4.0926 -1.2311
 3394SOL     OW21814   4.726   1.581   7.497  0.0480 -0.3541  0.1876
 3394SOL    HW121815   4.650   1.595   7.441 -0.2456  0.7275  0.8476
 3394SOL    HW221816   4.699   1.624   7.578  0.9872  2.2551 -0.8686
 3395SOL     OW21817   1.173   1.708  12.772  0.6689 -0.3370 -0.1979
 3395SOL    HW121818   1.157   1.744  12.684  2.1647  2.4642  0.6788
 3395SOL    HW221819   1.089   1.698  12.817  1.4469 -5.1750  0.1638
 3396SOL     OW21820   3.981   2.271   5.627 -0.5080 -0.1979 -0.5038
 3396SOL    HW121821   4.040   2.203   5.660 -0.0300 -0.4186 -1.7953
 3396SOL    HW221822   4.035   2.349   5.634 -1.3945  0.3563  0.0814
 3397SOL     OW21823   1.643   2.120   7.211  0.1531 -0.8327  0.3043
 3397SOL    HW121824   1.558   2.155   7.239  0.9438  0.3613  1.2260
 3397SOL    HW221825   1.623   2.028   7.193  2.8480 -1.5019  0.7260
 3398SOL     OW21826   3.563   1.062   2.925 -0.5801  0.3882 -0.2121
 3398SOL    HW121827   3.618   1.109   2.862  0.0382  1.3108  1.0340
 3398SOL    HW221828   3.580   0.972   2.896 -0.3921  0.5173 -0.5073
 3399SOL     OW21829   2.147   3.404  15.242 -0.1123  0.4143  0.2097
 3399SOL    HW121830   2.105   3.484  15.211  0.0296  0.6688  0.6622
 3399SOL    HW221831   2.198   3.372  15.168  0.4365 -0.0682  0.7967
 3400SOL     OW21832   1.223   0.209  13.654  0.1688 -0.0316 -0.0031
 3400SOL    HW121833   1.289   0.222  13.722  2.0549 -2.7698 -1.3464
 3400SOL    HW221834   1.198   0.118  13.670  1.1018  0.4424  4.0112
 3401SOL     OW21835   0.870   2.247  12.993  0.5421  0.2194 -0.0686
 3401SOL    HW121836   0.943   2.260  13.053 -1.0923  2.0618  1.4787
 3401SOL    HW221837   0.794   2.232  13.049  1.6352 -0.1246  1.3154
 3402SOL     OW21838   1.103   3.839   2.150  0.1455 -0.6044  0.3249
 3402SOL    HW121839   1.043   3.804   2.216  0.0434 -0.6428  0.2098
 3402SOL    HW221840   1.086   3.770   2.086  0.0331 -1.0019  0.7797
 3403SOL     OW21841   1.129   3.451   6.289 -0.6272 -0.3094  0.0794
 3403SOL    HW121842   1.222   3.469   6.275 -1.1513  3.3688  1.4898
 3403SOL    HW221843   1.127   3.356   6.302 -0.9352 -0.3586 -0.3172
 3404SOL     OW21844   2.311   2.507   6.206 -0.3476 -0.5182 -0.4241
 3404SOL    HW121845   2.248   2.573   6.236  1.8307  0.9992  0.8360
 3404SOL    HW221846   2.256   2.429   6.193 -1.7727  0.6265 -1.1901
 3405SOL     OW21847   0.875   2.811   6.700  0.1834  0.0995  0.5050
 3405SOL    HW121848   0.814   2.778   6.765 -1.1234 -0.0828 -0.8342
 3405SOL    HW221849   0.867   2.906   6.710 -2.0223  0.0575 -1.0386
 3406SOL     OW21850   4.236   3.570   8.471 -0.1648  0.1545 -0.5667
 3406SOL    HW121851   4.298   3.565   8.398 -0.9793  4.1623 -1.5608
 3406SOL    HW221852   4.225   3.665   8.482  2.9091  0.5098 -0.6052
 3407SOL     OW21853   3.609   0.164   0.578 -0.6800  0.2341 -0.0515
 3407SOL    HW121854   3.567   0.160   0.492 -0.8729  0.7246  0.0197
 3407SOL    HW221855   3.693   0.125   0.554 -0.4842  0.8297 -0.3404
 3408SOL     OW21856   0.132   2.127   6.765  0.0883 -0.0043  0.1361
 3408SOL    HW121857   0.058   2.067   6.773  1.2242 -1.4004  0.2942
 3408SOL    HW221858   0.163   2.119   6.855  1.2479  1.8054 -0.1161
 3409SOL     OW21859   1.924   3.587   8.700 -0.3944  1.0457  0.1321
 3409SOL    HW121860   1.833   3.584   8.669 -0.4419 -0.6540  0.4366
 3409SOL    HW221861   1.925   3.657   8.765 -3.2938  0.3893  0.8746
 3410SOL     OW21862   4.494   4.237   8.424 -0.5292  0.2079  0.2493
 3410SOL    HW121863   4.479   4.184   8.346 -0.8914  1.0041 -0.2221
 3410SOL    HW221864   4.418   4.294   8.415 -1.1137 -0.7012 -0.5914
 3411SOL     OW21865   1.309   0.516   7.206  0.1358 -0.6364  0.0319
 3411SOL    HW121866   1.294   0.540   7.298 -0.2443 -1.2416  0.1332
 3411SOL    HW221867   1.243   0.447   7.191  1.2742 -1.7843  0.3225
 3412SOL     OW21868   3.272   0.021   0.497  0.2570 -0.5702 -0.1674
 3412SOL    HW121869   3.359   0.057   0.514 -0.0076  0.1387 -0.2949
 3412SOL    HW221870   3.218   0.099   0.510  0.3416 -0.7433  1.2538
 3413SOL     OW21871   1.031   4.569   4.836 -0.5777  0.9338  0.4262
 3413SOL    HW121872   1.070   4.544   4.920 -2.6046  0.5872  1.2735
 3413SOL    HW221873   1.100   4.558   4.771  0.4544 -0.0003  1.6834
 3414SOL     OW21874   2.631   0.300   7.248 -0.4457 -0.0236  0.8196
 3414SOL    HW121875   2.585   0.371   7.203 -1.1992  0.0271  1.6728
 3414SOL    HW221876   2.569   0.243   7.293  0.1625 -2.1059 -0.9662
 3415SOL     OW21877   0.451   2.159  15.976 -0.0116 -0.1110 -0.2407
 3415SOL    HW121878   0.448   2.210  16.057  2.7600  0.4094 -0.4463
 3415SOL    HW221879   0.440   2.235  15.918  2.1778  1.5476  1.5187
 3416SOL     OW21880   3.032   2.432  11.867  0.1818 -0.6214 -0.0691
 3416SOL    HW121881   2.977   2.379  11.809 -2.5305  2.8025 -0.6539
 3416SOL    HW221882   2.973   2.448  11.941 -0.5925  1.9711 -1.2224
 3417SOL     OW21883   1.629   1.952  12.009  0.0629  0.8757  0.1348
 3417SOL    HW121884   1.540   1.923  12.031  0.5823  0.6946  2.0247
 3417SOL    HW221885   1.683   1.882  12.045 -0.4673  0.8423  0.8793
 3418SOL     OW21886   3.544   4.688   8.021  0.6002  0.0005  0.4769
 3418SOL    HW121887   3.491   4.636   8.081 -0.3009  0.9503  0.5051
 3418SOL    HW221888   3.566   0.030   8.072 -0.0671 -0.7215  1.8631
 3419SOL     OW21889   3.579   2.618   5.735 -0.3391 -0.1041 -0.3409
 3419SOL    HW121890   3.570   2.699   5.686  0.5712  0.5556  0.5755
 3419SOL    HW221891   3.631   2.636   5.814 -0.6575 -0.3516 -0.0724
 3420SOL     OW21892   1.531   2.858   7.427 -0.5885  0.1498 -0.0472
 3420SOL    HW121893   1.603   2.869   7.489  1.1713  0.6173 -2.1338
 3420SOL    HW221894   1.578   2.842   7.344 -2.8674 -1.5968 -0.9993
 3421SOL     OW21895   4.338   3.897   1.723  0.2129 -0.3683  0.4399
 3421SOL    HW121896   4.261   3.952   1.716  1.4102  1.1686 -0.5409
 3421SOL    HW221897   4.397   3.923   1.653  0.0538  0.2988  0.5574
 3422SOL     OW21898   0.500   3.007   4.612  0.5505 -0.2238  0.0616
 3422SOL    HW121899   0.506   2.943   4.683 -2.6065 -0.1964  0.3335
 3422SOL    HW221900   0.563   3.070   4.647  1.8333 -0.7655 -1.2624
 3423SOL     OW21901   3.945   2.539   8.713 -0.1680 -0.1899 -1.3422
 3423SOL    HW121902   4.032   2.566   8.743 -2.1821  0.8411  3.6517
 3423SOL    HW221903   3.889   2.606   8.754  0.7119  0.4267 -1.1485
 3424SOL     OW21904   2.638   0.836  17.497 -0.0881 -0.6437  0.3546
 3424SOL    HW121905   2.700   0.909  17.505 -1.6397  0.3505  3.4547
 3424SOL    HW221906   2.699   0.763  17.495 -0.7715 -1.2258  0.6043
 3425SOL     OW21907   2.695   3.528   4.232  0.0893  0.3259 -0.4742
 3425SOL    HW121908   2.767   3.485   4.278 -1.3981  0.7053  2.1664
 3425SOL    HW221909   2.658   3.452   4.187  2.8375 -1.0594 -0.3983
 3426SOL     OW21910   3.389   4.270   7.774 -0.0163 -0.1867  0.1712
 3426SOL    HW121911   3.333   4.196   7.796 -0.1393 -0.3481 -0.7050
 3426SOL    HW221912   3.475   4.232   7.756 -0.0069  0.2596 -0.7447
 3427SOL     OW21913   4.269   3.505  15.079  0.2090 -0.0474  0.1569
 3427SOL    HW121914   4.176   3.510  15.060 -0.1029  0.5413  1.8389
 3427SOL    HW221915   4.302   3.515  14.989  1.2576  1.4698  0.7027
 3428SOL     OW21916   2.180   4.030   1.061  0.5599  0.2715 -0.1436
 3428SOL    HW121917   2.180   3.959   0.997 -0.0628  1.6454 -1.6745
 3428SOL    HW221918   2.238   4.091   1.015  0.1732  0.4774 -0.3564
 3429SOL     OW21919   3.573   3.463   3.732  0.1578  0.6014  0.1576
 3429SOL    HW121920   3.609   3.439   3.817  0.6746 -1.3382 -0.6054
 3429SOL    HW221921   3.538   3.548   3.759 -1.3734 -0.3567  1.2060
 3430SOL     OW21922   4.627   1.198   9.047 -0.4651 -0.0256  0.2312
 3430SOL    HW121923   4.561   1.159   9.105  0.5084  0.2684  1.5388
 3430SOL    HW221924   4.704   1.144   9.065  0.6786  2.2925  2.3475
 3431SOL     OW21925   2.549   0.120   3.121 -0.7215 -0.0033 -0.0431
 3431SOL    HW121926   2.496   0.189   3.160 -0.9515 -0.4314  0.4152
 3431SOL    HW221927   2.567   0.148   3.032 -0.1030 -0.2537  0.0054
 3432SOL     OW21928   4.693   0.376   6.178 -0.3899  0.2644 -0.1454
 3432SOL    HW121929   0.010   0.428   6.118  1.0452  0.2190  1.1019
 3432SOL    HW221930   4.736   0.291   6.170 -0.1444  0.2818  1.0409
 3433SOL     OW21931   1.692   4.211   5.772  0.7997 -0.2377  0.2054
 3433SOL    HW121932   1.696   4.188   5.679  1.9956 -2.0452  0.6962
 3433SOL    HW221933   1.617   4.159   5.802  0.9562 -0.9331 -0.5927
 3434SOL     OW21934   3.852   2.617   1.818 -0.6714 -0.6451  0.3158
 3434SOL    HW121935   3.944   2.614   1.845 -0.4478 -0.8427 -0.4818
 3434SOL    HW221936   3.804   2.653   1.893  0.3110 -1.7126  1.4459
 3435SOL     OW21937   2.882   0.793   7.579 -0.0580 -0.2727 -0.2499
 3435SOL    HW121938   2.790   0.799   7.607 -0.1980  1.0118 -0.9564
 3435SOL    HW221939   2.903   0.885   7.597 -1.7999  0.0576  0.1482
 3436SOL     OW21940   4.674   2.729   1.765 -0.7199 -0.2911 -0.3873
 3436SOL    HW121941   4.677   2.638   1.735 -0.1365 -1.5344  3.5118
 3436SOL    HW221942   0.021   2.733   1.811  0.1540 -0.2813 -1.9692
 3437SOL     OW21943   3.457   2.293   4.473 -0.2064 -0.1292  0.1724
 3437SOL    HW121944   3.482   2.310   4.564  1.2652 -0.2398 -0.2143
 3437SOL    HW221945   3.434   2.375   4.429 -2.2314  0.2023  1.8268
 3438SOL     OW21946   0.402   4.512   4.863  0.8217 -0.0313  0.2688
 3438SOL    HW121947   0.438   4.458   4.933  0.9904 -0.5860 -0.2587
 3438SOL    HW221948   0.436   4.598   4.888  1.1122 -0.1662  0.3316
 3439SOL     OW21949   4.537   1.814   4.597  0.1075 -0.0938 -0.1940
 3439SOL    HW121950   4.455   1.802   4.550  0.7468 -1.5767 -0.9218
 3439SOL    HW221951   4.499   1.876   4.660 -1.2526 -0.3952 -0.7303
 3440SOL     OW21952   2.486   1.010  16.984 -0.5449  0.2149 -0.2349
 3440SOL    HW121953   2.454   1.051  17.064  0.9763  2.8882 -0.9862
 3440SOL    HW221954   2.558   0.965  17.028  0.6245  2.4360  0.1170
 3441SOL     OW21955   4.382   3.196   9.349  0.0875  0.4806 -0.0125
 3441SOL    HW121956   4.287   3.196   9.336  0.4465 -1.9919 -2.4381
 3441SOL    HW221957   4.392   3.291   9.356 -0.0165  0.4138  1.0884
 3442SOL     OW21958   0.368   1.539   6.928  0.4188  0.2998 -0.1528
 3442SOL    HW121959   0.440   1.476   6.925  0.8271  0.7837 -0.5041
 3442SOL    HW221960   0.372   1.574   7.017 -3.2955 -1.0918  0.5394
 3443SOL     OW21961   4.362   3.424   2.502 -0.2887  0.1595  0.3547
 3443SOL    HW121962   4.388   3.471   2.581  0.0491 -0.5558  0.6672
 3443SOL    HW221963   4.366   3.492   2.435  1.3454  0.4809  0.7792
 3444SOL     OW21964   2.819   3.654   1.328 -0.0405  0.2268  0.0764
 3444SOL    HW121965   2.764   3.718   1.282  2.7775  0.8783 -2.3499
 3444SOL    HW221966   2.766   3.641   1.407 -0.3949 -1.8258 -0.5054
 3445SOL     OW21967   0.370   1.720   2.361 -0.1312  0.1675 -0.1389
 3445SOL    HW121968   0.299   1.775   2.396 -1.3272 -0.3006 -1.8265
 3445SOL    HW221969   0.367   1.633   2.401  0.9691  0.4963  0.6451
 3446SOL     OW21970   3.488   0.105   3.612  0.2944  0.0832 -0.0662
 3446SOL    HW121971   3.487   0.095   3.517 -0.9657 -0.2189 -0.0091
 3446SOL    HW221972   3.407   0.154   3.620 -0.2752 -0.8974  0.1831
 3447SOL     OW21973   3.750   1.357  16.194  0.0078  0.2158 -0.4474
 3447SOL    HW121974   3.685   1.423  16.169  0.9806  1.4655  0.3089
 3447SOL    HW221975   3.728   1.283  16.137 -0.3167 -0.1054  0.0877
 3448SOL     OW21976   4.277   4.712   5.534 -0.3601 -0.1315  0.1745
 3448SOL    HW121977   4.263   4.617   5.537  1.0282 -0.3980 -1.3555
 3448SOL    HW221978   4.322   4.719   5.618 -0.3767 -0.0684  0.1779
 3449SOL     OW21979   1.820   3.465   8.425 -0.0715 -0.3437  0.3096
 3449SOL    HW121980   1.772   3.534   8.379  1.7576 -0.9381 -2.4634
 3449SOL    HW221981   1.913   3.486   8.422 -0.1096 -0.4267 -1.2925
 3450SOL     OW21982   0.988   1.426   7.339 -0.0608 -0.3186  0.0535
 3450SOL    HW121983   0.892   1.420   7.342 -0.1867  1.2910 -1.1939
 3450SOL    HW221984   1.001   1.447   7.247  1.5332 -2.2539 -0.1529
 3451SOL     OW21985   3.025   3.855   2.096 -0.4488  0.1136 -0.0378
 3451SOL    HW121986   3.079   3.876   2.020 -1.4763  0.5054 -0.6636
 3451SOL    HW221987   3.028   3.939   2.142  2.0542 -0.1851  0.3334
 3452SOL     OW21988   0.541   3.704   8.113 -0.1428 -0.3608 -0.3595
 3452SOL    HW121989   0.594   3.736   8.040  0.7279  0.3253  0.5619
 3452SOL    HW221990   0.573   3.614   8.125  1.5102  0.0858 -1.3419
 3453SOL     OW21991   4.399   1.865   1.913  0.0097  0.9199 -0.1068
 3453SOL    HW121992   4.307   1.881   1.933 -0.7102 -2.1147 -0.9614
 3453SOL    HW221993   4.452   1.858   1.992 -1.8311 -1.4486  0.9067
 3454SOL     OW21994   3.038   1.650   3.919  0.2207 -0.2723 -0.2549
 3454SOL    HW121995   3.093   1.698   3.981 -0.1253 -2.3292  1.6411
 3454SOL    HW221996   3.036   1.706   3.841 -1.2343  0.6225  0.4306
 3455SOL     OW21997   0.629   2.263   5.805  0.1721 -0.0957  0.0971
 3455SOL    HW121998   0.713   2.225   5.830  1.1324  1.7497 -0.3231
 3455SOL    HW221999   0.631   2.348   5.850  0.3683 -1.1176  2.0298
 3456SOL     OW22000   3.020   4.404   3.521  0.2426 -0.3190 -0.0195
 3456SOL    HW122001   3.049   4.328   3.570 -0.1887  1.4203  2.8940
 3456SOL    HW222002   2.953   4.361   3.467 -0.3048 -0.7355  0.9910
 3457SOL     OW22003   3.248   3.682  13.701  0.1165  0.3687  0.1083
 3457SOL    HW122004   3.168   3.663  13.652  1.1505  2.1280 -2.2636
 3457SOL    HW222005   3.212   3.694  13.789  0.4344 -3.0954  0.7140
 3458SOL     OW22006   0.871   4.211   2.887 -0.4088  0.2795 -0.0726
 3458SOL    HW122007   0.919   4.216   2.805 -1.7377  0.8526 -0.8292
 3458SOL    HW222008   0.939   4.179   2.945  0.0025  1.8518  0.3323
 3459SOL     OW22009   2.571   4.208   6.978  0.1891  0.0256  0.3447
 3459SOL    HW122010   2.611   4.191   7.063 -0.9432 -0.0569  0.8525
 3459SOL    HW222011   2.486   4.247   6.997  1.7801  2.8284  1.7026
 3460SOL     OW22012   3.193   4.147  11.203 -0.5126 -0.2159  0.0839
 3460SOL    HW122013   3.229   4.178  11.120  0.6275 -2.9121 -0.4062
 3460SOL    HW222014   3.235   4.061  11.197  1.5253  0.7333  0.6226
 3461SOL     OW22015   3.954   0.999   6.541 -0.1409  0.0514  0.5155
 3461SOL    HW122016   4.049   0.986   6.535  0.0189  1.8081 -0.5630
 3461SOL    HW222017   3.945   1.084   6.584  0.4832 -0.0714  0.8869
 3462SOL     OW22018   2.438   4.055  10.791 -0.1121 -0.1042 -0.0833
 3462SOL    HW122019   2.344   4.047  10.771 -0.6093  1.5896  1.5196
 3462SOL    HW222020   2.466   3.964  10.797  0.2775  0.0694  0.7261
 3463SOL     OW22021   0.426   0.772  11.265  0.0674  0.0813 -0.2321
 3463SOL    HW122022   0.392   0.853  11.305 -0.7839 -0.1935 -0.3872
 3463SOL    HW222023   0.347   0.724  11.241  0.6099 -1.1209  0.4035
 3464SOL     OW22024   0.815   3.062  13.182  0.4370 -0.0554  0.5630
 3464SOL    HW122025   0.868   3.089  13.257 -2.1279  0.1359  2.3393
 3464SOL    HW222026   0.884   3.034  13.123  1.6166 -0.4527  2.1345
 3465SOL     OW22027   2.159   2.591   5.821 -0.1510 -0.5934  0.8784
 3465SOL    HW122028   2.168   2.550   5.907  0.0327 -0.3890  0.9555
 3465SOL    HW222029   2.145   2.682   5.848  0.0459  0.2348 -1.7949
 3466SOL     OW22030   1.660   3.408   8.866 -0.1801  0.4780  0.5723
 3466SOL    HW122031   1.647   3.499   8.836 -0.5273  0.4967  0.7788
 3466SOL    HW222032   1.702   3.373   8.787  1.2706  0.5504  1.3264
 3467SOL     OW22033   1.484   3.184   4.959 -0.5779 -0.8399 -0.1125
 3467SOL    HW122034   1.424   3.258   4.967 -1.2635 -1.2011 -1.7091
 3467SOL    HW222035   1.547   3.196   5.029 -0.2395 -0.0586 -0.5639
 3468SOL     OW22036   1.389   0.268   3.976  0.3971  0.5493 -0.3884
 3468SOL    HW122037   1.452   0.302   4.040 -1.4606  0.6750  1.3503
 3468SOL    HW222038   1.440   0.214   3.915 -1.7571 -0.0589 -1.6218
 3469SOL     OW22039   4.397   1.160   1.144  0.2338  0.1921  0.3066
 3469SOL    HW122040   4.471   1.112   1.107 -0.5441  0.7244 -1.9744
 3469SOL    HW222041   4.397   1.115   1.228 -0.3547  0.2325  0.3251
 3470SOL     OW22042   4.258   1.312   5.566  0.0750 -0.1399 -0.1731
 3470SOL    HW122043   4.282   1.228   5.528  0.1915 -0.4954  0.6849
 3470SOL    HW222044   4.190   1.342   5.506  0.2743  0.5620 -0.0482
 3471SOL     OW22045   3.548   1.405   3.525 -0.7068 -0.0593 -0.3485
 3471SOL    HW122046   3.494   1.328   3.540 -0.4858 -0.6539 -2.5682
 3471SOL    HW222047   3.609   1.362   3.465  2.3404  1.7027  1.4876
 3472SOL     OW22048   3.387   0.447   6.687  0.2447 -0.7129  0.1286
 3472SOL    HW122049   3.395   0.451   6.782  1.1935 -2.2512  0.1209
 3472SOL    HW222050   3.460   0.498   6.650 -0.4794  1.2229  1.3819
 3473SOL     OW22051   2.921   3.395   1.774  0.2363 -0.5755 -0.1599
 3473SOL    HW122052   2.828   3.374   1.766  0.3952 -1.4912  0.3654
 3473SOL    HW222053   2.918   3.490   1.773  1.5899 -0.5434  0.0084
 3474SOL     OW22054   4.333   2.689   9.192  0.1566 -0.3126 -0.0579
 3474SOL    HW122055   4.328   2.772   9.144 -0.0438 -0.9653 -1.1571
 3474SOL    HW222056   4.248   2.646   9.194  0.2199 -0.4918 -1.4483
 3475SOL     OW22057   1.826   2.997   2.318  0.0521  0.2015 -0.1297
 3475SOL    HW122058   1.732   3.002   2.339  0.3468  1.2689  0.9465
 3475SOL    HW222059   1.835   2.916   2.267 -0.7205  0.4902 -0.7317
 3476SOL     OW22060   3.438   0.948   0.054  0.2425 -0.1309 -0.0470
 3476SOL    HW122061   3.433   1.043   0.062  1.4160 -0.2036  1.4045
 3476SOL    HW222062   3.360   0.930   0.001  1.1761  1.1273 -1.8185
 3477SOL     OW22063   4.479   1.606   3.975  0.0671  0.1881 -0.0742
 3477SOL    HW122064   4.536   1.539   4.011 -0.9136 -0.8784 -0.4868
 3477SOL    HW222065   4.530   1.684   3.998 -0.4847  0.3297  0.6663
 3478SOL     OW22066   4.056   2.653   4.462  0.3255 -0.0658 -0.1851
 3478SOL    HW122067   3.966   2.662   4.431 -0.0408 -3.9808 -0.2841
 3478SOL    HW222068   4.056   2.737   4.508  0.3576  0.4203 -1.0785
 3479SOL     OW22069   3.798   4.328  16.114 -0.3617 -0.3184 -1.0845
 3479SOL    HW122070   3.885   4.318  16.075  0.5053  0.5463  0.6303
 3479SOL    HW222071   3.750   4.375  16.046 -0.5445 -2.7644 -2.6671
 3480SOL     OW22072   3.126   2.121  17.119  0.0131 -0.4227  0.5004
 3480SOL    HW122073   3.110   2.159  17.206  1.7011 -0.0913  0.6761
 3480SOL    HW222074   3.222   2.116  17.126  0.2226  0.9883 -1.5743
 3481SOL     OW22075   2.553   2.182   6.242  0.2276 -0.0509 -0.2275
 3481SOL    HW122076   2.629   2.190   6.185  0.7640  0.7872  0.6168
 3481SOL    HW222077   2.476   2.220   6.199  0.4464  0.6574  0.0153
 3482SOL     OW22078   4.036   1.756  13.199 -0.5462  0.0947  0.2475
 3482SOL    HW122079   4.057   1.849  13.199 -0.5426  0.0907  1.4165
 3482SOL    HW222080   4.106   1.728  13.140  1.1108 -0.8119  2.6506
 3483SOL     OW22081   1.714   1.681  12.532 -0.2306  0.1457  0.1259
 3483SOL    HW122082   1.693   1.769  12.500  0.0450 -0.2398 -1.1290
 3483SOL    HW222083   1.722   1.705  12.624  0.1412  1.3136 -0.2121
 3484SOL     OW22084   4.317   3.062   4.889  0.4232 -0.1346  0.1709
 3484SOL    HW122085   4.397   3.022   4.854  0.1014  0.6157 -1.4436
 3484SOL    HW222086   4.300   3.022   4.974  1.2590  3.1283  1.8717
 3485SOL     OW22087   1.661   0.116   4.115  0.6198  0.1248  0.7966
 3485SOL    HW122088   1.729   0.182   4.125 -0.4420  1.5951 -1.4536
 3485SOL    HW222089   1.605   0.164   4.176  3.7825  2.3069  1.9788
 3486SOL     OW22090   0.130   0.813   7.387  0.2793  0.1102  0.1913
 3486SOL    HW122091   0.071   0.880   7.421 -1.3191 -1.7620  1.0790
 3486SOL    HW222092   0.062   0.754   7.355  2.3030 -2.4648  0.6588
 3487SOL     OW22093   3.156   1.136  17.335 -0.1625  0.5204  0.2784
 3487SOL    HW122094   3.137   1.184  17.254  3.5692  1.3687 -0.1088
 3487SOL    HW222095   3.130   1.189  17.410 -1.8443  1.5786 -1.0731
 3488SOL     OW22096   4.223   2.767   5.318  0.0928 -0.5819 -0.0681
 3488SOL    HW122097   4.270   2.725   5.390  1.1188 -1.6732 -1.3742
 3488SOL    HW222098   4.134   2.770   5.355 -0.3530  1.2624 -1.3203
 3489SOL     OW22099   1.061   1.806   4.243 -0.7803  0.8045 -0.1772
 3489SOL    HW122100   1.122   1.823   4.314 -2.2447  1.6988  0.8699
 3489SOL    HW222101   1.068   1.712   4.229 -0.0058  1.6948 -5.5697
 3490SOL     OW22102   0.209   2.563  10.079 -0.5254  0.4197 -0.1210
 3490SOL    HW122103   0.161   2.522  10.151 -0.8631 -0.9329 -1.1237
 3490SOL    HW222104   0.157   2.642  10.069  1.9936  2.1924  0.6227
 3491SOL     OW22105   0.812   4.214   6.665 -0.1988 -0.0132 -0.3288
 3491SOL    HW122106   0.727   4.214   6.709 -0.7127 -0.1419 -1.3223
 3491SOL    HW222107   0.787   4.217   6.572  0.1166  1.6576 -0.3619
 3492SOL     OW22108   0.575   4.578  16.778 -0.1933 -0.3782  0.2376
 3492SOL    HW122109   0.670   4.578  16.782 -0.2128 -0.9129  0.7334
 3492SOL    HW222110   0.563   4.616  16.691 -1.4065 -2.1823 -0.3886
 3493SOL     OW22111   0.665   4.106   2.415  0.4812 -0.7624  0.1623
 3493SOL    HW122112   0.744   4.159   2.425  0.5698 -0.3721 -2.7893
 3493SOL    HW222113   0.699   4.027   2.458  0.9828 -0.2295  0.7426
 3494SOL     OW22114   4.640   1.680   9.399  0.1399 -0.2561 -0.1762
 3494SOL    HW122115   4.600   1.627   9.468  0.6273 -1.4181 -0.7860
 3494SOL    HW222116   4.733   1.687   9.419 -0.4139  1.3171  1.8258
 3495SOL     OW22117   4.361   4.368   8.041  0.2793 -0.4838 -0.4727
 3495SOL    HW122118   4.302   4.316   8.096  1.2857  0.6706  1.7178
 3495SOL    HW222119   4.308   4.402   7.969  0.5391 -1.1487 -0.9709
 3496SOL     OW22120   1.087   4.079   0.861  0.1300 -0.5269  0.0224
 3496SOL    HW122121   1.072   4.111   0.950  0.9803 -3.4098  1.2235
 3496SOL    HW222122   1.004   4.096   0.817 -0.2752 -0.6901  0.7232
 3497SOL     OW22123   4.728   3.248  13.369 -0.0564  0.5375 -0.3664
 3497SOL    HW122124   0.011   3.233  13.276 -1.6775 -0.9517 -0.4614
 3497SOL    HW222125   4.669   3.324  13.369  0.9332  1.3141 -0.8895
 3498SOL     OW22126   0.541   2.345   9.784  0.5465  0.3317  0.2232
 3498SOL    HW122127   0.608   2.397   9.828  0.8685  0.7239 -0.7113
 3498SOL    HW222128   0.510   2.280   9.846  0.1318  1.0415  0.7675
 3499SOL     OW22129   2.103   1.859   4.950  0.4893  0.4916  0.3725
 3499SOL    HW122130   2.040   1.902   4.893  0.7904 -1.9818 -1.8012
 3499SOL    HW222131   2.168   1.924   4.978  0.9353 -0.5325  1.7045
 3500SOL     OW22132   2.308   4.018   9.531 -0.2102 -0.1553  0.0083
 3500SOL    HW122133   2.279   4.013   9.622 -0.0765  2.1441  0.1712
 3500SOL    HW222134   2.251   3.947   9.502 -0.1006  0.5243 -1.8761
 3501SOL     OW22135   3.796   2.705   6.399 -0.3413 -0.0079 -0.6882
 3501SOL    HW122136   3.702   2.716   6.410  0.0139  0.2717  2.0884
 3501SOL    HW222137   3.799   2.614   6.429  0.8512 -0.3782 -1.9210
 3502SOL     OW22138   4.533   2.138   6.850  0.0516 -0.4609 -0.6057
 3502SOL    HW122139   4.583   2.198   6.796 -1.2373  0.7821 -0.4321
 3502SOL    HW222140   4.575   2.052   6.857 -0.5092 -0.7511 -0.7046
 3503SOL     OW22141   0.693   2.877   8.887  0.7429  0.6757 -0.0447
 3503SOL    HW122142   0.654   2.802   8.933  2.4151  0.2694  0.6990
 3503SOL    HW222143   0.613   2.921   8.858  2.4327  2.7576 -1.5326
 3504SOL     OW22144   0.792   1.318  12.580  0.2181 -0.1023  0.3769
 3504SOL    HW122145   0.820   1.371  12.655 -1.4423  1.4186 -0.0687
 3504SOL    HW222146   0.861   1.252  12.576 -0.2012 -0.5453  0.4668
 3505SOL     OW22147   4.586   3.154   1.082 -1.0316 -0.2129 -0.0250
 3505SOL    HW122148   4.657   3.215   1.103  0.0762 -2.1823  1.8723
 3505SOL    HW222149   4.549   3.135   1.168  1.6224 -0.4929  1.0592
 3506SOL     OW22150   1.174   2.495   9.982  0.1285 -0.2319  0.2427
 3506SOL    HW122151   1.165   2.448  10.065  1.0481 -2.4695 -0.9240
 3506SOL    HW222152   1.087   2.514   9.946  0.0307  1.1893  1.2158
 3507SOL     OW22153   0.120   2.406  12.801 -0.7389 -0.4092 -0.0299
 3507SOL    HW122154   0.156   2.469  12.864 -1.7610  0.3402 -0.2047
 3507SOL    HW222155   0.172   2.424  12.723 -0.8939  0.5617  0.0961
 3508SOL     OW22156   4.294   3.495   3.672 -0.0692 -0.1176 -0.1511
 3508SOL    HW122157   4.259   3.554   3.606  2.0509 -1.2908 -2.3148
 3508SOL    HW222158   4.219   3.456   3.718 -2.2867  1.5185 -2.3335
 3509SOL     OW22159   0.503   1.737   3.481 -0.4349 -0.7204  0.4636
 3509SOL    HW122160   0.590   1.735   3.522 -0.7687 -4.7888  0.9467
 3509SOL    HW222161   0.485   1.645   3.497  2.3368 -1.0415  1.7338
 3510SOL     OW22162   1.087   3.586   4.160 -0.1225 -0.1015  0.0079
 3510SOL    HW122163   1.033   3.563   4.085 -0.3707 -0.2311  0.2257
 3510SOL    HW222164   1.051   3.668   4.193 -1.3597 -0.6466 -0.0179
 3511SOL     OW22165   4.424   2.078   0.150 -0.0706 -0.0030  0.3123
 3511SOL    HW122166   4.455   2.165   0.127 -0.6739 -0.5322 -2.4761
 3511SOL    HW222167   4.505   2.027   0.158  0.7983  1.7596  2.8611
 3512SOL     OW22168   0.651   3.648   6.054 -0.5190 -0.2166  0.5402
 3512SOL    HW122169   0.737   3.618   6.084  0.8031 -1.6268 -4.7248
 3512SOL    HW222170   0.645   3.725   6.111 -1.0579 -0.0788  0.3054
 3513SOL     OW22171   1.487   4.651   6.743 -0.0179 -0.1235  0.4974
 3513SOL    HW122172   1.392   4.654   6.735 -0.0856  0.9970  1.7744
 3513SOL    HW222173   1.518   0.004   6.732 -1.4863  0.3720  0.4817
 3514SOL     OW22174   1.677   4.242   8.208  0.1637  0.2214  0.0137
 3514SOL    HW122175   1.634   4.177   8.154  0.0040  0.7361 -0.4810
 3514SOL    HW222176   1.732   4.185   8.262 -1.6315  0.6233  2.3011
 3515SOL     OW22177   4.440   2.184   1.065 -0.2629 -0.6341  0.7072
 3515SOL    HW122178   4.396   2.226   0.991 -0.0631 -1.9492 -0.1578
 3515SOL    HW222179   4.359   2.172   1.115 -0.5358  0.1132  0.4381
 3516SOL     OW22180   3.948   2.895   2.037 -0.5378 -0.1611  0.4363
 3516SOL    HW122181   3.980   2.829   1.976  2.3925  1.8054 -0.1403
 3516SOL    HW222182   3.858   2.864   2.049 -1.6680  1.9612 -2.6159
 3517SOL     OW22183   3.840   4.600   2.642  0.0313 -0.1084 -0.2280
 3517SOL    HW122184   3.865   4.657   2.569  0.4236 -4.7094 -3.6218
 3517SOL    HW222185   3.847   4.665   2.712  0.8673 -0.2888 -0.1471
 3518SOL     OW22186   0.760   0.156   5.878 -0.3290 -0.3795 -0.2695
 3518SOL    HW122187   0.664   0.152   5.879 -0.3475  0.7598  1.6624
 3518SOL    HW222188   0.789   0.144   5.788 -2.4624 -0.5427 -0.9418
 3519SOL     OW22189   1.309   2.591  15.230 -0.2612 -0.1799 -0.3407
 3519SOL    HW122190   1.375   2.566  15.295 -0.5945  2.2633  0.9221
 3519SOL    HW222191   1.377   2.611  15.165 -0.1397  0.6712  0.0485
 3520SOL     OW22192   1.080   1.013   4.230 -0.5561 -0.8532 -1.2456
 3520SOL    HW122193   1.074   1.096   4.184  0.0769 -0.5529 -0.7879
 3520SOL    HW222194   1.002   0.964   4.203 -2.0266 -1.1152  3.4316
 3521SOL     OW22195   0.301   0.236  12.177  0.3338 -0.0745 -0.1483
 3521SOL    HW122196   0.260   0.302  12.232 -0.5393 -1.4364  0.8396
 3521SOL    HW222197   0.295   0.162  12.237 -1.1472  0.1869  0.0320
 3522SOL     OW22198   2.802   4.369   1.661  0.2202  0.2176  0.6650
 3522SOL    HW122199   2.778   4.277   1.671 -0.0979 -0.0812 -2.9867
 3522SOL    HW222200   2.875   4.370   1.599  0.0875 -0.6757  0.5015
 3523SOL     OW22201   2.798   3.188  10.758  0.7763 -0.6785 -0.0757
 3523SOL    HW122202   2.731   3.241  10.716  0.2042 -1.1773  0.2070
 3523SOL    HW222203   2.762   3.175  10.846 -0.0197 -2.1302 -0.6123
 3524SOL     OW22204   0.400   2.171   8.146  0.2454 -0.9315  0.2869
 3524SOL    HW122205   0.355   2.112   8.206  1.7401 -0.6856  1.6338
 3524SOL    HW222206   0.494   2.157   8.160  0.6054  1.9321  0.8639
 3525SOL     OW22207   1.543   1.312   7.966 -0.3623  0.1908  0.0998
 3525SOL    HW122208   1.626   1.265   7.975  0.1208  0.9876 -0.2460
 3525SOL    HW222209   1.564   1.390   8.017  2.2559  0.0865 -0.8159
 3526SOL     OW22210   1.942   2.283   2.792  0.0289  0.4227  0.5220
 3526SOL    HW122211   1.947   2.372   2.827  1.1998  0.9241 -0.8683
 3526SOL    HW222212   1.911   2.298   2.703 -1.5502 -1.3551  0.7726
 3527SOL     OW22213   1.080   1.541   0.257 -0.2880 -0.0482  0.0406
 3527SOL    HW122214   1.092   1.618   0.312  1.5404 -0.0604 -0.3570
 3527SOL    HW222215   0.985   1.546   0.252 -0.2864  1.0800  1.1407
 3528SOL     OW22216   0.187   0.154   8.272 -0.2029  0.1087 -0.2541
 3528SOL    HW122217   0.199   0.142   8.366 -0.7083  1.2474 -0.0513
 3528SOL    HW222218   0.280   0.168   8.252 -0.5145 -1.1070 -2.5416
 3529SOL     OW22219   1.381   0.187  14.712  0.1587  0.0627 -0.4780
 3529SOL    HW122220   1.446   0.230  14.768 -0.2295 -2.1179  1.6635
 3529SOL    HW222221   1.338   0.121  14.767  0.0324  0.6878  0.1755
 3530SOL     OW22222   4.362   0.895  11.597 -0.2601 -0.1509 -0.4460
 3530SOL    HW122223   4.383   0.802  11.602  1.0879  0.1912  0.2533
 3530SOL    HW222224   4.431   0.923  11.656  0.2442  0.2942 -1.2446
 3531SOL     OW22225   1.208   2.695   5.593 -0.3010  0.2555 -0.3391
 3531SOL    HW122226   1.229   2.690   5.500  0.6922 -2.5925  0.0363
 3531SOL    HW222227   1.258   2.771   5.621  0.1161 -0.1974  0.1570
 3532SOL     OW22228   2.094   3.295   8.996 -0.3632  0.2411 -0.1727
 3532SOL    HW122229   2.009   3.294   8.953 -0.6457 -2.0404  0.4857
 3532SOL    HW222230   2.132   3.381   8.974  0.6889 -0.4074 -0.8613
 3533SOL     OW22231   1.784   1.792   3.756  0.4215  0.1709 -0.1931
 3533SOL    HW122232   1.750   1.767   3.670 -0.7130 -0.3876  0.4159
 3533SOL    HW222233   1.877   1.782   3.736  0.3355 -2.1738  0.6474
 3534SOL     OW22234   1.910   2.408   8.423  0.1247 -0.2703 -0.0078
 3534SOL    HW122235   1.972   2.349   8.467  0.2451 -0.8425 -0.9597
 3534SOL    HW222236   1.937   2.392   8.333  0.0708 -0.5721  0.0309
 3535SOL     OW22237   3.146   4.176   9.801 -0.2879 -0.2139  0.1509
 3535SOL    HW122238   3.162   4.163   9.895 -2.9093  2.3388  0.9357
 3535SOL    HW222239   3.096   4.096   9.783  2.2799 -2.1133  1.3113
 3536SOL     OW22240   2.186   0.326  17.278  0.3926  0.0290 -0.1229
 3536SOL    HW122241   2.120   0.341  17.210  0.8346 -4.5312 -1.5719
 3536SOL    HW222242   2.186   0.231  17.289  1.8704 -0.3807 -3.7801
 3537SOL     OW22243   3.775   0.156  10.711 -0.0066 -0.3373  0.3948
 3537SOL    HW122244   3.718   0.144  10.635  1.0956  0.6032 -0.5874
 3537SOL    HW222245   3.811   0.068  10.724 -0.0083 -0.3208  0.5124
 3538SOL     OW22246   3.956   4.603   2.039 -0.3425  0.2975 -0.4482
 3538SOL    HW122247   3.980   4.522   2.085 -2.4793  0.7027  1.3604
 3538SOL    HW222248   3.864   4.599   2.015 -0.0486 -0.6037 -1.4282
 3539SOL     OW22249   1.561   3.597   2.713 -0.1766  0.1421 -0.0023
 3539SOL    HW122250   1.555   3.576   2.806  0.0613  1.4343  0.3021
 3539SOL    HW222251   1.645   3.640   2.701 -0.1113  0.9829  3.3913
 3540SOL     OW22252   2.414   3.312   6.241  0.9005 -0.4339 -0.3692
 3540SOL    HW122253   2.412   3.404   6.214 -0.3159 -0.7244 -1.2605
 3540SOL    HW222254   2.472   3.276   6.173  0.7739  0.3743 -0.9059
 3541SOL     OW22255   0.070   0.284   0.684  0.1606  0.3494  0.0872
 3541SOL    HW122256   0.127   0.233   0.741 -1.8341 -1.5031  0.4412
 3541SOL    HW222257   0.122   0.285   0.604 -0.9466 -2.2880 -0.6731
 3542SOL     OW22258   1.675   2.265   7.806  0.1946  0.2508  0.1829
 3542SOL    HW122259   1.768   2.246   7.792 -0.0050 -0.6170  0.0367
 3542SOL    HW222260   1.638   2.191   7.758  0.2335  0.8853 -0.8310
 3543SOL     OW22261   4.735   4.477   2.252  0.3706 -0.7824 -0.1435
 3543SOL    HW122262   0.024   4.394   2.213  0.8984 -0.0064 -1.4658
 3543SOL    HW222263   4.706   4.452   2.340 -1.5986  0.9921 -0.3013
 3544SOL     OW22264   3.283   0.242   1.440  0.5686 -0.0051  0.7318
 3544SOL    HW122265   3.334   0.315   1.405  0.7767 -0.4491  0.1058
 3544SOL    HW222266   3.200   0.283   1.462 -0.5962 -1.3496 -1.1504
 3545SOL     OW22267   3.975   2.960  13.252  0.5047  0.4545  0.3016
 3545SOL    HW122268   3.996   3.043  13.208 -1.1676  2.3373  3.1152
 3545SOL    HW222269   3.923   2.991  13.325  0.5129  1.3637 -0.0841
 3546SOL     OW22270   0.786   4.557   2.622  0.1457 -0.7539 -0.5805
 3546SOL    HW122271   0.735   4.530   2.698  0.7604  1.4367  0.6046
 3546SOL    HW222272   0.869   4.557   2.670  0.3241 -1.2228 -0.8805
 3547SOL     OW22273   0.586   4.436   2.252 -0.0264  0.3800  0.0207
 3547SOL    HW122274   0.656   4.375   2.274 -0.2771  0.2910  0.5623
 3547SOL    HW222275   0.579   4.490   2.331  1.5277 -0.6007  0.8344
 3548SOL     OW22276   2.224   0.068   7.942 -0.1663 -0.1243  0.4387
 3548SOL    HW122277   2.197   4.714   7.958 -0.5010  0.2783  2.1730
 3548SOL    HW222278   2.300   0.067   8.000  1.0197  0.2833 -1.1105
 3549SOL     OW22279   3.938   3.715   8.180  0.1090 -0.3484  0.2620
 3549SOL    HW122280   3.847   3.693   8.160  1.0135 -0.0901 -4.1067
 3549SOL    HW222281   3.929   3.725   8.275 -0.0508 -2.9858  0.5233
 3550SOL     OW22282   2.380   0.396   2.224  0.4619  0.3365  0.1380
 3550SOL    HW122283   2.337   0.367   2.305 -2.1538 -1.9910 -2.0611
 3550SOL    HW222284   2.446   0.451   2.266  1.6982  0.9751 -2.6760
 3551SOL     OW22285   0.330   3.614  12.972 -0.1835  0.5456 -0.1070
 3551SOL    HW122286   0.337   3.545  13.038 -0.0976 -0.5882 -1.2992
 3551SOL    HW222287   0.352   3.568  12.891  0.4242 -2.1780  1.6082
 3552SOL     OW22288   4.213   3.472   6.469  0.2691  0.2138  0.0155
 3552SOL    HW122289   4.286   3.517   6.511  1.7375 -1.8925 -0.3382
 3552SOL    HW222290   4.263   3.406   6.421 -1.6366 -1.2324  0.0216
 3553SOL     OW22291   0.870   2.484   2.281 -0.2490 -0.3008 -0.1244
 3553SOL    HW122292   0.797   2.431   2.249  0.3469 -0.2391 -1.5526
 3553SOL    HW222293   0.854   2.500   2.374 -1.7798  0.3180 -0.5039
 3554SOL     OW22294   0.681   0.013  14.165  0.8414 -0.5516 -0.0391
 3554SOL    HW122295   0.706   4.657  14.160  0.1065 -0.6562 -1.9741
 3554SOL    HW222296   0.592   4.733  14.193  0.5228  1.9375  0.4337
 3555SOL     OW22297   3.871   4.225  11.970 -0.5023  0.2739  0.4280
 3555SOL    HW122298   3.952   4.184  12.001 -0.5265  1.4224  1.9919
 3555SOL    HW222299   3.913   4.291  11.914  1.2647  0.4344  1.9577
 3556SOL     OW22300   3.947   2.176  15.040  0.2154 -0.1742  0.6006
 3556SOL    HW122301   4.013   2.108  15.025 -1.2327 -1.6185  0.7164
 3556SOL    HW222302   3.928   2.205  14.951 -1.0936 -0.1839  0.8849
 3557SOL     OW22303   2.199   4.354   8.490  0.5742 -0.4470 -0.5923
 3557SOL    HW122304   2.201   4.335   8.584 -0.3901 -1.6636 -0.8209
 3557SOL    HW222305   2.136   4.425   8.481  1.5283  0.3812 -0.7582
 3558SOL     OW22306   1.288   1.600   2.739  0.0661 -0.0088 -0.3984
 3558SOL    HW122307   1.303   1.661   2.667 -0.5478  1.0859  0.4044
 3558SOL    HW222308   1.193   1.590   2.744  0.1329 -1.1013 -1.1532
 3559SOL     OW22309   0.144   3.834  17.291 -0.3888  0.0958  0.0960
 3559SOL    HW122310   0.150   3.888  17.370 -0.1597  1.4443 -0.8383
 3559SOL    HW222311   0.120   3.749  17.329  1.7171 -0.9106 -0.8327
 3560SOL     OW22312   1.725   4.325  17.119 -0.0118  0.0778 -0.0963
 3560SOL    HW122313   1.774   4.384  17.062 -2.1909  0.1185 -1.9434
 3560SOL    HW222314   1.775   4.244  17.114 -2.7198 -1.6618  1.4782
 3561SOL     OW22315   1.414   1.252   4.149 -0.5745  0.0874 -0.0049
 3561SOL    HW122316   1.482   1.211   4.094 -0.7563  0.5348 -0.5727
 3561SOL    HW222317   1.343   1.189   4.143 -0.9942  0.4758  1.0806
 3562SOL     OW22318   2.083   4.030   3.143  0.0731  0.8956  0.4171
 3562SOL    HW122319   2.035   3.990   3.071 -0.0865 -1.6132  1.9032
 3562SOL    HW222320   2.156   3.969   3.149 -0.4829  0.2090  0.1613
 3563SOL     OW22321   2.208   1.959  16.070  0.0051  0.1602  0.3036
 3563SOL    HW122322   2.197   1.879  16.122 -0.7029  0.2414  0.2748
 3563SOL    HW222323   2.273   1.935  16.004 -1.2913 -0.0171 -0.9035
 3564SOL     OW22324   1.432   2.493   6.700  0.0230  1.1116  0.6250
 3564SOL    HW122325   1.484   2.421   6.734 -1.0432  0.6245  1.2100
 3564SOL    HW222326   1.351   2.446   6.718 -0.1128  1.0239 -0.2311
 3565SOL     OW22327   0.871   0.262  14.720  0.1849 -0.4689 -0.2845
 3565SOL    HW122328   0.810   0.318  14.769 -1.8989 -1.9333 -1.1967
 3565SOL    HW222329   0.914   0.320  14.656  1.2037 -1.6489 -0.6658
 3566SOL     OW22330   2.081   1.326   8.025 -0.2898  0.0161 -0.3036
 3566SOL    HW122331   2.041   1.267   8.089 -0.4172 -0.3412 -0.7093
 3566SOL    HW222332   2.108   1.396   8.083 -1.6445  0.7282 -0.5183
 3567SOL     OW22333   3.372   1.015  10.538 -0.0009 -0.2088  0.4485
 3567SOL    HW122334   3.361   1.100  10.495  0.8263 -1.3176 -1.9157
 3567SOL    HW222335   3.305   0.957  10.503  1.7661 -2.4248  0.7837
 3568SOL     OW22336   4.218   4.421   7.003 -0.3943  0.0686 -0.1983
 3568SOL    HW122337   4.147   4.481   7.023 -0.4026 -0.3189  0.9365
 3568SOL    HW222338   4.194   4.350   7.063  0.0485 -1.0947 -1.3854
 3569SOL     OW22339   2.561   3.877   0.814 -0.7668  0.0066 -0.1418
 3569SOL    HW122340   2.488   3.911   0.865 -0.6589 -2.0271  1.3874
 3569SOL    HW222341   2.608   3.957   0.789 -1.7951  0.8020  0.4678
 3570SOL     OW22342   1.213   4.003   5.268  0.6232  0.4991  0.2558
 3570SOL    HW122343   1.288   4.015   5.325  0.4270  2.2900  0.1250
 3570SOL    HW222344   1.186   3.914   5.291  0.5362  0.3894 -0.2544
 3571SOL     OW22345   2.220   0.545   3.284  0.0290 -0.1057  0.3082
 3571SOL    HW122346   2.298   0.489   3.290 -0.0271 -0.1240  0.8596
 3571SOL    HW222347   2.155   0.497   3.335 -1.1024  0.0340 -0.9972
 3572SOL     OW22348   4.206   1.817   3.325 -0.0929  0.3550 -0.2303
 3572SOL    HW122349   4.143   1.855   3.265  0.2051 -0.4955 -1.0828
 3572SOL    HW222350   4.198   1.874   3.402  1.0140 -0.4428  0.4714
 3573SOL     OW22351   0.093   2.585   7.946  0.6395  0.5336  0.3168
 3573SOL    HW122352   0.137   2.502   7.926  1.6553  0.2045  4.0600
 3573SOL    HW222353   0.101   2.632   7.863 -1.3351  1.2516  0.5304
 3574SOL     OW22354   1.846   0.608  15.783 -0.1202  0.7457  0.0860
 3574SOL    HW122355   1.817   0.655  15.705 -2.5062  0.0630  0.5837
 3574SOL    HW222356   1.921   0.563  15.744 -0.8292  0.1618 -0.6039
 3575SOL     OW22357   0.423   0.496   6.343 -0.0456  0.6112  0.2444
 3575SOL    HW122358   0.411   0.568   6.405  1.4412 -0.2333  1.5258
 3575SOL    HW222359   0.416   0.419   6.401 -0.6945 -0.2079 -0.9122
 3576SOL     OW22360   4.034   4.291   9.738  0.0308 -0.3011  0.0026
 3576SOL    HW122361   3.945   4.313   9.765  1.0398  1.5386  1.8686
 3576SOL    HW222362   4.049   4.219   9.799 -1.9237 -1.2209 -0.6007
 3577SOL     OW22363   3.718   2.895   5.521 -0.1943  0.0541  0.5075
 3577SOL    HW122364   3.676   2.938   5.446 -1.5122 -1.0164  0.6292
 3577SOL    HW222365   3.674   2.935   5.596 -1.7733 -2.0563  0.7201
 3578SOL     OW22366   0.193   4.660   2.282 -0.2950 -0.5168  0.4151
 3578SOL    HW122367   0.129   4.721   2.244 -0.5712 -0.6716  0.6359
 3578SOL    HW222368   0.146   4.580   2.303 -3.5964  1.6083  1.0313
 3579SOL     OW22369   1.527   0.163   2.601 -0.2838  0.1110  0.3330
 3579SOL    HW122370   1.438   0.170   2.568 -0.1125  1.5802  0.1903
 3579SOL    HW222371   1.536   0.234   2.665  0.0602  0.8079 -0.4861
 3580SOL     OW22372   4.512   2.337   3.533 -0.0816  0.9630 -0.0802
 3580SOL    HW122373   4.418   2.340   3.518 -0.3176  2.1198  1.5997
 3580SOL    HW222374   4.541   2.403   3.471  2.0296 -0.8949 -1.0717
 3581SOL     OW22375   0.537   1.137   5.518  0.8868 -0.2740 -0.4233
 3581SOL    HW122376   0.498   1.200   5.457  0.4837  1.1879  1.3625
 3581SOL    HW222377   0.580   1.197   5.578  0.4508 -0.2756 -0.1071
 3582SOL     OW22378   1.103   2.000   7.505  0.2218  0.2770  0.2603
 3582SOL    HW122379   1.124   1.956   7.587 -0.9238 -0.0350  0.3834
 3582SOL    HW222380   1.111   2.087   7.543 -0.6922 -0.4347  2.0509
 3583SOL     OW22381   4.101   3.024  17.275  0.2260  0.7125  0.1049
 3583SOL    HW122382   4.150   2.962  17.221  0.1491 -0.2111  1.0976
 3583SOL    HW222383   4.037   2.967  17.316  0.3522 -1.2030 -2.3681
 3584SOL     OW22384   0.821   0.409   2.498 -0.2207 -0.0734  0.2925
 3584SOL    HW122385   0.798   0.413   2.591 -0.7498  1.0196  0.1099
 3584SOL    HW222386   0.747   0.437   2.445 -1.0781  1.2758  2.2208
 3585SOL     OW22387   1.627   2.277  10.105  0.3189 -0.6280 -0.3883
 3585SOL    HW122388   1.555   2.322  10.060  1.7758  1.5612 -0.5388
 3585SOL    HW222389   1.638   2.316  10.192  0.5151  1.0894 -1.1883
 3586SOL     OW22390   4.044   1.387   1.902  0.1599 -1.2588  0.0701
 3586SOL    HW122391   4.097   1.424   1.831  2.1629 -0.0236  2.2030
 3586SOL    HW222392   3.980   1.348   1.842  0.0472  0.2648 -0.7994
 3587SOL     OW22393   0.240   1.682   6.536 -0.3859 -0.5010 -0.0558
 3587SOL    HW122394   0.225   1.593   6.502 -0.9934 -0.6733  0.6497
 3587SOL    HW222395   0.294   1.712   6.463 -1.1878 -1.3146 -0.9842
 3588SOL     OW22396   0.903   1.846   3.487  0.4004 -0.1354 -0.8814
 3588SOL    HW122397   0.938   1.787   3.421  1.2290  1.6673 -2.0622
 3588SOL    HW222398   0.849   1.784   3.537  1.1075 -1.4976 -1.8264
 3589SOL     OW22399   2.985   4.183   9.352  0.4901 -0.1416 -0.1157
 3589SOL    HW122400   2.923   4.111   9.366 -0.1253  0.4848  0.3684
 3589SOL    HW222401   3.062   4.130   9.374  1.0934  0.2096 -1.4562
 3590SOL     OW22402   1.084   2.711   6.986  0.1503 -0.1878  0.4906
 3590SOL    HW122403   1.069   2.677   7.074 -1.0446  1.4452  0.9167
 3590SOL    HW222404   1.149   2.780   7.000 -0.4143  0.1658  1.3616
 3591SOL     OW22405   1.964   3.568  15.056 -0.3000  0.3570 -0.4035
 3591SOL    HW122406   1.992   3.659  15.071  0.9822 -0.2625  1.0012
 3591SOL    HW222407   2.017   3.537  14.982 -2.2287 -3.1230 -0.3078
 3592SOL     OW22408   1.721   2.947   9.390 -0.6348 -0.0646 -0.0621
 3592SOL    HW122409   1.671   2.866   9.390 -2.3408  0.9949  0.6377
 3592SOL    HW222410   1.799   2.924   9.440 -0.7118 -0.9762 -0.3569
 3593SOL     OW22411   3.783   3.083  15.891  0.0430  0.0668  0.0569
 3593SOL    HW122412   3.818   2.996  15.875  0.3054  0.0621  0.6978
 3593SOL    HW222413   3.690   3.062  15.889 -0.2631  1.2887  1.4756
 3594SOL     OW22414   1.104   3.671  14.980  0.3406  0.5804 -0.1176
 3594SOL    HW122415   1.194   3.659  14.950  0.3854 -1.0922  0.6818
 3594SOL    HW222416   1.081   3.581  15.003  0.7586  0.2981 -0.8288
 3595SOL     OW22417   2.942   0.025   7.519 -0.3060 -0.8856 -0.0619
 3595SOL    HW122418   3.001   4.694   7.485  0.7209 -1.0539  2.0508
 3595SOL    HW222419   2.950   0.080   7.442 -0.9408 -2.4461 -1.2371
 3596SOL     OW22420   2.223   3.923   7.412 -0.0689 -0.1255  0.2923
 3596SOL    HW122421   2.231   3.955   7.322 -2.2078 -1.3993 -0.3382
 3596SOL    HW222422   2.264   3.836   7.408  2.6517  1.1542 -0.0602
 3597SOL     OW22423   2.880   3.449   5.023  0.2373  0.3428 -0.1004
 3597SOL    HW122424   2.909   3.398   4.947  1.6166 -0.7870  1.1770
 3597SOL    HW222425   2.893   3.540   4.998  0.3535 -0.3151 -2.4841
 3598SOL     OW22426   0.037   2.730   6.461  0.2837  0.1680  0.0629
 3598SOL    HW122427   0.012   2.791   6.391 -0.7590 -0.0785  0.2163
 3598SOL    HW222428   0.117   2.698   6.419 -0.2940  1.4021 -1.9890
 3599SOL     OW22429   0.484   2.364   6.770 -0.3833  0.2931 -0.7971
 3599SOL    HW122430   0.419   2.325   6.712 -0.4525 -0.5412 -0.1536
 3599SOL    HW222431   0.500   2.287   6.825  0.0117  0.2431 -0.9812
 3600SOL     OW22432   1.192   2.061   7.957 -0.4049  0.0348  0.8768
 3600SOL    HW122433   1.132   2.123   7.999 -0.7949  0.3596 -0.1497
 3600SOL    HW222434   1.258   2.128   7.944 -2.0938  1.9518  2.1318
 3601SOL     OW22435   0.227   2.360   7.900  0.4333 -0.8260 -0.1302
 3601SOL    HW122436   0.175   2.292   7.944 -0.3731  0.0772  0.3158
 3601SOL    HW222437   0.318   2.331   7.902 -0.0558 -2.4268 -0.3855
 3602SOL     OW22438   0.364   1.342   4.804  0.7002 -0.3443  0.1113
 3602SOL    HW122439   0.414   1.359   4.724  0.1511 -2.4513 -0.6662
 3602SOL    HW222440   0.349   1.434   4.827  2.0387 -0.3612  1.0834
 3603SOL     OW22441   0.871   0.610   6.551  0.3146  0.2539 -0.2325
 3603SOL    HW122442   0.930   0.612   6.627 -0.3828  1.1029  0.2771
 3603SOL    HW222443   0.788   0.577   6.585  0.1273  1.7740  0.7609
 3604SOL     OW22444   2.813   4.431   0.389 -0.3430  0.4487  0.7294
 3604SOL    HW122445   2.819   4.400   0.299 -1.3941  0.6671  0.5800
 3604SOL    HW222446   2.843   4.522   0.388 -0.7675  0.6168  3.2509
 3605SOL     OW22447   1.716   0.392   9.039  0.0283  0.3954 -0.2278
 3605SOL    HW122448   1.707   0.485   9.060 -0.2690  0.7873 -2.1374
 3605SOL    HW222449   1.733   0.354   9.125  1.9728 -1.7894 -1.5709
 3606SOL     OW22450   2.855   1.550   7.437  0.0769  0.1253 -0.0074
 3606SOL    HW122451   2.890   1.629   7.479 -2.3494  1.3632 -0.2958
 3606SOL    HW222452   2.802   1.590   7.369 -0.3866  2.2844  1.6029
 3607SOL     OW22453   1.330   2.397   3.107  0.6759 -0.3794 -0.6036
 3607SOL    HW122454   1.383   2.414   3.186 -1.3622  0.6461  0.5544
 3607SOL    HW222455   1.375   2.453   3.044  0.6240 -0.1791 -0.4659
 3608SOL     OW22456   1.340   2.423   9.015 -0.1654  0.3752  0.0277
 3608SOL    HW122457   1.250   2.393   9.030  0.1689 -0.3495  0.5640
 3608SOL    HW222458   1.379   2.381   9.092 -0.4703  0.3438  0.1654
 3609SOL     OW22459   1.916   3.802   0.059  0.0520 -0.3822 -0.4679
 3609SOL    HW122460   1.987   3.866   0.050 -0.6847  0.2454 -1.6693
 3609SOL    HW222461   1.835   3.851   0.053 -1.1975 -2.4382 -0.4878
 3610SOL     OW22462   1.067   3.460   6.851 -0.4044 -0.0100 -0.3242
 3610SOL    HW122463   1.058   3.554   6.833  0.2772 -0.2479 -1.9501
 3610SOL    HW222464   1.069   3.425   6.762  1.4394 -1.2883  0.2207
 3611SOL     OW22465   3.458   2.425   6.161  0.2951 -0.0995  0.0679
 3611SOL    HW122466   3.541   2.466   6.186  0.0222 -0.8608  2.1916
 3611SOL    HW222467   3.487   2.369   6.088  1.2390 -3.3280  2.9027
 3612SOL     OW22468   0.574   2.720   6.286 -0.0935  0.3143 -0.8266
 3612SOL    HW122469   0.647   2.712   6.348 -0.5473  0.2556 -0.3055
 3612SOL    HW222470   0.584   2.639   6.236  0.3404 -0.6436  0.8017
 3613SOL     OW22471   3.383   2.367  17.718  0.1380  0.4709 -0.2977
 3613SOL    HW122472   3.366   2.328  17.632  1.7895 -0.0760 -0.3811
 3613SOL    HW222473   3.471   2.335  17.735 -1.4577 -2.0652  3.3663
 3614SOL     OW22474   3.510   4.014   2.240 -0.0259 -0.0635 -0.0193
 3614SOL    HW122475   3.598   4.012   2.202 -0.4411 -1.1446 -0.9272
 3614SOL    HW222476   3.462   4.053   2.166 -1.5610 -2.6714 -0.4135
 3615SOL     OW22477   2.673   1.488   7.940  0.7771 -0.0031 -0.0933
 3615SOL    HW122478   2.737   1.523   8.002 -0.1301 -0.6324  1.2040
 3615SOL    HW222479   2.701   1.403   7.905  2.2422 -0.0351  1.1433
 3616SOL     OW22480   3.874   4.100   7.585  0.0047  0.5770  0.0101
 3616SOL    HW122481   3.831   4.161   7.645  1.2420  0.3390  1.1418
 3616SOL    HW222482   3.817   4.023   7.592  0.9265 -0.1861 -1.1514
 3617SOL     OW22483   0.793   2.990   4.519 -0.1712  0.1933 -0.5076
 3617SOL    HW122484   0.719   2.940   4.485  0.4541  0.6716 -2.5793
 3617SOL    HW222485   0.839   2.928   4.574 -1.3413 -0.2408 -0.0106
 3618SOL     OW22486   4.585   1.375   2.581 -0.2374  0.1702  0.1086
 3618SOL    HW122487   4.544   1.342   2.501 -0.5406 -0.5062  0.5399
 3618SOL    HW222488   4.518   1.349   2.644 -0.3438 -1.0450 -0.5004
 3619SOL     OW22489   0.711   2.985  10.310 -0.0393 -0.1169  0.2974
 3619SOL    HW122490   0.643   2.925  10.278  0.5651 -0.9371  0.5539
 3619SOL    HW222491   0.652   3.027  10.373  1.4520 -0.4000  1.8803
 3620SOL     OW22492   1.119   0.592  14.748  0.1432 -0.2844  0.4462
 3620SOL    HW122493   1.130   0.504  14.711 -0.0768  0.4939 -1.4605
 3620SOL    HW222494   1.069   0.633  14.678 -0.5417  0.7695  1.5382
 3621SOL     OW22495   0.118   1.803   9.736 -0.4904 -0.3387  0.3652
 3621SOL    HW122496   0.074   1.869   9.684 -0.2299  0.7457  1.5091
 3621SOL    HW222497   0.127   1.734   9.670 -0.3443 -0.3055  0.3509
 3622SOL     OW22498   4.122   1.099  14.818  0.1698  0.1950  0.0527
 3622SOL    HW122499   4.073   1.057  14.889  0.3615  3.4766  2.1476
 3622SOL    HW222500   4.075   1.067  14.742 -1.0613  0.2545  0.7998
 3623SOL     OW22501   3.565   2.094   8.324  0.0548  0.3028 -0.1109
 3623SOL    HW122502   3.536   2.056   8.241 -0.6859  0.8817 -0.1158
 3623SOL    HW222503   3.510   2.171   8.334 -0.9535  0.0787 -4.0310
 3624SOL     OW22504   1.336   3.414   5.063  0.3376  0.1173 -0.4778
 3624SOL    HW122505   1.344   3.503   5.097 -0.6165  0.0869 -0.1815
 3624SOL    HW222506   1.320   3.370   5.147 -2.0858  2.2416  0.2000
 3625SOL     OW22507   4.706   1.906   4.276  0.3033 -0.4936  0.5095
 3625SOL    HW122508   4.671   1.914   4.365 -0.6187  0.2937  0.0671
 3625SOL    HW222509   0.045   1.849   4.291  1.7287  0.6678 -2.4523
 3626SOL     OW22510   4.183   3.069   3.150  0.0133  0.0924 -0.0913
 3626SOL    HW122511   4.206   2.977   3.135  0.3635  0.4738 -1.9694
 3626SOL    HW222512   4.093   3.058   3.179  0.4574 -1.1029  0.8289
 3627SOL     OW22513   1.739   3.560  13.248 -0.1539  0.2632 -0.3142
 3627SOL    HW122514   1.807   3.619  13.215  2.1883 -3.5088 -2.2241
 3627SOL    HW222515   1.784   3.477  13.228 -0.6979 -0.5201  1.7443
 3628SOL     OW22516   1.182   3.985   2.729 -0.3614 -0.1932 -0.5005
 3628SOL    HW122517   1.209   3.956   2.642 -0.3400  0.2623 -0.6443
 3628SOL    HW222518   1.259   4.004   2.781  1.6317 -2.2713 -2.6791
 3629SOL     OW22519   4.506   3.743   3.039  0.2415 -0.1991  0.1972
 3629SOL    HW122520   4.497   3.658   3.083 -1.9025 -0.3885 -0.5657
 3629SOL    HW222521   4.599   3.762   3.046  0.3681 -1.4900  1.9268
 3630SOL     OW22522   2.410   1.348  12.369  0.0063 -0.1961 -0.0016
 3630SOL    HW122523   2.389   1.342  12.276  0.7536 -3.7994  0.0426
 3630SOL    HW222524   2.413   1.256  12.397  0.3668  0.1036  0.9539
 3631SOL     OW22525   1.566   1.564  12.200  0.5566  0.2448  0.2874
 3631SOL    HW122526   1.646   1.517  12.223  1.0471  1.6820  1.5097
 3631SOL    HW222527   1.518   1.536  12.278  0.0755  0.0960 -0.0646
 3632SOL     OW22528   1.460   3.926  15.034  0.3489  0.6574  0.0348
 3632SOL    HW122529   1.480   3.975  15.114 -0.6654 -1.2474  1.4560
 3632SOL    HW222530   1.427   3.995  14.975  0.4608  1.0083  0.3828
 3633SOL     OW22531   1.237   4.477   7.969 -0.4833 -0.1215  0.0743
 3633SOL    HW122532   1.259   4.387   7.994 -0.1821 -0.4654 -1.4387
 3633SOL    HW222533   1.144   4.476   7.992 -0.4991  0.4167  0.0286
 3634SOL     OW22534   2.818   2.204   6.360 -0.5326 -0.0055 -0.1028
 3634SOL    HW122535   2.727   2.198   6.332 -1.2202 -3.9449  3.0163
 3634SOL    HW222536   2.812   2.288   6.405  1.2472  0.9172 -1.5892
 3635SOL     OW22537   3.200   1.146   0.234  0.6664  0.1058  0.1705
 3635SOL    HW122538   3.271   1.136   0.170  0.7439 -0.4765  0.3500
 3635SOL    HW222539   3.138   1.199   0.185 -1.1290 -1.1549  1.1021
 3636SOL     OW22540   3.764   1.006   7.961 -0.5379  0.1485  0.2130
 3636SOL    HW122541   3.711   0.940   8.005  0.8857 -2.3533 -1.8094
 3636SOL    HW222542   3.809   1.043   8.037  0.0254  0.1650 -0.1256
 3637SOL     OW22543   2.280   1.488   1.819  0.2048 -0.2217  0.1744
 3637SOL    HW122544   2.316   1.461   1.734  0.2388 -1.6961  0.6434
 3637SOL    HW222545   2.290   1.407   1.869  1.7779 -1.3310 -1.8866
 3638SOL     OW22546   1.922   2.856  14.898 -0.1401  0.5536  0.2951
 3638SOL    HW122547   1.928   2.937  14.949 -1.4462 -0.1319  1.5123
 3638SOL    HW222548   1.993   2.884  14.839 -0.8942  0.7402 -0.5159
 3639SOL     OW22549   1.451   1.226  12.477  0.1394 -0.1197 -0.1592
 3639SOL    HW122550   1.515   1.157  12.458 -1.1804 -1.4725  0.2955
 3639SOL    HW222551   1.398   1.179  12.542  1.8388 -0.0885  1.2520
 3640SOL     OW22552   1.413   2.615  13.322 -0.3767 -0.0327  0.2059
 3640SOL    HW122553   1.388   2.625  13.414  2.5077 -3.1791  1.3166
 3640SOL    HW222554   1.337   2.658  13.282  0.8713  1.2834 -0.7617
 3641SOL     OW22555   1.035   4.359   3.460 -0.7220  0.0778  0.3830
 3641SOL    HW122556   1.036   4.449   3.494  2.8023  0.0842  0.2020
 3641SOL    HW222557   0.971   4.373   3.390 -0.4323  0.5317  0.2068
 3642SOL     OW22558   3.654   1.896  15.482  0.4956 -0.4589 -0.1719
 3642SOL    HW122559   3.694   1.961  15.424 -1.2818 -0.5175 -1.4705
 3642SOL    HW222560   3.606   1.954  15.541  1.8904  1.9189 -1.3443
 3643SOL     OW22561   1.248   2.542   2.562  0.1057  0.5770  0.5342
 3643SOL    HW122562   1.279   2.551   2.472  0.9439  2.1751  0.9783
 3643SOL    HW222563   1.242   2.635   2.584 -0.2571  0.8720 -0.8094
 3644SOL     OW22564   0.603   3.188   4.151 -0.2076  0.3128 -0.2263
 3644SOL    HW122565   0.580   3.281   4.140 -0.4185  0.4435  1.3543
 3644SOL    HW222566   0.565   3.175   4.237 -1.0438  1.0634 -0.4725
 3645SOL     OW22567   2.186   3.432   5.971  0.1709  0.3003 -0.2233
 3645SOL    HW122568   2.223   3.434   5.883 -1.0624 -0.3048 -0.7551
 3645SOL    HW222569   2.111   3.491   5.957 -0.6027 -0.3856  0.9960
 3646SOL     OW22570   4.363   2.427   4.631 -0.0505 -0.4482 -0.4296
 3646SOL    HW122571   4.458   2.422   4.624 -0.2531 -4.3106 -0.6787
 3646SOL    HW222572   4.353   2.520   4.649  1.0843 -0.2211 -1.0230
 3647SOL     OW22573   2.201   3.491   4.502  0.3181 -0.4170 -1.0791
 3647SOL    HW122574   2.206   3.525   4.413  2.3137  1.0601 -0.4007
 3647SOL    HW222575   2.225   3.400   4.485  2.8128 -0.2290  1.4914
 3648SOL     OW22576   2.944   2.375   7.993 -0.6124 -0.0292 -0.5762
 3648SOL    HW122577   2.920   2.283   7.986  1.3387 -0.7150  1.5839
 3648SOL    HW222578   3.025   2.356   8.041  0.7916  1.8184 -2.1887
 3649SOL     OW22579   0.666   0.152  12.451 -0.3544  0.0032  0.3583
 3649SOL    HW122580   0.634   0.238  12.424  0.7311  0.6202  1.0538
 3649SOL    HW222581   0.754   0.169  12.416  0.3083  1.5946  2.7805
 3650SOL     OW22582   0.612   1.795  10.172  0.0448 -0.3152  0.3432
 3650SOL    HW122583   0.703   1.804  10.147 -0.2425  1.6293  0.0052
 3650SOL    HW222584   0.597   1.710  10.131 -2.6109  0.1150  0.3991
 3651SOL     OW22585   0.816   1.293   9.943 -0.3315  1.2453  0.0019
 3651SOL    HW122586   0.847   1.334   9.862 -0.3800 -1.1393 -1.1984
 3651SOL    HW222587   0.860   1.347  10.009 -2.1765  2.2181  0.4290
 3652SOL     OW22588   1.037   4.609   7.186 -0.0460 -0.3154  0.0814
 3652SOL    HW122589   1.088   4.629   7.265  2.3481 -1.8846 -1.0822
 3652SOL    HW222590   0.950   4.640   7.211  0.0079 -1.1008  1.2315
 3653SOL     OW22591   3.668   0.568   4.915 -0.4530 -0.5387  0.3103
 3653SOL    HW122592   3.654   0.641   4.856  0.8839 -1.1354 -0.7416
 3653SOL    HW222593   3.730   0.607   4.977  0.7950  2.0919 -2.6136
 3654SOL     OW22594   4.364   0.646   5.727 -0.3879 -0.3147 -0.1847
 3654SOL    HW122595   4.445   0.634   5.676 -0.2536 -0.0649 -0.0341
 3654SOL    HW222596   4.322   0.567   5.694 -2.3466  0.5035  0.3482
 3655SOL     OW22597   1.591   1.591   4.198  0.2573  0.2122  0.0541
 3655SOL    HW122598   1.613   1.576   4.106  0.7775 -1.1711  0.4020
 3655SOL    HW222599   1.511   1.640   4.177  1.3083  1.9302  0.0789
 3656SOL     OW22600   3.801   1.942   8.404  0.3539 -0.7443  0.3893
 3656SOL    HW122601   3.751   2.021   8.388  0.8566 -0.1937  1.5737
 3656SOL    HW222602   3.776   1.899   8.322  1.8026 -0.6561 -0.1065
 3657SOL     OW22603   1.498   1.375   6.827  0.0365 -0.1132  0.2696
 3657SOL    HW122604   1.475   1.437   6.757  0.2789 -0.8903 -0.4939
 3657SOL    HW222605   1.501   1.425   6.909 -2.4175 -0.4932  0.6092
 3658SOL     OW22606   3.961   3.559  15.538  0.3040 -0.7354 -1.0585
 3658SOL    HW122607   4.041   3.507  15.531 -0.0945 -1.3046 -1.3793
 3658SOL    HW222608   3.934   3.559  15.446  0.0806  3.3461 -1.0307
 3659SOL     OW22609   2.399   4.330  15.434 -0.7863  0.6089  0.2501
 3659SOL    HW122610   2.327   4.270  15.413 -0.2464 -0.6866  2.1012
 3659SOL    HW222611   2.365   4.419  15.424  1.4119  1.3727 -0.3530
 3660SOL     OW22612   2.557   2.635   3.978 -0.2846 -0.2498 -0.3816
 3660SOL    HW122613   2.593   2.554   3.943  1.3474  0.4253 -0.2671
 3660SOL    HW222614   2.559   2.696   3.905 -0.5403  3.2814  2.5469
 3661SOL     OW22615   3.210   1.243   8.277 -0.3472 -0.2711  0.2384
 3661SOL    HW122616   3.268   1.229   8.202 -0.0492  2.5260 -0.0532
 3661SOL    HW222617   3.183   1.151   8.283 -0.1702 -0.2425  1.4343
 3662SOL     OW22618   1.593   1.608   5.932  0.4311  0.4097 -0.1111
 3662SOL    HW122619   1.688   1.621   5.926  0.7881 -1.5165  1.3173
 3662SOL    HW222620   1.556   1.694   5.952 -1.9220 -0.5742 -0.1815
 3663SOL     OW22621   1.144   0.999   1.945  0.1325 -0.0635 -0.2213
 3663SOL    HW122622   1.150   0.993   1.850 -0.3437  1.0377 -0.3153
 3663SOL    HW222623   1.074   0.940   1.972  0.7581 -0.1596  1.2241
 3664SOL     OW22624   1.894   3.008   1.381  0.4663  0.0745  0.3149
 3664SOL    HW122625   1.845   3.087   1.357  2.2600  1.7234  2.0512
 3664SOL    HW222626   1.899   2.969   1.293 -1.1271 -0.9270  0.6683
 3665SOL     OW22627   3.061   2.558   7.559 -0.7064  0.2658  0.4128
 3665SOL    HW122628   3.064   2.591   7.649 -0.0183  1.3664 -0.0073
 3665SOL    HW222629   2.966   2.560   7.547 -0.9165  0.9884  2.2550
 3666SOL     OW22630   4.464   4.116  16.523  0.4318 -0.0860 -0.7554
 3666SOL    HW122631   4.412   4.183  16.568 -1.2586  0.2970 -3.2704
 3666SOL    HW222632   4.511   4.082  16.599  1.3187  1.1622 -0.7291
 3667SOL     OW22633   2.743   1.893   1.908  0.2406  0.1067  0.2323
 3667SOL    HW122634   2.691   1.972   1.927 -0.0558 -0.3921  1.5009
 3667SOL    HW222635   2.759   1.904   1.814  1.1891  1.9583  0.6030
 3668SOL     OW22636   2.785   0.791  10.652  0.1426  0.6877 -0.1676
 3668SOL    HW122637   2.772   0.728  10.581  2.6353 -1.0213  0.8732
 3668SOL    HW222638   2.829   0.743  10.722 -1.4318  0.6173  0.7669
 3669SOL     OW22639   3.070   3.224   3.448 -0.6213  0.0134 -0.5349
 3669SOL    HW122640   3.150   3.226   3.396 -0.3945 -2.0205 -0.2617
 3669SOL    HW222641   3.075   3.309   3.492 -1.8558  0.1387 -0.6359
 3670SOL     OW22642   0.023   3.151   5.209 -0.0829  0.1909 -0.0125
 3670SOL    HW122643   4.710   3.071   5.193 -0.5918  0.3118  0.9244
 3670SOL    HW222644   0.110   3.126   5.179 -0.4195 -1.5633  0.4496
 3671SOL     OW22645   1.552   1.230  15.006 -0.0059  0.4747  0.1839
 3671SOL    HW122646   1.500   1.256  15.083  1.0083 -0.9140  1.3430
 3671SOL    HW222647   1.569   1.138  15.027 -0.7231  0.3377  0.1779
 3672SOL     OW22648   0.406   3.295   5.334  0.0313 -0.3056  0.1576
 3672SOL    HW122649   0.371   3.210   5.360 -0.8898 -0.9756 -3.2041
 3672SOL    HW222650   0.348   3.360   5.372  1.3883  1.0596 -0.1001
 3673SOL     OW22651   0.528   1.862   7.141 -0.4359  0.6935  0.0631
 3673SOL    HW122652   0.471   1.785   7.145  0.1770  0.1214 -2.2224
 3673SOL    HW222653   0.603   1.818   7.100 -1.6349 -1.2227 -0.0590
 3674SOL     OW22654   0.961   1.820   4.604 -0.3072  0.6194  0.7664
 3674SOL    HW122655   0.963   1.835   4.698 -1.5543  2.3140  0.5110
 3674SOL    HW222656   1.052   1.831   4.575 -0.5147 -0.8518 -0.4570
 3675SOL     OW22657   3.035   3.478   3.591 -0.0072 -0.7569  0.3295
 3675SOL    HW122658   3.126   3.506   3.591 -0.3045  0.2151  2.0107
 3675SOL    HW222659   3.007   3.540   3.658 -1.0484 -1.2993  0.3984
 3676SOL     OW22660   0.356   3.950   6.306 -0.8825  0.2830  0.2732
 3676SOL    HW122661   0.359   3.938   6.401  1.2404  1.0357  0.2737
 3676SOL    HW222662   0.272   3.906   6.290 -0.3042 -1.2399  1.4850
 3677SOL     OW22663   0.910   0.021  11.040 -0.4339  0.5706  0.0593
 3677SOL    HW122664   0.823   0.014  11.079  0.5683 -1.5000  1.9179
 3677SOL    HW222665   0.884   0.057  10.955  2.3550  2.2967 -0.0862
 3678SOL     OW22666   1.923   0.421   3.859 -0.9418  0.6685  0.1477
 3678SOL    HW122667   1.844   0.415   3.805 -0.2088  0.7696 -0.9291
 3678SOL    HW222668   1.985   0.458   3.797 -1.8844  0.7208 -0.7700
 3679SOL     OW22669   1.522   4.377  11.831  0.2442 -0.1023 -0.6547
 3679SOL    HW122670   1.439   4.400  11.873  0.7626  0.4888  0.0357
 3679SOL    HW222671   1.484   4.401  11.746  0.5490 -1.2919 -1.1301
 3680SOL     OW22672   3.493   2.485   2.892 -0.2564 -0.6647 -0.1429
 3680SOL    HW122673   3.491   2.449   2.803 -1.2988 -1.2711  0.1261
 3680SOL    HW222674   3.521   2.408   2.941  2.4059 -0.3815 -1.2376
 3681SOL     OW22675   1.633   3.150  16.268 -0.1559  0.2767 -0.0555
 3681SOL    HW122676   1.626   3.082  16.202  3.2110  0.8896 -1.0710
 3681SOL    HW222677   1.558   3.203  16.240  0.1158  0.7452  0.0903
 3682SOL     OW22678   1.519   4.681   7.401  0.2161  0.2730 -0.6582
 3682SOL    HW122679   1.499   0.004   7.473 -1.7650 -2.9949  1.5146
 3682SOL    HW222680   1.478   4.720   7.323  0.0891  1.6552  0.0944
 3683SOL     OW22681   1.722   3.893   9.462 -0.1533  0.3675 -0.6718
 3683SOL    HW122682   1.674   3.961   9.415  0.2424 -2.0284 -4.5922
 3683SOL    HW222683   1.784   3.875   9.391  0.4492 -1.5246  0.3340
 3684SOL     OW22684   1.168   0.460  17.277  0.7907  0.9676 -0.8329
 3684SOL    HW122685   1.252   0.498  17.253  2.6324 -3.6405 -1.6966
 3684SOL    HW222686   1.135   0.509  17.353  4.1321  0.9627  0.6049
 3685SOL     OW22687   1.637   2.454   5.608 -0.0928  0.9547 -0.6191
 3685SOL    HW122688   1.617   2.527   5.549  0.4252  0.7659 -1.0341
 3685SOL    HW222689   1.714   2.423   5.561  0.8115  0.7603  1.0018
 3686SOL     OW22690   1.278   1.314   7.967  0.2274  0.3533  0.0804
 3686SOL    HW122691   1.288   1.409   7.974  0.8924  0.3091 -0.2189
 3686SOL    HW222692   1.372   1.296   7.966 -0.2573 -2.1882  0.6068
 3687SOL     OW22693   2.393   0.924   6.732  0.1249 -0.2112 -0.3840
 3687SOL    HW122694   2.356   0.980   6.663 -0.9319  1.2117  1.3489
 3687SOL    HW222695   2.335   0.950   6.803  0.3696  0.5365 -0.4485
 3688SOL     OW22696   0.896   4.731   4.235  0.7482  0.1491 -0.4837
 3688SOL    HW122697   0.821   0.019   4.182 -1.9449 -3.4803  1.5707
 3688SOL    HW222698   0.928   0.077   4.270 -0.4528  0.1632  0.5676
 3689SOL     OW22699   0.965   1.490   4.579  0.3124  0.3354  0.5129
 3689SOL    HW122700   1.022   1.443   4.639  1.7942  1.0728 -0.3196
 3689SOL    HW222701   0.969   1.581   4.609  3.0034  0.1187  0.7431
 3690SOL     OW22702   2.718   1.106  13.049 -0.6103 -0.0472  0.3386
 3690SOL    HW122703   2.709   1.076  13.139  0.3170 -0.2452  0.3626
 3690SOL    HW222704   2.811   1.087  13.036 -1.1143 -0.6046 -2.5489
 3691SOL     OW22705   4.112   2.353   7.353 -0.1762  0.2850 -0.3981
 3691SOL    HW122706   4.052   2.363   7.280  0.7962  0.4364 -1.1758
 3691SOL    HW222707   4.193   2.340   7.304 -0.5917 -1.5962 -0.5902
 3692SOL     OW22708   1.698   4.007   2.685  0.1497  0.5400  0.0391
 3692SOL    HW122709   1.671   4.026   2.596  1.8378  1.5617 -0.2674
 3692SOL    HW222710   1.680   4.091   2.728 -0.9866 -0.4378  1.4718
 3693SOL     OW22711   3.989   3.092   4.379  0.0982  0.5330 -0.3690
 3693SOL    HW122712   3.918   3.078   4.441  1.2005 -1.1814  0.5242
 3693SOL    HW222713   3.995   3.187   4.380 -0.7084  0.5932 -1.5218
 3694SOL     OW22714   3.566   1.238  17.500 -0.0789 -0.2723 -0.0256
 3694SOL    HW122715   3.618   1.318  17.496  0.8461 -0.7751  1.9161
 3694SOL    HW222716   3.543   1.226  17.408 -2.0777 -1.8676  0.6832
 3695SOL     OW22717   3.290   1.380   7.425 -0.4405 -0.1750  0.5206
 3695SOL    HW122718   3.367   1.328   7.404 -1.6082 -2.0446  0.8554
 3695SOL    HW222719   3.339   1.450   7.468  2.5541 -1.3989 -0.9809
 3696SOL     OW22720   0.593   0.168  12.126 -0.0655 -0.0369  0.1636
 3696SOL    HW122721   0.582   0.222  12.204 -3.6343 -1.0904  0.3653
 3696SOL    HW222722   0.507   0.134  12.101 -0.3187 -0.2703  1.3797
 3697SOL     OW22723   1.770   2.483   4.431  0.2364 -0.1596 -0.1275
 3697SOL    HW122724   1.857   2.485   4.391  0.3152  0.8258  0.0932
 3697SOL    HW222725   1.757   2.577   4.443  0.5546 -0.1447  0.0780
 3698SOL     OW22726   0.546   2.038   2.492  0.1674 -0.6784  0.5955
 3698SOL    HW122727   0.489   2.039   2.569 -1.6489  0.9067 -0.7833
 3698SOL    HW222728   0.495   2.105   2.447  1.5616  0.9740  1.4697
 3699SOL     OW22729   1.873   4.121   6.748  0.2556 -0.0301  0.3437
 3699SOL    HW122730   1.964   4.135   6.721 -0.0715 -1.3810 -1.4599
 3699SOL    HW222731   1.896   4.068   6.824  0.5588  0.4938  0.6213
 3700SOL     OW22732   2.241   3.084  11.899 -0.0106  0.2872 -0.1645
 3700SOL    HW122733   2.187   3.162  11.904 -1.9200 -1.0264 -0.2046
 3700SOL    HW222734   2.327   3.102  11.861  0.5584 -1.1516  0.4305
 3701SOL     OW22735   2.395   2.025   3.961  0.3147  0.0995 -0.0351
 3701SOL    HW122736   2.397   2.019   4.057  1.1889  0.3281 -0.0376
 3701SOL    HW222737   2.387   2.120   3.954  1.1139  0.1888  0.2418
 3702SOL     OW22738   1.947   3.410   8.063  0.3390 -0.8326 -0.3444
 3702SOL    HW122739   1.859   3.429   8.030 -0.3565 -2.2391  0.6992
 3702SOL    HW222740   2.005   3.428   7.988 -1.6721  1.5446 -1.3180
 3703SOL     OW22741   2.337   1.159   6.469 -0.5764  0.1684 -0.3618
 3703SOL    HW122742   2.291   1.076   6.463  0.6928 -0.7044  2.2923
 3703SOL    HW222743   2.348   1.173   6.375 -1.5323  1.2840 -0.3194
 3704SOL     OW22744   4.396   4.703   4.914  0.3663 -0.6448  0.5092
 3704SOL    HW122745   4.443   4.619   4.908  1.7365  0.1440  0.1510
 3704SOL    HW222746   4.319   4.670   4.961 -0.4913  1.6594  0.7117
 3705SOL     OW22747   2.558   1.265   5.878 -0.2713  0.1228  0.1937
 3705SOL    HW122748   2.489   1.243   5.816  0.2326 -0.1067 -0.2835
 3705SOL    HW222749   2.527   1.212   5.952 -1.0611 -1.1906 -1.0751
 3706SOL     OW22750   1.219   2.958   4.222  0.0347 -0.2496 -0.0175
 3706SOL    HW122751   1.292   3.020   4.218  0.4883 -0.9365 -2.3663
 3706SOL    HW222752   1.218   2.909   4.139 -0.8961  1.0937 -0.7910
 3707SOL     OW22753   1.452   0.207   8.732  0.0400  0.0853  0.2175
 3707SOL    HW122754   1.480   0.247   8.649 -0.5862  0.7646  0.3327
 3707SOL    HW222755   1.498   0.124   8.732  0.8794  0.5482 -1.3631
 3708SOL     OW22756   1.541   0.303   7.377  0.3851 -0.1042  0.1584
 3708SOL    HW122757   1.566   0.340   7.292  0.0562 -3.0213 -1.2058
 3708SOL    HW222758   1.580   0.373   7.430 -0.0057 -0.6916  1.2040
 3709SOL     OW22759   0.848   4.085   9.390 -0.0582 -0.1534  0.8386
 3709SOL    HW122760   0.818   4.082   9.481  1.0346 -1.5216  1.1454
 3709SOL    HW222761   0.928   4.136   9.392 -1.3356  1.9330 -1.6110
 3710SOL     OW22762   3.240   4.701   0.909  0.5960  0.1229 -0.5295
 3710SOL    HW122763   3.306   4.632   0.900  1.3647  1.0117 -1.8005
 3710SOL    HW222764   3.281   0.034   0.858  2.2729 -0.5062 -0.0342
 3711SOL     OW22765   4.546   2.219   7.936 -0.1348 -0.1663 -0.0036
 3711SOL    HW122766   4.466   2.238   7.985 -0.7861  0.4587 -1.2985
 3711SOL    HW222767   4.516   2.246   7.849  0.7312  0.7833 -0.0106
 3712SOL     OW22768   4.102   3.684  12.057  0.6062 -0.4276  0.2463
 3712SOL    HW122769   4.189   3.694  12.097 -0.3935 -0.7310  2.5282
 3712SOL    HW222770   4.124   3.694  11.965 -0.8629  1.1602  0.0741
 3713SOL     OW22771   1.309   3.976   7.013  0.0238 -0.1810 -0.2861
 3713SOL    HW122772   1.328   4.069   7.029 -0.0438 -0.2339  0.0952
 3713SOL    HW222773   1.308   3.967   6.918  0.2665 -0.0468 -0.3013
 3714SOL     OW22774   3.317   0.795  15.021  0.1324  0.5845 -0.0966
 3714SOL    HW122775   3.328   0.751  14.936 -1.1959  1.2796 -0.6188
 3714SOL    HW222776   3.374   0.736  15.071  2.6002  1.2321 -2.1215
 3715SOL     OW22777   1.525   1.909  14.658  0.3493 -0.1751  0.2526
 3715SOL    HW122778   1.438   1.868  14.656  0.3041 -0.1051  0.9219
 3715SOL    HW222779   1.580   1.831  14.649 -0.0350 -0.5751  1.3705
 3716SOL     OW22780   2.939   3.171   7.904 -0.2374 -0.2347  0.8898
 3716SOL    HW122781   2.996   3.109   7.948  0.0999 -1.6030 -1.4841
 3716SOL    HW222782   2.891   3.110   7.848 -0.5543  1.0125 -0.1966
 3717SOL     OW22783   2.531   1.533   3.472 -0.8395 -0.0767  0.1473
 3717SOL    HW122784   2.558   1.622   3.493 -0.0201 -0.3603  0.2796
 3717SOL    HW222785   2.435   1.536   3.475 -0.9051 -3.1812  0.9853
 3718SOL     OW22786   2.402   1.492   1.540 -0.5175  0.7514 -0.1727
 3718SOL    HW122787   2.482   1.528   1.502 -1.4648  0.6516 -2.2583
 3718SOL    HW222788   2.415   1.399   1.525  0.4762  1.1290 -1.6770
 3719SOL     OW22789   4.208   0.852   7.922 -0.0102 -0.1425 -0.1434
 3719SOL    HW122790   4.141   0.784   7.934  0.8894 -0.9813  0.1327
 3719SOL    HW222791   4.177   0.877   7.835 -1.9308  2.6355  1.3700
 3720SOL     OW22792   4.086   4.600   8.677 -0.3440 -0.2714  0.1001
 3720SOL    HW122793   4.144   4.588   8.602 -0.7384 -1.6000  0.0228
 3720SOL    HW222794   3.996   4.577   8.654 -0.4207  0.5203 -0.4002
 3721SOL     OW22795   3.347   1.626   4.884 -0.2400 -0.6117 -0.1689
 3721SOL    HW122796   3.268   1.641   4.832  1.8822 -0.0665 -3.2776
 3721SOL    HW222797   3.364   1.533   4.873 -0.3376 -0.5399 -0.9794
 3722SOL     OW22798   0.074   2.097   7.442  0.1646  0.6860 -0.0869
 3722SOL    HW122799   0.092   2.145   7.361  1.7601 -0.1350 -0.2246
 3722SOL    HW222800   0.074   2.160   7.514  1.0366  0.2402  0.2997
 3723SOL     OW22801   2.063   4.057  14.882 -0.3900 -0.0275  0.2656
 3723SOL    HW122802   2.071   4.030  14.790  0.8813 -1.2165  0.7215
 3723SOL    HW222803   2.142   4.107  14.902 -1.4572  1.8093 -0.0564
 3724SOL     OW22804   0.138   3.476   2.231 -0.3067  0.3175 -0.3473
 3724SOL    HW122805   0.140   3.497   2.325  2.6399 -2.0118  0.1070
 3724SOL    HW222806   0.047   3.489   2.203 -1.4608 -0.1737  3.1303
 3725SOL     OW22807   4.259   4.333   3.950 -0.0554 -0.1460  0.2066
 3725SOL    HW122808   4.204   4.317   4.027  1.1597 -0.6807  0.9713
 3725SOL    HW222809   4.259   4.428   3.950 -1.4803 -0.1580  0.6688
 3726SOL     OW22810   1.655   0.945   2.135 -0.4157  0.2156  0.0860
 3726SOL    HW122811   1.573   0.945   2.086 -1.1829 -2.6189  1.3733
 3726SOL    HW222812   1.638   0.887   2.209 -1.9996 -0.7281 -1.0154
 3727SOL     OW22813   3.544   0.016   1.290  0.5066  0.5484  0.1678
 3727SOL    HW122814   3.577   4.668   1.260 -1.4687  0.0193 -0.4687
 3727SOL    HW222815   3.476   0.040   1.228 -0.9080 -1.1666  1.0545
 3728SOL     OW22816   3.282   3.249  15.820  0.0623  0.6671  0.6024
 3728SOL    HW122817   3.225   3.179  15.853  0.8025 -1.0281 -1.7383
 3728SOL    HW222818   3.242   3.335  15.831 -2.5946 -0.1945 -2.2138
 3729SOL     OW22819   1.975   0.986   3.022  0.1435 -0.5330 -0.4443
 3729SOL    HW122820   2.004   0.985   3.113 -2.7509  1.5889  0.5126
 3729SOL    HW222821   2.059   1.011   2.985  0.3310 -2.3811 -1.2902
 3730SOL     OW22822   3.179   2.813  16.317 -0.4346 -0.4910 -0.1939
 3730SOL    HW122823   3.192   2.845  16.406  2.6347 -2.1496 -0.0625
 3730SOL    HW222824   3.223   2.729  16.311  2.0142  0.5596  2.9397
 3731SOL     OW22825   4.500   3.598   9.587  0.1263  0.1445 -0.0918
 3731SOL    HW122826   4.479   3.685   9.620 -2.1427  0.2937 -1.9372
 3731SOL    HW222827   4.591   3.617   9.567 -0.1137 -0.1447 -1.4418
 3732SOL     OW22828   2.267   3.923   1.302 -0.6045 -0.4345  0.1022
 3732SOL    HW122829   2.355   3.954   1.321 -0.5321  0.2767 -1.4096
 3732SOL    HW222830   2.245   3.970   1.222  2.1815  0.9547  0.1944
 3733SOL     OW22831   1.568   3.095  13.384  0.5739  0.2966  0.0731
 3733SOL    HW122832   1.523   3.162  13.333 -0.3381 -1.4958 -1.4637
 3733SOL    HW222833   1.653   3.081  13.342  0.8021 -0.3534  0.7438
 3734SOL     OW22834   3.428   0.199  17.614  0.3700 -0.1103 -0.5552
 3734SOL    HW122835   3.354   0.138  17.617 -0.2785  0.7430  0.6817
 3734SOL    HW222836   3.382   0.279  17.589 -1.5753 -1.0783 -0.0930
 3735SOL     OW22837   0.187   0.891   2.969 -0.1329 -0.1765  0.4375
 3735SOL    HW122838   0.163   0.973   3.012  0.2425  1.2493 -2.0426
 3735SOL    HW222839   0.266   0.922   2.924 -0.2975 -0.0267  0.2456
 3736SOL     OW22840   0.651   2.351   5.433 -0.2135  0.1116  0.5049
 3736SOL    HW122841   0.735   2.347   5.478 -0.0676  3.0260  0.4826
 3736SOL    HW222842   0.596   2.296   5.489  1.5633 -0.5696  1.5807
 3737SOL     OW22843   3.572   4.409   2.337  0.5104  0.2053 -0.5233
 3737SOL    HW122844   3.498   4.396   2.278 -0.6875  2.3625  0.4898
 3737SOL    HW222845   3.595   4.317   2.348 -1.0751 -0.1227 -0.0575
 3738SOL     OW22846   1.622   4.422   1.841  0.0988 -0.0546  0.5541
 3738SOL    HW122847   1.679   4.392   1.912  3.2335  0.2490 -1.8462
 3738SOL    HW222848   1.638   4.345   1.786  1.4246  0.0019  0.8648
 3739SOL     OW22849   2.143   3.112   9.411 -0.2163 -0.1625 -0.5155
 3739SOL    HW122850   2.208   3.043   9.425 -0.1196 -0.1359 -0.8527
 3739SOL    HW222851   2.162   3.134   9.320  1.7612 -1.1648 -0.3677
 3740SOL     OW22852   1.240   0.205  17.202 -0.2575  0.2927  0.0433
 3740SOL    HW122853   1.282   0.194  17.287  0.5056  1.0258 -0.2424
 3740SOL    HW222854   1.208   0.295  17.213 -1.1899 -0.0466  0.0967
 3741SOL     OW22855   4.107   4.458   2.606  0.4481 -0.3139 -0.0532
 3741SOL    HW122856   4.114   4.551   2.585 -0.6831 -0.9967 -3.4671
 3741SOL    HW222857   4.012   4.443   2.603  0.2633  0.7675  0.6424
 3742SOL     OW22858   1.603   1.131   6.085  0.0665  0.2806 -0.3388
 3742SOL    HW122859   1.603   1.226   6.092 -0.0392  0.2319  0.4005
 3742SOL    HW222860   1.600   1.122   5.990  1.9030 -1.6607 -0.2192
 3743SOL     OW22861   1.511   1.002   6.297 -0.3908 -0.8647 -1.2223
 3743SOL    HW122862   1.556   1.046   6.225  0.9586 -0.5477 -0.1966
 3743SOL    HW222863   1.461   0.933   6.256 -0.2062 -2.0004  0.4474
 3744SOL     OW22864   0.698   2.874   4.190 -1.3061 -0.4224  0.5802
 3744SOL    HW122865   0.789   2.856   4.210 -0.6583  2.9437  0.7105
 3744SOL    HW222866   0.706   2.957   4.141  3.0846 -1.5271 -0.5669
 3745SOL     OW22867   0.120   4.512   3.149  0.3127 -0.0276 -0.4244
 3745SOL    HW122868   0.160   4.433   3.183  1.5097  0.1466 -1.4235
 3745SOL    HW222869   0.174   4.535   3.073  1.8539 -0.7598  0.4560
 3746SOL     OW22870   3.167   4.429   3.083 -0.7056  0.2537 -0.4101
 3746SOL    HW122871   3.120   4.364   3.135  1.6275  0.5258  2.0990
 3746SOL    HW222872   3.255   4.415   3.119 -0.7016  3.4815  0.8345
 3747SOL     OW22873   3.836   4.355  14.868 -0.6024  0.3537  0.0949
 3747SOL    HW122874   3.816   4.296  14.941  1.4169 -1.8523 -1.1348
 3747SOL    HW222875   3.769   4.423  14.875 -1.1974 -0.1873 -0.3444
 3748SOL     OW22876   0.054   2.574   4.349  0.0611 -0.7729  0.5353
 3748SOL    HW122877   4.712   2.629   4.353  0.0065 -0.8184  0.0664
 3748SOL    HW222878   0.117   2.643   4.369 -0.2834 -0.0901 -0.7509
 3749SOL     OW22879   0.143   0.181   6.166  0.4611 -0.4087  0.0493
 3749SOL    HW122880   0.237   0.192   6.156  0.4036 -1.4992 -1.6670
 3749SOL    HW222881   0.132   0.090   6.139 -0.1600  0.2080 -1.8282
 3750SOL     OW22882   0.823   1.538  17.605  0.1572 -0.5750  0.4666
 3750SOL    HW122883   0.909   1.516  17.641  0.9923 -1.4594 -2.0900
 3750SOL    HW222884   0.824   1.625  17.566  0.7634 -0.4072  0.8613
 3751SOL     OW22885   1.848   3.240  13.471 -0.6067 -0.1877 -0.4724
 3751SOL    HW122886   1.896   3.257  13.390 -2.1356 -2.4921 -1.8534
 3751SOL    HW222887   1.899   3.171  13.513 -0.2863 -0.5232 -1.3981
 3752SOL     OW22888   3.662   0.179   6.117  0.1050  0.5387 -0.3653
 3752SOL    HW122889   3.611   0.260   6.120 -1.1735 -0.2907  0.0443
 3752SOL    HW222890   3.746   0.205   6.077  1.3130 -3.3371 -0.3181
 3753SOL     OW22891   3.651   0.867  15.857 -0.0689 -0.4425  0.0368
 3753SOL    HW122892   3.575   0.918  15.828 -1.1387 -1.3669  1.2272
 3753SOL    HW222893   3.613   0.797  15.909  0.1458 -0.0917  0.6688
 3754SOL     OW22894   3.861   0.375  11.629 -0.0354 -0.1278  0.0508
 3754SOL    HW122895   3.782   0.344  11.674 -0.5243  0.6536 -0.2706
 3754SOL    HW222896   3.922   0.332  11.689  2.4127 -1.0636 -3.1668
 3755SOL     OW22897   0.771   0.294   7.672 -0.2793  0.2455  0.2068
 3755SOL    HW122898   0.690   0.335   7.643  0.3050 -0.0601 -1.8224
 3755SOL    HW222899   0.748   0.252   7.755 -0.8622 -1.4721 -0.8287
 3756SOL     OW22900   1.659   2.186   5.740 -0.3627  0.5338 -0.7339
 3756SOL    HW122901   1.618   2.264   5.703  0.9677  2.0920  1.0330
 3756SOL    HW222902   1.719   2.161   5.669 -1.8714 -0.1501 -1.7575
 3757SOL     OW22903   4.426   4.122   9.628 -0.0074 -0.0201  0.0878
 3757SOL    HW122904   4.356   4.154   9.686 -0.2516 -1.8391  0.8068
 3757SOL    HW222905   4.382   4.124   9.544  0.5292  0.1560 -0.1907
 3758SOL     OW22906   4.413   4.017   7.854  0.3534  0.4216 -0.4070
 3758SOL    HW122907   4.405   4.103   7.814 -1.5482  0.5026  0.1189
 3758SOL    HW222908   4.479   3.967   7.806  0.0666  3.2175 -3.7092
 3759SOL     OW22909   4.697   4.239   1.855  0.1669 -0.1643 -0.1593
 3759SOL    HW122910   4.670   4.310   1.913 -2.0428  0.5195 -2.0281
 3759SOL    HW222911   4.632   4.170   1.874  0.4727 -1.0769 -2.4673
 3760SOL     OW22912   3.949   2.307   4.183  0.2191 -0.0310 -0.0240
 3760SOL    HW122913   3.950   2.292   4.088 -2.7295  0.5618 -0.1731
 3760SOL    HW222914   3.875   2.368   4.189 -0.1490 -0.3736 -1.1767
 3761SOL     OW22915   0.146   4.236   5.738  0.2208 -0.2255  0.0275
 3761SOL    HW122916   0.217   4.253   5.676  1.5743 -1.0022  1.3662
 3761SOL    HW222917   0.206   4.175   5.779 -0.3071  0.1180  1.3224
 3762SOL     OW22918   1.043   1.922   1.680 -0.3705 -0.0448 -0.1240
 3762SOL    HW122919   1.066   2.012   1.703  2.5779 -0.9272  0.4267
 3762SOL    HW222920   1.051   1.879   1.766  0.6923 -2.5760 -1.4933
 3763SOL     OW22921   1.206   2.850   5.276 -0.3785 -0.6533  0.1692
 3763SOL    HW122922   1.295   2.884   5.270 -0.4148 -0.3282  1.7470
 3763SOL    HW222923   1.198   2.839   5.181 -0.5826  2.2231 -0.1334
 3764SOL     OW22924   2.708   3.617   0.389 -0.0916  0.9727 -0.6117
 3764SOL    HW122925   2.671   3.540   0.433 -1.2946  2.1491  0.4381
 3764SOL    HW222926   2.653   3.683   0.431 -1.0024 -0.8655  1.1072
 3765SOL     OW22927   4.433   2.932   1.602  0.7924  0.1315  0.5698
 3765SOL    HW122928   4.449   3.001   1.667  1.2337  1.6725 -1.2098
 3765SOL    HW222929   4.363   2.967   1.547 -0.2906 -2.6996  0.1714
 3766SOL     OW22930   0.482   3.608   4.536 -0.5813 -0.8781  0.4960
 3766SOL    HW122931   0.390   3.632   4.548 -0.2841 -0.2989  1.5710
 3766SOL    HW222932   0.512   3.691   4.500  0.1269 -0.6193  1.7040
 3767SOL     OW22933   4.106   0.422   7.778  0.1259 -0.3267  0.4529
 3767SOL    HW122934   4.015   0.396   7.768 -0.4118  1.2258  1.2547
 3767SOL    HW222935   4.141   0.343   7.820  2.2171  0.0859 -0.5118
 3768SOL     OW22936   0.037   1.090   4.963 -0.2013  0.3801 -0.1975
 3768SOL    HW122937   0.010   1.174   4.925  2.2263  0.1814 -2.3935
 3768SOL    HW222938   0.088   1.113   5.041 -0.0230 -0.3985 -0.0787
 3769SOL     OW22939   2.484   1.763  17.134 -0.3783 -0.4125 -0.1405
 3769SOL    HW122940   2.455   1.809  17.055  1.3394 -1.2030 -1.2543
 3769SOL    HW222941   2.524   1.828  17.192 -0.4507  0.2499 -0.8318
 3770SOL     OW22942   3.318   3.077   4.269  0.8578 -0.1445  0.2227
 3770SOL    HW122943   3.333   3.073   4.363 -0.1267  1.4998  0.4495
 3770SOL    HW222944   3.393   3.129   4.241  0.6866  0.1808  0.3608
 3771SOL     OW22945   3.640   4.116   8.787 -0.0395  0.3136 -0.0399
 3771SOL    HW122946   3.674   4.029   8.767  1.1955  1.0646 -1.2042
 3771SOL    HW222947   3.629   4.150   8.698  0.8848  0.8136  0.0366
 3772SOL     OW22948   3.433   2.833   3.973 -0.0767 -0.2905  0.0055
 3772SOL    HW122949   3.485   2.904   3.937 -1.4407  1.2372  1.0542
 3772SOL    HW222950   3.444   2.764   3.907  0.1423  1.5796 -1.9011
 3773SOL     OW22951   1.697   3.029   4.512  0.3177 -0.4653  0.0211
 3773SOL    HW122952   1.642   3.043   4.589  0.5150 -2.2922  0.4814
 3773SOL    HW222953   1.675   3.108   4.462  2.1395  1.3015  2.0038
 3774SOL     OW22954   2.662   3.085   5.055 -0.4386  0.5975 -0.7640
 3774SOL    HW122955   2.742   3.054   5.011 -0.5062  0.2087 -0.6095
 3774SOL    HW222956   2.638   3.167   5.012 -0.8204  1.8616  1.8848
 3775SOL     OW22957   0.646   3.177   0.171 -0.1293 -0.8523  0.3822
 3775SOL    HW122958   0.690   3.096   0.145 -0.2511 -0.9669  0.5352
 3775SOL    HW222959   0.658   3.196   0.264 -0.1850  0.7354  0.0594
 3776SOL     OW22960   0.670   3.262  15.838 -0.6586  0.0645  0.2603
 3776SOL    HW122961   0.634   3.351  15.846 -0.2521  0.3377 -0.8542
 3776SOL    HW222962   0.613   3.220  15.902 -0.2035  1.1065  1.3554
 3777SOL     OW22963   4.689   0.437   8.880 -0.7989 -0.1889 -0.2121
 3777SOL    HW122964   0.037   0.481   8.874  0.6117 -3.2551 -2.4600
 3777SOL    HW222965   4.707   0.348   8.910  3.2131  0.9558  0.8345
 3778SOL     OW22966   0.577   3.518   9.650 -0.1436  0.0398 -0.0326
 3778SOL    HW122967   0.648   3.509   9.587 -0.4350 -0.1530 -0.3336
 3778SOL    HW222968   0.540   3.430   9.658 -1.5189  0.7122  1.0768
 3779SOL     OW22969   3.453   1.665   8.058 -0.2532 -0.2215 -0.4099
 3779SOL    HW122970   3.423   1.591   8.111  0.1195  0.4321  0.7205
 3779SOL    HW222971   3.378   1.723   8.052  0.2262  0.2470 -1.8000
 3780SOL     OW22972   0.542   3.915   8.388  0.6774 -0.0549 -0.0209
 3780SOL    HW122973   0.623   3.864   8.391 -0.2845 -1.5126  1.3143
 3780SOL    HW222974   0.569   3.986   8.330 -2.6855  3.0261  2.2288
 3781SOL     OW22975   1.309   3.943   9.888 -0.5263 -0.2813 -0.6303
 3781SOL    HW122976   1.301   3.847   9.889  0.8753 -0.3641  2.1009
 3781SOL    HW222977   1.224   3.953   9.847 -0.8322 -0.2934  0.0078
 3782SOL     OW22978   1.964   2.799  16.894 -0.3034 -0.5965 -0.1737
 3782SOL    HW122979   2.037   2.750  16.858  1.5685 -0.6160  3.6206
 3782SOL    HW222980   1.911   2.823  16.818 -0.4293  0.0980  0.1284
 3783SOL     OW22981   0.077   0.694   6.218 -0.4355  0.1918 -0.1785
 3783SOL    HW122982   4.734   0.672   6.170  0.0495 -1.7451 -0.0849
 3783SOL    HW222983   0.139   0.679   6.146 -1.4306  1.0950 -1.2202
 3784SOL     OW22984   4.211   1.955   7.226 -0.0882  0.6351  0.0572
 3784SOL    HW122985   4.227   1.886   7.160 -0.7792  0.4021  0.1339
 3784SOL    HW222986   4.158   2.017   7.177 -2.3639  0.2123  1.9807
 3785SOL     OW22987   3.333   3.101   5.627  0.1024  0.5631 -0.4814
 3785SOL    HW122988   3.253   3.151   5.619 -0.5070  0.0286  2.2660
 3785SOL    HW222989   3.393   3.137   5.561  0.5515  0.1924 -0.2785
 3786SOL     OW22990   2.650   3.397  14.643  0.6506  0.1359 -0.1178
 3786SOL    HW122991   2.576   3.354  14.600  0.4848 -0.9127  1.1976
 3786SOL    HW222992   2.667   3.467  14.581  1.5536 -0.7522 -0.8696
 3787SOL     OW22993   0.905   3.705   3.802 -0.0764 -0.0753 -0.2827
 3787SOL    HW122994   0.872   3.758   3.875 -0.9773  0.7018 -1.2610
 3787SOL    HW222995   0.926   3.772   3.737  1.3119  2.1929  2.4919
 3788SOL     OW22996   3.158   1.704   6.026  0.3159 -0.2685 -0.1482
 3788SOL    HW122997   3.104   1.652   6.086 -1.1287  1.3628 -0.0596
 3788SOL    HW222998   3.095   1.732   5.960  2.2634  0.7968 -1.5766
 3789SOL     OW22999   4.641   0.521   5.273  0.2499  0.4355 -0.0231
 3789SOL    HW123000   4.546   0.515   5.266  0.1286  1.0606  1.1411
 3789SOL    HW223001   4.658   0.439   5.226  0.4843 -0.3591  1.4828
 3790SOL     OW23002   4.073   0.827   2.457  0.0787  0.8540  0.0248
 3790SOL    HW123003   4.023   0.902   2.426  0.3659  1.6095  1.4288
 3790SOL    HW223004   4.072   0.772   2.379 -0.2904  1.2551 -0.2539
 3791SOL     OW23005   3.197   0.696   5.829 -0.4685 -0.2223  0.0898
 3791SOL    HW123006   3.158   0.617   5.791  2.0536 -1.5773  0.3169
 3791SOL    HW223007   3.174   0.753   5.755  2.1374 -0.7155 -1.0830
 3792SOL     OW23008   4.412   2.710  11.634  0.0183 -0.3205  0.6755
 3792SOL    HW123009   4.400   2.678  11.723  1.1619  0.5502  1.1409
 3792SOL    HW223010   4.333   2.668  11.599  0.4879  0.0312 -0.8189
 3793SOL     OW23011   3.508   1.454   7.599 -1.0108 -0.2795 -0.2547
 3793SOL    HW123012   3.532   1.495   7.682 -0.2783  2.1290 -1.6652
 3793SOL    HW223013   3.546   1.366   7.606 -0.2948  0.0249 -0.3309
 3794SOL     OW23014   2.984   4.627   1.820  0.1109  0.3698 -0.0176
 3794SOL    HW123015   2.914   4.568   1.793 -0.4843  1.5716 -1.1213
 3794SOL    HW223016   3.045   4.617   1.747  0.1910 -2.3711  0.4387
 3795SOL     OW23017   3.859   1.003  13.902 -0.6373  0.5248 -0.0383
 3795SOL    HW123018   3.864   1.099  13.904 -0.6075  0.4860  1.5105
 3795SOL    HW223019   3.823   0.987  13.815 -0.1141 -0.1692 -0.1260
 3796SOL     OW23020   1.421   2.685   8.320 -0.1492 -0.3567 -0.6091
 3796SOL    HW123021   1.379   2.759   8.275  2.5600  0.7248 -1.3723
 3796SOL    HW223022   1.413   2.623   8.248 -3.0140  0.2654 -0.8119
 3797SOL     OW23023   1.886   3.205   5.866 -0.2467  0.8728 -0.1733
 3797SOL    HW123024   1.813   3.268   5.868 -0.0922  1.0717 -0.7902
 3797SOL    HW223025   1.937   3.247   5.797 -0.5683 -0.1321 -1.0146
 3798SOL     OW23026   2.090   4.001   4.337 -0.6631 -0.2014 -0.2350
 3798SOL    HW123027   2.047   4.083   4.314  1.1932  0.5751 -0.9388
 3798SOL    HW223028   2.147   4.031   4.407 -0.5964 -0.4769 -0.1700
 3799SOL     OW23029   1.236   3.512   8.706  0.0043  0.3247 -0.4404
 3799SOL    HW123030   1.273   3.585   8.756  2.2144 -0.6882 -0.6050
 3799SOL    HW223031   1.187   3.557   8.638  0.1194  0.4812 -0.4191
 3800SOL     OW23032   2.119   2.466  15.148 -0.3066  0.0660 -0.3894
 3800SOL    HW123033   2.079   2.382  15.170 -2.7788  0.3187 -3.9574
 3800SOL    HW223034   2.070   2.515  15.215  0.7873  1.5727 -0.6937
 3801SOL     OW23035   3.843   2.589   6.802  0.1864 -0.4230  0.4917
 3801SOL    HW123036   3.816   2.508   6.845 -2.5421 -0.1902 -0.7871
 3801SOL    HW223037   3.812   2.660   6.857 -1.6943  0.9488 -2.3074
 3802SOL     OW23038   1.401   4.096   8.388  0.3805 -0.2541  0.9384
 3802SOL    HW123039   1.450   4.176   8.368  1.3997 -0.9558  0.6247
 3802SOL    HW223040   1.363   4.116   8.474 -2.0160  1.0858 -0.4075
 3803SOL     OW23041   0.422   4.619   2.864 -0.2316 -0.2745 -0.2833
 3803SOL    HW123042   0.425   4.532   2.902 -0.7026 -0.8341 -1.5346
 3803SOL    HW223043   0.408   4.677   2.939  2.2986 -1.1834  0.8605
 3804SOL     OW23044   3.828   3.499   2.372 -0.6082  0.4945  0.3865
 3804SOL    HW123045   3.883   3.421   2.369 -1.4384 -0.1267  1.3585
 3804SOL    HW223046   3.884   3.550   2.431 -0.5412 -0.0001  0.7487
 3805SOL     OW23047   0.286   0.409   9.396 -0.2517 -0.3984 -0.1332
 3805SOL    HW123048   0.235   0.434   9.473  1.1971 -0.9449  0.9932
 3805SOL    HW223049   0.295   0.498   9.362 -2.0555 -1.0142 -2.2878
 3806SOL     OW23050   4.519   2.534   7.189 -0.0421 -0.1383 -0.0564
 3806SOL    HW123051   4.588   2.510   7.251  0.8068 -2.1319 -1.7788
 3806SOL    HW223052   4.569   2.585   7.125  1.3700  1.7335  2.5256
 3807SOL     OW23053   1.654   0.725   7.104  0.7643 -0.2536  0.0442
 3807SOL    HW123054   1.681   0.802   7.055 -0.9596 -0.0937 -0.6562
 3807SOL    HW223055   1.568   0.744   7.141  0.7522 -1.0852  0.4655
 3808SOL     OW23056   2.352   3.566   2.235 -0.6256 -0.1431  0.0425
 3808SOL    HW123057   2.272   3.532   2.195  0.9171 -0.4071 -2.7943
 3808SOL    HW223058   2.374   3.635   2.172  0.1727 -1.6826 -1.3531
 3809SOL     OW23059   0.014   4.735   4.940  0.2122 -0.1862  0.1747
 3809SOL    HW123060   0.009   4.717   5.034 -0.0230  0.5634  0.3091
 3809SOL    HW223061   4.706   4.656   4.911  1.1184 -1.6235  2.7418
 3810SOL     OW23062   4.543   1.855   3.045 -0.2061  0.1822 -0.2690
 3810SOL    HW123063   4.507   1.838   2.958  1.1243  0.0626 -0.7846
 3810SOL    HW223064   4.534   1.771   3.090 -1.1811  0.4324  0.0162
 3811SOL     OW23065   2.314   3.874   3.089 -0.2632  0.1591  0.8591
 3811SOL    HW123066   2.330   3.819   3.011 -1.6704  0.3692  0.4257
 3811SOL    HW223067   2.387   3.936   3.093  0.6566 -0.9161  0.8577
 3812SOL     OW23068   0.652   2.520  11.243 -0.0596  0.2550 -1.3499
 3812SOL    HW123069   0.564   2.557  11.249  0.4417  0.7611  2.8276
 3812SOL    HW223070   0.711   2.595  11.242  1.7646 -1.1422  0.5044
 3813SOL     OW23071   1.054   4.259   1.078  0.2160 -0.0458 -0.2704
 3813SOL    HW123072   0.996   4.306   1.139 -0.0166  1.6267 -1.7756
 3813SOL    HW223073   1.133   4.253   1.132 -2.3070 -1.8655  3.2821
 3814SOL     OW23074   4.730   3.861   4.851 -0.3652  0.2906 -0.3612
 3814SOL    HW123075   4.671   3.924   4.892  2.1171  2.1524  0.3715
 3814SOL    HW223076   0.017   3.822   4.936  2.2015 -0.8861 -1.6374
 3815SOL     OW23077   2.151   1.434  10.603 -1.0630 -0.2260  0.3269
 3815SOL    HW123078   2.223   1.438  10.666 -1.2891 -0.6346  0.6158
 3815SOL    HW223079   2.082   1.451  10.668 -0.6229 -1.1029  1.0413
 3816SOL     OW23080   0.520   2.130   6.916  0.0730  0.5696 -0.2911
 3816SOL    HW123081   0.546   2.053   6.865 -0.1635  1.6437 -2.0297
 3816SOL    HW223082   0.588   2.136   6.983  0.5836 -1.1044 -0.6639
 3817SOL     OW23083   2.510   2.707   1.127 -0.6602  0.3040 -0.1908
 3817SOL    HW123084   2.422   2.679   1.152 -1.4066  2.1161 -0.7883
 3817SOL    HW223085   2.481   2.777   1.068  0.1049  0.3918 -0.4653
 3818SOL     OW23086   4.706   1.911   6.836 -0.3955  0.4397  0.4349
 3818SOL    HW123087   4.716   1.871   6.750 -0.5490 -1.1386  1.1533
 3818SOL    HW223088   0.028   1.860   6.891 -0.0089 -0.5071 -0.8574
 3819SOL     OW23089   1.436   3.490   3.581  0.7280  0.1362  0.4563
 3819SOL    HW123090   1.408   3.493   3.490 -1.2997  0.0464  1.0723
 3819SOL    HW223091   1.451   3.582   3.601  1.0304  0.0549  0.6001
 3820SOL     OW23092   4.673   2.479  15.359  0.4933  0.5095  0.1929
 3820SOL    HW123093   0.023   2.509  15.331 -0.5928  1.9891 -1.5452
 3820SOL    HW223094   4.649   2.406  15.302  1.8862  1.4336 -1.5452
 3821SOL     OW23095   0.849   4.319   2.497 -0.0602 -0.4318 -0.2624
 3821SOL    HW123096   0.815   4.398   2.540  0.5573 -0.0913 -0.4056
 3821SOL    HW223097   0.938   4.316   2.533 -0.5799 -1.5681  0.9436
 3822SOL     OW23098   1.079   0.971   4.568  0.1743  0.0818 -0.0851
 3822SOL    HW123099   1.075   0.880   4.595  1.2691 -0.2447 -1.0114
 3822SOL    HW223100   1.074   0.962   4.473 -2.8450  1.6736 -0.1101
 3823SOL     OW23101   0.385   1.617   4.895  0.7043  0.4179  0.4311
 3823SOL    HW123102   0.366   1.633   4.987  1.0800  1.0496  0.3943
 3823SOL    HW223103   0.467   1.664   4.889  1.1829 -0.3809  0.6564
 3824SOL     OW23104   0.101   1.545   2.398  0.2118  0.5823  0.2093
 3824SOL    HW123105   0.065   1.512   2.315 -2.4450  0.5527  1.3584
 3824SOL    HW223106   0.130   1.631   2.368 -0.5545 -0.4168 -3.4822
 3825SOL     OW23107   2.357   1.429  10.809  0.3512 -0.3140  0.0538
 3825SOL    HW123108   2.417   1.464  10.876  1.2075 -0.0191 -0.8647
 3825SOL    HW223109   2.314   1.356  10.853  1.0346 -1.2379 -0.8023
 3826SOL     OW23110   4.354   2.083   7.450  0.3530  0.7718  0.6199
 3826SOL    HW123111   4.315   2.017   7.394  0.5668 -0.5353  2.0161
 3826SOL    HW223112   4.366   2.159   7.392 -1.4899 -0.1891 -0.9934
 3827SOL     OW23113   3.173   2.017   6.323  0.3325 -0.2786 -0.3120
 3827SOL    HW123114   3.206   2.099   6.287  0.3030  0.1096  0.5444
 3827SOL    HW223115   3.094   2.006   6.270  0.6389 -1.7615 -0.4654
 3828SOL     OW23116   0.473   3.845   6.990 -0.8846  0.3300 -0.5270
 3828SOL    HW123117   0.517   3.870   7.072 -1.7801  2.3379 -0.6660
 3828SOL    HW223118   0.446   3.754   7.005  0.7377  0.0439  0.7223
 3829SOL     OW23119   3.522   4.259   8.169 -0.0726  0.8505 -0.7891
 3829SOL    HW123120   3.575   4.240   8.247 -0.3249  0.3536 -0.7380
 3829SOL    HW223121   3.492   4.170   8.148  2.1194  0.0910 -0.6559
 3830SOL     OW23122   2.334   2.286   3.439  0.0566  0.2033  0.0864
 3830SOL    HW123123   2.335   2.347   3.513 -0.6745  1.2775 -0.8082
 3830SOL    HW223124   2.304   2.340   3.366 -0.9162  0.4175  0.6515
 3831SOL     OW23125   0.192   2.960   1.081  0.4031  1.0019  0.1219
 3831SOL    HW123126   0.245   2.885   1.109 -0.4422 -0.1980 -1.4842
 3831SOL    HW223127   0.238   2.985   1.000  0.9928 -0.3643  0.0296
 3832SOL     OW23128   4.189   3.525   7.414  0.2976  0.1075  0.0469
 3832SOL    HW123129   4.145   3.442   7.431 -0.7455  0.5209 -0.6644
 3832SOL    HW223130   4.120   3.568   7.363 -2.0053 -2.2000  1.2254
 3833SOL     OW23131   0.292   2.364   5.802  0.7246 -0.1432  0.7232
 3833SOL    HW123132   0.335   2.442   5.766 -2.5167  2.4041  2.4588
 3833SOL    HW223133   0.362   2.303   5.777  0.9852 -0.0450  1.2179
 3834SOL     OW23134   1.946   3.631   3.221 -0.3972  0.2403 -0.0704
 3834SOL    HW123135   1.979   3.621   3.132 -2.7846  2.3512 -1.1913
 3834SOL    HW223136   2.028   3.656   3.264  0.9362 -0.4083 -2.2288
 3835SOL     OW23137   3.428   4.524   5.002 -0.1561 -0.4517  0.0343
 3835SOL    HW123138   3.457   4.464   5.071  2.0642  0.4159 -0.1647
 3835SOL    HW223139   3.340   4.485   4.995 -0.6646  0.6176  0.5035
 3836SOL     OW23140   2.359   4.206  12.650 -0.3671 -0.2100  0.1198
 3836SOL    HW123141   2.384   4.147  12.578 -2.2134  2.3072 -2.5742
 3836SOL    HW223142   2.443   4.234  12.686 -1.0340  0.9160  0.7875
 3837SOL     OW23143   0.232   0.051  14.984 -0.1177  0.3608  0.1896
 3837SOL    HW123144   0.245   4.700  14.950  3.4338  1.1591 -0.5221
 3837SOL    HW223145   0.136   0.053  14.994 -0.2471  2.6249 -1.3249
 3838SOL     OW23146   1.951   0.344   5.155 -0.2158 -0.6315 -0.2414
 3838SOL    HW123147   1.965   0.255   5.124 -1.3116 -1.0478  0.4786
 3838SOL    HW223148   1.881   0.376   5.098  0.1275  1.6028  0.5891
 3839SOL     OW23149   2.125   3.446   8.489  0.0576 -0.3744  0.0540
 3839SOL    HW123150   2.111   3.369   8.543  0.8584  1.0935  2.3436
 3839SOL    HW223151   2.221   3.452   8.495 -0.0136 -0.1725  0.9310
 3840SOL     OW23152   2.311   1.881   6.596 -0.1525  0.1222  0.2780
 3840SOL    HW123153   2.323   1.934   6.517 -0.1722  2.3516  1.7720
 3840SOL    HW223154   2.341   1.796   6.563 -2.1757  0.5585 -2.6383
 3841SOL     OW23155   3.789   2.243  15.638 -0.0458 -0.5258 -0.4430
 3841SOL    HW123156   3.720   2.199  15.588 -1.8824 -1.5859  3.0102
 3841SOL    HW223157   3.740   2.313  15.681 -0.1846  0.8234 -2.7948
 3842SOL     OW23158   4.605   0.415   7.481 -0.0402  0.2406  0.2853
 3842SOL    HW123159   4.551   0.466   7.542 -1.0569 -1.5826  0.9004
 3842SOL    HW223160   4.582   0.323   7.491  1.3951 -0.5146 -3.1901
 3843SOL     OW23161   1.541   2.687   0.715 -0.0274 -0.5065 -0.1628
 3843SOL    HW123162   1.500   2.608   0.680 -0.4297  1.0481 -3.1822
 3843SOL    HW223163   1.538   2.751   0.644 -0.3101 -0.0863  0.2264
 3844SOL     OW23164   1.381   3.492   6.259  0.0952 -0.2349 -0.6012
 3844SOL    HW123165   1.461   3.528   6.219  2.1331 -3.0024  1.0433
 3844SOL    HW223166   1.409   3.409   6.297 -0.9403  0.5773  1.9452
 3845SOL     OW23167   2.905   3.697   3.735  0.0776 -0.5250 -0.1197
 3845SOL    HW123168   2.831   3.751   3.708 -0.0844 -0.5506  0.2677
 3845SOL    HW223169   2.955   3.742   3.803  0.8130 -2.6948  0.7724
 3846SOL     OW23170   4.630   2.106   9.312 -0.1434 -0.4329 -0.3136
 3846SOL    HW123171   4.550   2.097   9.363 -0.5586  1.7007 -0.6032
 3846SOL    HW223172   4.626   2.032   9.251 -1.8371 -1.3913  0.9828
 3847SOL     OW23173   2.278   4.736  10.861  0.5645  0.0202 -0.0277
 3847SOL    HW123174   2.373   0.007  10.855  0.5131 -0.6821 -1.8649
 3847SOL    HW223175   2.258   4.709  10.771 -0.3561 -0.0078  0.1855
 3848SOL     OW23176   0.602   0.895  12.642 -0.1059 -0.0435  0.1946
 3848SOL    HW123177   0.625   0.905  12.549 -0.7829  0.9402  0.1329
 3848SOL    HW223178   0.651   0.969  12.678  1.7738 -2.1151  1.8237
 3849SOL     OW23179   1.591   4.041   0.268 -0.4771 -0.3242  0.2334
 3849SOL    HW123180   1.665   4.049   0.328  1.1409 -2.1477 -1.5423
 3849SOL    HW223181   1.540   3.964   0.295  2.1209 -1.8453  0.7494
 3850SOL     OW23182   2.073   3.635   4.769 -0.4354  0.5018  0.0525
 3850SOL    HW123183   2.100   3.687   4.694  0.2124 -0.0690 -0.1145
 3850SOL    HW223184   2.017   3.576   4.720 -1.2375 -0.0593  1.6275
 3851SOL     OW23185   1.601   4.019   1.246 -0.4646  0.2696 -0.4035
 3851SOL    HW123186   1.681   4.048   1.289 -0.1644 -1.1014 -0.0232
 3851SOL    HW223187   1.560   4.105   1.244  0.2998  0.6407  0.1390
 3852SOL     OW23188   0.979   3.435   7.621 -0.3268  0.2804 -0.0354
 3852SOL    HW123189   0.940   3.349   7.607  0.0316 -0.1159  1.3715
 3852SOL    HW223190   1.065   3.421   7.582 -0.3094  1.4875 -0.4318
 3853SOL     OW23191   3.177   3.668   3.219  0.2671 -0.0170 -0.4943
 3853SOL    HW123192   3.088   3.637   3.200 -0.3519  0.4679  1.6374
 3853SOL    HW223193   3.171   3.665   3.315 -0.5086 -1.2055 -0.5731
 3854SOL     OW23194   1.267   0.323   5.978 -0.1246 -0.1659  0.0268
 3854SOL    HW123195   1.172   0.323   5.966  0.0611  0.6474 -1.4514
 3854SOL    HW223196   1.283   0.255   6.043 -0.5893  1.3832  1.7854
 3855SOL     OW23197   3.641   1.819   5.711  0.6556 -0.4337  0.1523
 3855SOL    HW123198   3.607   1.908   5.701 -1.3827 -1.1506  0.6232
 3855SOL    HW223199   3.591   1.790   5.787  0.4627  0.5081  0.3830
 3856SOL     OW23200   3.960   1.051   4.258  0.0711 -0.4439  0.0778
 3856SOL    HW123201   3.964   1.128   4.202 -1.6945 -0.3394  0.0819
 3856SOL    HW223202   4.053   1.031   4.264  0.0723 -0.8641 -1.4057
 3857SOL     OW23203   2.293   4.200   5.240  0.4351  0.0550  0.1561
 3857SOL    HW123204   2.229   4.131   5.257 -0.4627  0.7175 -0.5283
 3857SOL    HW223205   2.368   4.158   5.198 -0.1437 -1.1450  0.3124
 3858SOL     OW23206   2.551   0.103   3.733 -0.6083  0.3735  0.3997
 3858SOL    HW123207   2.520   0.016   3.708  0.2755 -0.0567  0.8374
 3858SOL    HW223208   2.471   0.143   3.769 -1.0650 -1.7323  1.7432
 3859SOL     OW23209   4.491   2.934   8.925 -0.0664 -0.0520 -0.3763
 3859SOL    HW123210   4.440   2.935   9.005 -2.9509 -0.7655 -2.2197
 3859SOL    HW223211   4.580   2.917   8.957 -0.0582  2.1870  0.7198
 3860SOL     OW23212   0.166   4.667   4.315 -0.1891  0.4260 -0.6656
 3860SOL    HW123213   0.175   0.017   4.276 -2.1829  0.7485 -0.3773
 3860SOL    HW223214   0.093   4.682   4.375  0.1257 -0.6290 -0.0284
 3861SOL     OW23215   2.676   1.767  16.157 -0.4429  0.1810 -0.1209
 3861SOL    HW123216   2.690   1.815  16.075 -0.9882 -0.8999 -0.8505
 3861SOL    HW223217   2.586   1.795  16.174 -0.6185  0.7238 -1.9064
 3862SOL     OW23218   0.554   0.829   6.969 -0.7557  0.5765 -0.4434
 3862SOL    HW123219   0.496   0.904   6.962 -1.8430 -0.4170 -2.1771
 3862SOL    HW223220   0.486   0.763   6.985 -0.5035  0.5361  0.4543
 3863SOL     OW23221   3.937   3.355   4.064  0.0261 -0.0781  0.1918
 3863SOL    HW123222   3.971   3.388   4.147  2.4200  2.1736 -1.6819
 3863SOL    HW223223   3.860   3.408   4.043 -0.5791 -0.6266  1.0453
 3864SOL     OW23224   4.587   0.334   4.058 -0.1450 -0.5894 -0.2612
 3864SOL    HW123225   4.595   0.250   4.011 -0.4752 -0.5772 -0.3383
 3864SOL    HW223226   4.595   0.396   3.985 -1.3664 -0.9168 -0.6685
 3865SOL     OW23227   2.812   1.158   5.799  0.2824 -0.1159  0.2695
 3865SOL    HW123228   2.766   1.077   5.778  1.9846 -0.7884 -0.8128
 3865SOL    HW223229   2.737   1.215   5.817  1.5619  1.7575 -0.3559
 3866SOL     OW23230   2.180   1.077  14.688 -0.4866  0.1415  0.0781
 3866SOL    HW123231   2.141   1.011  14.747 -0.3473  0.6561  0.7486
 3866SOL    HW223232   2.270   1.047  14.672 -0.5621  0.1543 -0.3586
 3867SOL     OW23233   3.934   2.200   2.022  0.0270 -0.3896 -0.0545
 3867SOL    HW123234   3.872   2.244   2.080 -0.6511  0.0018 -1.0919
 3867SOL    HW223235   3.874   2.137   1.983 -2.6059  2.1592 -0.1026
 3868SOL     OW23236   3.117   0.679   4.739 -0.0398 -0.1567  0.2892
 3868SOL    HW123237   3.195   0.652   4.787 -1.8700 -1.8237  2.3443
 3868SOL    HW223238   3.141   0.772   4.731 -0.0937 -0.5191 -3.8148
 3869SOL     OW23239   1.816   2.058   4.562  0.2021 -0.4806 -0.2975
 3869SOL    HW123240   1.858   2.061   4.476  1.4670  1.5350  0.3943
 3869SOL    HW223241   1.805   2.152   4.579 -1.1142 -0.0723 -3.4208
 3870SOL     OW23242   2.971   3.584  15.750 -0.2363 -0.5360 -0.4651
 3870SOL    HW123243   2.955   3.518  15.818 -2.4323  1.5797  1.0239
 3870SOL    HW223244   2.978   3.654  15.815  0.0048 -2.8205  2.0048
 3871SOL     OW23245   4.560   2.657  12.777  0.5885 -0.4079 -0.4041
 3871SOL    HW123246   4.644   2.704  12.776  0.6272 -0.4802 -0.6397
 3871SOL    HW223247   4.509   2.694  12.705 -0.9583 -0.3563  0.7340
 3872SOL     OW23248   0.445   1.048   7.674  0.3801 -0.0550 -0.0045
 3872SOL    HW123249   0.379   1.116   7.683  0.6024 -0.0835  1.7040
 3872SOL    HW223250   0.385   0.974   7.660 -2.1215  1.5057  2.6363
 3873SOL     OW23251   2.627   4.360   4.522  0.0500  0.5203 -0.3700
 3873SOL    HW123252   2.656   4.301   4.592  0.5504 -1.5329 -2.2918
 3873SOL    HW223253   2.701   4.346   4.463 -0.6372 -0.2841 -1.0423
 3874SOL     OW23254   4.538   2.089   8.937 -0.1144 -0.0431 -0.1925
 3874SOL    HW123255   4.486   2.057   9.010  1.6857 -1.5939  0.4041
 3874SOL    HW223256   4.618   2.036   8.942  0.7287  1.2482  0.1694
 3875SOL     OW23257   3.781   3.783   9.477  0.3383 -0.0413 -0.0583
 3875SOL    HW123258   3.751   3.768   9.566 -2.1842  0.7367 -0.7614
 3875SOL    HW223259   3.872   3.753   9.482  0.1607 -0.4192  0.7727
 3876SOL     OW23260   0.756   3.617  16.052 -0.2340  0.2421  0.1922
 3876SOL    HW123261   0.849   3.623  16.032 -0.6472  5.4538 -0.3529
 3876SOL    HW223262   0.750   3.684  16.121 -1.6023 -1.1905  1.4525
 3877SOL     OW23263   2.990   0.321   4.382 -0.1085  0.3959 -0.5796
 3877SOL    HW123264   3.052   0.350   4.315 -0.6307  1.5115 -0.5743
 3877SOL    HW223265   3.039   0.316   4.463 -2.1531  1.7106  0.7397
 3878SOL     OW23266   1.429   2.888   9.276  0.0080 -0.0514  0.1751
 3878SOL    HW123267   1.391   2.804   9.303 -1.9193  1.8046  3.1764
 3878SOL    HW223268   1.509   2.860   9.231  0.5544  0.6762  0.6858
 3879SOL     OW23269   0.910   2.688   5.912  0.0489  0.5279 -0.1029
 3879SOL    HW123270   0.932   2.781   5.914 -1.0948  0.7999 -0.0419
 3879SOL    HW223271   0.928   2.663   5.821  2.1214  0.6067  0.2888
 3880SOL     OW23272   1.954   1.627   1.802 -0.2227 -0.1632 -0.1398
 3880SOL    HW123273   1.884   1.592   1.747 -0.1623 -1.5223  0.6527
 3880SOL    HW223274   2.020   1.656   1.739 -0.2727 -0.3045 -0.2562
 3881SOL     OW23275   2.606   4.252   1.819  0.4972 -0.1604  0.0233
 3881SOL    HW123276   2.614   4.165   1.781  3.2817  1.0447 -2.1004
 3881SOL    HW223277   2.514   4.276   1.805  0.3487 -1.1547 -0.7437
 3882SOL     OW23278   1.318   2.718   2.367  0.1290 -0.3589 -0.2052
 3882SOL    HW123279   1.320   2.809   2.397 -2.7107 -0.5750  0.5858
 3882SOL    HW223280   1.235   2.710   2.321 -0.0154  0.1244 -0.0223
 3883SOL     OW23281   3.893   1.592   4.232  0.1924 -0.7745 -0.1827
 3883SOL    HW123282   3.974   1.546   4.251  0.8546  0.2109 -0.6018
 3883SOL    HW223283   3.836   1.579   4.308  0.3274 -2.5970 -0.4002
 3884SOL     OW23284   0.244   1.469   7.771 -0.3080  0.2723 -0.4714
 3884SOL    HW123285   0.187   1.544   7.788 -0.3832 -0.4393  2.5440
 3884SOL    HW223286   0.238   1.473   7.676  1.8051  0.1483 -0.6100
 3885SOL     OW23287   4.606   3.971   5.231  0.7127 -0.2229 -0.3240
 3885SOL    HW123288   4.513   3.950   5.243  0.0898  3.0793  0.6111
 3885SOL    HW223289   4.627   3.890   5.185 -0.1490 -0.2955 -0.5947
 3886SOL     OW23290   4.059   0.289  16.205 -0.0858 -0.0749 -0.0393
 3886SOL    HW123291   4.057   0.343  16.284  1.7681 -0.5928  0.3733
 3886SOL    HW223292   4.149   0.304  16.176  0.1285 -2.2035 -0.4652
 3887SOL     OW23293   1.097   0.904   0.094  0.2865  0.3245  0.0496
 3887SOL    HW123294   1.102   0.989   0.139  0.1023  1.1300 -1.4615
 3887SOL    HW223295   1.180   0.866   0.125  0.0809  1.8776  2.5319
 3888SOL     OW23296   3.448   4.070  10.491  0.6156  0.2658  0.1671
 3888SOL    HW123297   3.396   4.139  10.451 -0.6627 -0.3819  0.7241
 3888SOL    HW223298   3.485   4.130  10.555 -0.6381 -0.0420  1.1663
 3889SOL     OW23299   1.814   4.633   4.946 -0.1457  0.5563 -0.2529
 3889SOL    HW123300   1.820   4.540   4.969 -1.4604  0.6229  0.3810
 3889SOL    HW223301   1.724   4.648   4.915  1.1125  0.4514 -3.9364
 3890SOL     OW23302   3.220   1.003   2.767  0.3381  0.3106  0.1676
 3890SOL    HW123303   3.247   1.091   2.739  1.1260 -0.2624 -0.8583
 3890SOL    HW223304   3.145   0.996   2.707 -0.5568  0.2955  1.2892
 3891SOL     OW23305   1.826   1.449  12.039  0.0552  0.2641 -0.5146
 3891SOL    HW123306   1.822   1.445  12.134 -0.0048  0.2842 -0.5160
 3891SOL    HW223307   1.896   1.390  12.013  0.0085  1.0422 -2.4143
 3892SOL     OW23308   1.151   1.375  11.502 -0.4078  0.0235  0.0611
 3892SOL    HW123309   1.078   1.327  11.541  0.1235 -2.0356 -1.5045
 3892SOL    HW223310   1.209   1.381  11.579  0.9810  1.3804 -1.0894
 3893SOL     OW23311   2.342   4.239   8.946  0.3532 -0.0514  0.0531
 3893SOL    HW123312   2.405   4.181   8.989  2.5599  2.5528  0.3934
 3893SOL    HW223313   2.379   4.324   8.970  0.6767  0.0436 -0.7691
 3894SOL     OW23314   0.925   0.547  12.128 -0.0363 -0.3691 -0.3423
 3894SOL    HW123315   0.910   0.459  12.094 -0.3232 -0.3302 -0.3160
 3894SOL    HW223316   0.897   0.521  12.216  1.3964  2.5097  0.9640
 3895SOL     OW23317   3.899   4.721   8.388  0.7683  0.7887  0.1162
 3895SOL    HW123318   3.872   4.671   8.465  0.9455 -1.8979 -1.5357
 3895SOL    HW223319   3.962   4.659   8.351  1.4397  2.3980 -1.4379
 3896SOL     OW23320   3.110   4.005   1.047 -0.2909 -0.7161  0.3137
 3896SOL    HW123321   3.128   3.914   1.070  2.9535 -0.5095 -1.3638
 3896SOL    HW223322   3.132   3.997   0.954 -2.8414 -0.3922 -0.3108
 3897SOL     OW23323   4.417   2.939  11.283  0.0233 -0.1795 -0.1932
 3897SOL    HW123324   4.437   2.970  11.371 -0.2623  1.4643 -0.7139
 3897SOL    HW223325   4.510   2.940  11.258  0.1478 -0.6205  0.2588
 3898SOL     OW23326   0.146   3.534   3.027  0.3430 -0.0450  0.0744
 3898SOL    HW123327   0.145   3.523   2.932  0.4751  2.6286 -0.2433
 3898SOL    HW223328   0.070   3.481   3.051 -0.8639  1.8803  0.4971
 3899SOL     OW23329   1.588   1.988   3.157  0.0672 -0.3264  0.3970
 3899SOL    HW123330   1.555   2.052   3.093  0.4328 -0.1676  0.3696
 3899SOL    HW223331   1.515   1.980   3.219 -0.3017  0.3846  0.0614
 3900SOL     OW23332   1.490   2.720   6.015  0.0116 -0.0987 -0.8728
 3900SOL    HW123333   1.432   2.661   6.064  0.4449  1.0076  0.9554
 3900SOL    HW223334   1.550   2.655   5.979  0.1594 -1.1877  1.3404
 3901SOL     OW23335   3.177   1.486   5.184  0.4932 -0.1182 -0.3547
 3901SOL    HW123336   3.128   1.559   5.222  1.4135  0.2317  0.1718
 3901SOL    HW223337   3.142   1.483   5.095  0.7252 -1.7811 -0.3860
 3902SOL     OW23338   1.941   1.756  16.966  0.1942  0.3164 -0.3112
 3902SOL    HW123339   1.869   1.815  16.987  0.3117 -0.1021  1.2737
 3902SOL    HW223340   1.889   1.689  16.922 -0.8149 -0.4684  2.1391
 3903SOL     OW23341   0.973   2.231   7.986  0.1147  0.0745 -0.4764
 3903SOL    HW123342   1.002   2.306   7.933  0.9703  0.0498 -0.0425
 3903SOL    HW223343   0.928   2.286   8.050  1.5705  1.1702 -0.3709
 3904SOL     OW23344   0.332   4.014   6.593 -0.1373 -0.6445  0.5166
 3904SOL    HW123345   0.354   4.028   6.685  0.3484  3.3648 -0.2157
 3904SOL    HW223346   0.356   4.099   6.556 -0.7827 -0.7489 -0.1372
 3905SOL     OW23347   0.656   1.308   6.346 -0.3917  0.4839  0.1519
 3905SOL    HW123348   0.716   1.283   6.277  2.1007  2.0877  1.7587
 3905SOL    HW223349   0.606   1.227   6.359  1.6363 -0.8123 -0.2190
 3906SOL     OW23350   2.177   4.598   2.908 -0.4751  0.2468 -0.0631
 3906SOL    HW123351   2.160   4.692   2.912  0.8370  0.5037 -0.4587
 3906SOL    HW223352   2.158   4.577   2.816  1.2383  0.6244 -0.5091
 3907SOL     OW23353   0.658   4.559   5.162 -0.2947 -0.0178  0.3272
 3907SOL    HW123354   0.643   4.646   5.199  0.1882 -0.0879  0.6851
 3907SOL    HW223355   0.696   4.573   5.076 -2.1995 -1.4412 -0.7731
 3908SOL     OW23356   4.078   1.696  11.883  0.0355 -0.7079  0.3341
 3908SOL    HW123357   4.122   1.767  11.930 -2.6610  0.7230  0.6406
 3908SOL    HW223358   4.143   1.675  11.816  1.0967 -0.5935  1.3303
 3909SOL     OW23359   2.380   0.713   7.675  0.1161  0.3100  0.5874
 3909SOL    HW123360   2.386   0.676   7.764  2.2045  1.3820  0.8886
 3909SOL    HW223361   2.290   0.733   7.652 -0.3680 -2.4519  0.0757
 3910SOL     OW23362   1.986   1.234   8.273  0.2952  0.7886  0.5323
 3910SOL    HW123363   1.984   1.313   8.327 -2.4577 -0.1018  1.7444
 3910SOL    HW223364   2.071   1.194   8.296 -0.9876 -2.7044 -0.8237
 3911SOL     OW23365   2.482   1.198  17.252  0.0281  0.4724 -0.6455
 3911SOL    HW123366   2.562   1.246  17.229  2.6216 -2.1374  2.7680
 3911SOL    HW223367   2.427   1.275  17.261  1.2694  1.3873 -0.8622
 3912SOL     OW23368   4.413   1.217  15.766 -0.5039 -0.2873  0.1595
 3912SOL    HW123369   4.442   1.284  15.828  2.0373  0.1289 -1.4655
 3912SOL    HW223370   4.473   1.231  15.692 -0.9022 -2.6344 -0.5974
 3913SOL     OW23371   4.717   1.573   7.786  0.4002  0.2447  0.4041
 3913SOL    HW123372   4.671   1.565   7.870  2.6485 -1.1207  1.5208
 3913SOL    HW223373   4.697   1.486   7.753  1.0727  1.2286 -2.5903
 3914SOL     OW23374   3.470   0.335   1.111 -0.1373  0.4376  0.3954
 3914SOL    HW123375   3.400   0.272   1.132  1.0916  0.2907  3.9897
 3914SOL    HW223376   3.535   0.269   1.086 -2.5951 -1.6995 -0.3360
 3915SOL     OW23377   2.034   4.381   6.854  0.0504 -0.0047 -0.1197
 3915SOL    HW123378   2.052   4.468   6.888 -3.5698  0.4571  0.6138
 3915SOL    HW223379   1.952   4.388   6.804  0.2949  0.1270 -0.5044
 3916SOL     OW23380   4.344   0.073  12.106  0.3095  0.4045  0.2205
 3916SOL    HW123381   4.253   0.046  12.088  0.2394  0.7443  0.0631
 3916SOL    HW223382   4.332   0.156  12.151  2.3766  0.9567 -0.3006
 3917SOL     OW23383   1.435   1.442   5.797 -0.1437 -0.5205 -0.3014
 3917SOL    HW123384   1.366   1.507   5.787  1.4315  1.2728  0.4732
 3917SOL    HW223385   1.503   1.491   5.844  0.9985 -0.8319 -1.6237
 3918SOL     OW23386   1.696   0.224   3.248 -0.5381  0.0445  0.0956
 3918SOL    HW123387   1.644   0.256   3.321 -0.0403  0.3223  0.3300
 3918SOL    HW223388   1.766   0.192   3.305 -1.1882  0.2663  1.0191
 3919SOL     OW23389   4.472   0.012   4.273 -0.1096 -0.4419  0.4757
 3919SOL    HW123390   4.509   4.684   4.213 -1.4068 -1.5462  0.8768
 3919SOL    HW223391   4.498   4.716   4.359  1.0262  2.8631  1.3965
 3920SOL     OW23392   1.792   3.219   3.384 -0.0691  0.0026 -0.2543
 3920SOL    HW123393   1.750   3.290   3.336 -0.3820  0.3327  0.5119
 3920SOL    HW223394   1.710   3.187   3.421 -1.3291  1.8806 -1.4201
 3921SOL     OW23395   3.282   4.392   9.057 -0.0452  0.0243 -0.5088
 3921SOL    HW123396   3.201   4.415   9.011  0.0589  2.3331  0.4759
 3921SOL    HW223397   3.277   4.448   9.134 -1.0778  0.7434 -1.0871
 3922SOL     OW23398   4.234   3.830   9.869  0.1366 -0.0825  0.1474
 3922SOL    HW123399   4.239   3.775   9.947  0.1148 -1.0090 -0.5031
 3922SOL    HW223400   4.138   3.831   9.859 -0.0232 -1.8106  1.6129
 3923SOL     OW23401   0.006   3.676  11.904 -0.3394  0.1479  0.3113
 3923SOL    HW123402   4.647   3.666  11.907 -0.5620  1.2699 -2.6477
 3923SOL    HW223403   0.035   3.660  11.815  0.3707  2.0532  0.1915
 3924SOL     OW23404   2.436   0.083   7.363 -0.1575 -0.4086 -0.3202
 3924SOL    HW123405   2.423   0.018   7.294  0.3598 -1.2176  0.3457
 3924SOL    HW223406   2.511   0.042   7.406 -0.9454 -1.0368  0.4632
 3925SOL     OW23407   4.305   0.012  13.514 -0.0268  0.8957  0.1820
 3925SOL    HW123408   4.328   4.680  13.577  0.2625  0.5314 -0.3214
 3925SOL    HW223409   4.357   4.726  13.437  0.5060  2.9217 -0.0538
 3926SOL     OW23410   1.413   3.258   2.277 -0.6902 -0.4638 -0.4119
 3926SOL    HW123411   1.418   3.162   2.272 -1.4913 -0.4497 -1.7343
 3926SOL    HW223412   1.490   3.291   2.230  0.3448  0.9926  2.2963
 3927SOL     OW23413   1.988   1.247   0.983 -0.2856  0.2154  0.0299
 3927SOL    HW123414   2.054   1.178   0.979  0.1202  0.6307 -0.3440
 3927SOL    HW223415   2.009   1.285   1.069 -0.3417  0.2027  0.0491
 3928SOL     OW23416   2.182   1.901   2.883  0.1952  0.0235 -0.1836
 3928SOL    HW123417   2.268   1.862   2.896 -0.6740 -1.9074 -0.2281
 3928SOL    HW223418   2.116   1.846   2.927  2.4079 -1.4882  1.2239
 3929SOL     OW23419   4.268   0.620   6.605 -0.0229 -0.6045  0.0139
 3929SOL    HW123420   4.304   0.534   6.626 -0.4454 -0.7914 -0.0306
 3929SOL    HW223421   4.313   0.641   6.524  1.5719  0.6842  1.2410
 3930SOL     OW23422   3.515   3.416   5.444 -0.0356  0.4100  0.1978
 3930SOL    HW123423   3.494   3.339   5.392 -1.1547  0.7788  0.0878
 3930SOL    HW223424   3.534   3.372   5.527 -1.7601  1.0420  0.9286
 3931SOL     OW23425   2.592   1.682   5.915 -0.6052 -0.5580 -0.6159
 3931SOL    HW123426   2.523   1.627   5.953  0.5760 -0.5604  1.5484
 3931SOL    HW223427   2.669   1.651   5.963 -0.8592 -0.7925 -0.3598
 3932SOL     OW23428   1.114   2.996  10.194  0.3329  0.5543  0.3519
 3932SOL    HW123429   1.156   3.019  10.111  1.4110 -2.4374  0.0564
 3932SOL    HW223430   1.086   2.906  10.178  1.3769  0.2237  0.3560
 3933SOL     OW23431   3.061   4.698   7.806 -0.2369  0.4311  0.1979
 3933SOL    HW123432   2.986   0.000   7.762 -1.1947 -2.0028 -0.2868
 3933SOL    HW223433   3.052   4.609   7.774 -0.0450 -0.2975  2.1532
 3934SOL     OW23434   2.728   2.861  15.521  0.5374 -0.0942  0.0570
 3934SOL    HW123435   2.772   2.793  15.572 -0.0202 -1.0018 -0.6773
 3934SOL    HW223436   2.739   2.830  15.432  2.5438 -0.4207  0.4162
 3935SOL     OW23437   3.118   4.308  14.148 -0.3213  0.1042  0.2487
 3935SOL    HW123438   3.148   4.237  14.092  2.1231  1.0835  0.2884
 3935SOL    HW223439   3.168   4.381  14.110  3.6972 -0.7955  3.7439
 3936SOL     OW23440   1.983   2.737  10.940 -0.6766 -0.0608 -0.3204
 3936SOL    HW123441   1.994   2.719  11.034  0.1940 -1.8246 -0.7583
 3936SOL    HW223442   2.073   2.716  10.913 -0.6709  1.2439 -1.3085
 3937SOL     OW23443   3.879   4.152   9.077 -0.0091 -0.0980 -0.3910
 3937SOL    HW123444   3.861   4.094   9.151 -1.0862 -0.4711 -0.9537
 3937SOL    HW223445   3.808   4.216   9.078 -0.8033 -0.9252 -3.8057
 3938SOL     OW23446   4.088   0.876  13.982  0.9070 -0.2107 -0.2036
 3938SOL    HW123447   4.001   0.908  13.955 -0.0386 -0.1969  2.8969
 3938SOL    HW223448   4.122   0.930  14.053 -0.9750  1.9868 -0.9738
 3939SOL     OW23449   0.196   0.871   6.941  0.1654  0.0822 -0.1824
 3939SOL    HW123450   0.114   0.839   6.979  0.2063  0.3326  0.1259
 3939SOL    HW223451   0.187   0.878   6.846  2.1657 -0.6022 -0.4297
 3940SOL     OW23452   0.683   1.418   7.869 -0.7859 -0.2241 -0.3400
 3940SOL    HW123453   0.597   1.413   7.912 -0.0058 -1.2275  1.0994
 3940SOL    HW223454   0.679   1.513   7.856 -0.0977 -0.0561  0.7459
 3941SOL     OW23455   2.739   2.179  10.192 -0.1632  0.1425  0.0499
 3941SOL    HW123456   2.806   2.247  10.200  0.5507 -0.8780  2.8191
 3941SOL    HW223457   2.784   2.100  10.222 -1.9012 -1.0511 -0.5350
 3942SOL     OW23458   2.354   4.618   3.165  0.6342  0.0266  0.5936
 3942SOL    HW123459   2.332   4.662   3.083 -1.6806 -2.2810 -0.0256
 3942SOL    HW223460   2.363   4.530   3.128 -1.2817 -1.3236  3.2747
 3943SOL     OW23461   3.471   1.014   9.734  0.5022 -0.1033  0.5072
 3943SOL    HW123462   3.430   1.067   9.803  1.5753  0.9409  0.3354
 3943SOL    HW223463   3.542   1.073   9.711  0.7770  0.2225  2.1667
 3944SOL     OW23464   1.392   0.059  13.851 -0.0137 -0.1522 -0.0153
 3944SOL    HW123465   1.481   0.046  13.819  0.2038  4.2989 -1.2217
 3944SOL    HW223466   1.344   4.714  13.836 -1.1048  0.5881 -0.5449
 3945SOL     OW23467   1.664   1.240   6.659 -0.2538  0.2004  0.1174
 3945SOL    HW123468   1.741   1.212   6.709  1.0923  3.3983 -0.1500
 3945SOL    HW223469   1.614   1.281   6.729  1.0149  0.7515  0.7042
 3946SOL     OW23470   0.008   1.806   6.559 -0.2019 -0.2588 -0.2993
 3946SOL    HW123471   4.699   1.740   6.506  0.2278 -1.2785  0.6109
 3946SOL    HW223472   0.098   1.777   6.544  0.7156  2.4931 -0.1363
 3947SOL     OW23473   3.526   0.975  13.727 -0.2584  0.0889  0.3096
 3947SOL    HW123474   3.532   1.069  13.711 -0.4502 -0.1026 -0.8840
 3947SOL    HW223475   3.612   0.940  13.701  0.1559 -1.1766  3.4359
 3948SOL     OW23476   1.396   3.784  16.171  0.5038  0.0716 -0.3434
 3948SOL    HW123477   1.309   3.750  16.189  1.0756  0.1803  2.5306
 3948SOL    HW223478   1.450   3.720  16.216  0.5359  0.0197 -0.4559
 3949SOL     OW23479   2.805   2.012  15.713  0.1534  0.5067  0.7465
 3949SOL    HW123480   2.854   1.999  15.632 -0.1039 -0.8133  0.8083
 3949SOL    HW223481   2.802   2.108  15.721 -0.3485  0.6623 -1.2175
 3950SOL     OW23482   1.796   4.121  14.173 -0.2162 -0.1107  0.7472
 3950SOL    HW123483   1.746   4.075  14.240 -1.2349 -2.9358 -1.9360
 3950SOL    HW223484   1.749   4.092  14.094 -2.3020  0.3109  1.8278
 3951SOL     OW23485   3.761   1.682   7.094  0.3548  0.1323  0.8893
 3951SOL    HW123486   3.726   1.604   7.137  1.1586 -0.9644 -0.4274
 3951SOL    HW223487   3.681   1.718   7.057  0.5813  0.2341  0.4977
 3952SOL     OW23488   4.399   3.204   7.529 -0.1076  0.6062  0.7230
 3952SOL    HW123489   4.364   3.255   7.456 -0.4781 -1.9737 -0.8992
 3952SOL    HW223490   4.317   3.189   7.576 -0.3180  1.4044  0.6228
 3953SOL     OW23491   0.656   1.018  11.619  0.2069  0.0498 -0.1799
 3953SOL    HW123492   0.598   1.092  11.600 -0.0336 -0.0653  0.1007
 3953SOL    HW223493   0.622   0.988  11.704 -0.1538  0.0823 -0.3114
 3954SOL     OW23494   3.482   3.681   3.863  0.4491 -0.1259  0.1989
 3954SOL    HW123495   3.406   3.700   3.807  0.5092  0.3494  0.2770
 3954SOL    HW223496   3.434   3.639   3.934  1.5575 -0.8697  0.5057
 3955SOL     OW23497   0.281   1.263   6.828 -0.4368  0.1986 -0.3051
 3955SOL    HW123498   0.275   1.326   6.901  0.1452 -2.5113  2.0709
 3955SOL    HW223499   0.287   1.182   6.879  1.0038  0.1212 -0.5817
 3956SOL     OW23500   3.035   1.653  10.736  0.0269 -0.1821 -0.6723
 3956SOL    HW123501   3.100   1.587  10.757  1.3212  0.4869 -2.5650
 3956SOL    HW223502   3.000   1.605  10.662 -0.1356  0.2880 -0.9047
 3957SOL     OW23503   3.477   3.749   9.158  0.1865  0.1339  0.3412
 3957SOL    HW123504   3.481   3.711   9.246  0.5613 -1.7110 -0.4681
 3957SOL    HW223505   3.570   3.757   9.139  0.3612  0.3515  1.2858
 3958SOL     OW23506   0.516   1.238  11.522 -0.3873 -0.0077 -0.7116
 3958SOL    HW123507   0.487   1.309  11.580  1.8272  0.3231  0.0092
 3958SOL    HW223508   0.530   1.298  11.449 -1.1743 -0.0522 -0.9034
 3959SOL     OW23509   0.728   0.247   2.877  0.2655 -0.4598 -0.6825
 3959SOL    HW123510   0.718   0.158   2.912 -0.9528 -0.7119 -1.6755
 3959SOL    HW223511   0.777   0.290   2.947 -1.7876 -0.4352  0.7444
 3960SOL     OW23512   4.392   1.526   8.127 -0.0139 -0.0066 -0.5650
 3960SOL    HW123513   4.437   1.596   8.080  1.1734  0.1625  0.8371
 3960SOL    HW223514   4.406   1.550   8.219 -0.4109 -1.8370 -0.0234
 3961SOL     OW23515   2.943   1.387  13.162  0.4219  0.2575  0.6014
 3961SOL    HW123516   2.901   1.321  13.217  2.1032  0.7812  2.5303
 3961SOL    HW223517   2.971   1.327  13.093  1.8872 -1.5093  2.6992
 3962SOL     OW23518   3.036   4.131   0.041  0.2009 -0.2057 -0.7042
 3962SOL    HW123519   3.084   4.212   0.060 -2.3270  1.0292  0.3617
 3962SOL    HW223520   3.080   4.078   0.107  1.2779 -0.8162 -1.8997
 3963SOL     OW23521   4.643   1.331   7.287  0.2486 -0.3681  0.5172
 3963SOL    HW123522   4.621   1.397   7.220  0.9881  0.2144  0.8517
 3963SOL    HW223523   4.570   1.342   7.347  0.8889 -1.4616  1.4829
 3964SOL     OW23524   4.496   2.651  13.505 -0.3192  0.1578 -0.1324
 3964SOL    HW123525   4.579   2.609  13.483 -2.7271 -3.5776 -2.2472
 3964SOL    HW223526   4.491   2.705  13.426 -1.1481  0.8873  0.4188
 3965SOL     OW23527   0.713   3.653   5.535 -0.4171  0.3709 -0.3366
 3965SOL    HW123528   0.651   3.639   5.606  0.4579  2.2007  0.8011
 3965SOL    HW223529   0.788   3.607   5.572 -3.1795 -3.4896  0.4061
 3966SOL     OW23530   0.111   4.014   2.515 -0.0745  0.4044 -0.4698
 3966SOL    HW123531   0.053   4.015   2.439  1.5411  2.3560 -1.6757
 3966SOL    HW223532   0.193   4.008   2.465  1.1105  0.0606  1.5204
 3967SOL     OW23533   0.904   3.352   1.877  0.0398 -0.1723 -0.2080
 3967SOL    HW123534   0.984   3.375   1.830 -0.3311  1.3234 -0.1263
 3967SOL    HW223535   0.930   3.350   1.969  0.7139 -0.4853 -0.4093
 3968SOL     OW23536   3.613   3.721   9.694  0.4333  0.5408  0.1307
 3968SOL    HW123537   3.664   3.692   9.770 -1.9998 -0.5482  1.3314
 3968SOL    HW223538   3.526   3.736   9.730 -0.2523 -1.1157 -0.8715
 3969SOL     OW23539   1.685   2.345   6.531 -0.0950  0.3809  0.1047
 3969SOL    HW123540   1.654   2.255   6.524  1.5036 -0.2055  0.5829
 3969SOL    HW223541   1.699   2.362   6.624 -1.0599 -1.7964  0.6594
 3970SOL     OW23542   1.118   2.598   4.770  0.2847 -0.3895 -0.4267
 3970SOL    HW123543   1.094   2.507   4.758 -1.8796  0.2581 -0.9921
 3970SOL    HW223544   1.178   2.618   4.698 -0.9770  0.8588 -1.1329
 3971SOL     OW23545   0.914   0.177   3.602 -0.6098  0.2149 -0.0971
 3971SOL    HW123546   0.892   0.101   3.549 -1.5015  0.8307 -0.6135
 3971SOL    HW223547   0.894   0.140   3.688  1.0674  1.4611  0.8362
 3972SOL     OW23548   2.555   0.907  12.609  0.0790 -0.5383  0.2007
 3972SOL    HW123549   2.633   0.856  12.588  1.2157  0.8311  1.1147
 3972SOL    HW223550   2.561   0.931  12.701 -0.8400  3.3874 -0.7681
 3973SOL     OW23551   2.662   1.332   2.915 -0.1223  0.4623 -0.7346
 3973SOL    HW123552   2.673   1.362   3.005 -0.5343  0.2580 -0.6148
 3973SOL    HW223553   2.578   1.288   2.929 -0.3645  1.0271 -0.4296
 3974SOL     OW23554   3.810   0.274   7.200 -0.1611  0.7673  0.4229
 3974SOL    HW123555   3.753   0.202   7.226 -0.2780  0.3850 -0.9046
 3974SOL    HW223556   3.747   0.329   7.152 -1.7489  0.3049  1.9659
 3975SOL     OW23557   4.328   2.806  17.075 -0.2836 -0.2996 -0.1085
 3975SOL    HW123558   4.242   2.840  17.050 -0.9469 -1.3551  0.7193
 3975SOL    HW223559   4.384   2.883  17.069  1.2289 -1.2696  1.6299
 3976SOL     OW23560   0.315   4.654   2.613  0.1393 -0.0667 -0.7205
 3976SOL    HW123561   0.344   4.649   2.704  0.2347  0.5033 -0.7183
 3976SOL    HW223562   0.396   4.632   2.566  0.0828  1.6176 -1.6396
 3977SOL     OW23563   3.919   1.448   2.722  0.6723  0.3431  0.1849
 3977SOL    HW123564   3.932   1.495   2.804  0.2684  3.0115 -1.2960
 3977SOL    HW223565   3.841   1.490   2.687  0.4105 -0.9284 -0.7508
 3978SOL     OW23566   2.010   0.691   3.345 -0.3082 -0.5847  0.0981
 3978SOL    HW123567   1.962   0.680   3.263 -1.3524  0.6160  0.5616
 3978SOL    HW223568   2.097   0.672   3.309 -0.5996 -1.0240 -0.3961
 3979SOL     OW23569   0.314   3.905  12.925  0.1062 -0.1740  0.1357
 3979SOL    HW123570   0.393   3.914  12.872  1.0906  0.6995  1.7586
 3979SOL    HW223571   0.331   3.824  12.973 -2.5524 -1.3728 -0.9192
 3980SOL     OW23572   0.663   2.116  17.316  0.2493 -0.3601 -0.1000
 3980SOL    HW123573   0.663   2.022  17.302 -1.1389 -0.0460 -2.1993
 3980SOL    HW223574   0.675   2.150  17.227  2.2809  2.4141  1.2341
 3981SOL     OW23575   1.818   3.592   1.340 -0.5523 -0.8361 -0.0516
 3981SOL    HW123576   1.764   3.628   1.270 -1.0945 -0.0097  0.7863
 3981SOL    HW223577   1.780   3.637   1.416 -0.9507 -0.6753 -0.3450
 3982SOL     OW23578   4.243   0.282   3.103 -0.4313  0.5441  0.2227
 3982SOL    HW123579   4.267   0.193   3.132 -0.0328  0.9725  1.2067
 3982SOL    HW223580   4.327   0.326   3.093 -0.3448  0.1474 -0.8013
 3983SOL     OW23581   4.285   4.174  15.784 -0.0138 -0.1473  0.1811
 3983SOL    HW123582   4.191   4.158  15.786 -0.3457  2.3199  3.7446
 3983SOL    HW223583   4.320   4.085  15.793  0.5249  0.0720  0.2256
 3984SOL     OW23584   3.483   1.891   8.540 -0.3783  0.0606 -0.2193
 3984SOL    HW123585   3.514   1.834   8.470 -0.9735 -0.9546  0.3356
 3984SOL    HW223586   3.488   1.980   8.504  0.1065  0.2710  0.3726
 3985SOL     OW23587   2.525   4.691   0.921  0.3332 -0.6330 -0.0016
 3985SOL    HW123588   2.476   0.020   0.971 -1.7152 -2.3209  0.2488
 3985SOL    HW223589   2.600   4.672   0.977  1.5285  0.6766 -1.1769
 3986SOL     OW23590   0.195   2.425  11.105  0.2652  0.0232 -0.0171
 3986SOL    HW123591   0.122   2.387  11.055  1.1530 -1.4669 -0.1911
 3986SOL    HW223592   0.188   2.374  11.186 -1.0552  0.8011  0.3566
 3987SOL     OW23593   0.694   4.650   9.093 -0.2083  0.3737  0.0009
 3987SOL    HW123594   0.737   4.708   9.030 -1.0515 -0.3783 -1.2629
 3987SOL    HW223595   0.677   4.572   9.040  0.8727 -2.0060  3.1581
 3988SOL     OW23596   1.290   2.245   1.990  0.0943 -0.2053  0.1186
 3988SOL    HW123597   1.352   2.319   1.996  1.6968 -1.4113 -1.4801
 3988SOL    HW223598   1.344   2.170   1.968 -0.8564 -0.5624 -1.0115
 3989SOL     OW23599   1.841   4.446  10.804 -0.1277  0.6642 -0.4712
 3989SOL    HW123600   1.795   4.479  10.727  0.4451  1.2735 -0.5546
 3989SOL    HW223601   1.827   4.352  10.794 -1.0267  0.8562 -1.0397
 3990SOL     OW23602   3.626   0.918  10.665  0.2170  0.6321 -0.3432
 3990SOL    HW123603   3.560   0.863  10.624 -0.1178  0.0762  0.9341
 3990SOL    HW223604   3.659   0.966  10.589 -2.8904 -0.3598 -2.3068
 3991SOL     OW23605   0.872   2.818   3.026 -0.1389 -0.2443 -0.1200
 3991SOL    HW123606   0.907   2.893   3.075 -0.9923  0.1047 -0.0554
 3991SOL    HW223607   0.840   2.767   3.100 -0.4124  1.2877  0.8355
 3992SOL     OW23608   3.814   3.252   4.820  0.1637  0.3852  0.0024
 3992SOL    HW123609   3.905   3.247   4.791  0.4209 -0.9618  0.9952
 3992SOL    HW223610   3.794   3.170   4.866  2.1810  0.8959  1.8334
 3993SOL     OW23611   1.760   0.455   6.459  0.4260  0.6371 -0.3215
 3993SOL    HW123612   1.756   0.530   6.400  3.9555  1.1060  0.0314
 3993SOL    HW223613   1.704   0.490   6.528 -1.2156 -1.7863 -0.4002
 3994SOL     OW23614   2.789   0.137  12.746 -0.0555  0.5978 -0.4941
 3994SOL    HW123615   2.771   0.216  12.697 -0.0724  0.7527 -0.2358
 3994SOL    HW223616   2.766   0.162  12.835  1.3619 -0.5048  0.1818
 3995SOL     OW23617   2.314   0.890   0.231  0.5679  0.3263 -0.3497
 3995SOL    HW123618   2.329   0.943   0.309 -3.1341 -2.1129  2.0265
 3995SOL    HW223619   2.309   0.960   0.166  0.0019  1.3564  0.8069
 3996SOL     OW23620   0.370   4.190   2.437  0.0977 -0.0819  0.0502
 3996SOL    HW123621   0.379   4.217   2.528 -1.9727  2.6011 -0.5409
 3996SOL    HW223622   0.449   4.144   2.408  0.0641  0.0565 -0.2636
 3997SOL     OW23623   3.253   2.616   6.076 -0.6229 -0.1798 -0.5452
 3997SOL    HW123624   3.224   2.641   6.163 -0.0650 -0.8989 -0.1599
 3997SOL    HW223625   3.306   2.540   6.101 -2.3664 -1.1988  0.0914
 3998SOL     OW23626   0.946   0.522   9.533  0.2392  0.0624 -0.1281
 3998SOL    HW123627   0.926   0.433   9.504 -0.3037  0.8311 -2.1811
 3998SOL    HW223628   0.859   0.561   9.544 -0.4916 -0.9535 -2.1501
 3999SOL     OW23629   0.110   2.228   7.184  0.3874  0.1994 -0.1528
 3999SOL    HW123630   0.094   2.297   7.119  0.8408 -0.0368 -0.5108
 3999SOL    HW223631   0.108   2.152   7.126 -0.7567  0.1466 -0.0479
 4000SOL     OW23632   2.326   1.287   2.045  0.0040  0.1907 -0.7151
 4000SOL    HW123633   2.305   1.207   1.997 -1.4821  0.5532 -0.6667
 4000SOL    HW223634   2.411   1.313   2.011  0.9581 -0.6190  1.0487
 4001SOL     OW23635   3.174   3.484   1.235 -0.0437  0.1420 -0.3719
 4001SOL    HW123636   3.100   3.424   1.241 -1.0345  1.2264 -1.4973
 4001SOL    HW223637   3.229   3.479   1.313  1.7159  3.9585 -1.3728
 4002SOL     OW23638   2.096   3.097  15.577  0.2519  0.0099  0.4028
 4002SOL    HW123639   2.163   3.114  15.642  1.1347 -0.5317 -0.3591
 4002SOL    HW223640   2.054   3.017  15.609  1.5548 -0.8125  0.0796
 4003SOL     OW23641   4.468   3.472   5.983  0.7640  0.2198 -0.2450
 4003SOL    HW123642   4.379   3.464   5.948  0.3870 -0.1092  0.7875
 4003SOL    HW223643   4.515   3.494   5.902  0.9978  0.0050 -0.1681
 4004SOL     OW23644   3.683   2.870   2.266 -0.4713 -0.5889 -0.1181
 4004SOL    HW123645   3.742   2.944   2.281 -0.3300 -0.2656 -2.3969
 4004SOL    HW223646   3.664   2.870   2.173 -1.2776 -0.1334  0.0436
 4005SOL     OW23647   3.385   0.063   2.024 -0.4604 -0.5465  0.0777
 4005SOL    HW123648   3.333   0.046   2.103 -1.8080  0.2451 -0.6353
 4005SOL    HW223649   3.329   0.056   1.947 -1.4790  2.6192  0.5350
 4006SOL     OW23650   0.339   3.297   2.201 -0.6187  0.0112  0.1963
 4006SOL    HW123651   0.373   3.330   2.284 -1.2861  0.5698  0.2531
 4006SOL    HW223652   0.266   3.359   2.200 -0.5041  0.1655  1.9292
 4007SOL     OW23653   2.504   1.570   7.031  0.1061 -0.7000 -0.0758
 4007SOL    HW123654   2.451   1.648   7.044  1.6540 -0.0332  2.2629
 4007SOL    HW223655   2.594   1.600   7.040  0.2199 -2.0579  3.4086
 4008SOL     OW23656   2.438   1.086   6.061  0.1447  0.2334  0.4492
 4008SOL    HW123657   2.374   1.036   6.010 -0.9698  0.1316  1.9521
 4008SOL    HW223658   2.505   1.021   6.079  0.3781  0.3801  0.1146
 4009SOL     OW23659   0.977   3.251   9.846 -0.3118 -0.3125  0.5497
 4009SOL    HW123660   0.962   3.310   9.772  2.5628 -2.1465 -1.5106
 4009SOL    HW223661   0.916   3.183   9.818 -1.3557  1.6259 -1.8563
 4010SOL     OW23662   2.731   2.788   1.279 -0.0305  0.2513  0.0524
 4010SOL    HW123663   2.707   2.877   1.305 -1.9399  0.2614 -1.7176
 4010SOL    HW223664   2.656   2.771   1.222  1.2551  2.3080 -2.2277
 4011SOL     OW23665   4.643   3.111  16.115 -0.3808 -0.1798 -0.8264
 4011SOL    HW123666   4.591   3.055  16.058 -0.7309 -1.1376  0.4230
 4011SOL    HW223667   4.688   3.173  16.058 -0.1836  0.5078  0.0790
 4012SOL     OW23668   1.880   2.255   9.952 -0.0383  0.3882  0.3669
 4012SOL    HW123669   1.868   2.337   9.999  1.1648  0.7438  0.0699
 4012SOL    HW223670   1.976   2.257   9.944 -0.0851 -0.9989 -0.6474
 4013SOL     OW23671   1.407   3.993  15.988  0.7461  0.5238  0.5566
 4013SOL    HW123672   1.401   4.070  16.046  1.2310  0.7494  0.3067
 4013SOL    HW223673   1.409   3.920  16.050  2.4037  0.3974  0.3457
 4014SOL     OW23674   3.949   4.027   8.293  0.1661  0.6964  0.2748
 4014SOL    HW123675   3.865   4.006   8.334  0.0136  1.8582  0.5373
 4014SOL    HW223676   4.011   3.969   8.338  1.3435  1.1712 -0.7443
 4015SOL     OW23677   0.129   1.414   8.999 -0.4173  0.2904 -0.4336
 4015SOL    HW123678   0.121   1.334   9.050 -0.2448 -0.2581 -1.2562
 4015SOL    HW223679   0.192   1.392   8.930  0.6261 -0.9050  0.9245
 4016SOL     OW23680   3.477   3.152   6.853 -0.1699  0.7383 -0.6647
 4016SOL    HW123681   3.474   3.098   6.932 -1.8370  0.6498 -0.7975
 4016SOL    HW223682   3.539   3.221   6.878 -1.2927  1.1342  1.0123
 4017SOL     OW23683   4.680   0.693  10.856  0.7760  0.5915 -0.1759
 4017SOL    HW123684   4.735   0.616  10.842  0.2870 -0.0706  1.5595
 4017SOL    HW223685   4.634   0.709  10.773 -0.2640  1.2332  0.5224
 4018SOL     OW23686   3.004   1.064  13.042  0.4941  0.0306  0.0417
 4018SOL    HW123687   3.026   0.977  13.008 -2.2965  0.3833 -2.6714
 4018SOL    HW223688   3.085   1.103  13.074  0.9429 -0.3398 -0.6589
 4019SOL     OW23689   0.588   3.073   2.417 -0.2525  0.0267  0.1165
 4019SOL    HW123690   0.646   3.089   2.343 -1.0719 -1.8890 -0.9297
 4019SOL    HW223691   0.655   3.071   2.485  0.8408 -0.3130 -0.9970
 4020SOL     OW23692   2.680   4.048   8.203  0.6556  0.4459  0.0678
 4020SOL    HW123693   2.612   4.024   8.141  0.1457 -2.8696  1.9453
 4020SOL    HW223694   2.644   4.020   8.287  0.6818  2.1989  0.6647
 4021SOL     OW23695   0.242   1.407   8.461  0.4276 -0.0565 -0.6103
 4021SOL    HW123696   0.301   1.343   8.421 -2.0216 -2.4998 -0.3119
 4021SOL    HW223697   0.181   1.341   8.495 -0.4484  0.8962 -0.3135
 4022SOL     OW23698   0.989   0.047   0.333  0.2307  0.2894 -0.9106
 4022SOL    HW123699   1.008   4.718   0.399  1.1988 -0.7574 -2.2248
 4022SOL    HW223700   0.977   0.126   0.385  0.5080 -0.4617  0.2839
 4023SOL     OW23701   1.034   3.900   7.148  0.1159 -0.1511  0.1178
 4023SOL    HW123702   1.070   3.920   7.234  0.7699 -1.3334  0.1264
 4023SOL    HW223703   1.093   3.955   7.096 -1.3008  0.4628 -0.8281
 4024SOL     OW23704   4.596   1.072   6.523 -0.1187  0.6985 -0.0445
 4024SOL    HW123705   4.523   1.125   6.555  0.6219  1.0994  1.0004
 4024SOL    HW223706   4.662   1.124   6.569  1.1495  1.0136 -2.2633
 4025SOL     OW23707   0.547   3.223   8.332 -0.5140  0.2877 -0.5334
 4025SOL    HW123708   0.571   3.144   8.381  0.5208  0.2014 -1.1756
 4025SOL    HW223709   0.554   3.286   8.404 -2.8258  1.0047 -0.9314
 4026SOL     OW23710   1.670   0.676  13.332 -0.0876  0.3511  0.3754
 4026SOL    HW123711   1.657   0.762  13.292  1.4651 -0.0425 -0.9765
 4026SOL    HW223712   1.644   0.701  13.421 -0.5422  1.7617 -0.1454
 4027SOL     OW23713   4.168   0.002   1.782 -0.3264 -0.0339  0.4942
 4027SOL    HW123714   4.078   4.716   1.804  0.4063 -0.2598  3.2253
 4027SOL    HW223715   4.171   4.733   1.686 -0.2480 -0.1277  0.5020
 4028SOL     OW23716   4.687   4.325  14.580  0.0128  0.2299  0.4478
 4028SOL    HW123717   4.598   4.314  14.549 -0.0396  3.6124 -0.5677
 4028SOL    HW223718   4.708   4.400  14.524  1.8637 -1.0879 -0.6167
 4029SOL     OW23719   2.166   2.517   4.538  0.0068 -0.7040  0.2803
 4029SOL    HW123720   2.117   2.543   4.460 -1.3067 -1.1275  0.9579
 4029SOL    HW223721   2.257   2.537   4.516 -0.9320  1.4028 -1.7763
 4030SOL     OW23722   4.390   3.873   5.487  0.0182 -0.0845 -0.1838
 4030SOL    HW123723   4.310   3.824   5.507 -0.5130  0.6283 -0.5711
 4030SOL    HW223724   4.449   3.799   5.472 -0.2105 -0.1789 -0.6246
 4031SOL     OW23725   2.812   2.199   5.203 -0.5749  0.5479  0.5856
 4031SOL    HW123726   2.800   2.214   5.109 -1.1864  0.7566  0.6976
 4031SOL    HW223727   2.816   2.286   5.242 -1.2081  1.4999 -1.4662
 4032SOL     OW23728   3.750   0.849   3.640 -0.1682  0.4851  0.2560
 4032SOL    HW123729   3.739   0.838   3.734 -0.1025 -1.7596 -0.0033
 4032SOL    HW223730   3.709   0.935   3.626 -2.1067 -0.2278  1.4640
 4033SOL     OW23731   2.474   4.379   9.315  0.1316  0.2989  0.4423
 4033SOL    HW123732   2.522   4.422   9.386  0.0857  1.9435 -0.5173
 4033SOL    HW223733   2.388   4.372   9.357  1.0423 -0.3374  2.2087
 4034SOL     OW23734   4.033   3.438   9.065 -0.4529 -0.0054 -0.3145
 4034SOL    HW123735   4.001   3.417   8.977 -2.5579 -0.6561  0.6215
 4034SOL    HW223736   4.018   3.529   9.089 -3.0630 -1.2500  2.6851
 4035SOL     OW23737   0.951   3.166   4.676  0.6544 -0.5072 -0.3315
 4035SOL    HW123738   0.915   3.132   4.594 -0.6544 -1.1486  0.5068
 4035SOL    HW223739   0.978   3.249   4.638  3.2359 -1.4824 -0.6202
 4036SOL     OW23740   3.781   3.968   1.321 -0.3194 -0.5940 -0.0479
 4036SOL    HW123741   3.699   3.926   1.297  0.1719 -2.1833  1.0323
 4036SOL    HW223742   3.822   3.970   1.234 -0.8944  0.2133 -0.2951
 4037SOL     OW23743   3.606   4.458  10.844  0.2940 -0.1803 -0.4506
 4037SOL    HW123744   3.550   4.391  10.885  1.2238 -0.2254  0.7689
 4037SOL    HW223745   3.658   4.486  10.920 -1.6428 -1.0493  1.2120
 4038SOL     OW23746   4.150   1.071   3.383  0.1245 -0.0130  0.3017
 4038SOL    HW123747   4.119   1.089   3.472 -0.1762 -1.9553  0.6022
 4038SOL    HW223748   4.107   1.138   3.330  1.2049  1.3165  1.0861
 4039SOL     OW23749   0.398   1.763  15.441 -0.1080 -0.3152 -0.1147
 4039SOL    HW123750   0.387   1.690  15.380  1.0489  0.7819 -1.6513
 4039SOL    HW223751   0.485   1.745  15.475 -0.6476 -1.7983  0.4717
 4040SOL     OW23752   3.783   3.276   1.470 -0.0944  0.4373 -0.2115
 4040SOL    HW123753   3.828   3.356   1.496 -0.5902  0.5440  0.3263
 4040SOL    HW223754   3.700   3.297   1.515 -0.6824 -2.2235 -0.0047
 4041SOL     OW23755   1.434   1.996   2.223 -0.4700  0.0566  0.1660
 4041SOL    HW123756   1.469   1.970   2.138 -0.9333 -0.4626  0.1314
 4041SOL    HW223757   1.364   1.933   2.239 -2.3923  1.9299 -0.8264
 4042SOL     OW23758   1.808   3.764   2.759  0.0875 -0.4506  0.6787
 4042SOL    HW123759   1.866   3.755   2.683  1.0758  1.3282  1.2378
 4042SOL    HW223760   1.762   3.847   2.747  2.8501  0.9927  0.2518
 4043SOL     OW23761   3.702   3.882   8.705 -0.3466 -0.0120  0.2801
 4043SOL    HW123762   3.731   3.820   8.772  1.9225 -0.0805 -0.7727
 4043SOL    HW223763   3.613   3.880   8.741 -0.7963 -2.1325 -0.9215
 4044SOL     OW23764   2.703   2.164   8.754 -0.6340 -0.2090  0.1618
 4044SOL    HW123765   2.644   2.198   8.687  0.2133  2.6352  0.8756
 4044SOL    HW223766   2.760   2.238   8.774 -2.6197  1.6730 -1.1224
 4045SOL     OW23767   3.600   3.452   1.591 -0.4931 -0.0921 -0.5046
 4045SOL    HW123768   3.583   3.472   1.683  0.1189  1.1537 -0.6688
 4045SOL    HW223769   3.615   3.543   1.565  3.1662 -0.2103  1.1186
 4046SOL     OW23770   2.299   1.706   3.918  0.3482 -0.0309 -0.9609
 4046SOL    HW123771   2.382   1.661   3.904  1.3291  0.9666  1.7386
 4046SOL    HW223772   2.313   1.783   3.862  0.8316  1.3985  1.1034
 4047SOL     OW23773   1.270   4.108   8.840 -0.0968  0.2675  0.4396
 4047SOL    HW123774   1.234   4.145   8.920 -1.1303 -1.8966  0.9849
 4047SOL    HW223775   1.235   4.020   8.850 -0.0126  0.1598 -0.1701
 4048SOL     OW23776   3.856   3.964   1.043  0.1110 -0.0735 -0.1909
 4048SOL    HW123777   3.877   3.875   1.012 -0.2359 -0.2676  0.1320
 4048SOL    HW223778   3.768   3.961   1.005  0.2725  0.8065 -0.6360
 4049SOL     OW23779   2.963   1.451   5.846  0.0222 -0.3258 -0.0524
 4049SOL    HW123780   2.868   1.443   5.837 -0.2346 -0.0917  2.4788
 4049SOL    HW223781   2.991   1.492   5.764  3.9491  0.4723  1.6985
 4050SOL     OW23782   4.729   4.322   9.412  0.7676 -0.0545 -0.2428
 4050SOL    HW123783   4.718   4.414   9.436  0.3627 -0.0831 -0.3153
 4050SOL    HW223784   0.081   4.320   9.375  1.5476 -0.5620  1.6534
 4051SOL     OW23785   1.624   2.426   9.206 -0.2416 -0.9945 -0.3803
 4051SOL    HW123786   1.661   2.394   9.288 -1.5880  1.1838  1.0506
 4051SOL    HW223787   1.544   2.469   9.236  0.4134  1.1472 -1.7190
 4052SOL     OW23788   2.107   4.655  13.878  0.5571 -0.1950 -0.0115
 4052SOL    HW123789   2.178   4.629  13.818 -0.3327 -0.6951 -0.8470
 4052SOL    HW223790   2.112   4.579  13.936 -1.3703 -0.7289 -0.5518
 4053SOL     OW23791   2.528   3.076   3.878  0.5334 -0.1217  0.0798
 4053SOL    HW123792   2.601   3.111   3.828 -0.1066  0.4696 -0.4419
 4053SOL    HW223793   2.506   3.001   3.822  1.8413 -0.3941 -0.0762
 4054SOL     OW23794   2.555   0.810   8.172 -0.5505 -0.2782  0.2525
 4054SOL    HW123795   2.608   0.767   8.105 -1.7516  0.3171 -1.0900
 4054SOL    HW223796   2.574   0.759   8.251 -1.0324 -1.1559 -0.2062
 4055SOL     OW23797   2.087   1.874  11.286  0.2990 -0.3096  0.0254
 4055SOL    HW123798   2.108   1.967  11.278 -2.2013  0.4255  2.3037
 4055SOL    HW223799   2.113   1.840  11.200 -0.4149 -1.5402  0.2952
 4056SOL     OW23800   0.952   3.645  16.449 -0.2109  0.0486 -0.2386
 4056SOL    HW123801   0.888   3.713  16.468 -0.9019 -0.6483 -0.0809
 4056SOL    HW223802   0.989   3.618  16.533 -1.3493 -0.7092  0.0232
 4057SOL     OW23803   2.360   4.726   4.294 -0.8905  0.1231 -0.2717
 4057SOL    HW123804   2.402   0.075   4.295 -1.8141  0.5779 -0.6577
 4057SOL    HW223805   2.279   4.733   4.243 -1.6799  1.2558  1.1184
 4058SOL     OW23806   2.993   0.931   6.365  0.7693 -0.2858 -0.1014
 4058SOL    HW123807   2.910   0.979   6.377 -0.1278 -1.4388 -1.6600
 4058SOL    HW223808   3.045   1.006   6.338  1.9496 -0.8931  0.5113
 4059SOL     OW23809   0.147   3.692   2.718  0.2293  0.1234 -0.8176
 4059SOL    HW123810   0.227   3.714   2.671  1.8503 -1.7284  1.0855
 4059SOL    HW223811   0.151   3.599   2.739  1.7578  0.7425  1.7139
 4060SOL     OW23812   3.588   0.637   4.399 -0.4050 -0.0530 -0.3121
 4060SOL    HW123813   3.588   0.549   4.361  1.8121 -0.6741  1.1119
 4060SOL    HW223814   3.626   0.686   4.327 -1.3187 -0.0433 -0.7926
 4061SOL     OW23815   2.531   3.966   6.840  0.7187 -0.2543  0.5598
 4061SOL    HW123816   2.455   3.979   6.783  0.7856  1.1491  0.7926
 4061SOL    HW223817   2.546   4.046   6.891  0.5062 -0.1080  0.3893
 4062SOL     OW23818   2.995   0.376   8.189 -0.2896 -0.2506  0.4924
 4062SOL    HW123819   2.989   0.306   8.254 -3.1936 -0.0805  0.3980
 4062SOL    HW223820   2.970   0.451   8.242  1.7536  0.5483  0.3416
 4063SOL     OW23821   3.858   3.059   1.730  0.1937 -0.6607 -0.2617
 4063SOL    HW123822   3.912   2.980   1.730 -0.0308 -0.8108  2.5489
 4063SOL    HW223823   3.922   3.128   1.720 -1.3681  0.6299 -1.2352
 4064SOL     OW23824   0.703   0.235   2.162  0.1099 -0.0197 -0.1342
 4064SOL    HW123825   0.629   0.242   2.102  0.2109  0.4040 -0.2118
 4064SOL    HW223826   0.659   0.274   2.238  0.6179 -0.4471  0.3796
 4065SOL     OW23827   2.582   0.016   4.056  0.4908  0.6635 -0.5742
 4065SOL    HW123828   2.514   0.006   3.989  0.9089 -1.3128 -0.6943
 4065SOL    HW223829   2.657   0.047   4.006 -1.7826  0.9116 -3.8030
 4066SOL     OW23830   4.045   4.175   1.024  0.1465  0.4169  0.0364
 4066SOL    HW123831   4.116   4.119   0.992  0.7499  0.4255  1.3486
 4066SOL    HW223832   3.980   4.110   1.049  0.2908  0.3511  0.2450
 4067SOL     OW23833   3.707   1.248  14.145  0.7790 -0.0244 -0.0980
 4067SOL    HW123834   3.786   1.302  14.145  0.7897 -0.0356  1.1739
 4067SOL    HW223835   3.657   1.293  14.077  1.4264  1.7726  0.5989
 4068SOL     OW23836   0.521   4.651  17.309  0.0719  0.1445  0.0119
 4068SOL    HW123837   0.459   4.618  17.375 -1.1554  1.6480 -0.3803
 4068SOL    HW223838   0.461   4.659  17.235  2.6237 -1.5696 -2.2224
 4069SOL     OW23839   1.155   3.450  10.491  0.1621  0.2549 -0.0374
 4069SOL    HW123840   1.112   3.395  10.557  3.1333 -2.9313 -0.7751
 4069SOL    HW223841   1.244   3.420  10.508  0.5109  1.3077 -0.0146
 4070SOL     OW23842   2.787   1.112   1.496 -0.3145 -0.2621 -0.0557
 4070SOL    HW123843   2.757   1.027   1.529 -2.1311 -0.2616 -1.7227
 4070SOL    HW223844   2.707   1.153   1.464 -0.2688  0.2172  0.4296
 4071SOL     OW23845   0.233   0.917   5.353 -0.2553  0.3241  0.4518
 4071SOL    HW123846   0.293   0.979   5.311 -0.2601  2.0388  2.9741
 4071SOL    HW223847   0.277   0.919   5.438 -0.0607 -0.6074  0.3687
 4072SOL     OW23848   3.676   0.726   3.319  0.0564  0.1075 -0.5019
 4072SOL    HW123849   3.678   0.633   3.342 -0.6370  0.8248  2.4277
 4072SOL    HW223850   3.599   0.757   3.366  0.1929 -1.3923  0.7125
 4073SOL     OW23851   0.877   2.671  12.836 -0.4156  0.4475 -0.4217
 4073SOL    HW123852   0.938   2.609  12.876  0.1244  0.4931 -1.1750
 4073SOL    HW223853   0.837   2.615  12.768 -0.5605  0.3077 -0.2227
 4074SOL     OW23854   3.926   2.362  11.213  0.2146 -0.7454 -0.4529
 4074SOL    HW123855   3.919   2.435  11.153 -1.0999  0.3637  1.0639
 4074SOL    HW223856   3.897   2.291  11.156 -1.5123 -1.5256  1.3848
 4075SOL     OW23857   4.114   4.462  14.892 -0.0333  0.4994 -0.0943
 4075SOL    HW123858   4.100   4.553  14.919  0.4289  0.9605 -1.4216
 4075SOL    HW223859   4.031   4.415  14.901  0.6914 -0.5074  1.2265
 4076SOL     OW23860   3.896   1.758   5.825 -0.1085 -0.7387  0.0855
 4076SOL    HW123861   3.818   1.784   5.776 -1.8966 -4.2163  1.0554
 4076SOL    HW223862   3.904   1.827   5.891 -1.4807 -0.3261 -0.1881
 4077SOL     OW23863   1.740   0.627   5.072  0.5186 -0.0836 -0.7651
 4077SOL    HW123864   1.835   0.638   5.070  0.8343 -2.4164  1.8661
 4077SOL    HW223865   1.706   0.710   5.039  2.2206  0.2911 -1.5663
 4078SOL     OW23866   3.527   1.751   6.968  0.1728 -0.0713 -0.6474
 4078SOL    HW123867   3.531   1.699   6.889  0.0552  1.6725 -1.8027
 4078SOL    HW223868   3.499   1.839   6.944  0.6452  0.1120 -0.5361
 4079SOL     OW23869   2.727   2.178   5.708  0.0408 -0.1302 -0.3361
 4079SOL    HW123870   2.783   2.256   5.710 -1.7514  1.1301  0.7638
 4079SOL    HW223871   2.752   2.139   5.624 -1.4819 -0.2992 -0.7197
 4080SOL     OW23872   2.059   0.262  14.543  0.1235  0.6618 -0.1572
 4080SOL    HW123873   1.983   0.215  14.512  0.8769 -1.6234  1.4988
 4080SOL    HW223874   2.055   0.341  14.489  2.5575 -0.6601 -2.2636
 4081SOL     OW23875   3.583   0.778   9.647  0.3951 -0.4380  0.4456
 4081SOL    HW123876   3.561   0.796   9.556  0.0788 -0.2056  0.5695
 4081SOL    HW223877   3.545   0.860   9.678  0.5188  0.4800 -1.8138
 4082SOL     OW23878   2.071   3.248   3.451 -0.5955  0.5094 -0.8623
 4082SOL    HW123879   2.067   3.317   3.516  2.6283  1.0288 -1.1911
 4082SOL    HW223880   1.979   3.256   3.426 -1.3498  0.7559  2.0300
 4083SOL     OW23881   2.497   4.066  12.471  0.4675  0.3152  0.4947
 4083SOL    HW123882   2.470   4.103  12.388  1.0154 -2.3840 -0.9029
 4083SOL    HW223883   2.569   4.012  12.437 -0.9871 -0.2240 -1.7300
 4084SOL     OW23884   2.650   3.011   2.077  0.4578  0.2658 -0.3954
 4084SOL    HW123885   2.680   3.022   1.987 -1.2789 -3.3501 -1.3860
 4084SOL    HW223886   2.732   3.038   2.119  0.5828  1.1778 -1.2105
 4085SOL     OW23887   3.573   4.585   8.784 -0.3186 -0.0949 -0.0860
 4085SOL    HW123888   3.527   4.642   8.723 -1.5047 -0.2957  0.6080
 4085SOL    HW223889   3.508   4.515   8.793 -1.9876  1.5078  0.2020
 4086SOL     OW23890   0.979   4.319   7.289  0.2417  0.6425 -0.0952
 4086SOL    HW123891   1.064   4.278   7.274 -0.9625 -1.2923 -1.6555
 4086SOL    HW223892   0.996   4.400   7.240 -2.4206  2.1739  1.4910
 4087SOL     OW23893   1.815   2.115   0.951 -0.0618 -0.4845  0.2043
 4087SOL    HW123894   1.780   2.193   0.995  2.1182  0.2830  0.5781
 4087SOL    HW223895   1.868   2.084   1.024  0.1499 -1.3386 -0.3116
 4088SOL     OW23896   3.897   4.687  17.361  0.5787  0.8770  0.1015
 4088SOL    HW123897   3.926   0.038  17.388 -1.0796  0.7732  2.1814
 4088SOL    HW223898   3.960   4.638  17.413  0.4198  1.1911  0.5926
 4089SOL     OW23899   2.500   2.432   3.681  0.3804  0.5254  0.0405
 4089SOL    HW123900   2.529   2.509   3.731 -0.8791  0.5223  0.7674
 4089SOL    HW223901   2.576   2.406   3.629  0.8559  0.0997  0.9356
 4090SOL     OW23902   4.005   0.652   7.888  0.2468 -0.2270 -0.0993
 4090SOL    HW123903   4.021   0.595   7.813  1.7298  1.0053 -0.7301
 4090SOL    HW223904   3.910   0.651   7.885  0.2617 -1.5055 -0.1080
 4091SOL     OW23905   0.308   4.159   4.130 -0.1250  0.5237  0.4806
 4091SOL    HW123906   0.237   4.215   4.159  0.4295  2.2952 -1.5639
 4091SOL    HW223907   0.296   4.169   4.035 -1.8590  2.8471  0.9678
 4092SOL     OW23908   4.311   1.368   3.815 -0.4773  0.0430 -0.0513
 4092SOL    HW123909   4.365   1.433   3.860  0.4445 -0.9506  0.3060
 4092SOL    HW223910   4.238   1.425   3.794 -0.8209  0.2445  1.6835
 4093SOL     OW23911   0.761   3.439  12.073  1.2629  0.4109 -0.3934
 4093SOL    HW123912   0.715   3.373  12.022 -0.3134  0.0420  1.4907
 4093SOL    HW223913   0.777   3.506  12.006  0.1720 -0.3427 -1.4090
 4094SOL     OW23914   0.990   0.706   4.287 -0.0359 -0.1245  0.0708
 4094SOL    HW123915   0.928   0.653   4.336  0.1549  0.7180  1.2152
 4094SOL    HW223916   0.935   0.773   4.246  0.3919  1.2590  1.7321
 4095SOL     OW23917   2.163   3.353   2.763 -0.3024 -0.1558 -0.4871
 4095SOL    HW123918   2.218   3.351   2.684 -0.6469 -0.6197 -0.7154
 4095SOL    HW223919   2.136   3.445   2.757  2.6624  0.8028  0.7206
 4096SOL     OW23920   4.109   0.176  15.858 -0.0084 -0.2623  0.0163
 4096SOL    HW123921   4.015   0.163  15.874  0.7102 -0.7748  3.7815
 4096SOL    HW223922   4.130   0.261  15.897 -1.8018  0.4429 -0.5567
 4097SOL     OW23923   0.265   4.057  12.242 -0.4888  0.2681 -0.1716
 4097SOL    HW123924   0.340   4.082  12.187  1.0492 -2.1707  0.8069
 4097SOL    HW223925   0.285   4.113  12.317  2.2017  0.4197 -1.0062
 4098SOL     OW23926   3.841   0.342   3.646 -0.0460  0.0667  0.3440
 4098SOL    HW123927   3.755   0.385   3.648 -1.1431 -2.1307  0.1414
 4098SOL    HW223928   3.824   0.249   3.634  0.6014  0.0285 -0.2624
 4099SOL     OW23929   0.076   4.215   2.239  0.5764 -0.0563 -0.7686
 4099SOL    HW123930   0.151   4.170   2.201 -0.5737 -1.4725 -1.3810
 4099SOL    HW223931   0.015   4.142   2.255  1.7221 -0.8301  0.0653
 4100SOL     OW23932   4.529   0.437   6.596 -0.2587 -0.1874 -0.5046
 4100SOL    HW123933   4.449   0.394   6.627 -0.9254  1.1577 -0.3638
 4100SOL    HW223934   4.512   0.461   6.505 -1.5051 -0.0424 -0.2367
 4101SOL     OW23935   4.096   0.148   6.528  0.0710 -0.1167  0.2782
 4101SOL    HW123936   4.081   0.093   6.451  1.0148  1.5550 -1.0874
 4101SOL    HW223937   4.120   0.089   6.599  2.2667  0.1429 -0.2494
 4102SOL     OW23938   0.034   3.976  14.014 -0.3304 -0.3234 -0.4232
 4102SOL    HW123939   0.083   4.009  13.939 -0.8561  0.4823 -0.4130
 4102SOL    HW223940   0.069   4.028  14.086 -0.7644 -0.8188  0.1452
 4103SOL     OW23941   0.177   1.767   3.791 -0.2706  0.3017 -0.8411
 4103SOL    HW123942   0.270   1.777   3.810 -0.5747  0.0223  0.7546
 4103SOL    HW223943   0.147   1.858   3.790  2.1678  1.1181  0.1218
 4104SOL     OW23944   0.924   1.031  17.684  0.3913  0.7550  0.1448
 4104SOL    HW123945   0.933   0.949  17.732 -0.3779  0.8513  0.4542
 4104SOL    HW223946   1.015   1.057  17.666  0.2693  2.1873  1.4953
 4105SOL     OW23947   2.122   0.486   1.870 -0.2629  0.3363 -0.0756
 4105SOL    HW123948   2.037   0.478   1.827 -0.3728  0.8781  0.0359
 4105SOL    HW223949   2.101   0.566   1.918  3.4511  1.3373 -0.0920
 4106SOL     OW23950   2.617   4.558   4.268  0.6756 -0.0440  0.5228
 4106SOL    HW123951   2.532   4.596   4.288  1.2066  1.3236  0.2130
 4106SOL    HW223952   2.647   4.619   4.200  1.9824 -2.1385 -0.7939
 4107SOL     OW23953   2.056   1.545  11.491  0.2600  0.4587 -0.3216
 4107SOL    HW123954   2.020   1.479  11.432 -2.1102  0.8112  0.7089
 4107SOL    HW223955   2.012   1.528  11.575 -0.7335  1.0455 -0.7345
 4108SOL     OW23956   1.698   3.495  14.956 -0.4362 -0.6083  0.5026
 4108SOL    HW123957   1.666   3.585  14.954 -0.7820 -0.7648 -1.6119
 4108SOL    HW223958   1.786   3.505  14.993 -0.1805  0.4977 -0.3899
 4109SOL     OW23959   0.321   1.271   1.797 -0.5374  0.4937 -0.0307
 4109SOL    HW123960   0.345   1.339   1.734  0.7700  0.0042 -0.0451
 4109SOL    HW223961   0.394   1.270   1.859 -0.2529  1.3880 -0.3540
 4110SOL     OW23962   1.246   0.634  14.974 -0.2647  0.5280 -0.3134
 4110SOL    HW123963   1.184   0.624  14.902 -0.2117 -0.5352 -0.2051
 4110SOL    HW223964   1.302   0.708  14.950  1.2605 -0.4493  0.1876
 4111SOL     OW23965   4.076   2.923   6.623 -0.5199 -0.1942 -0.4019
 4111SOL    HW123966   4.081   2.938   6.717  1.7544  1.6788 -0.8140
 4111SOL    HW223967   4.169   2.917   6.600 -0.5710 -1.6813 -0.2216
 4112SOL     OW23968   0.713   4.716   2.047  0.0777 -0.1748 -0.4233
 4112SOL    HW123969   0.630   4.696   2.090  0.8103 -2.1694  0.0629
 4112SOL    HW223970   0.730   0.064   2.089 -2.1212  0.7430 -1.3697
 4113SOL     OW23971   0.273   4.410  17.488 -0.2082  0.0407  0.2067
 4113SOL    HW123972   0.213   4.344  17.523  0.7166 -0.4698  0.8206
 4113SOL    HW223973   0.257   4.481  17.551 -2.5321 -0.1918 -0.1409
 4114SOL     OW23974   0.938   1.230  11.615  0.3956  0.1398 -0.1342
 4114SOL    HW123975   0.936   1.139  11.584 -2.4518  0.3254 -0.5035
 4114SOL    HW223976   0.924   1.226  11.710  1.2615 -0.9066 -0.0520
 4115SOL     OW23977   2.730   3.928  17.132  0.0183 -0.5564 -0.2269
 4115SOL    HW123978   2.644   3.888  17.146 -0.0700 -0.4265 -0.3968
 4115SOL    HW223979   2.761   3.858  17.075  1.6251 -0.9876  1.1670
 4116SOL     OW23980   4.193   1.468  10.020  0.0438 -0.0059 -0.0311
 4116SOL    HW123981   4.217   1.509   9.937  2.1121 -1.7587 -0.2949
 4116SOL    HW223982   4.195   1.375   9.999 -1.2683  0.0668 -0.4463
 4117SOL     OW23983   3.105   0.066   6.431  0.3254  0.3664  0.5490
 4117SOL    HW123984   3.162   0.070   6.508  0.8349  4.2403 -0.0414
 4117SOL    HW223985   3.160   0.012   6.374 -0.9869 -1.9708  1.4908
 4118SOL     OW23986   0.659   2.591   9.957  0.2392 -0.6570 -0.5471
 4118SOL    HW123987   0.655   2.552  10.044  0.2889  1.0515  0.2300
 4118SOL    HW223988   0.582   2.645   9.941 -0.0204 -0.9556 -0.3104
 4119SOL     OW23989   3.931   4.121   9.482 -0.2942 -0.0677 -0.3140
 4119SOL    HW123990   3.925   4.214   9.462  1.8053  0.3449  0.9316
 4119SOL    HW223991   3.854   4.110   9.538  0.7214  0.5447  1.1990
 4120SOL     OW23992   3.151   0.770  10.850 -0.1515  0.2874  0.2923
 4120SOL    HW123993   3.241   0.803  10.842  0.4397 -1.3048  0.4007
 4120SOL    HW223994   3.148   0.726  10.934 -0.6428  1.9174  1.1377
 4121SOL     OW23995   1.982   2.631   2.664  0.4266 -0.2333  0.0194
 4121SOL    HW123996   2.065   2.676   2.654  1.2938 -1.7603  0.4279
 4121SOL    HW223997   1.990   2.625   2.759  2.9866 -0.3556 -0.2219
 4122SOL     OW23998   1.660   0.581  11.469  0.1688  0.6675  0.2834
 4122SOL    HW123999   1.667   0.499  11.518  1.3526  0.9033  0.5106
 4122SOL    HW224000   1.742   0.576  11.420  0.1423  0.3340  0.2769
 4123SOL     OW24001   3.601   1.068   3.598 -0.3916  0.2279 -0.0290
 4123SOL    HW124002   3.594   1.083   3.692 -0.5787  3.2158 -0.5298
 4123SOL    HW224003   3.526   1.016   3.568 -0.2930 -1.3137  2.3924
 4124SOL     OW24004   2.958   2.359   0.596 -0.4626  0.0236 -0.5643
 4124SOL    HW124005   3.013   2.392   0.525  0.1052  0.3277  0.0177
 4124SOL    HW224006   3.006   2.392   0.673 -0.4143  1.2177 -1.1174
 4125SOL     OW24007   0.001   2.471   6.772  0.1884  0.1225 -0.4338
 4125SOL    HW124008   4.665   2.437   6.720  0.8873 -1.7211 -0.1953
 4125SOL    HW224009   4.705   2.547   6.821 -1.5352 -0.9860  0.1294
 4126SOL     OW24010   3.520   4.206   1.442 -0.1083  0.0716 -0.1806
 4126SOL    HW124011   3.525   4.295   1.405  1.9371  1.0123  2.3931
 4126SOL    HW224012   3.605   4.213   1.486  0.1558  1.9176 -0.9601
 4127SOL     OW24013   1.625   4.108   3.346 -0.9204 -0.4579  0.0870
 4127SOL    HW124014   1.648   4.196   3.315 -2.8022 -0.5630 -1.6425
 4127SOL    HW224015   1.701   4.056   3.324 -0.1493 -0.4303  2.6309
 4128SOL     OW24016   2.426   1.685   1.943 -0.6006 -0.1874  0.2899
 4128SOL    HW124017   2.379   1.605   1.918 -0.8937 -0.4741  1.7742
 4128SOL    HW224018   2.516   1.656   1.931 -0.2939  1.0061 -0.2802
 4129SOL     OW24019   3.101   0.352  12.703 -0.7724  0.1697  0.4561
 4129SOL    HW124020   3.032   0.397  12.753 -1.8814 -0.1008 -0.7980
 4129SOL    HW224021   3.132   0.296  12.773  0.9549 -0.9560 -1.2235
 4130SOL     OW24022   3.491   1.877   4.851 -0.0860  0.1313  0.1525
 4130SOL    HW124023   3.429   1.806   4.867  0.7189  0.0432  2.8974
 4130SOL    HW224024   3.560   1.822   4.812  0.7519  2.1121 -1.1741
 4131SOL     OW24025   3.122   1.498   6.948 -0.4287 -0.2798  0.1199
 4131SOL    HW124026   3.120   1.495   7.043 -0.7557  1.2126  0.1662
 4131SOL    HW224027   3.061   1.571   6.933  3.6682  2.4349 -3.3593
 4132SOL     OW24028   4.059   2.853   1.717  0.0140  0.6815  0.7035
 4132SOL    HW124029   3.994   2.785   1.730 -1.2781  1.3393 -2.4776
 4132SOL    HW224030   4.065   2.845   1.622  0.0805 -1.0318  0.8602
 4133SOL     OW24031   1.545   3.753   4.158  0.3160  0.9387  0.0574
 4133SOL    HW124032   1.492   3.832   4.171 -0.4468  0.5220 -0.5386
 4133SOL    HW224033   1.608   3.773   4.089  2.5552  1.9366  2.3942
 4134SOL     OW24034   4.284   1.475   2.635  0.8431  0.4688 -0.3033
 4134SOL    HW124035   4.241   1.393   2.613  4.6449 -1.0848 -1.9418
 4134SOL    HW224036   4.215   1.540   2.620 -0.1949 -0.3267  1.0670
 4135SOL     OW24037   1.476   4.490   5.508  0.3908  0.2095  0.0885
 4135SOL    HW124038   1.533   4.555   5.549  0.6521  0.0193  0.0281
 4135SOL    HW224039   1.535   4.415   5.511 -0.6842 -0.6311  0.0585
 4136SOL     OW24040   1.404   3.499   2.049  0.1971  0.1079  0.0069
 4136SOL    HW124041   1.441   3.586   2.062 -0.9929  0.3360  1.8173
 4136SOL    HW224042   1.473   3.444   2.086  0.1951  0.8016  1.0348
 4137SOL     OW24043   2.230   4.375  11.372  0.1396  0.0982 -0.2135
 4137SOL    HW124044   2.232   4.281  11.357  0.9646 -0.1340  1.3509
 4137SOL    HW224045   2.274   4.377  11.458 -0.2297  2.7345 -0.0801
 4138SOL     OW24046   2.915   0.071  16.953  0.4892 -0.4703  0.6034
 4138SOL    HW124047   2.993   0.088  16.900 -1.5161  0.2921 -2.1472
 4138SOL    HW224048   2.852   0.072  16.880 -1.4662 -2.0738  2.2570
 4139SOL     OW24049   3.314   4.314   0.403 -0.3353  0.1643  0.8204
 4139SOL    HW124050   3.357   4.280   0.481  0.0355  1.9917  1.4093
 4139SOL    HW224051   3.225   4.280   0.407  0.1791 -1.4875 -1.4728
 4140SOL     OW24052   4.649   2.460   9.469  0.1107 -0.0944 -0.0643
 4140SOL    HW124053   0.008   2.457   9.467  0.0463 -1.1160 -1.3849
 4140SOL    HW224054   4.638   2.371   9.503 -1.8225 -0.0187 -0.4810
 4141SOL     OW24055   1.739   0.732  10.446 -0.7389  0.0709 -0.1649
 4141SOL    HW124056   1.689   0.814  10.447  0.8533  1.0300  0.1888
 4141SOL    HW224057   1.728   0.721  10.352 -1.3835  4.7870 -0.6431
 4142SOL     OW24058   3.015   4.704  10.879  0.0027  0.0360  0.2730
 4142SOL    HW124059   3.091   4.648  10.862 -0.2209  0.1432 -1.0637
 4142SOL    HW224060   3.008   4.713  10.974 -0.8178  1.8957  0.0392
 4143SOL     OW24061   4.046   4.426  13.813  0.4806  0.1017  0.0467
 4143SOL    HW124062   4.061   4.425  13.908 -0.3970 -0.4625  0.1747
 4143SOL    HW224063   4.138   4.422  13.786 -0.1054  2.2570 -2.2480
 4144SOL     OW24064   2.006   1.363  10.883 -0.2500  0.2530 -0.1167
 4144SOL    HW124065   1.974   1.429  10.946 -3.2690 -0.1349 -1.2259
 4144SOL    HW224066   2.070   1.323  10.942 -0.4934  2.0941  1.3866
 4145SOL     OW24067   1.962   1.867   7.685 -0.4140 -0.1636 -0.2915
 4145SOL    HW124068   2.005   1.843   7.767 -1.0550  0.3391  0.1914
 4145SOL    HW224069   1.908   1.788   7.678 -0.1917 -0.5288  2.3539
 4146SOL     OW24070   1.593   0.386   6.091 -0.0824  0.9252  0.1535
 4146SOL    HW124071   1.523   0.384   6.156  1.5229  0.6456  1.8839
 4146SOL    HW224072   1.557   0.452   6.032  2.9680  2.0457 -0.4933
 4147SOL     OW24073   4.647   1.544  11.533 -0.2291 -0.3138  0.0032
 4147SOL    HW124074   4.665   1.461  11.576  1.1329 -0.1402 -0.2256
 4147SOL    HW224075   4.704   1.529  11.458 -1.1262 -0.8651 -0.5712
 4148SOL     OW24076   2.570   4.712   1.407 -0.2883 -0.0642  0.1691
 4148SOL    HW124077   2.575   4.644   1.340 -0.9097  0.3353 -0.2956
 4148SOL    HW224078   2.568   4.656   1.485  0.6270  0.4839  0.5785
 4149SOL     OW24079   3.123   0.474   1.575  0.1863  0.7423  0.2013
 4149SOL    HW124080   3.062   0.466   1.648 -1.2370  1.2968 -0.9253
 4149SOL    HW224081   3.086   0.544   1.521 -0.2721  0.5535  0.2650
 4150SOL     OW24082   4.456   2.900   7.408 -0.0905 -0.2695 -0.0500
 4150SOL    HW124083   4.427   2.912   7.498 -0.2182 -0.8583 -0.0137
 4150SOL    HW224084   4.415   2.974   7.364  2.4473  0.2323 -1.6066
 4151SOL     OW24085   0.079   1.022  12.442  0.1332 -0.3192  0.4872
 4151SOL    HW124086   0.147   1.089  12.440  1.7937 -1.9234  2.7623
 4151SOL    HW224087   0.132   0.943  12.440 -0.3799 -0.6707  0.8496
 4152SOL     OW24088   0.242   4.170   7.073 -0.1231  0.2663  0.1941
 4152SOL    HW124089   0.257   4.204   7.161 -0.8893 -0.7382  0.7168
 4152SOL    HW224090   0.239   4.074   7.081  0.7893  0.2865  0.8457
 4153SOL     OW24091   3.494   4.591   1.840 -0.0694 -0.1272 -0.3790
 4153SOL    HW124092   3.520   4.659   1.778  0.1747  0.7160  0.6543
 4153SOL    HW224093   3.542   4.613   1.920 -0.2975  0.7807 -0.4872
 4154SOL     OW24094   3.525   0.869   2.583  0.1534  0.1365  0.3636
 4154SOL    HW124095   3.543   0.821   2.663 -1.4101  0.2802  0.8080
 4154SOL    HW224096   3.611   0.909   2.570  1.0506 -2.2228 -0.9650
 4155SOL     OW24097   2.634   4.503  10.947 -0.2228  0.1976 -0.3194
 4155SOL    HW124098   2.588   4.580  10.914 -0.9635  0.0501  0.3783
 4155SOL    HW224099   2.579   4.430  10.918 -2.3117  1.2636  0.9665
 4156SOL     OW24100   3.270   1.392   6.733  0.0253 -0.3471 -0.0377
 4156SOL    HW124101   3.230   1.410   6.818 -1.2027  1.6549 -1.0369
 4156SOL    HW224102   3.266   1.297   6.745  1.5648 -0.2952  0.9862
 4157SOL     OW24103   4.292   4.657   6.044  0.2643  0.1932 -0.2952
 4157SOL    HW124104   4.322   4.689   5.959  1.2691  0.4548  0.1474
 4157SOL    HW224105   4.349   4.700   6.108 -1.2712  0.5832  0.8072
 4158SOL     OW24106   0.806   0.947  15.624 -0.0335 -0.2212  0.3204
 4158SOL    HW124107   0.849   1.032  15.621 -0.7265  0.1329  0.4782
 4158SOL    HW224108   0.809   0.928  15.530  0.2354  0.0068  0.2832
 4159SOL     OW24109   3.713   1.224   3.406  0.1993  0.4961  0.4029
 4159SOL    HW124110   3.689   1.199   3.317 -0.6750  1.5562  0.3406
 4159SOL    HW224111   3.684   1.156   3.467 -0.2853  0.2368 -0.1161
 4160SOL     OW24112   0.824   3.303   6.987  0.1144  0.4301  0.1061
 4160SOL    HW124113   0.849   3.212   6.999  0.0094  0.1576 -1.7324
 4160SOL    HW224114   0.884   3.333   6.919 -1.7711  2.0844 -0.8205
 4161SOL     OW24115   4.737   0.077   9.692 -0.4526  0.5278 -0.0797
 4161SOL    HW124116   0.057   0.121   9.629  2.2195 -1.0944  1.2126
 4161SOL    HW224117   0.045   0.006   9.738 -0.7067  0.3263 -0.1418
 4162SOL     OW24118   1.588   2.245   3.017 -0.3074  0.3521 -0.8338
 4162SOL    HW124119   1.682   2.256   3.007  0.0978 -1.2644  1.2096
 4162SOL    HW224120   1.555   2.335   3.025 -0.9860  0.2481 -2.4647
 4163SOL     OW24121   0.927   3.201  10.241  0.2620 -0.1280  0.2154
 4163SOL    HW124122   1.007   3.149  10.242 -0.4525 -1.2279 -1.0455
 4163SOL    HW224123   0.863   3.142  10.280 -0.6779  0.5636 -0.2898
 4164SOL     OW24124   0.552   3.258   1.614 -0.0216  0.3822 -0.2532
 4164SOL    HW124125   0.479   3.202   1.639 -0.2365  0.1586 -1.3663
 4164SOL    HW224126   0.576   3.292   1.700  0.1036  3.4086 -1.4866
 4165SOL     OW24127   2.078   1.354   5.464 -0.2915  0.1115 -0.7921
 4165SOL    HW124128   2.097   1.284   5.401 -0.5271 -0.2306 -0.4815
 4165SOL    HW224129   2.150   1.414   5.443  1.5155 -1.0495  2.0558
 4166SOL     OW24130   3.689   2.216   5.742 -0.5175  0.0241 -0.3935
 4166SOL    HW124131   3.702   2.132   5.699 -0.1819 -0.2511  0.2427
 4166SOL    HW224132   3.771   2.263   5.726  1.2200 -3.2758 -1.2025
 4167SOL     OW24133   3.211   3.608   4.254  0.4532 -0.2562  0.2701
 4167SOL    HW124134   3.219   3.701   4.273  1.2097 -0.7348  2.2409
 4167SOL    HW224135   3.281   3.574   4.310 -0.3116 -0.0188  1.3562
 4168SOL     OW24136   4.608   4.588   8.880  0.2067 -0.3304 -0.1109
 4168SOL    HW124137   4.521   4.617   8.907  0.6269 -0.1980  1.0924
 4168SOL    HW224138   4.585   4.569   8.789  0.4154 -0.4591 -0.1376
 4169SOL     OW24139   0.989   2.972  10.582 -0.3188  0.0434  0.2038
 4169SOL    HW124140   0.951   2.921  10.511 -0.6214  0.4673  0.0624
 4169SOL    HW224141   0.990   2.904  10.649  1.5067  0.9066  1.0537
 4170SOL     OW24142   3.799   0.399  16.110 -0.0864  0.1685 -0.4515
 4170SOL    HW124143   3.725   0.356  16.153  0.5872  1.1078  1.6443
 4170SOL    HW224144   3.869   0.337  16.134  0.3683  0.7850 -0.1962
 4171SOL     OW24145   3.120   1.432  12.679 -0.2131  0.4200  0.1134
 4171SOL    HW124146   3.168   1.414  12.598  1.1177  0.0128  0.9798
 4171SOL    HW224147   3.039   1.466  12.642  1.4710  1.4071 -2.6241
 4172SOL     OW24148   2.999   3.976   4.179 -0.0159  0.4834  1.1322
 4172SOL    HW124149   3.004   4.069   4.155 -0.7621 -0.2432 -1.8685
 4172SOL    HW224150   3.086   3.942   4.160 -0.4996  0.2788 -0.7268
 4173SOL     OW24151   3.309   0.157   7.376  1.0636 -0.2013 -0.4237
 4173SOL    HW124152   3.236   0.148   7.315  0.9636 -4.1760  0.2674
 4173SOL    HW224153   3.273   0.141   7.463  0.0197 -2.8666 -1.3551
 4174SOL     OW24154   0.935   1.520   5.936 -0.4220  0.4048 -0.2236
 4174SOL    HW124155   0.942   1.463   5.860  1.7238 -0.4278  0.6080
 4174SOL    HW224156   0.842   1.545   5.930 -0.6835 -0.5239 -0.0872
 4175SOL     OW24157   2.159   4.077   6.216  0.0950 -0.3153 -0.3029
 4175SOL    HW124158   2.082   4.083   6.159  0.6264  1.1972 -0.8452
 4175SOL    HW224159   2.118   4.029   6.288 -0.6862  0.5374 -0.1667
 4176SOL     OW24160   2.758   4.389   7.705  0.0677  0.1982  0.2371
 4176SOL    HW124161   2.727   4.303   7.733 -1.8031  0.8167  0.0652
 4176SOL    HW224162   2.780   4.370   7.613  0.8949 -1.4304  0.7866
 4177SOL     OW24163   1.252   3.925   6.498  0.3103  0.0192 -0.4880
 4177SOL    HW124164   1.306   3.846   6.487 -1.0024 -1.2651  2.2738
 4177SOL    HW224165   1.244   3.956   6.408  1.2872  0.6237 -0.3600
 4178SOL     OW24166   1.958   0.956   4.372  0.6678 -0.2316  0.3381
 4178SOL    HW124167   1.997   0.929   4.455  1.0791 -0.2201  0.1460
 4178SOL    HW224168   1.922   1.044   4.386  2.2578  0.6132 -0.9283
 4179SOL     OW24169   0.204   1.910  16.113  0.2928 -0.2716 -0.3433
 4179SOL    HW124170   0.115   1.943  16.116  0.3195 -0.1395 -0.9282
 4179SOL    HW224171   0.228   1.906  16.020 -1.1581  0.8967 -0.7567
 4180SOL     OW24172   3.662   0.389  17.115 -0.2418  0.0052 -0.0373
 4180SOL    HW124173   3.690   0.468  17.162 -0.7575  1.3090 -1.8964
 4180SOL    HW224174   3.659   0.418  17.024 -0.4715 -0.6066 -0.2177
 4181SOL     OW24175   4.204   3.265   6.866 -0.0666 -0.3658 -0.4620
 4181SOL    HW124176   4.181   3.339   6.923 -0.2333 -0.7139 -0.0746
 4181SOL    HW224177   4.128   3.252   6.811  1.6602 -0.7044 -2.7671
 4182SOL     OW24178   3.243   4.205   6.473  0.0149 -0.6462 -0.0098
 4182SOL    HW124179   3.288   4.178   6.553 -1.6541  0.9519  1.4655
 4182SOL    HW224180   3.251   4.126   6.419 -1.7177 -1.1813  0.5049
 4183SOL     OW24181   2.809   0.218   8.388 -0.4690 -0.2224 -0.1701
 4183SOL    HW124182   2.789   0.132   8.352  2.3241 -0.7008 -0.5624
 4183SOL    HW224183   2.897   0.200   8.421 -0.4780 -2.0100 -1.1234
 4184SOL     OW24184   1.830   0.693   6.236  0.4586 -0.0377 -0.0748
 4184SOL    HW124185   1.824   0.614   6.183 -2.2357 -0.1643  0.4162
 4184SOL    HW224186   1.759   0.740   6.193  0.3678  0.0052  0.1231
 4185SOL     OW24187   1.690   1.677   5.599 -0.7238 -0.3586  0.6071
 4185SOL    HW124188   1.601   1.642   5.605 -0.9690  0.2423  0.4567
 4185SOL    HW224189   1.745   1.599   5.594 -2.1671 -1.4046  1.3674
 4186SOL     OW24190   3.432   2.802   8.720 -0.5112  0.2873 -0.1425
 4186SOL    HW124191   3.438   2.795   8.815  1.4781 -1.0569 -0.3870
 4186SOL    HW224192   3.509   2.858   8.710 -0.8187  0.9888  1.4090
 4187SOL     OW24193   0.378   4.439   3.453 -0.0812  0.1663  0.6928
 4187SOL    HW124194   0.347   4.398   3.373 -0.4465  1.6065  0.0972
 4187SOL    HW224195   0.467   4.403   3.446 -0.1188 -0.1395  1.7176
 4188SOL     OW24196   3.458   3.891   5.092 -0.2511 -0.1511 -0.4033
 4188SOL    HW124197   3.497   3.803   5.094  0.3399  0.1718  1.3213
 4188SOL    HW224198   3.364   3.875   5.085 -0.1789 -1.0040  0.5415
 4189SOL     OW24199   4.655   1.583   8.953  0.0238 -0.2482  0.2684
 4189SOL    HW124200   4.609   1.556   9.032  0.9148 -1.5643  0.3438
 4189SOL    HW224201   0.003   1.540   8.966 -0.1403 -0.1516  1.6684
 4190SOL     OW24202   0.788   2.652   6.447  0.2575  0.3378 -0.5582
 4190SOL    HW124203   0.787   2.734   6.496  0.1271  0.0496 -0.0806
 4190SOL    HW224204   0.724   2.606   6.500  0.1743  0.4715 -0.5415
 4191SOL     OW24205   2.933   2.941   6.472 -0.2382  0.2549 -0.3159
 4191SOL    HW124206   3.002   2.967   6.411 -0.7452 -1.9019 -1.7962
 4191SOL    HW224207   2.981   2.895   6.540  0.9436  2.7044  0.5057
 4192SOL     OW24208   2.228   0.147   9.265 -0.0115 -0.2428  0.3971
 4192SOL    HW124209   2.246   0.202   9.189 -1.4892 -0.1221  0.1340
 4192SOL    HW224210   2.317   0.150   9.299 -0.6095 -2.9603  2.1241
 4193SOL     OW24211   2.560   2.807   7.571  0.1337  0.3433  0.2802
 4193SOL    HW124212   2.555   2.874   7.639  0.1376  1.0829 -0.4411
 4193SOL    HW224213   2.471   2.772   7.567  0.8633 -1.6123  1.4035
 4194SOL     OW24214   0.112   3.575  14.714  0.0781 -0.1712  0.0770
 4194SOL    HW124215   0.188   3.607  14.762 -0.3123  0.0374  0.5638
 4194SOL    HW224216   0.142   3.594  14.625  1.0539  0.7331  0.6015
 4195SOL     OW24217   0.643   3.358   4.561 -0.4952  0.3431  0.3603
 4195SOL    HW124218   0.577   3.426   4.551 -0.8608 -0.0045  0.3999
 4195SOL    HW224219   0.627   3.298   4.488 -1.6588 -0.4835  1.2895
 4196SOL     OW24220   2.565   3.648  12.676  0.4707 -0.3229  0.1316
 4196SOL    HW124221   2.604   3.564  12.650  0.1619 -0.4428  0.0530
 4196SOL    HW224222   2.524   3.627  12.760  0.4585 -1.1384 -0.0733
 4197SOL     OW24223   2.806   4.497  10.486  0.2443 -0.1122 -0.1692
 4197SOL    HW124224   2.777   4.421  10.536 -0.9532  1.3930  1.4283
 4197SOL    HW224225   2.895   4.509  10.519  0.5920 -0.2766 -1.0381
 4198SOL     OW24226   3.068   3.387   7.096 -0.1296  0.7613 -0.8097
 4198SOL    HW124227   3.114   3.308   7.124 -0.2506  0.4530 -1.5078
 4198SOL    HW224228   3.092   3.400   7.005 -2.9826 -1.5255 -1.8820
 4199SOL     OW24229   1.918   1.963  16.678  0.5592  0.6261  0.2223
 4199SOL    HW124230   1.889   2.047  16.642 -0.5124  0.5371  0.8889
 4199SOL    HW224231   1.915   1.984  16.771  0.5394 -0.0230  0.3696
 4200SOL     OW24232   3.023   3.682   1.704 -0.2387  0.4551  0.0850
 4200SOL    HW124233   2.984   3.679   1.791  0.1100  2.2564  0.3162
 4200SOL    HW224234   3.050   3.771   1.681 -1.8370  0.4583 -1.8110
 4201SOL     OW24235   2.738   2.982   8.829  0.0154  0.3499 -0.2136
 4201SOL    HW124236   2.693   3.026   8.901  1.8293  1.0321  0.5000
 4201SOL    HW224237   2.831   2.977   8.850 -0.3186 -1.6270  0.8407
 4202SOL     OW24238   0.778   1.336  15.420  0.3520 -0.1081  0.1066
 4202SOL    HW124239   0.862   1.373  15.394  0.4309 -1.1745 -1.1354
 4202SOL    HW224240   0.812   1.265  15.474 -1.1580 -1.5196 -0.8107
 4203SOL     OW24241   2.055   4.144  14.095 -0.0315 -0.4276 -0.3181
 4203SOL    HW124242   2.099   4.176  14.174  0.0908 -0.2261 -0.4664
 4203SOL    HW224243   1.969   4.115  14.123 -0.1961  1.9899  1.7289
 4204SOL     OW24244   3.919   4.468   7.641 -0.9319  0.6290  0.5323
 4204SOL    HW124245   3.887   4.546   7.688  1.9101  0.5684  2.6161
 4204SOL    HW224246   3.943   4.414   7.716  0.0549  0.3158 -0.0175
 4205SOL     OW24247   0.095   2.649   5.255 -0.5216  0.3222 -0.0006
 4205SOL    HW124248   0.131   2.571   5.213 -0.5771  0.0239  0.4957
 4205SOL    HW224249   0.137   2.716   5.202 -1.3483 -0.2619 -1.4103
 4206SOL     OW24250   1.803   1.593   8.681  0.1902  0.6449 -0.9306
 4206SOL    HW124251   1.716   1.565   8.710  0.5217 -2.6847 -3.2042
 4206SOL    HW224252   1.771   1.638   8.603 -1.0933 -0.8402 -1.2565
 4207SOL     OW24253   2.831   1.856   2.349  0.3635 -0.2095  0.4186
 4207SOL    HW124254   2.855   1.877   2.259 -1.4855 -1.0780 -0.2628
 4207SOL    HW224255   2.832   1.760   2.347  0.6498 -0.2306  1.6667
 4208SOL     OW24256   2.518   4.130   9.140 -0.2019  0.0541 -0.4761
 4208SOL    HW124257   2.462   4.114   9.216 -0.7623  1.8165 -0.5132
 4208SOL    HW224258   2.604   4.126   9.182  0.4870 -1.9392 -2.0459
 4209SOL     OW24259   0.439   4.103   3.455  0.3374 -0.5030  0.3200
 4209SOL    HW124260   0.496   4.173   3.422 -0.5481 -0.2574 -0.6741
 4209SOL    HW224261   0.427   4.146   3.540  0.5040  1.9953 -0.9220
 4210SOL     OW24262   4.446   4.166   4.998 -0.2354 -0.0853  0.4898
 4210SOL    HW124263   4.542   4.167   4.999 -0.2304  0.1794 -0.0477
 4210SOL    HW224264   4.425   4.240   5.055 -0.7805  0.7827 -0.8062
 4211SOL     OW24265   1.530   4.046   1.882 -0.1713 -0.4765 -0.0874
 4211SOL    HW124266   1.516   4.022   1.790  0.8512  0.2562 -0.4397
 4211SOL    HW224267   1.620   4.078   1.883 -0.1206 -0.6371  0.9014
 4212SOL     OW24268   3.811   4.669   7.789  0.3396  0.7571 -0.3656
 4212SOL    HW124269   3.739   4.686   7.850 -0.6481 -0.3425 -1.2432
 4212SOL    HW224270   3.886   4.688   7.846  0.5548 -0.2910 -0.2985
 4213SOL     OW24271   4.689   2.634   4.970  0.3418 -0.5412 -0.3865
 4213SOL    HW124272   0.005   2.577   5.025  0.3917 -1.3640 -1.2932
 4213SOL    HW224273   0.016   2.640   4.899  0.2152  0.5664 -0.4044
 4214SOL     OW24274   4.507   3.560  17.185  0.2019  0.0707 -0.1898
 4214SOL    HW124275   4.413   3.568  17.169  0.6134  0.4200 -2.4234
 4214SOL    HW224276   4.525   3.643  17.229 -1.0990 -0.6722  1.7539
 4215SOL     OW24277   2.705   4.518   4.855 -0.7914  0.0305  0.3526
 4215SOL    HW124278   2.681   4.429   4.880 -3.8699  1.0588  1.0047
 4215SOL    HW224279   2.715   4.506   4.760  0.4393 -0.5142  0.5502
 4216SOL     OW24280   2.874   3.537   1.089 -0.1354 -0.0146  0.3611
 4216SOL    HW124281   2.837   3.572   1.169 -2.7816  2.2984 -1.8806
 4216SOL    HW224282   2.820   3.579   1.022  1.3036 -0.4696 -1.0902
 4217SOL     OW24283   1.637   3.811   8.864  0.5655 -0.4140 -0.1413
 4217SOL    HW124284   1.666   3.773   8.947  0.1571  0.3113  0.3283
 4217SOL    HW224285   1.612   3.900   8.886 -0.5960 -0.4125 -1.4881
 4218SOL     OW24286   2.271   2.640   2.063  0.0526  0.0531  0.4247
 4218SOL    HW124287   2.326   2.630   2.141  1.4098 -0.2405 -0.5740
 4218SOL    HW224288   2.325   2.706   2.020 -0.5590  1.4405  1.7886
 4219SOL     OW24289   3.553   0.198   9.092  0.7370 -0.0406 -0.4991
 4219SOL    HW124290   3.475   0.172   9.140 -1.1664  2.5773 -2.1754
 4219SOL    HW224291   3.619   0.149   9.141 -0.8522  0.7218  2.3835
 4220SOL     OW24292   2.244   0.805   8.002  0.1056  0.2290 -0.0932
 4220SOL    HW124293   2.181   0.844   7.941 -0.4539  2.3743  1.8345
 4220SOL    HW224294   2.281   0.889   8.031  0.7539  0.6698 -2.1387
 4221SOL     OW24295   1.353   0.055   8.188  0.3942 -0.2105 -0.0880
 4221SOL    HW124296   1.357   4.698   8.166  0.5777 -0.2433  0.0768
 4221SOL    HW224297   1.361   0.062   8.283  1.5596 -1.0578 -0.1176
 4222SOL     OW24298   0.843   3.428   2.782 -0.2620  0.3017  0.0255
 4222SOL    HW124299   0.750   3.410   2.790 -0.1061 -1.0473 -1.0667
 4222SOL    HW224300   0.873   3.343   2.815  0.3281  0.5328  0.0911
 4223SOL     OW24301   3.883   4.486   7.105  0.6328  0.0372 -0.0779
 4223SOL    HW124302   3.877   4.448   7.192 -1.9078  0.0792 -0.2210
 4223SOL    HW224303   3.858   4.577   7.124 -4.3270 -1.0636 -1.1870
 4224SOL     OW24304   1.278   2.038   5.952 -0.5750  0.4938 -0.1069
 4224SOL    HW124305   1.186   2.013   5.940 -0.6368  0.9546 -0.6085
 4224SOL    HW224306   1.276   2.127   5.987 -0.8263  1.0952 -1.6098
 4225SOL     OW24307   0.169   4.197   0.523  0.0479 -0.1945  0.2620
 4225SOL    HW124308   0.214   4.192   0.607  0.3937 -1.4858 -0.0055
 4225SOL    HW224309   0.141   4.289   0.516 -0.2970 -0.5191 -2.4897
 4226SOL     OW24310   1.596   4.439  11.107 -0.1711  0.1696 -0.4451
 4226SOL    HW124311   1.680   4.485  11.107  0.7371 -1.4915  0.3777
 4226SOL    HW224312   1.545   4.499  11.052  0.1283  1.1615  0.3622
 4227SOL     OW24313   0.606   4.032   6.237 -0.6023  0.2168  0.2581
 4227SOL    HW124314   0.646   3.946   6.241  0.9164  0.9583  1.0090
 4227SOL    HW224315   0.519   4.017   6.274 -0.6607 -1.0658 -0.4155
 4228SOL     OW24316   2.352   0.914   4.066 -0.0699  0.3004 -0.1380
 4228SOL    HW124317   2.435   0.882   4.031 -0.1885 -2.2184  1.8636
 4228SOL    HW224318   2.306   0.834   4.091 -0.9314  0.2794 -1.8028
 4229SOL     OW24319   3.561   0.093   2.612 -0.5230 -0.3858  0.0337
 4229SOL    HW124320   3.478   0.056   2.643 -1.0431  0.7213 -0.0496
 4229SOL    HW224321   3.599   0.079   2.699 -1.4780  0.5209  0.5872
 4230SOL     OW24322   4.096   2.788  12.180  0.0267 -0.3437  0.4292
 4230SOL    HW124323   4.165   2.835  12.133 -0.6519  0.4181  0.1871
 4230SOL    HW224324   4.115   2.809  12.271 -2.5607  1.8320  0.4557
 4231SOL     OW24325   1.172   2.354   4.145  0.0857  0.6327  0.1601
 4231SOL    HW124326   1.118   2.395   4.213 -1.0295 -0.8682  0.2045
 4231SOL    HW224327   1.110   2.372   4.074 -1.7601  1.2293  1.9241
 4232SOL     OW24328   2.252   0.120   6.044 -0.9838 -0.4343  0.2130
 4232SOL    HW124329   2.266   0.069   5.964  0.3791 -1.1987  0.9378
 4232SOL    HW224330   2.217   0.197   6.000  2.4715  0.4239 -1.0427
 4233SOL     OW24331   1.015   0.001  12.224  0.2355  0.2605 -0.3422
 4233SOL    HW124332   0.997   0.062  12.295  1.4263 -0.2234  0.3676
 4233SOL    HW224333   1.105   4.719  12.252  0.3577  2.8001  0.9162
 4234SOL     OW24334   3.590   4.374   0.294  0.5324  0.5577 -0.0285
 4234SOL    HW124335   3.638   4.307   0.246  0.4595 -0.0954  0.7955
 4234SOL    HW224336   3.515   4.320   0.321  1.4194 -0.4182  0.4578
 4235SOL     OW24337   3.338   3.303   6.403 -0.0987 -0.1263  0.0956
 4235SOL    HW124338   3.373   3.239   6.464 -0.7088 -0.8628 -0.3229
 4235SOL    HW224339   3.400   3.374   6.389  0.7061 -0.6737  0.9476
 4236SOL     OW24340   3.874   2.903   2.932 -0.3719  0.2217 -0.0712
 4236SOL    HW124341   3.796   2.872   2.977  0.1002 -0.6226  0.1721
 4236SOL    HW224342   3.870   2.996   2.952  1.8431  1.3597 -4.8048
 4237SOL     OW24343   3.402   3.267  12.107 -0.0218 -0.0683 -0.4513
 4237SOL    HW124344   3.351   3.346  12.123  0.2808  0.2458 -1.0327
 4237SOL    HW224345   3.473   3.306  12.055  0.5760 -1.5991 -0.7767
 4238SOL     OW24346   2.447   2.656   5.594 -0.1997 -0.1862 -0.2327
 4238SOL    HW124347   2.517   2.705   5.638 -1.5219  1.5176 -0.0526
 4238SOL    HW224348   2.369   2.664   5.648  1.2809 -0.9825  2.0175
 4239SOL     OW24349   3.076   0.686   3.493  0.4235 -0.2561 -0.0735
 4239SOL    HW124350   3.099   0.596   3.470  0.9904  0.0530 -0.7257
 4239SOL    HW224351   3.030   0.678   3.577  0.1848 -2.0689 -0.3836
 4240SOL     OW24352   2.272   1.398  11.583 -0.1241  0.2836  0.1740
 4240SOL    HW124353   2.351   1.418  11.533 -0.4667  2.5446  0.5486
 4240SOL    HW224354   2.218   1.472  11.553  0.9257  0.7093 -0.6735
 4241SOL     OW24355   3.261   1.138   5.412 -0.4200 -0.0487 -0.6070
 4241SOL    HW124356   3.185   1.150   5.355 -1.6202  1.4685  1.2962
 4241SOL    HW224357   3.230   1.188   5.488 -0.8665 -0.7367 -0.3376
 4242SOL     OW24358   3.257   3.929  10.007 -0.4139 -0.2481  0.4369
 4242SOL    HW124359   3.336   3.961  10.053  0.7690 -2.3742 -0.0997
 4242SOL    HW224360   3.188   3.972  10.057 -0.9746  0.8911 -1.3645
 4243SOL     OW24361   3.089   2.393  14.585 -0.4693 -0.3135  0.5632
 4243SOL    HW124362   3.135   2.448  14.648 -1.3421  1.3348 -0.2374
 4243SOL    HW224363   3.118   2.413  14.496 -2.1562  0.3112  0.1642
 4244SOL     OW24364   1.354   3.544   8.100  0.1461  0.8475 -0.5204
 4244SOL    HW124365   1.292   3.530   8.172  1.4521 -1.8528  0.0782
 4244SOL    HW224366   1.421   3.595   8.146  0.3534 -0.2300  0.3694
 4245SOL     OW24367   0.223   4.579  17.684 -0.4637  0.0504 -0.0145
 4245SOL    HW124368   0.151   4.549  17.740  1.2086  1.3497  2.8559
 4245SOL    HW224369   0.265   4.635   0.005  0.8049 -0.6701 -0.2138
 4246SOL     OW24370   3.214   1.187   3.259  0.0612 -0.1883 -0.4334
 4246SOL    HW124371   3.204   1.137   3.340 -1.5161 -0.3182 -0.7174
 4246SOL    HW224372   3.256   1.267   3.292 -1.2410  0.0355  0.7163
 4247SOL     OW24373   0.224   2.018   7.016  0.2188 -0.3848 -0.2643
 4247SOL    HW124374   0.243   1.932   6.978  2.5021 -0.0142  0.0536
 4247SOL    HW224375   0.285   2.025   7.089  0.7423 -0.6366 -0.6750
 4248SOL     OW24376   0.384   0.599   7.869  0.5660  0.3146 -0.2035
 4248SOL    HW124377   0.476   0.624   7.860  1.0384 -2.0538 -1.7101
 4248SOL    HW224378   0.374   0.513   7.830  1.7360 -0.6180  1.5537
 4249SOL     OW24379   2.386   4.040   2.572 -0.0816  0.7347 -0.5725
 4249SOL    HW124380   2.439   4.020   2.495  0.8978 -0.1740  0.3295
 4249SOL    HW224381   2.417   3.978   2.638  0.3554 -0.3408 -1.7716
 4250SOL     OW24382   1.674   2.993   7.730  0.1611 -0.5750  0.3889
 4250SOL    HW124383   1.645   2.919   7.783  0.1294  0.0444  1.2279
 4250SOL    HW224384   1.761   3.003   7.767 -0.5069 -1.8114  2.3209
 4251SOL     OW24385   4.605   2.897   8.487 -0.3102  0.5706  0.4682
 4251SOL    HW124386   4.610   2.850   8.570  0.3647  0.8817  0.6082
 4251SOL    HW224387   4.622   2.822   8.430  1.1366  0.8432  0.5407
 4252SOL     OW24388   4.683   3.838   6.086  0.5079  0.0628  0.0067
 4252SOL    HW124389   4.616   3.780   6.050  1.3626 -0.1085 -1.2792
 4252SOL    HW224390   4.637   3.877   6.161 -1.4802 -1.2209 -0.5290
 4253SOL     OW24391   4.665   2.298   1.128  0.1410 -0.2925  0.5118
 4253SOL    HW124392   4.644   2.391   1.132  3.4517  0.4663  0.3380
 4253SOL    HW224393   4.580   2.260   1.108  0.6135 -0.3782 -1.3561
 4254SOL     OW24394   0.945   0.386   0.466  0.1849 -0.1150 -0.0534
 4254SOL    HW124395   0.851   0.405   0.472 -0.1332 -2.2537  1.5151
 4254SOL    HW224396   0.961   0.321   0.533  0.3401 -0.1338 -0.1075
 4255SOL     OW24397   3.272   1.929  12.597  0.1736 -0.3159 -0.0492
 4255SOL    HW124398   3.273   1.836  12.575  1.6508  0.0486 -1.5542
 4255SOL    HW224399   3.268   1.967  12.509  0.3740 -1.9341 -0.7485
 4256SOL     OW24400   2.409   2.654   0.210 -0.0472  0.5871  0.2865
 4256SOL    HW124401   2.378   2.571   0.174 -0.4665  0.4807  0.8922
 4256SOL    HW224402   2.490   2.674   0.164  0.9495  0.8414  2.1641
 4257SOL     OW24403   2.845   2.708   9.271 -0.1569  0.5171  0.2563
 4257SOL    HW124404   2.781   2.778   9.283  0.7081  1.4713 -0.6843
 4257SOL    HW224405   2.904   2.726   9.344  1.1809  0.3778 -0.7936
 4258SOL     OW24406   0.645   1.425   8.963  0.2472  0.5427 -0.0166
 4258SOL    HW124407   0.711   1.413   8.895  0.6575  0.3413  0.4163
 4258SOL    HW224408   0.608   1.509   8.936 -0.2649  0.3455  0.0609
 4259SOL     OW24409   1.382   3.693   6.481  0.5371 -0.2918  0.4087
 4259SOL    HW124410   1.374   3.669   6.389  2.9686  0.9963 -0.1633
 4259SOL    HW224411   1.338   3.623   6.529  1.3624 -1.5808 -0.7292
 4260SOL     OW24412   1.130   1.304   2.361  0.0506 -0.0137  0.0583
 4260SOL    HW124413   1.151   1.363   2.289 -2.3989  0.6046 -0.1297
 4260SOL    HW224414   1.189   1.335   2.430 -1.1470  2.4166 -0.0458
 4261SOL     OW24415   4.056   1.462   9.064  0.2834  0.5041  0.3347
 4261SOL    HW124416   4.058   1.544   9.113 -2.1145  0.1321  1.0501
 4261SOL    HW224417   4.060   1.494   8.974 -0.7901 -2.5029 -0.7730
 4262SOL     OW24418   0.742   4.468  11.912 -0.4343 -1.0420 -0.5313
 4262SOL    HW124419   0.746   4.379  11.948 -1.1832  0.2851  2.8892
 4262SOL    HW224420   0.739   4.520  11.993 -0.4644  0.3026 -1.3947
 4263SOL     OW24421   2.800   3.064   2.682  0.3651 -0.1042  0.0392
 4263SOL    HW124422   2.785   3.071   2.588  0.9567 -0.5994 -0.0951
 4263SOL    HW224423   2.727   3.005   2.701 -2.3432  2.7302 -1.5394
 4264SOL     OW24424   2.470   2.275  10.291 -0.0749  0.1319 -0.0223
 4264SOL    HW124425   2.492   2.206  10.353  0.1830 -0.3864 -0.6933
 4264SOL    HW224426   2.555   2.293  10.250  0.6515 -0.8536  1.0561
 4265SOL     OW24427   3.799   2.745   8.787  0.3305 -0.6529 -0.5700
 4265SOL    HW124428   3.732   2.801   8.747  0.0624 -1.1866 -0.8706
 4265SOL    HW224429   3.794   2.778   8.876  1.1376 -1.6965 -0.1379
 4266SOL     OW24430   2.330   2.936  12.112 -0.5912  0.2380  0.0921
 4266SOL    HW124431   2.304   3.004  12.049 -2.9149 -2.3648 -1.7212
 4266SOL    HW224432   2.243   2.936  12.153 -1.0112 -1.0030 -0.8068
 4267SOL     OW24433   4.082   3.175  14.973  0.4151 -0.0391 -0.2921
 4267SOL    HW124434   4.005   3.131  14.936 -0.0697  1.5846 -1.1927
 4267SOL    HW224435   4.146   3.146  14.909  1.3248 -2.1846  1.5832
 4268SOL     OW24436   0.767   0.533   6.088  0.5191 -0.5841  0.3378
 4268SOL    HW124437   0.684   0.511   6.047 -0.0371  0.3449  0.9548
 4268SOL    HW224438   0.755   0.474   6.162  0.3811  0.2613  0.9964
 4269SOL     OW24439   0.161   1.540   3.971 -0.0013  0.2276 -0.2176
 4269SOL    HW124440   0.150   1.616   3.913 -3.1230 -1.0248 -1.2654
 4269SOL    HW224441   0.233   1.576   4.023  0.0704 -0.3818  0.1024
 4270SOL     OW24442   3.600   3.146  12.240 -0.0582  0.6275  0.0946
 4270SOL    HW124443   3.573   3.174  12.328 -0.6772  1.8971 -0.5090
 4270SOL    HW224444   3.526   3.178  12.188 -0.9819 -1.4870  0.0886
 4271SOL     OW24445   0.724   2.101   7.889  0.2564  0.1332  0.4729
 4271SOL    HW124446   0.811   2.137   7.902  1.3349 -2.4561  0.3125
 4271SOL    HW224447   0.709   2.074   7.980  1.0929 -1.4038  0.1531
 4272SOL     OW24448   0.013   2.222   3.232 -0.5668 -0.2155  0.0519
 4272SOL    HW124449   4.669   2.176   3.253 -1.3459  1.2211  0.1719
 4272SOL    HW224450   0.073   2.168   3.284 -0.5156 -1.7363 -1.5914
 4273SOL     OW24451   3.500   0.003   4.075  0.1034 -0.0425  0.4819
 4273SOL    HW124452   3.527   0.056   4.150  2.7429 -1.2566  0.3710
 4273SOL    HW224453   3.568   4.675   4.059  1.1959  1.3856 -0.6037
 4274SOL     OW24454   0.569   3.255  11.961 -0.0419 -0.3362 -0.4454
 4274SOL    HW124455   0.639   3.201  11.997 -1.6396 -0.7067  2.0828
 4274SOL    HW224456   0.503   3.190  11.940 -1.4487  1.3985 -1.4130
 4275SOL     OW24457   4.246   1.461  11.972 -0.3448 -0.0594 -0.3390
 4275SOL    HW124458   4.172   1.463  12.033  0.5157  4.1540  0.5653
 4275SOL    HW224459   4.274   1.369  11.973  1.6536  0.5294 -2.7418
 4276SOL     OW24460   1.600   1.773   7.830  0.1971 -1.2149 -0.3012
 4276SOL    HW124461   1.617   1.758   7.923  0.8500  0.3917 -0.1486
 4276SOL    HW224462   1.663   1.715   7.788  2.2091  1.8862 -1.6423
 4277SOL     OW24463   1.873   0.628   5.720  0.2491  0.7932 -0.2085
 4277SOL    HW124464   1.800   0.567   5.710 -0.5769  1.6576  0.5385
 4277SOL    HW224465   1.884   0.660   5.631  1.2601  0.2692 -0.2738
 4278SOL     OW24466   1.750   3.105   8.815  0.6773  0.5293 -0.4485
 4278SOL    HW124467   1.700   3.164   8.759  1.4991  0.3385 -1.3893
 4278SOL    HW224468   1.823   3.167   8.820 -0.8729  2.2313  0.8742
 4279SOL     OW24469   2.789   1.606   7.700 -0.4083  0.1004  0.1143
 4279SOL    HW124470   2.748   1.553   7.768  0.6791 -1.2818 -0.3071
 4279SOL    HW224471   2.747   1.566   7.624  1.0888  1.6076 -1.5282
 4280SOL     OW24472   0.293   1.250   4.396 -0.8656 -0.1119  0.3538
 4280SOL    HW124473   0.226   1.182   4.401 -1.8872  0.7307 -1.3832
 4280SOL    HW224474   0.362   1.191   4.367 -0.3320  0.6459  0.0778
 4281SOL     OW24475   1.576   1.932   4.618 -0.3047  0.0708  0.2666
 4281SOL    HW124476   1.504   1.995   4.620 -0.5211 -0.1836  0.4968
 4281SOL    HW224477   1.652   1.989   4.607  1.2748 -1.4466  3.1897
 4282SOL     OW24478   2.808   3.866   7.218  0.3303  0.1570  0.6211
 4282SOL    HW124479   2.840   3.858   7.308 -2.7987 -0.9943  1.6072
 4282SOL    HW224480   2.778   3.778   7.196 -1.0040  0.9700 -0.7937
 4283SOL     OW24481   1.809   1.782   6.878  0.5895  0.3975  0.6817
 4283SOL    HW124482   1.820   1.734   6.795 -2.1063  1.6006 -0.3497
 4283SOL    HW224483   1.718   1.761   6.896  1.4200 -3.8340  0.1029
 4284SOL     OW24484   1.021   3.223  15.969 -0.0771 -0.2580 -0.4616
 4284SOL    HW124485   0.998   3.173  15.891  1.5545 -0.4371 -0.8254
 4284SOL    HW224486   0.942   3.256  16.014 -0.1626 -1.1478  0.0331
 4285SOL     OW24487   2.746   2.355   2.233 -0.1056 -0.1074 -0.0657
 4285SOL    HW124488   2.677   2.291   2.253 -1.8917  1.3075 -1.7624
 4285SOL    HW224489   2.742   2.348   2.138 -0.6696  0.9933 -0.1169
 4286SOL     OW24490   4.218   0.333  12.292 -0.3502 -0.1359  0.2767
 4286SOL    HW124491   4.155   0.400  12.320  2.6213  2.1509  1.5594
 4286SOL    HW224492   4.275   0.319  12.368 -0.8147  1.9072  1.0086
 4287SOL     OW24493   0.694   0.143   8.345  0.3516 -0.1205  0.0785
 4287SOL    HW124494   0.763   0.209   8.338  1.7809 -1.6480 -0.3133
 4287SOL    HW224495   0.731   0.084   8.410 -0.5080  1.8463  2.3413
 4288SOL     OW24496   0.560   3.392   3.863  0.6201  0.2083 -0.5792
 4288SOL    HW124497   0.468   3.417   3.855  0.5967  0.1941 -0.3668
 4288SOL    HW224498   0.583   3.426   3.950  0.2222 -1.9083  0.3597
 4289SOL     OW24499   2.242   2.799   8.144 -0.0083  0.2069  0.0528
 4289SOL    HW124500   2.282   2.886   8.144  0.7304 -0.1334  4.7222
 4289SOL    HW224501   2.180   2.813   8.215 -0.3948 -1.1057 -0.0197
 4290SOL     OW24502   4.601   2.231   3.843  0.9790  0.1000  0.0050
 4290SOL    HW124503   4.620   2.213   3.751  1.7758  1.7860 -0.1587
 4290SOL    HW224504   4.559   2.146   3.856  0.0762  0.2484 -1.9448
 4291SOL     OW24505   2.768   4.057   1.994 -0.3136 -0.3958  0.1239
 4291SOL    HW124506   2.852   4.058   1.947 -0.0955  0.9508  0.5232
 4291SOL    HW224507   2.735   4.145   1.975 -0.7195 -0.4908  0.4034
 4292SOL     OW24508   4.067   3.613   3.044 -0.3949  0.4566 -0.2180
 4292SOL    HW124509   4.133   3.670   3.082  0.4512 -0.5824 -0.1336
 4292SOL    HW224510   4.024   3.673   2.983 -2.4472 -0.8640 -0.0904
 4293SOL     OW24511   2.926   1.016   3.760 -0.5635 -0.2297  0.2834
 4293SOL    HW124512   3.002   1.036   3.706 -1.8382 -1.1172 -1.7967
 4293SOL    HW224513   2.935   0.921   3.769  0.2188 -0.2728 -0.9953
 4294SOL     OW24514   3.631   0.953   0.957 -0.2096  0.3900  0.0463
 4294SOL    HW124515   3.560   0.999   1.002 -1.1699 -0.3492 -0.7209
 4294SOL    HW224516   3.709   0.997   0.993 -0.5779  0.6790  0.4959
 4295SOL     OW24517   0.104   1.352   3.391 -0.7288  0.1489 -0.3917
 4295SOL    HW124518   0.160   1.423   3.421  0.4176 -0.4904 -1.0338
 4295SOL    HW224519   0.105   1.296   3.468 -1.9941 -2.1319 -2.0305
 4296SOL     OW24520   1.781   3.459   2.502 -0.6666  0.5800  0.2196
 4296SOL    HW124521   1.749   3.523   2.439 -0.1603  0.3065 -0.3129
 4296SOL    HW224522   1.796   3.387   2.441 -0.5883 -0.2222  1.1721
 4297SOL     OW24523   2.567   0.824   3.901 -0.4954 -0.0848 -0.8299
 4297SOL    HW124524   2.608   0.808   3.816 -0.0657  1.1010 -0.8517
 4297SOL    HW224525   2.629   0.782   3.960 -1.7120  0.4488  0.8110
 4298SOL     OW24526   3.659   2.764   6.004 -0.1117 -0.0664 -0.4490
 4298SOL    HW124527   3.654   2.686   6.060 -0.1375  0.7187  0.6418
 4298SOL    HW224528   3.751   2.780   5.984 -0.1540  1.6282  0.7117
 4299SOL     OW24529   1.522   2.971   2.255  0.4476  0.3149 -0.5875
 4299SOL    HW124530   1.552   2.880   2.256 -1.3805 -0.2763  0.0798
 4299SOL    HW224531   1.455   2.953   2.188 -0.2974 -1.6413  0.6936
 4300SOL     OW24532   2.400   0.653   1.001  0.3806  0.3333  0.0474
 4300SOL    HW124533   2.429   0.721   0.941  1.2881 -1.1933 -1.2633
 4300SOL    HW224534   2.355   0.587   0.947  0.7600  0.7753 -0.8006
 4301SOL     OW24535   0.624   2.785   6.828 -0.5034  0.1227 -0.0432
 4301SOL    HW124536   0.546   2.831   6.858 -0.0311  0.6048  0.4386
 4301SOL    HW224537   0.605   2.698   6.862 -2.2339  0.1223 -1.0367
 4302SOL     OW24538   0.545   0.212  16.725  0.6831  0.1167  0.4191
 4302SOL    HW124539   0.633   0.225  16.689  1.4936  0.0214  2.3664
 4302SOL    HW224540   0.497   0.249  16.651  1.6882 -2.0185 -1.3131
 4303SOL     OW24541   2.353   1.871  11.844 -0.4815 -0.1871  0.6045
 4303SOL    HW124542   2.340   1.942  11.907  1.0179  1.2042 -0.6473
 4303SOL    HW224543   2.449   1.867  11.842 -0.6166 -2.7844 -0.4416
 4304SOL     OW24544   1.828   1.592   9.723  0.3477 -0.6078  0.1522
 4304SOL    HW124545   1.825   1.595   9.628 -0.0271 -2.4352  0.1034
 4304SOL    HW224546   1.905   1.646   9.740 -0.3779  1.0619 -1.9772
 4305SOL     OW24547   0.930   1.283   9.051 -0.2624 -0.8331  0.3428
 4305SOL    HW124548   0.908   1.289   9.144 -2.5485 -2.5434 -0.0899
 4305SOL    HW224549   0.912   1.371   9.017  1.2627 -0.9239 -0.7004
 4306SOL     OW24550   1.586   3.479   5.405  0.5524 -0.1277 -0.4452
 4306SOL    HW124551   1.511   3.437   5.447  0.0982 -1.3839 -2.5107
 4306SOL    HW224552   1.545   3.558   5.369 -1.3684 -1.4639 -1.1593
 4307SOL     OW24553   2.071   3.320   2.158 -0.3927  0.1215  0.0723
 4307SOL    HW124554   2.137   3.256   2.129 -0.2640 -0.0621  0.7549
 4307SOL    HW224555   2.088   3.387   2.092  1.4521  0.6247  1.0666
 4308SOL     OW24556   3.006   4.139   4.483 -0.2840 -0.0783  0.7270
 4308SOL    HW124557   2.959   4.120   4.564 -0.1875 -1.1951  0.5091
 4308SOL    HW224558   2.929   4.177   4.439  0.9673  0.8857 -0.6378
 4309SOL     OW24559   3.598   1.362   4.050  0.3032 -0.1142  0.5061
 4309SOL    HW124560   3.690   1.336   4.056  0.5017  0.2799 -0.7098
 4309SOL    HW224561   3.610   1.448   4.011 -0.1652 -0.9945 -1.5793
 4310SOL     OW24562   3.124   2.401   0.800  0.4455  0.5002  0.1842
 4310SOL    HW124563   3.057   2.413   0.867  0.2559  1.9555 -0.2737
 4310SOL    HW224564   3.193   2.348   0.841 -1.2248 -1.4578  0.4620
 4311SOL     OW24565   3.506   3.652  13.640  0.0072  0.5482 -0.3976
 4311SOL    HW124566   3.512   3.559  13.663  0.9374  0.9873  1.1579
 4311SOL    HW224567   3.416   3.683  13.655 -0.7739 -1.2920 -1.2477
 4312SOL     OW24568   2.547   3.294   7.349 -0.0473  0.0812  0.4265
 4312SOL    HW124569   2.585   3.207   7.365  0.6789  0.2241 -0.5254
 4312SOL    HW224570   2.520   3.283   7.258  1.9466 -0.1924 -0.1309
 4313SOL     OW24571   2.959   4.648   6.146 -0.1409 -0.3509 -0.1733
 4313SOL    HW124572   3.005   4.727   6.116 -0.6889  0.2958  0.7131
 4313SOL    HW224573   2.922   4.613   6.065  1.2986  0.7204 -1.3023
 4314SOL     OW24574   3.202   3.016  15.169 -0.3834 -0.0492 -0.5380
 4314SOL    HW124575   3.171   3.103  15.144  1.9398  1.4124  1.6784
 4314SOL    HW224576   3.139   2.990  15.237 -1.6202 -1.9164 -2.4008
 4315SOL     OW24577   4.486   4.217   3.454 -0.2617 -0.1489 -0.0334
 4315SOL    HW124578   4.498   4.281   3.385 -0.8183  1.0589  0.9880
 4315SOL    HW224579   4.391   4.215   3.463  0.0185 -0.0302  3.0819
 4316SOL     OW24580   2.626   2.137  11.321  0.6417 -0.1027 -0.1557
 4316SOL    HW124581   2.585   2.223  11.308 -1.2938 -1.1554 -1.0900
 4316SOL    HW224582   2.686   2.162  11.391  0.1345  0.5935  0.0354
 4317SOL     OW24583   0.301   3.665   7.275 -0.5974  0.1414 -0.2506
 4317SOL    HW124584   0.303   3.619   7.358  1.5123 -1.5047 -1.1951
 4317SOL    HW224585   0.256   3.746   7.298 -1.4834 -0.0844 -1.1839
 4318SOL     OW24586   3.354   4.100   1.750 -0.2431 -0.4567 -0.0607
 4318SOL    HW124587   3.422   4.074   1.688 -0.2537 -1.6069  0.4086
 4318SOL    HW224588   3.341   4.192   1.730 -0.1159 -0.1925  1.1156
 4319SOL     OW24589   0.050   4.515   7.986 -0.0714 -0.3353  0.1664
 4319SOL    HW124590   4.711   4.482   7.937  0.0712  1.5857 -1.3436
 4319SOL    HW224591   0.111   4.442   7.983 -1.9637 -1.8478 -1.3283
 4320SOL     OW24592   0.032   1.624  10.219 -0.0135 -0.1961 -0.4517
 4320SOL    HW124593   0.009   1.698  10.163  0.9380  0.7563  0.4180
 4320SOL    HW224594   4.732   1.560  10.157 -0.7465 -0.3000  0.0936
 4321SOL     OW24595   1.827   0.670   3.146  0.2408 -0.1718 -0.1856
 4321SOL    HW124596   1.742   0.682   3.188  2.0269 -0.5787  3.5559
 4321SOL    HW224597   1.815   0.588   3.099 -1.8406 -0.0812  0.2099
 4322SOL     OW24598   2.395   4.191   7.893 -0.0126  0.4125 -0.0052
 4322SOL    HW124599   2.391   4.116   7.834 -4.0141  2.8153 -2.8304
 4322SOL    HW224600   2.302   4.211   7.900 -0.0212  0.0001  0.9792
 4323SOL     OW24601   1.566   2.384  17.045  0.4643 -0.5077 -0.2490
 4323SOL    HW124602   1.629   2.449  17.013 -2.2625  1.7258 -1.0801
 4323SOL    HW224603   1.501   2.390  16.976 -0.9844  0.9767  1.2526
 4324SOL     OW24604   0.726   0.927   5.514  0.3095  0.3279 -0.0529
 4324SOL    HW124605   0.670   1.004   5.515 -0.0495  0.0789 -0.9809
 4324SOL    HW224606   0.667   0.863   5.555  0.4375  0.2704  0.0413
 4325SOL     OW24607   4.020   0.523  12.333 -0.3248  0.3737  0.1650
 4325SOL    HW124608   3.993   0.605  12.291  0.2589  0.9189  0.8447
 4325SOL    HW224609   3.948   0.460  12.326  0.0329  0.3030 -2.9805
 4326SOL     OW24610   1.471   0.309  13.489 -0.2289 -0.5928 -0.0992
 4326SOL    HW124611   1.439   0.297  13.400 -0.2128 -0.1921 -0.1619
 4326SOL    HW224612   1.458   0.225  13.532  2.2221 -0.8519  0.1857
 4327SOL     OW24613   3.351   3.694   0.167 -0.3358  0.5367  0.0640
 4327SOL    HW124614   3.321   3.605   0.187  0.8073 -0.0245 -0.6676
 4327SOL    HW224615   3.407   3.695   0.089  0.3595 -1.3831  0.5476
 4328SOL     OW24616   4.051   0.206   4.864 -0.1243 -0.4440  0.0069
 4328SOL    HW124617   3.977   0.266   4.854 -1.3441 -1.8489  0.6177
 4328SOL    HW224618   4.042   0.176   4.774 -0.6138  0.0730 -0.1150
 4329SOL     OW24619   1.113   3.117   1.548 -0.0966 -0.1751  0.4620
 4329SOL    HW124620   1.078   3.111   1.459  2.0633 -1.2619 -0.3081
 4329SOL    HW224621   1.031   3.139   1.592 -1.3141 -4.0623  0.1051
 4330SOL     OW24622   3.160   0.750   4.319 -0.0772  0.0150 -0.1072
 4330SOL    HW124623   3.202   0.668   4.294 -2.7995 -1.9595  1.8765
 4330SOL    HW224624   3.067   0.736   4.301 -0.1583  0.0906  0.2446
 4331SOL     OW24625   0.378   0.635   6.984 -0.3439  0.7520  0.4243
 4331SOL    HW124626   0.287   0.663   6.985 -0.2808  0.9895 -0.4613
 4331SOL    HW224627   0.373   0.569   6.915  2.5595  0.9383  0.0234
 4332SOL     OW24628   3.432   2.853   5.674  0.3340 -0.3289  0.2993
 4332SOL    HW124629   3.380   2.933   5.664  2.0468  0.5806 -1.1784
 4332SOL    HW224630   3.373   2.787   5.710  0.8821 -0.2098  1.4135
 4333SOL     OW24631   3.000   3.543   6.090  0.5276 -0.0867  0.2428
 4333SOL    HW124632   2.968   3.632   6.075 -1.1913 -0.3443  2.3638
 4333SOL    HW224633   3.050   3.555   6.171  0.9092 -1.6378  0.2266
 4334SOL     OW24634   0.276   3.392   6.149 -0.7406  0.1335  0.1804
 4334SOL    HW124635   0.296   3.300   6.165  0.4453  0.2648 -0.5737
 4334SOL    HW224636   0.266   3.420   6.240  3.7328 -2.2227  1.4042
 4335SOL     OW24637   3.503   0.397   1.753 -0.0578  0.2308  0.3246
 4335SOL    HW124638   3.445   0.459   1.709  0.4265 -0.3871 -1.1946
 4335SOL    HW224639   3.434   0.374   1.816 -1.2244  0.9146 -0.7001
 4336SOL     OW24640   3.639   1.628  16.248 -0.2289  0.2672 -0.4443
 4336SOL    HW124641   3.617   1.719  16.264 -0.0418  0.6190 -2.1712
 4336SOL    HW224642   3.676   1.604  16.333  1.1490  2.9209 -0.3084
 4337SOL     OW24643   1.707   1.050  15.487  0.4674 -0.7451 -0.1056
 4337SOL    HW124644   1.761   1.024  15.412 -1.9282  1.1621 -2.4817
 4337SOL    HW224645   1.763   1.015  15.557  0.2475 -0.7418  0.0707
 4338SOL     OW24646   2.802   4.586   4.470 -0.3347  0.2930  0.1385
 4338SOL    HW124647   2.720   4.571   4.423  0.2884 -0.4385 -0.7136
 4338SOL    HW224648   2.781   4.676   4.495  0.1988 -0.2670  2.6777
 4339SOL     OW24649   2.935   3.232   0.293  0.3321  0.1679 -0.2630
 4339SOL    HW124650   2.852   3.248   0.337  0.2342  0.3083 -0.4959
 4339SOL    HW224651   2.980   3.186   0.364  0.5584  0.2529 -0.3514
 4340SOL     OW24652   2.765   4.637   7.802  0.1229  0.5354  0.3440
 4340SOL    HW124653   2.781   4.546   7.775 -0.5363  1.3143 -2.7043
 4340SOL    HW224654   2.672   4.644   7.780 -0.3613  0.3658  2.3077
 4341SOL     OW24655   3.710   2.592  16.270  0.4864  0.2550  0.4783
 4341SOL    HW124656   3.800   2.601  16.302  1.3821  0.6959 -2.2289
 4341SOL    HW224657   3.678   2.587  16.360  0.2553 -1.4887  0.3062
 4342SOL     OW24658   0.710   4.655  12.132  0.5144 -0.3298 -0.6626
 4342SOL    HW124659   0.658   4.620  12.204  1.1083  0.5036  0.1660
 4342SOL    HW224660   0.682   0.009  12.133 -2.0924 -1.1539 -0.4883
 4343SOL     OW24661   4.086   0.802  12.169 -0.5938 -0.6057  0.0159
 4343SOL    HW124662   4.158   0.837  12.118  0.5700 -0.8007  1.5414
 4343SOL    HW224663   4.024   0.773  12.102 -0.7394  0.4962 -0.3359
 4344SOL     OW24664   1.005   0.311   8.557  0.3331 -0.4715  0.0598
 4344SOL    HW124665   1.053   0.360   8.490  0.1355  0.1446  0.3694
 4344SOL    HW224666   1.057   0.335   8.634  1.0694  1.0225 -0.8870
 4345SOL     OW24667   2.965   2.829   6.092  0.3169  0.0901 -0.2617
 4345SOL    HW124668   3.024   2.900   6.067  0.4744 -0.2457 -0.8384
 4345SOL    HW224669   3.013   2.792   6.167 -1.8654 -0.3385  0.9227
 4346SOL     OW24670   4.552   1.355   5.533  0.8189 -0.4832 -0.0087
 4346SOL    HW124671   4.472   1.354   5.587  0.2411  0.2285 -0.8439
 4346SOL    HW224672   4.512   1.388   5.452 -1.0365  0.6798  1.3816
 4347SOL     OW24673   4.100   1.465   6.000 -0.6044 -0.2798  0.7823
 4347SOL    HW124674   4.163   1.414   6.052  1.9443  3.1706  1.0852
 4347SOL    HW224675   4.017   1.418   6.004 -0.4689 -0.4994  1.0671
 4348SOL     OW24676   0.276   0.848   7.750 -0.2353 -0.9115 -0.2871
 4348SOL    HW124677   0.192   0.802   7.741  0.1372 -1.1423 -2.3967
 4348SOL    HW224678   0.328   0.768   7.746 -1.7092 -1.7887 -1.9225
 4349SOL     OW24679   2.971   2.624  10.408 -0.2002 -0.5070  0.1712
 4349SOL    HW124680   2.926   2.670  10.479  0.4144 -0.1079  0.3025
 4349SOL    HW224681   3.038   2.590  10.467 -1.5318 -0.9811  1.4404
 4350SOL     OW24682   2.423   2.889   5.792  0.2070  0.6614  0.2966
 4350SOL    HW124683   2.347   2.900   5.734 -1.8756 -0.5226  2.8278
 4350SOL    HW224684   2.400   2.953   5.859  1.3132  2.1306 -0.7233
 4351SOL     OW24685   2.634   2.460  13.750  0.2879  0.1693 -0.1417
 4351SOL    HW124686   2.597   2.485  13.834  0.2062  0.3699 -0.2360
 4351SOL    HW224687   2.551   2.423  13.721 -1.2466  2.0325  1.8476
 4352SOL     OW24688   3.832   3.573   4.292 -0.2573  0.4148 -0.4212
 4352SOL    HW124689   3.784   3.527   4.361  1.6918 -0.1814  0.5347
 4352SOL    HW224690   3.863   3.651   4.338 -0.8026 -0.0664  0.7685
 4353SOL     OW24691   0.474   0.959   3.131  0.6882  0.0933 -0.3255
 4353SOL    HW124692   0.492   1.024   3.063 -1.1287 -0.1596 -1.0546
 4353SOL    HW224693   0.410   1.009   3.182  1.1835  0.7456 -0.3396
 4354SOL     OW24694   4.420   1.614   8.380  0.0573  0.1775 -0.3455
 4354SOL    HW124695   4.476   1.557   8.433 -1.4762 -0.4969  0.5742
 4354SOL    HW224696   4.417   1.706   8.408  1.4751  0.3609 -0.8372
 4355SOL     OW24697   2.831   0.390  10.849  0.4854  0.7183 -0.3652
 4355SOL    HW124698   2.753   0.367  10.799 -1.0426  2.1977  1.3239
 4355SOL    HW224699   2.784   0.420  10.927  1.2734 -1.0795  0.7975
 4356SOL     OW24700   0.955   0.544   2.050  0.2345  0.0393  0.0564
 4356SOL    HW124701   0.881   0.595   2.083  0.4231  0.4868 -0.2028
 4356SOL    HW224702   0.964   0.479   2.120 -1.9960  1.3027  1.5107
 4357SOL     OW24703   4.122   3.520   8.058 -0.1749  0.0724 -0.6624
 4357SOL    HW124704   4.063   3.589   8.088  1.0192  1.2123 -0.9107
 4357SOL    HW224705   4.189   3.568   8.009 -1.1065  0.9220 -1.0896
 4358SOL     OW24706   2.750   2.481   7.770  0.0902 -0.7556 -0.0673
 4358SOL    HW124707   2.809   2.489   7.845  0.1404 -0.9298 -0.0885
 4358SOL    HW224708   2.664   2.488   7.812 -0.5275  0.8105 -1.5987
 4359SOL     OW24709   2.018   4.453   0.404 -0.6508  0.6447  0.2714
 4359SOL    HW124710   2.075   4.512   0.356  0.3390 -1.2446 -0.8513
 4359SOL    HW224711   2.033   4.494   0.490  0.9893  0.0082  0.2752
 4360SOL     OW24712   0.544   0.524   2.399  0.1687  0.1653  0.0537
 4360SOL    HW124713   0.523   0.548   2.309 -1.0937  1.9174  0.8077
 4360SOL    HW224714   0.500   0.590   2.453 -0.3280  0.7194 -1.0384
 4361SOL     OW24715   1.806   0.135  16.483 -0.1251  0.4940 -0.1102
 4361SOL    HW124716   1.897   0.113  16.465 -0.6877 -0.8235 -1.4054
 4361SOL    HW224717   1.818   0.205  16.547 -2.3396  1.9115 -1.2162
 4362SOL     OW24718   1.101   0.154   7.814 -0.0276 -0.0265 -0.1001
 4362SOL    HW124719   1.149   0.203   7.880 -2.0456  0.5574  0.9147
 4362SOL    HW224720   1.060   0.219   7.756 -3.4993 -1.2559  0.9898
 4363SOL     OW24721   4.578   4.534   3.592 -0.1720  0.1868 -0.4876
 4363SOL    HW124722   4.491   4.495   3.593  0.9224 -2.3976 -3.8969
 4363SOL    HW224723   4.572   4.566   3.502  0.6620 -2.6171 -1.5376
 4364SOL     OW24724   3.907   0.143   5.459 -0.1424 -0.1851 -0.2479
 4364SOL    HW124725   3.988   0.101   5.430 -0.1689  0.2460 -0.9366
 4364SOL    HW224726   3.943   0.201   5.526  0.2280  0.4363 -0.9889
 4365SOL     OW24727   4.629   2.110   3.568  1.4021  0.2688 -0.3052
 4365SOL    HW124728   4.587   2.194   3.548 -1.6965 -1.5831 -1.5093
 4365SOL    HW224729   4.708   2.112   3.514  2.2139  0.7532  0.9121
 4366SOL     OW24730   2.980   4.123   6.429 -0.6214 -0.5215  0.1109
 4366SOL    HW124731   3.045   4.178   6.385 -0.8666 -1.2049 -1.1019
 4366SOL    HW224732   2.918   4.193   6.451 -0.3630 -0.1633 -0.3015
 4367SOL     OW24733   1.708   3.730   9.128  0.0577 -0.5426  0.1646
 4367SOL    HW124734   1.773   3.659   9.131  0.4555 -0.2028 -0.3158
 4367SOL    HW224735   1.647   3.707   9.198 -0.4841 -2.0174 -0.7854
 4368SOL     OW24736   2.408   2.232   5.854 -0.4154 -0.1630  0.0648
 4368SOL    HW124737   2.469   2.305   5.857  3.9312 -3.6810 -1.5282
 4368SOL    HW224738   2.409   2.196   5.943  0.2899  0.1737  0.1920
 4369SOL     OW24739   3.200   4.007   9.389 -0.1009  0.0072  0.2021
 4369SOL    HW124740   3.231   4.025   9.478 -1.7258  2.3471  0.3022
 4369SOL    HW224741   3.184   3.913   9.392  0.5660 -0.1801 -1.8309
 4370SOL     OW24742   1.836   2.631   7.963  0.1671 -0.4877 -0.6606
 4370SOL    HW124743   1.758   2.601   8.011  1.8054  0.0499  2.3343
 4370SOL    HW224744   1.854   2.705   8.022 -0.0714 -2.3418  1.7421
 4371SOL     OW24745   1.630   2.756  13.754  0.1371 -0.1164 -0.4182
 4371SOL    HW124746   1.572   2.825  13.785  1.0593  0.5691 -0.2184
 4371SOL    HW224747   1.713   2.800  13.773 -0.3639 -0.2259  2.1220
 4372SOL     OW24748   3.108   2.831   7.269 -0.4139 -0.0892  0.1591
 4372SOL    HW124749   3.081   2.865   7.354 -0.9730  1.2845 -0.5774
 4372SOL    HW224750   3.190   2.786   7.289 -1.0256 -0.9515  0.7043
 4373SOL     OW24751   1.622   1.498   8.141 -0.0065 -0.1407  0.4793
 4373SOL    HW124752   1.676   1.498   8.220  1.2895 -1.8421 -0.4093
 4373SOL    HW224753   1.589   1.587   8.128  1.0939 -0.2155 -2.6476
 4374SOL     OW24754   0.304   4.183   0.892  0.0404  0.7497 -0.5961
 4374SOL    HW124755   0.308   4.112   0.828 -0.4014 -0.3752  0.6368
 4374SOL    HW224756   0.398   4.189   0.908  0.2249 -0.9641 -1.0271
 4375SOL     OW24757   2.196   2.351   2.677  0.5913 -0.5684  0.0250
 4375SOL    HW124758   2.104   2.379   2.685  1.5760  2.6681 -0.0463
 4375SOL    HW224759   2.186   2.256   2.680  0.9602 -0.5897  0.6412
 4376SOL     OW24760   4.217   0.136   7.414 -0.0629 -0.3683  0.2626
 4376SOL    HW124761   4.190   0.081   7.340 -2.1739  0.3808  0.4838
 4376SOL    HW224762   4.296   0.174   7.374 -0.3662 -0.8265 -0.7794
 4377SOL     OW24763   3.916   0.484   5.819  0.4044  0.0875  0.6100
 4377SOL    HW124764   3.830   0.526   5.819  0.1993 -0.3413 -1.2863
 4377SOL    HW224765   3.960   0.538   5.886  0.2820  1.0091 -0.0501
 4378SOL     OW24766   3.926   3.515   1.572  0.3934  0.3044 -0.2957
 4378SOL    HW124767   3.881   3.532   1.655  1.0461  0.0397  0.1094
 4378SOL    HW224768   3.948   3.602   1.539  1.2129 -0.9121 -2.9951
 4379SOL     OW24769   0.444   3.367   5.899 -0.3782 -0.4905 -0.6341
 4379SOL    HW124770   0.447   3.335   5.809  2.3987 -2.7725  0.2326
 4379SOL    HW224771   0.365   3.421   5.905 -0.6852 -1.0264  0.3005
 4380SOL     OW24772   1.593   1.452   8.810  0.0269  0.4478 -0.3369
 4380SOL    HW124773   1.597   1.361   8.840 -0.1048  0.1054 -1.3510
 4380SOL    HW224774   1.561   1.487   8.893 -0.6392  1.7621 -1.1463
 4381SOL     OW24775   0.223   0.787  12.448  0.2158 -0.0825  0.3704
 4381SOL    HW124776   0.272   0.744  12.378  0.5370  2.0638 -0.7314
 4381SOL    HW224777   0.175   0.707  12.468 -1.6810  1.4865  2.0631
 4382SOL     OW24778   3.500   2.681   4.214 -0.2201  0.6004  0.3560
 4382SOL    HW124779   3.510   2.725   4.129 -0.2883  1.4984  0.8191
 4382SOL    HW224780   3.497   2.758   4.271  0.6350  0.2813  0.8295
 4383SOL     OW24781   3.232   4.360  10.545 -0.1514 -0.0665  0.4300
 4383SOL    HW124782   3.148   4.327  10.579 -0.2618  1.6489  1.8124
 4383SOL    HW224783   3.266   4.356  10.634 -0.3179  0.2657  0.5100
 4384SOL     OW24784   1.980   1.455   8.485 -0.3746  0.1932 -0.2680
 4384SOL    HW124785   2.070   1.477   8.509 -0.1916  0.2584 -0.9944
 4384SOL    HW224786   1.958   1.393   8.554 -1.7028 -0.9571 -1.7243
 4385SOL     OW24787   2.303   3.783   9.748  0.3247 -0.4320  0.7384
 4385SOL    HW124788   2.322   3.825   9.832  1.1430  0.9361 -0.1192
 4385SOL    HW224789   2.217   3.743   9.758  0.2795 -0.6682 -0.5863
 4386SOL     OW24790   3.728   4.570   1.613 -0.4580 -0.0123 -0.4144
 4386SOL    HW124791   3.773   4.655   1.612  0.3851 -0.4946 -3.8038
 4386SOL    HW224792   3.803   4.532   1.659 -2.1363 -1.6200  0.9646
 4387SOL     OW24793   2.070   2.436  15.548  0.1401  0.3531 -0.6325
 4387SOL    HW124794   2.052   2.510  15.489  1.0496 -0.1537 -1.5327
 4387SOL    HW224795   2.033   2.476  15.627 -1.0223  0.9519 -1.4757
 4388SOL     OW24796   0.153   3.301   4.937  0.4132  0.0658  0.5320
 4388SOL    HW124797   0.223   3.251   4.895 -1.8699 -1.7156 -1.1414
 4388SOL    HW224798   0.199   3.333   5.015 -0.1473 -1.0294  1.3015
 4389SOL     OW24799   1.594   0.452   4.081  0.5350 -0.1503  0.1220
 4389SOL    HW124800   1.685   0.422   4.073 -0.3236 -2.3915 -1.5038
 4389SOL    HW224801   1.604   0.468   4.175  2.1839 -1.0362  0.0961
 4390SOL     OW24802   2.905   0.205   3.297  0.4124 -0.2717 -0.3298
 4390SOL    HW124803   2.903   0.133   3.234 -3.0362  0.2318 -0.8062
 4390SOL    HW224804   2.820   0.188   3.338 -0.3424  1.4260 -1.1893
 4391SOL     OW24805   3.205   1.318   1.779  0.0989  0.5898 -0.7032
 4391SOL    HW124806   3.118   1.292   1.750 -0.2701 -0.2741  1.1576
 4391SOL    HW224807   3.233   1.232   1.811 -0.4451  0.6956  0.0731
 4392SOL     OW24808   1.820   3.289   2.286 -0.0283 -0.2398  0.6817
 4392SOL    HW124809   1.806   3.217   2.348  1.7824 -0.8947  0.3216
 4392SOL    HW224810   1.915   3.288   2.275 -0.0894 -0.8709  0.2314
 4393SOL     OW24811   1.861   3.267   1.944 -0.2920 -0.6698  0.2952
 4393SOL    HW124812   1.893   3.198   2.002  3.0208  0.4409 -0.2014
 4393SOL    HW224813   1.928   3.273   1.875  1.2055  2.9548  2.1161
 4394SOL     OW24814   0.892   3.212  10.651  0.4633  0.2755 -0.2885
 4394SOL    HW124815   0.965   3.245  10.704  1.7983  1.6420 -2.9509
 4394SOL    HW224816   0.937   3.131  10.627 -1.5854 -0.7632 -0.6054
 4395SOL     OW24817   1.909   4.369   0.091 -0.1626  0.4179 -0.1005
 4395SOL    HW124818   1.978   4.420   0.049  0.4733 -1.0574 -0.8844
 4395SOL    HW224819   1.832   4.422   0.073 -0.6470  0.1158  1.0804
 4396SOL     OW24820   1.917   1.568   8.044 -0.1706  1.0044  0.0015
 4396SOL    HW124821   1.971   1.629   7.993  1.4672 -1.3690 -1.0829
 4396SOL    HW224822   1.883   1.504   7.982  1.4535  1.5890 -1.5017
 4397SOL     OW24823   3.443   1.202  14.354 -0.1072 -0.2722 -0.0229
 4397SOL    HW124824   3.413   1.166  14.270  1.2060 -1.5256  0.0443
 4397SOL    HW224825   3.538   1.189  14.345  0.0696 -0.3984  2.0964
 4398SOL     OW24826   2.948   2.929  16.182 -0.0128  0.3804  0.1781
 4398SOL    HW124827   2.935   2.854  16.123 -0.0627 -0.5967  1.4477
 4398SOL    HW224828   3.019   2.897  16.237  1.1675  0.4025 -1.3103
 4399SOL     OW24829   0.172   2.752   2.348  0.3916 -0.4268 -0.0946
 4399SOL    HW124830   0.184   2.742   2.443 -0.4849  1.3125  0.1948
 4399SOL    HW224831   0.203   2.668   2.314 -2.7112 -0.9106 -1.7458
 4400SOL     OW24832   0.285   4.734   5.477  0.0063  0.1092  0.3569
 4400SOL    HW124833   0.207   4.727   5.533 -0.5638  0.5437 -0.3906
 4400SOL    HW224834   0.270   4.661   5.417  0.6336 -1.2619  1.8518
 4401SOL     OW24835   3.137   2.408   5.927  0.3720  0.5391  0.3480
 4401SOL    HW124836   3.105   2.417   6.017 -0.4875  0.6771  0.0306
 4401SOL    HW224837   3.178   2.495   5.920  3.5389 -0.9689  0.2433
 4402SOL     OW24838   0.207   3.160   1.296 -0.1513  0.4961 -0.3151
 4402SOL    HW124839   0.225   3.108   1.375 -1.0899  0.8953  0.1696
 4402SOL    HW224840   0.177   3.092   1.236  0.8067 -0.3604  0.1703
 4403SOL     OW24841   1.397   1.198   6.499  0.3041  0.3711 -0.1910
 4403SOL    HW124842   1.336   1.180   6.427  0.0199  0.6212 -0.0137
 4403SOL    HW224843   1.386   1.293   6.498  0.3733  0.3795 -0.1421
 4404SOL     OW24844   3.650   4.178   7.352  0.4935  0.5388  0.3244
 4404SOL    HW124845   3.593   4.134   7.415 -1.0168  0.7501 -0.8610
 4404SOL    HW224846   3.696   4.103   7.316 -0.0062 -0.2130  1.2783
 4405SOL     OW24847   1.828   4.107   6.405  0.0497  0.3109 -0.0931
 4405SOL    HW124848   1.903   4.049   6.418  1.3976  1.1863 -3.9638
 4405SOL    HW224849   1.788   4.111   6.492  0.0872 -1.2979 -0.0098
 4406SOL     OW24850   1.569   3.674   3.320  0.3449  0.4052 -0.2773
 4406SOL    HW124851   1.499   3.700   3.260 -0.0010 -0.7908 -0.4056
 4406SOL    HW224852   1.550   3.724   3.400 -0.1301 -0.3092  0.0651
 4407SOL     OW24853   2.440   0.980  14.640 -0.1642 -0.3308  0.1422
 4407SOL    HW124854   2.519   1.035  14.641 -0.3192 -0.1085  0.2800
 4407SOL    HW224855   2.403   0.982  14.552  3.7330  1.5141 -1.4671
 4408SOL     OW24856   4.642   2.724   8.265 -0.5085 -0.1029 -0.0505
 4408SOL    HW124857   4.733   2.713   8.238 -0.5733 -0.5441 -0.0902
 4408SOL    HW224858   4.595   2.673   8.200 -1.1670  0.3998  0.0291
 4409SOL     OW24859   4.619   2.749  14.051 -0.6079  0.0086  0.8084
 4409SOL    HW124860   4.582   2.816  14.108 -0.9299 -0.6351  1.3522
 4409SOL    HW224861   4.631   2.784  13.962  0.2815 -2.7553 -0.1609
 4410SOL     OW24862   4.721   4.653  12.687 -0.1172 -0.7603  0.6652
 4410SOL    HW124863   4.681   4.702  12.616 -0.4204 -1.5609  0.2855
 4410SOL    HW224864   0.036   4.586  12.641  0.9028  1.0447 -0.8082
 4411SOL     OW24865   2.161   4.346   4.820 -0.5149 -0.1700  0.1946
 4411SOL    HW124866   2.205   4.261   4.821  3.1766  1.7550 -0.0529
 4411SOL    HW224867   2.216   4.400   4.876 -1.2523 -0.0868  0.8384
 4412SOL     OW24868   2.758   3.090   6.740  0.4971  0.0041 -0.0919
 4412SOL    HW124869   2.779   3.070   6.648  0.3748  0.1758 -0.1556
 4412SOL    HW224870   2.689   3.156   6.738  1.7800  1.4152  2.2973
 4413SOL     OW24871   2.877   0.631   7.057 -0.4646  0.4674 -0.7524
 4413SOL    HW124872   2.813   0.602   6.992  1.6349 -0.4947 -2.3609
 4413SOL    HW224873   2.902   0.714   7.017  0.2942  0.6480  0.0878
 4414SOL     OW24874   1.291   2.878   7.108  0.3967 -0.7339 -0.3449
 4414SOL    HW124875   1.342   2.959   7.111 -0.3438 -0.2340 -1.1854
 4414SOL    HW224876   1.358   2.812   7.088  0.4762 -0.7109 -0.1535
 4415SOL     OW24877   0.504   4.411   9.318 -0.1498  0.3904 -0.0867
 4415SOL    HW124878   0.525   4.472   9.247  2.0151 -0.2019  0.0374
 4415SOL    HW224879   0.562   4.337   9.302 -0.5405  0.1525 -0.4047
 4416SOL     OW24880   3.266   4.450   2.675  0.2669 -0.1545  0.2404
 4416SOL    HW124881   3.313   4.525   2.639  0.4468 -1.2592 -1.8482
 4416SOL    HW224882   3.280   4.382   2.609 -1.8165 -0.2246 -0.1564
 4417SOL     OW24883   0.205   3.062  11.787  0.0288  0.1355 -0.3034
 4417SOL    HW124884   0.149   3.058  11.865 -0.3431  3.6596 -0.4161
 4417SOL    HW224885   0.270   3.010  11.834  0.7390  0.3354 -1.0787
 4418SOL     OW24886   4.404   3.449   0.324  0.3772 -0.2763  0.0458
 4418SOL    HW124887   4.353   3.371   0.301  0.9300 -0.1235 -1.7187
 4418SOL    HW224888   4.458   3.413   0.395 -0.4716  0.4231  1.0399
 4419SOL     OW24889   2.312   1.270   4.820  0.4567  0.1771  0.3376
 4419SOL    HW124890   2.298   1.178   4.840 -0.5894 -0.0592 -1.4716
 4419SOL    HW224891   2.240   1.275   4.757 -0.0015 -0.9766  0.7715
 4420SOL     OW24892   1.712   1.425   8.420 -0.1226 -0.0121 -0.4909
 4420SOL    HW124893   1.701   1.334   8.446 -1.4140 -0.0603 -1.2260
 4420SOL    HW224894   1.803   1.445   8.445 -0.0213 -0.8526 -0.1816
 4421SOL     OW24895   3.844   3.610  15.770 -0.1130 -0.1261 -0.6354
 4421SOL    HW124896   3.897   3.605  15.691 -0.3796 -1.5509 -0.7135
 4421SOL    HW224897   3.897   3.553  15.826 -1.4263  1.1329  1.8813
 4422SOL     OW24898   0.897   4.710   8.231  0.2883 -0.6832 -0.2826
 4422SOL    HW124899   0.900   4.702   8.326  1.2651  0.3789 -0.2113
 4422SOL    HW224900   0.819   4.661   8.206 -0.1642  0.3304 -0.8568
 4423SOL     OW24901   3.723   3.393   8.227  0.6314 -0.1305  0.1008
 4423SOL    HW124902   3.814   3.368   8.241  0.9169 -0.0639 -1.6953
 4423SOL    HW224903   3.675   3.355   8.301  0.6314 -2.6877 -1.2434
 4424SOL     OW24904   0.695   1.198   0.017  0.6699 -0.5080 -0.5312
 4424SOL    HW124905   0.782   1.165  17.740  0.3873 -2.7721  1.7146
 4424SOL    HW224906   0.660   1.233  17.680  0.4393 -0.2117 -0.3097
 4425SOL     OW24907   2.123   2.516   3.512  0.0397 -0.4106  0.6811
 4425SOL    HW124908   2.032   2.545   3.506 -0.1369 -0.5909  2.4731
 4425SOL    HW224909   2.149   2.497   3.422  0.1285 -1.0168  0.8321
 4426SOL     OW24910   0.071   4.664   5.640 -0.0916  0.7549 -0.3117
 4426SOL    HW124911   0.013   0.002   5.626 -2.1574 -1.0016 -1.0966
 4426SOL    HW224912   0.055   4.632   5.729 -0.3352  0.2753 -0.5326
 4427SOL     OW24913   4.453   3.849   9.690 -0.9010 -0.2385 -0.2911
 4427SOL    HW124914   4.497   3.933   9.701  1.8735 -1.9226  1.5031
 4427SOL    HW224915   4.395   3.858   9.765 -2.6577  2.4978 -1.9630
 4428SOL     OW24916   1.774   0.225  17.724  0.1942 -0.1921 -0.4905
 4428SOL    HW124917   1.724   0.269  17.656  0.7097  1.4753  0.1982
 4428SOL    HW224918   1.858   0.268  17.703 -1.7244  3.0558 -1.5489
 4429SOL     OW24919   1.658   1.579   9.160  0.5739  0.0622  0.3545
 4429SOL    HW124920   1.584   1.569   9.221  0.9019 -0.6831  0.6292
 4429SOL    HW224921   1.635   1.643   9.093  1.7280 -1.2635 -1.3036
 4430SOL     OW24922   3.263   0.836   5.428  0.3031  0.0369 -0.1248
 4430SOL    HW124923   3.290   0.928   5.427  0.8804 -0.1022  2.9569
 4430SOL    HW224924   3.343   0.790   5.455  0.8571  0.2957 -1.3338
 4431SOL     OW24925   4.051   1.230   2.633  0.1164  0.2397 -0.8620
 4431SOL    HW124926   4.009   1.311   2.661 -0.1944  0.0499 -0.7639
 4431SOL    HW224927   4.110   1.199   2.702 -0.9664 -2.9431 -1.3463
 4432SOL     OW24928   3.735   0.481   8.543  0.3117  0.1437  0.2390
 4432SOL    HW124929   3.718   0.545   8.474 -2.7951  0.6524  1.4833
 4432SOL    HW224930   3.787   0.531   8.606  1.5575 -0.0082 -0.6632
 4433SOL     OW24931   4.417   2.978  11.572 -0.5632 -0.5210  0.5073
 4433SOL    HW124932   4.416   2.885  11.592  0.0927 -0.3993  1.1018
 4433SOL    HW224933   4.329   2.994  11.607 -0.7097 -3.3506  1.4067
 4434SOL     OW24934   4.341   2.613   3.666  0.2053  0.1510 -0.4198
 4434SOL    HW124935   4.344   2.567   3.750 -1.0062 -0.2814 -0.6271
 4434SOL    HW224936   4.363   2.704   3.689  0.7730 -0.2455  0.5968
 4435SOL     OW24937   2.459   1.469   4.394  0.2823 -0.2672  0.1881
 4435SOL    HW124938   2.442   1.440   4.305 -1.9901  0.1773  0.4623
 4435SOL    HW224939   2.370   1.501   4.412  0.1483  0.9656 -2.6542
 4436SOL     OW24940   2.912   0.636   5.938  0.5156  0.7896  0.0449
 4436SOL    HW124941   2.866   0.645   5.855 -0.6210  2.1401  0.8287
 4436SOL    HW224942   2.928   0.728   5.956 -0.6068  1.1919 -1.0257
 4437SOL     OW24943   2.344   0.718   9.225  0.2869 -0.4430  0.0510
 4437SOL    HW124944   2.326   0.809   9.248  1.1679 -0.0212 -0.9250
 4437SOL    HW224945   2.326   0.687   9.314 -1.9584  0.0425 -0.2369
 4438SOL     OW24946   4.446   0.694   4.821 -0.3887 -0.3126  0.1222
 4438SOL    HW124947   4.373   0.646   4.781  0.2124 -0.1855 -1.1282
 4438SOL    HW224948   4.403   0.768   4.864 -1.0033  1.2115 -3.1858
 4439SOL     OW24949   4.438   0.529   2.404  0.4825 -0.0567  0.5484
 4439SOL    HW124950   4.361   0.585   2.405  0.0705 -0.6344  2.5049
 4439SOL    HW224951   4.423   0.462   2.471 -0.0916 -1.7942 -1.3207
 4440SOL     OW24952   0.660   1.031   8.932  0.0597 -0.2255  0.0818
 4440SOL    HW124953   0.752   1.051   8.919  0.1355  0.6385  1.9209
 4440SOL    HW224954   0.664   0.935   8.927  1.5273 -0.2114  0.9087
 4441SOL     OW24955   1.371   0.577   8.900 -0.2091  0.3336 -0.1712
 4441SOL    HW124956   1.449   0.603   8.850 -0.8408  1.7371 -0.4225
 4441SOL    HW224957   1.365   0.653   8.958 -0.4478  0.7853 -0.7852
 4442SOL     OW24958   4.229   0.706   5.154 -0.9137 -0.1188 -0.4424
 4442SOL    HW124959   4.325   0.703   5.151 -0.8321  2.4055 -0.5414
 4442SOL    HW224960   4.215   0.800   5.164 -0.5140 -0.1727  0.6349
 4443SOL     OW24961   0.201   4.722   9.167 -0.4321  0.2063 -0.2446
 4443SOL    HW124962   0.296   4.736   9.168 -0.6180  1.5090 -1.0480
 4443SOL    HW224963   0.194   4.674   9.085 -1.4734  2.1566 -1.2829
 4444SOL     OW24964   1.915   4.313   1.782 -0.5266  0.1900 -0.3575
 4444SOL    HW124965   1.965   4.342   1.705 -0.3718  0.5211 -0.1338
 4444SOL    HW224966   1.859   4.391   1.788 -0.1506  0.4562 -0.2929
 4445SOL     OW24967   2.738   4.243   4.738 -0.9213 -0.0161  0.1107
 4445SOL    HW124968   2.801   4.256   4.810 -0.8403  1.5918 -0.2381
 4445SOL    HW224969   2.752   4.152   4.716  3.9803  0.9395 -0.6595
 4446SOL     OW24970   1.865   0.553  16.413  0.1660 -0.7466  0.7071
 4446SOL    HW124971   1.850   0.647  16.400  0.7448 -1.1767 -2.7782
 4446SOL    HW224972   1.920   0.531  16.338 -1.0491  2.7332 -1.2042
 4447SOL     OW24973   1.978   2.080   6.244 -0.5482 -0.3526  0.2398
 4447SOL    HW124974   1.995   1.989   6.271 -1.8554 -0.6708 -0.0353
 4447SOL    HW224975   1.977   2.069   6.149 -0.1908  1.4969  0.0271
 4448SOL     OW24976   0.305   2.507   7.333 -0.3889 -0.0087 -0.0804
 4448SOL    HW124977   0.369   2.439   7.315  1.3983  1.2089  1.6591
 4448SOL    HW224978   0.294   2.547   7.247 -1.3358  0.8744  0.4426
 4449SOL     OW24979   4.203   1.209   9.125  0.3958 -0.3689 -0.1023
 4449SOL    HW124980   4.185   1.278   9.061  1.2445 -1.2010 -1.2385
 4449SOL    HW224981   4.134   1.235   9.187  0.5391 -0.5017  0.1126
 4450SOL     OW24982   3.982   2.751   7.175 -0.1913 -0.0921 -0.1808
 4450SOL    HW124983   3.981   2.764   7.270  0.8454 -0.3515 -0.1288
 4450SOL    HW224984   4.054   2.809   7.149 -1.0522  1.2023  0.3262
 4451SOL     OW24985   4.327   2.070   5.930  0.1842 -0.5715 -0.2335
 4451SOL    HW124986   4.384   2.010   5.882 -0.6878  1.5642 -3.9710
 4451SOL    HW224987   4.382   2.071   6.008  0.2716 -1.0076 -0.2888
 4452SOL     OW24988   0.870   0.635   3.605 -0.2672 -0.2412 -0.1330
 4452SOL    HW124989   0.791   0.644   3.553 -0.6090  0.4892  0.5101
 4452SOL    HW224990   0.913   0.709   3.562  1.4527  0.1722  2.3095
 4453SOL     OW24991   1.365   1.815  13.778 -0.1597 -0.5765 -0.7996
 4453SOL    HW124992   1.456   1.844  13.764 -0.7171  1.2098 -0.7048
 4453SOL    HW224993   1.334   1.902  13.803  2.2403  0.8006 -2.5018
 4454SOL     OW24994   3.994   1.885  12.224  0.4256  0.9130 -0.0966
 4454SOL    HW124995   3.950   1.863  12.306  0.4117  0.1036 -0.3240
 4454SOL    HW224996   4.071   1.829  12.232 -0.3596 -0.3079 -1.0055
 4455SOL     OW24997   2.479   1.161   4.034  0.0639 -0.0780  0.1336
 4455SOL    HW124998   2.467   1.069   4.060  3.6931 -0.7105 -0.4708
 4455SOL    HW224999   2.463   1.149   3.941  0.7011  0.9269 -0.0980
 4456SOL     OW25000   1.298   3.270  14.021 -0.0201 -0.4374  0.3611
 4456SOL    HW125001   1.251   3.353  14.014  0.5001 -0.2127 -0.5336
 4456SOL    HW225002   1.339   3.273  14.108 -0.9484 -2.5350  0.8627
 4457SOL     OW25003   1.745   4.382  11.971  0.5551 -0.1349  0.0412
 4457SOL    HW125004   1.685   4.392  12.045 -0.3662 -0.2002 -0.6940
 4457SOL    HW225005   1.677   4.379  11.904  1.1191  1.8960 -0.6462
 4458SOL     OW25006   1.236   4.502   6.050 -0.1051 -0.1141  0.2617
 4458SOL    HW125007   1.222   4.524   5.958 -1.2864 -0.4586  0.3579
 4458SOL    HW225008   1.318   4.547   6.070 -0.3598  1.1934 -1.6105
 4459SOL     OW25009   2.677   2.704   7.120  0.1360 -0.0269  0.4176
 4459SOL    HW125010   2.771   2.691   7.133  0.3546 -0.1698 -1.3585
 4459SOL    HW225011   2.662   2.797   7.139  0.8773 -0.3064  2.4468
 4460SOL     OW25012   2.989   2.639   5.477  0.5953 -0.6755 -0.4531
 4460SOL    HW125013   3.062   2.694   5.451  0.7588 -0.5268  0.3091
 4460SOL    HW225014   2.990   2.661   5.570  0.6705 -0.4041 -0.5197
 4461SOL     OW25015   3.875   0.109  12.190 -0.2131  0.2976 -0.1339
 4461SOL    HW125016   3.844   0.036  12.244 -0.5670  0.4178 -0.1782
 4461SOL    HW225017   3.860   0.191  12.237  0.4644  0.4423 -0.1737
 4462SOL     OW25018   2.083   0.991   9.161 -0.5493  0.2761 -0.3591
 4462SOL    HW125019   2.166   0.992   9.208 -0.8214 -1.3730  0.1439
 4462SOL    HW225020   2.021   1.000   9.234  1.3626  1.1991  1.1460
 4463SOL     OW25021   3.367   3.949   3.741  0.1573 -0.1121  0.1778
 4463SOL    HW125022   3.422   3.955   3.663 -0.4472  0.8328 -0.1706
 4463SOL    HW225023   3.281   3.940   3.701 -0.4491  1.6004  1.0645
 4464SOL     OW25024   2.372   0.706   3.484  0.0675 -0.1003 -0.2283
 4464SOL    HW125025   2.457   0.746   3.464 -1.2792  4.1072  2.5687
 4464SOL    HW225026   2.364   0.671   3.395  2.6670 -3.6620  0.9328
 4465SOL     OW25027   4.371   1.364   7.367  0.1568  0.5300 -0.0960
 4465SOL    HW125028   4.372   1.459   7.366 -0.8021  0.5359 -0.6289
 4465SOL    HW225029   4.278   1.341   7.357  0.9817 -2.9701  0.2329
 4466SOL     OW25030   3.190   2.197  11.669  0.5225 -0.4325  0.2412
 4466SOL    HW125031   3.220   2.253  11.741 -0.2068  1.4124 -0.9123
 4466SOL    HW225032   3.114   2.152  11.707 -1.0042 -0.1390 -2.4789
 4467SOL     OW25033   0.073   4.236  12.499 -0.3238 -0.1492  0.1587
 4467SOL    HW125034   4.725   4.195  12.517 -0.9793 -0.1654 -2.9575
 4467SOL    HW225035   0.110   4.217  12.585  0.5909  1.1507  0.0525
 4468SOL     OW25036   2.925   1.266   1.669 -0.3653 -0.5448  0.1863
 4468SOL    HW125037   2.920   1.347   1.618  0.5028 -0.1455  0.7321
 4468SOL    HW225038   2.879   1.204   1.612 -2.0518 -1.4163  2.5191
 4469SOL     OW25039   2.453   4.025   5.059 -0.4248  0.1439  0.5641
 4469SOL    HW125040   2.386   3.987   5.002  1.1852 -1.4031 -0.2836
 4469SOL    HW225041   2.512   3.949   5.065  1.7333  1.8126  0.3017
 4470SOL     OW25042   1.911   4.417  13.795  0.2359  0.0693  0.2805
 4470SOL    HW125043   1.877   4.494  13.841  2.0327 -0.0718  1.8563
 4470SOL    HW225044   1.855   4.416  13.718  1.0003 -0.0494 -0.2686
 4471SOL     OW25045   2.363   3.649   8.336  0.0407 -0.6170 -0.0912
 4471SOL    HW125046   2.338   3.666   8.427 -0.4603 -1.5049 -0.0621
 4471SOL    HW225047   2.310   3.576   8.305  0.7506 -1.5424  0.9103
 4472SOL     OW25048   0.095   2.032  10.653 -0.7831  0.1685  0.4504
 4472SOL    HW125049   0.138   1.980  10.721  2.3705  1.3693 -0.5878
 4472SOL    HW225050   0.078   2.118  10.691 -0.4446  0.8644 -0.9675
 4473SOL     OW25051   1.146   3.295  10.726 -0.6640  0.7281  0.2694
 4473SOL    HW125052   1.198   3.338  10.794 -2.4599  1.5244  1.1179
 4473SOL    HW225053   1.198   3.215  10.723 -0.6611  0.6952  1.6369
 4474SOL     OW25054   2.987   0.708  12.386  0.1553  0.9780  0.8935
 4474SOL    HW125055   3.059   0.645  12.391 -0.1785  0.4342 -1.2208
 4474SOL    HW225056   3.025   0.777  12.332 -0.4616 -0.3472 -1.2425
 4475SOL     OW25057   1.842   3.363  10.637  0.5383  0.4517  0.4975
 4475SOL    HW125058   1.774   3.296  10.627  0.8563 -0.0324  1.4892
 4475SOL    HW225059   1.869   3.350  10.728  1.2992  1.8462  0.4682
 4476SOL     OW25060   3.977   1.910   2.407  0.3926 -0.2462 -0.2753
 4476SOL    HW125061   4.032   1.965   2.463 -0.7322  1.6897 -1.0796
 4476SOL    HW225062   4.027   1.887   2.328  2.3660  0.3619  0.7871
 4477SOL     OW25063   1.792   0.160   2.332  0.2581 -0.0815  0.1763
 4477SOL    HW125064   1.728   0.098   2.368  1.6063 -1.1771  0.6867
 4477SOL    HW225065   1.873   0.109   2.337 -0.3323 -0.9458  1.2546
 4478SOL     OW25066   2.283   0.278   6.483 -0.6542  0.1314  0.4540
 4478SOL    HW125067   2.304   0.244   6.396  2.2433 -0.3961  1.3555
 4478SOL    HW225068   2.189   0.262   6.491 -0.6378  0.2658  0.9131
 4479SOL     OW25069   2.239   3.334   7.260 -0.3069  0.1441 -0.1863
 4479SOL    HW125070   2.165   3.283   7.226 -0.9192  0.7285  0.2758
 4479SOL    HW225071   2.256   3.298   7.348 -2.2476  1.1810  0.6278
 4480SOL     OW25072   3.451   4.014   8.131  0.0089 -0.1357 -0.0752
 4480SOL    HW125073   3.382   4.054   8.078 -1.5969 -0.3495  1.8568
 4480SOL    HW225074   3.402   3.970   8.201 -0.1172  1.8274  1.0585
 4481SOL     OW25075   1.028   2.924   5.470  0.0666 -0.3249  0.3010
 4481SOL    HW125076   1.089   2.886   5.534  1.5405  1.9943  0.2730
 4481SOL    HW225077   1.079   2.902   5.392 -0.4484  1.0192 -0.4046
 4482SOL     OW25078   0.253   4.076   4.591  0.4017  0.2908  0.4651
 4482SOL    HW125079   0.300   4.158   4.576 -2.5414  1.4038 -2.7916
 4482SOL    HW225080   0.318   4.025   4.640 -1.5754 -2.2022  0.4748
 4483SOL     OW25081   3.017   3.709   9.441  0.0334  0.2743  0.5994
 4483SOL    HW125082   3.099   3.710   9.491  0.4502 -2.2620 -0.0459
 4483SOL    HW225083   2.997   3.803   9.438  0.6726  0.3428 -1.6222
 4484SOL     OW25084   0.111   3.106  16.719  0.4116 -0.1766  0.3418
 4484SOL    HW125085   0.156   3.187  16.743  1.1930 -0.7309  0.7506
 4484SOL    HW225086   0.028   3.102  16.767 -0.3361  1.3986 -0.7968
 4485SOL     OW25087   3.161   4.714   2.199 -0.6215 -0.0805  0.2052
 4485SOL    HW125088   3.109   0.058   2.193  0.5761  0.6492 -0.3283
 4485SOL    HW225089   3.189   4.728   2.290  0.1340  0.0760 -0.0492
 4486SOL     OW25090   3.614   1.352  13.914  0.1397  0.1018  0.3830
 4486SOL    HW125091   3.619   1.353  13.819  1.2712  0.8558  0.4476
 4486SOL    HW225092   3.522   1.378  13.928  0.4786  3.1540 -2.9287
 4487SOL     OW25093   1.368   0.545  10.059 -0.3124  0.0323  0.5599
 4487SOL    HW125094   1.393   0.543   9.967  0.9333  1.2701  0.8670
 4487SOL    HW225095   1.446   0.503  10.094  0.3558  0.1515 -0.8076
 4488SOL     OW25096   3.524   0.981  14.616 -0.1581  0.1746  0.0197
 4488SOL    HW125097   3.567   1.058  14.580 -1.8342  1.0946 -0.0218
 4488SOL    HW225098   3.570   0.970  14.698 -1.5218  0.0562  0.7738
 4489SOL     OW25099   3.222   3.660   3.803 -0.1413  0.3102  0.3045
 4489SOL    HW125100   3.166   3.593   3.840 -2.7314  2.4256  0.2015
 4489SOL    HW225101   3.179   3.731   3.851 -1.0334  1.4281 -2.1527
 4490SOL     OW25102   0.880   1.804   7.776  0.5688  0.1112 -0.6413
 4490SOL    HW125103   0.939   1.734   7.748  0.4642 -1.2158  2.4589
 4490SOL    HW225104   0.803   1.752   7.800  0.5880 -0.3720 -1.5946
 4491SOL     OW25105   1.579   4.218   2.351  0.5035  0.2569  0.0821
 4491SOL    HW125106   1.669   4.231   2.322  1.0549  2.2751  2.7023
 4491SOL    HW225107   1.527   4.228   2.272 -0.0135 -1.0085  0.2654
 4492SOL     OW25108   3.076   4.560   4.492  0.0551 -0.0715 -0.0801
 4492SOL    HW125109   2.998   4.550   4.437  0.9488 -0.0637 -1.3490
 4492SOL    HW225110   3.046   4.607   4.570 -1.0762 -0.4589 -0.2877
 4493SOL     OW25111   4.103   0.646  12.811  0.3573  0.5523  0.4104
 4493SOL    HW125112   4.125   0.646  12.718 -1.6769  1.2531 -0.0623
 4493SOL    HW225113   4.156   0.574  12.847  1.2948  1.2597  0.4630
 4494SOL     OW25114   1.245   0.819   4.283  0.5304  0.2637 -0.5824
 4494SOL    HW125115   1.195   0.898   4.263  0.7520  0.3956 -0.6161
 4494SOL    HW225116   1.184   0.753   4.315  1.7358 -0.7578 -0.3742
 4495SOL     OW25117   1.440   1.115  15.440  0.1812  0.3781  0.1605
 4495SOL    HW125118   1.481   1.045  15.390  0.5442  0.7071 -0.0086
 4495SOL    HW225119   1.519   1.140  15.487 -1.6328  1.3359  2.6856
 4496SOL     OW25120   2.936   3.570  12.143  0.3600 -0.0525 -0.1475
 4496SOL    HW125121   2.849   3.597  12.112  0.5950 -0.7447 -1.3993
 4496SOL    HW225122   2.906   3.527  12.223  0.4713 -2.8762 -1.6226
 4497SOL     OW25123   3.569   0.615   6.595 -0.0843 -0.0472 -0.2850
 4497SOL    HW125124   3.559   0.710   6.586 -0.6175 -0.3362 -2.6860
 4497SOL    HW225125   3.637   0.616   6.662 -0.1558 -1.0690 -0.2063
 4498SOL     OW25126   1.864   3.390   1.053 -0.1644  0.1164 -0.1068
 4498SOL    HW125127   1.805   3.454   1.093 -0.7710  1.4823 -3.2541
 4498SOL    HW225128   1.804   3.329   1.009  2.5866 -2.5084 -0.2048
 4499SOL     OW25129   3.085   3.720   8.800 -0.6332  0.1482  0.5902
 4499SOL    HW125130   3.114   3.732   8.890  1.1848 -1.0603  0.1632
 4499SOL    HW225131   3.028   3.796   8.790  0.7696  1.0389 -0.6738
 4500SOL     OW25132   1.910   4.231   8.729 -0.8294 -0.1449 -0.0924
 4500SOL    HW125133   1.907   4.212   8.822 -1.9543  3.0161  0.5232
 4500SOL    HW225134   1.991   4.281   8.721 -0.7019 -0.6338 -2.1009
 4501SOL     OW25135   3.412   4.157   0.176  0.2324  0.3829  0.0498
 4501SOL    HW125136   3.430   4.119   0.090 -1.0108  0.6078 -0.3082
 4501SOL    HW225137   3.332   4.110   0.198  0.4969 -0.1759 -0.1698
 4502SOL     OW25138   4.151   1.548   2.905 -0.3139 -0.1032 -0.2870
 4502SOL    HW125139   4.149   1.453   2.919 -1.0535  0.4367  3.3769
 4502SOL    HW225140   4.057   1.566   2.917 -0.2800 -0.5214  0.6366
 4503SOL     OW25141   1.715   1.534   2.121  0.2407  0.5510  0.2165
 4503SOL    HW125142   1.798   1.510   2.081 -0.6945 -0.6062 -1.0162
 4503SOL    HW225143   1.750   1.554   2.208 -1.1733 -0.8147  1.1041
 4504SOL     OW25144   3.105   4.562   6.839 -0.0396  0.1215  0.4098
 4504SOL    HW125145   3.042   4.623   6.879 -0.3756  0.0983 -0.0854
 4504SOL    HW225146   3.051   4.502   6.788 -0.3248  2.1019 -1.6149
 4505SOL     OW25147   3.724   2.439   4.544 -0.3555  0.2673  0.5690
 4505SOL    HW125148   3.707   2.364   4.601  1.7419 -0.0526  0.7971
 4505SOL    HW225149   3.820   2.443   4.550 -0.1288 -2.7236 -0.9195
 4506SOL     OW25150   3.609   4.317   1.810  0.7589 -0.1014 -0.3387
 4506SOL    HW125151   3.571   4.404   1.822  0.2587 -0.0173 -2.5613
 4506SOL    HW225152   3.678   4.312   1.876  1.3642  1.4875 -0.8592
 4507SOL     OW25153   3.070   3.103  15.576 -0.2038 -0.1951 -0.2445
 4507SOL    HW125154   3.132   3.039  15.611 -1.6588 -1.2790  0.3698
 4507SOL    HW225155   3.038   3.045  15.506  1.5210 -0.8461 -0.5029
 4508SOL     OW25156   1.763   1.213   2.223 -0.3985  0.2173 -0.3908
 4508SOL    HW125157   1.857   1.221   2.208 -0.8260  2.3581 -1.9296
 4508SOL    HW225158   1.741   1.133   2.175 -0.3017 -1.3415  2.1703
 4509SOL     OW25159   3.606   3.383   6.414  0.6089 -0.1691  0.0618
 4509SOL    HW125160   3.630   3.293   6.438 -0.9170 -0.4342  0.5812
 4509SOL    HW225161   3.630   3.375   6.321 -0.7282  2.0566 -0.4509
 4510SOL     OW25162   0.686   2.815   5.691  0.0404 -0.4020  0.2890
 4510SOL    HW125163   0.770   2.772   5.710 -0.1887 -1.1140 -0.3063
 4510SOL    HW225164   0.720   2.893   5.649  0.7703 -1.6481 -1.4317
 4511SOL     OW25165   3.960   2.555   3.786 -0.0503 -0.2701  0.0927
 4511SOL    HW125166   3.981   2.642   3.820 -2.1715  0.1162  0.4140
 4511SOL    HW225167   3.867   2.554   3.808 -0.0665  2.2971  0.1614
 4512SOL     OW25168   0.087   2.758   6.005 -0.1687 -0.2265  0.4298
 4512SOL    HW125169   0.130   2.675   6.024  3.0321  1.1598 -0.7376
 4512SOL    HW225170   0.162   2.818   6.006 -0.4662  0.1842 -1.9214
 4513SOL     OW25171   3.205   0.417   5.231  0.1942 -0.1881 -0.3284
 4513SOL    HW125172   3.216   0.333   5.276 -0.8307 -0.2057 -0.1113
 4513SOL    HW225173   3.274   0.404   5.166 -0.2319  0.2305 -0.8649
 4514SOL     OW25174   0.383   1.606  11.997  0.3357 -0.5194  0.0312
 4514SOL    HW125175   0.470   1.607  12.037  0.3184 -0.3841  0.0637
 4514SOL    HW225176   0.343   1.567  12.075  1.9973 -1.8034  0.2417
 4515SOL     OW25177   1.324   2.660  16.582 -0.0270 -0.3826  0.4872
 4515SOL    HW125178   1.368   2.589  16.628 -2.9495 -2.8418 -0.4834
 4515SOL    HW225179   1.356   2.737  16.629 -0.5404 -0.2215  0.5741
 4516SOL     OW25180   4.438   1.170  13.795  0.4502 -0.3074  0.5769
 4516SOL    HW125181   4.464   1.215  13.715  0.7080 -0.5928  0.5032
 4516SOL    HW225182   4.343   1.184  13.792  0.3421 -0.4572  3.0462
 4517SOL     OW25183   0.499   1.802   7.574 -0.1867 -0.3295 -0.0104
 4517SOL    HW125184   0.507   1.816   7.668 -1.1727  1.7830 -0.2381
 4517SOL    HW225185   0.529   1.886   7.538  0.9578 -0.9876 -0.5662
 4518SOL     OW25186   2.817   3.998   4.668 -0.0133 -0.1058  0.3706
 4518SOL    HW125187   2.861   3.986   4.752  1.2785 -0.0407 -0.3002
 4518SOL    HW225188   2.765   3.919   4.654  0.3654 -0.2545 -0.2006
 4519SOL     OW25189   2.655   0.803  10.319 -0.0984 -0.0229 -0.3443
 4519SOL    HW125190   2.700   0.730  10.361 -2.1806 -0.8473  0.4596
 4519SOL    HW225191   2.730   0.857  10.295  1.2428 -1.9308 -0.4458
 4520SOL     OW25192   0.535   0.677  10.472 -0.1685 -0.4352  0.0667
 4520SOL    HW125193   0.552   0.771  10.481 -0.9339 -0.4317  1.3918
 4520SOL    HW225194   0.446   0.681  10.439 -0.0494  0.1388 -0.1771
 4521SOL     OW25195   0.360   3.914   0.289  0.0712 -0.0423 -0.4066
 4521SOL    HW125196   0.329   4.004   0.282  1.2790  0.1624 -3.1524
 4521SOL    HW225197   0.417   3.906   0.366 -2.0338 -1.1526  1.0428
 4522SOL     OW25198   4.176   3.241   7.733 -0.1512  0.0011  0.3089
 4522SOL    HW125199   4.088   3.280   7.735 -1.2927 -2.5010 -1.7435
 4522SOL    HW225200   4.152   3.163   7.782  0.4871 -0.6894 -0.4832
 4523SOL     OW25201   1.454   1.816   4.977 -0.7976 -0.2003  0.0730
 4523SOL    HW125202   1.431   1.879   4.909 -1.2515 -0.6093 -0.1555
 4523SOL    HW225203   1.548   1.815   4.958 -1.2285 -1.0360 -2.0383
 4524SOL     OW25204   1.089   3.519   1.135 -0.2747  0.2116 -0.2190
 4524SOL    HW125205   1.001   3.507   1.170 -0.5055  1.5031 -0.3621
 4524SOL    HW225206   1.123   3.605   1.159 -2.5435  0.7440  1.0808
 4525SOL     OW25207   1.765   3.199  17.738 -0.1306  0.6674  0.2846
 4525SOL    HW125208   1.779   3.119   0.043 -2.1048  0.4811  0.5319
 4525SOL    HW225209   1.673   3.220   0.008 -0.6149  0.5992 -2.5647
 4526SOL     OW25210   2.707   0.547  17.729  0.9106  0.1612  0.8260
 4526SOL    HW125211   2.668   0.547   0.071 -0.0785  0.1779  0.3829
 4526SOL    HW225212   2.626   0.526  17.682  0.6144 -1.1686  1.9252
 4527SOL     OW25213   1.588   1.189   5.810  0.5669 -0.4654  0.0157
 4527SOL    HW125214   1.634   1.176   5.727  2.7617  0.3803  1.1115
 4527SOL    HW225215   1.558   1.278   5.792 -1.4644 -1.0532  0.4615
 4528SOL     OW25216   4.696   4.588   3.832 -0.1206 -0.3711 -0.3297
 4528SOL    HW125217   4.663   4.586   3.742 -0.8792 -1.1638 -0.0245
 4528SOL    HW225218   0.047   4.552   3.817  0.3335 -0.0662  1.6353
 4529SOL     OW25219   1.259   4.666   7.015  0.2674 -0.1707 -0.2247
 4529SOL    HW125220   1.207   4.631   7.088 -1.6339  1.5171 -0.7773
 4529SOL    HW225221   1.299   0.007   7.056  0.6544 -0.9519  0.8969
 4530SOL     OW25222   2.815   4.672   2.901 -0.3575 -0.3065 -0.0333
 4530SOL    HW125223   2.866   4.722   2.837  0.4489  1.7001  2.1678
 4530SOL    HW225224   2.805   4.586   2.860  1.9401 -0.3585 -0.5217
 4531SOL     OW25225   2.103   4.455   3.391 -0.6731  0.1970 -0.3509
 4531SOL    HW125226   2.068   4.394   3.326  0.5162 -0.2457 -0.5958
 4531SOL    HW225227   2.091   4.538   3.345 -0.0153  0.5022  0.0199
 4532SOL     OW25228   3.011   1.766   4.365  0.0538  0.2835  0.6125
 4532SOL    HW125229   3.007   1.709   4.288  4.1741  1.5173 -0.5290
 4532SOL    HW225230   2.925   1.751   4.404 -1.4549  1.2849 -2.3308
 4533SOL     OW25231   3.831   2.832   8.410  0.1226  0.7686 -0.6144
 4533SOL    HW125232   3.926   2.845   8.404  0.2094  0.2304 -0.3562
 4533SOL    HW225233   3.816   2.773   8.336  0.0890 -0.1222  0.1163
 4534SOL     OW25234   1.892   3.256   9.422 -0.1383  0.0712 -0.1404
 4534SOL    HW125235   1.973   3.206   9.438  0.8408  1.6864 -0.0668
 4534SOL    HW225236   1.849   3.185   9.373  2.4338 -0.6360 -1.4255
 4535SOL     OW25237   2.167   3.967  13.901  0.5511 -0.1060  0.2823
 4535SOL    HW125238   2.118   4.034  13.949  1.0885  1.8935 -1.9452
 4535SOL    HW225239   2.174   4.014  13.818 -0.7500 -0.3667  0.0344
 4536SOL     OW25240   0.315   3.589   1.636 -0.3662  0.4741 -0.0868
 4536SOL    HW125241   0.361   3.534   1.573 -1.1172  0.1927 -0.3995
 4536SOL    HW225242   0.275   3.528   1.698  0.8035  1.9696  2.1390
 4537SOL     OW25243   0.000   0.498   9.500  0.5339  0.2254  0.6029
 4537SOL    HW125244   0.028   0.588   9.517  1.1086  0.6791 -2.7146
 4537SOL    HW225245   4.712   0.478   9.590  0.1491  0.5020  0.5560
 4538SOL     OW25246   1.754   0.550  14.260  0.0691  0.6006  0.1037
 4538SOL    HW125247   1.671   0.504  14.277 -1.1663  2.5027 -0.7078
 4538SOL    HW225248   1.782   0.507  14.179 -1.8148 -1.0331  0.3200
 4539SOL     OW25249   1.748   1.959   5.571 -0.6348 -0.2125  0.3011
 4539SOL    HW125250   1.843   1.965   5.580 -0.2914 -2.7596 -1.6864
 4539SOL    HW225251   1.723   1.868   5.584 -0.8185 -0.6665 -3.4794
 4540SOL     OW25252   1.991   0.253  11.235 -0.1510  0.6129  0.0227
 4540SOL    HW125253   1.943   0.205  11.168 -0.6844 -1.1429  1.6308
 4540SOL    HW225254   2.079   0.258  11.199  0.6051 -4.5556  1.1087
 4541SOL     OW25255   0.490   0.774   9.852  0.3830 -0.6412 -0.3085
 4541SOL    HW125256   0.411   0.767   9.798  1.5861 -0.2541 -2.1001
 4541SOL    HW225257   0.515   0.863   9.827  0.5165 -0.5059  0.2949
 4542SOL     OW25258   3.794   0.791   8.270  0.6853  0.1108  0.2168
 4542SOL    HW125259   3.834   0.712   8.234 -1.5369 -0.3913 -1.1788
 4542SOL    HW225260   3.717   0.752   8.314 -0.7799 -0.0848 -2.5509
 4543SOL     OW25261   4.018   3.873   7.141  0.6621  0.3185  0.7365
 4543SOL    HW125262   3.995   3.939   7.075  0.9239  1.0468  1.3623
 4543SOL    HW225263   4.085   3.922   7.190  0.9183  0.3902  0.3129
 4544SOL     OW25264   1.973   0.320   8.458 -0.4199 -0.0712 -0.4943
 4544SOL    HW125265   1.893   0.275   8.434 -0.7530  1.4345 -2.1885
 4544SOL    HW225266   2.037   0.251   8.439 -0.5394 -0.1654 -0.5510
 4545SOL     OW25267   2.087   0.330   3.066  0.0299  0.5977 -0.2441
 4545SOL    HW125268   2.103   0.388   3.140  3.3071  0.4788 -0.8314
 4545SOL    HW225269   2.132   0.250   3.093 -1.7221 -0.2123  0.2930
 4546SOL     OW25270   2.404   3.998   2.159  0.2948 -0.3441  0.5679
 4546SOL    HW125271   2.405   3.907   2.130 -1.9399  0.6296 -2.5412
 4546SOL    HW225272   2.313   4.026   2.151  0.5512  0.4406  0.3998
 4547SOL     OW25273   3.506   3.000   3.615 -0.6677 -0.0307  0.5184
 4547SOL    HW125274   3.434   2.970   3.671 -1.2824  1.0673  0.3215
 4547SOL    HW225275   3.480   3.092   3.605 -1.3304 -0.3919 -0.9653
 4548SOL     OW25276   4.172   4.022   7.294 -0.2776  0.2830  0.2867
 4548SOL    HW125277   4.267   4.021   7.285 -0.3511 -1.3992 -0.3454
 4548SOL    HW225278   4.160   4.028   7.388  2.1802 -0.2377  0.6466
 4549SOL     OW25279   2.288   1.958  11.471  0.0852  0.5045 -0.3977
 4549SOL    HW125280   2.346   1.946  11.397 -0.2872  1.3296 -0.8293
 4549SOL    HW225281   2.302   2.046  11.506  1.0229 -0.3714  1.4596
 4550SOL     OW25282   3.105   2.440  11.162  0.6122 -0.3863 -0.1140
 4550SOL    HW125283   3.106   2.451  11.257 -0.9219  2.8183 -0.4387
 4550SOL    HW225284   3.146   2.355  11.175 -2.6973 -2.0010 -0.2801
 4551SOL     OW25285   1.426   2.775   5.049 -0.4239 -0.1476  0.3460
 4551SOL    HW125286   1.506   2.827   5.060 -1.3311  1.1029  1.0924
 4551SOL    HW225287   1.406   2.792   4.957 -2.3715 -0.2132  0.7685
 4552SOL     OW25288   3.145   3.342   4.893 -0.3733  0.4007  0.4828
 4552SOL    HW125289   3.164   3.392   4.814 -0.1047 -1.0624 -0.3723
 4552SOL    HW225290   3.200   3.392   4.954  0.9606 -0.0152 -0.3837
 4553SOL     OW25291   3.308   3.480   1.474 -0.2294 -0.0096  0.3183
 4553SOL    HW125292   3.399   3.476   1.502 -0.3871  1.0396  0.9898
 4553SOL    HW225293   3.278   3.443   1.557  0.7813 -3.0127 -0.6247
 4554SOL     OW25294   2.858   3.813   5.697  0.4163  0.5238 -0.1225
 4554SOL    HW125295   2.815   3.796   5.614  1.0384  0.4341 -0.4304
 4554SOL    HW225296   2.948   3.814   5.664  0.2428  0.4487 -0.5968
 4555SOL     OW25297   2.293   3.610   4.911  0.0074  0.1711 -0.6046
 4555SOL    HW125298   2.327   3.544   4.851  0.3502  1.6247 -2.0073
 4555SOL    HW225299   2.203   3.618   4.880  0.6981 -0.4728 -2.7353
 4556SOL     OW25300   4.318   4.447   3.557 -0.0872  0.4071  0.0092
 4556SOL    HW125301   4.267   4.366   3.549 -0.6934  0.8659 -0.7540
 4556SOL    HW225302   4.241   4.502   3.574  0.6347  1.2343  0.5838
 4557SOL     OW25303   1.502   1.866   1.995  0.3099  0.2810 -0.0852
 4557SOL    HW125304   1.473   1.930   1.930  0.6674  0.5093 -0.0248
 4557SOL    HW225305   1.488   1.787   1.943 -1.5412  0.0371  0.7976
 4558SOL     OW25306   1.256   0.855   6.717 -0.2807 -0.6419 -0.0828
 4558SOL    HW125307   1.258   0.877   6.624 -1.3992  0.9405  0.2654
 4558SOL    HW225308   1.215   0.939   6.737  0.1674 -0.2978 -0.6119
 4559SOL     OW25309   1.880   0.852   8.742 -0.2715  0.2987 -0.2581
 4559SOL    HW125310   1.835   0.932   8.769  0.7492  0.4126  1.0802
 4559SOL    HW225311   1.883   0.809   8.827 -0.9532 -0.4276 -0.6038
 4560SOL     OW25312   2.479   2.513   9.205  0.2836 -0.1746  0.1453
 4560SOL    HW125313   2.417   2.523   9.277  0.2259 -1.2707  0.2473
 4560SOL    HW225314   2.554   2.471   9.248  0.5507  0.4808  0.3116
 4561SOL     OW25315   0.896   2.506   8.831  0.6359 -0.2651 -0.4011
 4561SOL    HW125316   0.965   2.479   8.769  0.3353 -2.7856  0.3453
 4561SOL    HW225317   0.924   2.593   8.857 -0.6628 -1.3556  4.5597
 4562SOL     OW25318   3.186   0.741  10.524  0.1505 -0.5411  0.1154
 4562SOL    HW125319   3.105   0.779  10.490  0.8477 -0.4720 -1.4554
 4562SOL    HW225320   3.186   0.768  10.616  1.6735 -0.7090  0.1754
 4563SOL     OW25321   4.689   2.025  16.126  0.1728  0.9102  0.3505
 4563SOL    HW125322   4.629   2.080  16.177 -1.2312  1.3141 -1.7399
 4563SOL    HW225323   4.666   2.056  16.039 -0.9697  1.2817  0.7814
 4564SOL     OW25324   0.678   1.662   3.943 -0.3699  0.2685  0.3128
 4564SOL    HW125325   0.726   1.585   3.913  0.9084  0.6439  1.3686
 4564SOL    HW225326   0.744   1.726   3.969  0.8233  0.0952 -2.2920
 4565SOL     OW25327   4.019   3.601   6.042 -0.0801  0.0291 -0.1857
 4565SOL    HW125328   3.999   3.691   6.067 -0.1295 -0.5410  1.8152
 4565SOL    HW225329   3.993   3.554   6.122 -0.7653 -1.1694 -1.1137
 4566SOL     OW25330   3.470   1.829   2.518 -0.1776 -0.2718  0.5872
 4566SOL    HW125331   3.487   1.790   2.432 -0.7988  0.6552  0.0452
 4566SOL    HW225332   3.559   1.826   2.552 -0.1041  1.3003  0.5515
 4567SOL     OW25333   1.997   0.768   8.199 -0.0923 -0.1656 -0.1523
 4567SOL    HW125334   2.052   0.831   8.152 -0.0801  0.9111  1.2932
 4567SOL    HW225335   2.062   0.702   8.222 -1.6817 -2.2438 -1.6996
 4568SOL     OW25336   0.826   2.640   7.695 -0.6701 -0.5299  0.4822
 4568SOL    HW125337   0.795   2.656   7.784 -0.1394  0.5274  0.4827
 4568SOL    HW225338   0.746   2.624   7.644 -0.3037  1.2642 -0.6474
 4569SOL     OW25339   1.108   4.684   8.610 -0.0244  0.7078  0.2311
 4569SOL    HW125340   1.149   4.613   8.659  0.5835  0.4958 -0.5778
 4569SOL    HW225341   1.169   4.703   8.538  0.8620 -2.3930  0.1771
 4570SOL     OW25342   2.011   0.972  10.018 -0.2952  0.2602  0.7136
 4570SOL    HW125343   2.005   0.999  10.109 -0.9119 -2.2638  1.4173
 4570SOL    HW225344   1.963   1.041   9.972  3.1805  2.4452  0.2852
 4571SOL     OW25345   2.856   2.835   7.742 -0.1173  0.0790 -0.3209
 4571SOL    HW125346   2.884   2.782   7.817 -1.5702  0.1685  0.2965
 4571SOL    HW225347   2.854   2.768   7.674  4.9916 -0.2096 -0.1898
 4572SOL     OW25348   4.280   2.467  14.495  0.0204 -0.0972 -0.4480
 4572SOL    HW125349   4.238   2.466  14.409 -1.0756 -0.2508  0.0985
 4572SOL    HW225350   4.372   2.456  14.470  0.7297  3.0333  0.7704
 4573SOL     OW25351   0.352   3.347  14.723 -0.1850  0.0327  0.5163
 4573SOL    HW125352   0.407   3.333  14.646 -0.5104 -1.9394  0.6638
 4573SOL    HW225353   0.370   3.440  14.738  0.0533  0.1402 -0.4214
 4574SOL     OW25354   3.732   1.815   2.523  0.0470  0.2758 -0.2524
 4574SOL    HW125355   3.798   1.859   2.469 -1.1997 -1.4490 -3.1925
 4574SOL    HW225356   3.750   1.855   2.608  0.9356 -0.2080 -0.2058
 4575SOL     OW25357   1.210   0.477   0.118  0.3876  0.2427  1.0212
 4575SOL    HW125358   1.124   0.437   0.111 -0.2810  2.4770 -3.7158
 4575SOL    HW225359   1.209   0.527   0.036 -0.1305 -0.8115  0.3855
 4576SOL     OW25360   4.226   3.747  11.491 -0.0219  0.4864 -0.2454
 4576SOL    HW125361   4.269   3.714  11.413  1.4463  0.5033  0.5643
 4576SOL    HW225362   4.200   3.831  11.453  0.8478  0.2759 -1.2936
 4577SOL     OW25363   2.420   1.406   8.388 -0.3588 -0.4748 -0.0515
 4577SOL    HW125364   2.420   1.494   8.350  2.1760 -0.2618  0.4313
 4577SOL    HW225365   2.366   1.418   8.467 -0.1931 -0.3027  0.0349
 4578SOL     OW25366   2.555   0.065   6.030  0.4014  0.0039 -0.3790
 4578SOL    HW125367   2.564   0.155   6.060 -0.2245  0.7173 -2.3084
 4578SOL    HW225368   2.549   0.019   6.113 -1.8232 -0.6585 -0.9238
 4579SOL     OW25369   2.629   0.494   6.048 -0.1838 -0.1478  0.0054
 4579SOL    HW125370   2.702   0.549   6.076 -0.3175 -0.4271  0.9081
 4579SOL    HW225371   2.559   0.511   6.111  0.5938  0.9489  0.5783
 4580SOL     OW25372   0.164   3.114   6.934  0.0405  0.5770 -0.0616
 4580SOL    HW125373   0.099   3.161   6.881  0.0063  0.8232  0.1984
 4580SOL    HW225374   0.127   3.127   7.021  0.3179  0.3383  0.0911
 4581SOL     OW25375   3.491   1.095   6.466  0.0444 -0.1991  0.0897
 4581SOL    HW125376   3.559   1.137   6.413 -1.1423 -0.0308 -1.2875
 4581SOL    HW225377   3.419   1.157   6.478  1.0637  0.6375  1.8857
 4582SOL     OW25378   4.704   3.904   9.246 -0.0802  0.0520 -0.0007
 4582SOL    HW125379   4.713   3.922   9.339  0.6028 -1.9911  0.3293
 4582SOL    HW225380   4.610   3.922   9.243 -0.2119 -0.6766 -0.2527
 4583SOL     OW25381   1.353   4.205   5.994 -0.4027 -0.1863  0.3593
 4583SOL    HW125382   1.394   4.290   6.010 -1.3589  0.2498  0.5485
 4583SOL    HW225383   1.270   4.216   6.041  0.4184  1.3980  1.4410
 4584SOL     OW25384   4.534   4.478   2.550  0.7525 -0.0751  0.0588
 4584SOL    HW125385   4.561   4.448   2.637 -1.2749 -2.4314 -0.1245
 4584SOL    HW225386   4.474   4.550   2.568  2.4140  1.1855  0.6424
 4585SOL     OW25387   4.183   2.723   4.901 -0.2501 -1.2597  0.1337
 4585SOL    HW125388   4.271   2.737   4.938 -0.2418 -0.6892 -0.1053
 4585SOL    HW225389   4.206   2.737   4.809  1.3165 -1.6318  0.4580
 4586SOL     OW25390   3.126   1.339   7.638  0.3594 -0.5438  0.4634
 4586SOL    HW125391   3.183   1.373   7.569  2.2738 -0.2222  2.1874
 4586SOL    HW225392   3.157   1.249   7.648 -0.2577 -0.8483 -0.3885
 4587SOL     OW25393   0.435   1.651  12.598  0.0868 -0.9442 -0.3572
 4587SOL    HW125394   0.505   1.620  12.540 -0.2040 -1.3755 -0.4868
 4587SOL    HW225395   0.413   1.741  12.577  2.1897 -0.3332  0.0920
 4588SOL     OW25396   3.499   0.685   3.576  0.2769 -0.4197 -0.0203
 4588SOL    HW125397   3.473   0.667   3.667 -0.8355 -0.7254 -0.3932
 4588SOL    HW225398   3.588   0.717   3.591 -0.3542  1.4812 -0.2836
 4589SOL     OW25399   0.642   4.173   1.579  0.1845  0.1413  0.1753
 4589SOL    HW125400   0.616   4.264   1.565 -1.1412 -0.2045  0.3783
 4589SOL    HW225401   0.641   4.173   1.675 -0.0705  1.7573  0.1823
 4590SOL     OW25402   1.149   3.359   4.843  0.1499 -0.4215  0.1439
 4590SOL    HW125403   1.094   3.306   4.901 -0.4826 -0.2452 -0.2925
 4590SOL    HW225404   1.221   3.390   4.898  0.7109  0.2028 -0.9367
 4591SOL     OW25405   4.083   3.592   4.720 -0.5516 -0.5944  0.3801
 4591SOL    HW125406   4.082   3.600   4.815 -0.6294 -0.6901  0.3868
 4591SOL    HW225407   4.145   3.519   4.711  2.2045  1.6306  1.0926
 4592SOL     OW25408   4.193   1.131   4.004  0.5191  0.0934 -0.7592
 4592SOL    HW125409   4.217   1.052   4.053  0.3928 -0.3663 -1.4334
 4592SOL    HW225410   4.281   1.161   3.981  0.2822 -0.6655 -2.6790
 4593SOL     OW25411   1.377   4.050   2.909  0.5443 -0.4179 -0.1170
 4593SOL    HW125412   1.434   3.974   2.912 -0.0073 -0.8881 -1.5473
 4593SOL    HW225413   1.415   4.101   2.980 -3.3300  2.5503 -0.1432
 4594SOL     OW25414   3.252   4.009  14.524  0.0445 -0.6349  0.0969
 4594SOL    HW125415   3.181   4.049  14.473 -0.6250 -1.3755  0.4626
 4594SOL    HW225416   3.218   4.018  14.613 -0.1369  1.2082 -0.1553
 4595SOL     OW25417   2.444   2.065   4.701 -0.0774 -0.5104  0.8679
 4595SOL    HW125418   2.463   2.130   4.768 -2.4169 -0.5485  1.5669
 4595SOL    HW225419   2.524   2.012   4.706 -0.2522 -0.9362 -0.9537
 4596SOL     OW25420   0.589   3.548   6.680 -0.5986  0.0627  0.7209
 4596SOL    HW125421   0.499   3.542   6.711 -2.3082  1.3668 -4.0017
 4596SOL    HW225422   0.627   3.547   6.767 -0.3726  1.0599  0.6341
 4597SOL     OW25423   1.395   0.808  10.166  0.6286  0.0273 -0.5936
 4597SOL    HW125424   1.431   0.874  10.107 -0.5484  0.6113 -0.6496
 4597SOL    HW225425   1.415   0.728  10.116  1.3491 -0.6461  0.7950
 4598SOL     OW25426   1.405   4.436  10.398 -0.5690  0.6229  0.3369
 4598SOL    HW125427   1.361   4.521  10.399 -0.1440  0.8611 -2.3568
 4598SOL    HW225428   1.330   4.378  10.386 -0.1776  0.0057  0.8224
 4599SOL     OW25429   0.405   3.947  11.784 -0.5370  0.7195 -0.1308
 4599SOL    HW125430   0.337   3.950  11.716 -0.0146  2.1666 -0.5883
 4599SOL    HW225431   0.348   3.970  11.858  0.2653  0.7929  0.4602
 4600SOL     OW25432   0.472   0.752   2.541  0.4478  0.8421  0.1195
 4600SOL    HW125433   0.509   0.802   2.613  0.0753  0.6446  0.4492
 4600SOL    HW225434   0.499   0.806   2.466  1.1052  1.4988  0.8435
 4601SOL     OW25435   3.654   2.109   1.431 -0.4258  0.2787 -0.2377
 4601SOL    HW125436   3.684   2.177   1.371 -0.2718  0.7381  0.3532
 4601SOL    HW225437   3.672   2.153   1.515  1.5727 -0.0924 -0.4765
 4602SOL     OW25438   3.102   3.861   4.771  0.0321  0.2341  0.2513
 4602SOL    HW125439   3.125   3.856   4.864 -2.2140 -0.2663  0.7673
 4602SOL    HW225440   3.176   3.918   4.749 -1.3002  1.3912 -1.1623
 4603SOL     OW25441   4.454   1.288   9.310 -0.2719  0.2196 -0.0866
 4603SOL    HW125442   4.403   1.281   9.229  1.3158  0.4031 -1.0974
 4603SOL    HW225443   4.402   1.243   9.377 -2.3968  1.5397 -0.8473
 4604SOL     OW25444   0.959   0.368  16.588  0.1356 -0.4734  0.1847
 4604SOL    HW125445   0.988   0.399  16.674 -0.1798 -0.8409  0.4278
 4604SOL    HW225446   0.919   0.450  16.561 -0.4024 -1.1499 -1.0962
 4605SOL     OW25447   0.951   0.519   7.446 -0.0444 -0.3834 -0.4394
 4605SOL    HW125448   0.879   0.545   7.389  0.8841  4.8647  0.7217
 4605SOL    HW225449   1.022   0.578   7.421  0.7953 -1.2650 -0.1474
 4606SOL     OW25450   4.692   4.207   3.620  0.0458 -0.2912 -0.2342
 4606SOL    HW125451   0.003   4.288   3.601 -0.0984 -0.3929 -1.0285
 4606SOL    HW225452   4.617   4.224   3.562 -0.8977  0.7030  1.2591
 4607SOL     OW25453   4.546   1.435   4.523 -0.5584 -0.1036  0.6628
 4607SOL    HW125454   4.583   1.512   4.481 -0.2385 -0.8562 -0.4327
 4607SOL    HW225455   4.540   1.461   4.615  0.8201 -1.6768  1.2098
 4608SOL     OW25456   3.231   3.985   6.308  0.1243  0.0275 -0.7561
 4608SOL    HW125457   3.151   3.935   6.324 -0.1099  0.7101  0.1752
 4608SOL    HW225458   3.278   3.936   6.240  1.1716  0.0538 -0.0374
 4609SOL     OW25459   4.640   3.616  15.871 -0.0498  0.0927 -0.4557
 4609SOL    HW125460   4.618   3.550  15.805  0.8485 -1.0289  0.3679
 4609SOL    HW225461   4.616   3.573  15.953  1.0437 -1.9364 -1.1878
 4610SOL     OW25462   3.826   0.972  10.038 -0.1554 -0.3699  0.2335
 4610SOL    HW125463   3.856   0.881  10.034 -0.7285 -0.6006  1.1593
 4610SOL    HW225464   3.799   0.975  10.130 -1.3880 -0.3562 -0.1367
 4611SOL     OW25465   1.338   0.158   6.429 -0.0296  0.2602 -0.2578
 4611SOL    HW125466   1.432   0.178   6.434  0.6296 -3.1754  1.2444
 4611SOL    HW225467   1.317   0.182   6.519  3.1549 -0.4904  0.6921
 4612SOL     OW25468   1.739   0.937   3.658 -0.3767  0.1725  0.1787
 4612SOL    HW125469   1.658   0.904   3.697 -0.7557  0.6397 -0.2043
 4612SOL    HW225470   1.724   0.925   3.564  2.9103 -1.8643 -0.0613
 4613SOL     OW25471   2.333   3.203   3.303  0.2373  0.4393 -0.4938
 4613SOL    HW125472   2.246   3.176   3.332  0.2170 -0.1346 -1.0733
 4613SOL    HW225473   2.385   3.219   3.382  0.4010  0.6768 -0.6494
 4614SOL     OW25474   1.551   4.045   8.993 -0.4520 -0.2906 -0.4672
 4614SOL    HW125475   1.568   4.139   9.000  2.5238 -0.6304 -2.8153
 4614SOL    HW225476   1.473   4.029   9.046 -0.9022  1.0147 -0.7463
 4615SOL     OW25477   0.243   1.298   2.217  0.8442 -0.0190  0.2350
 4615SOL    HW125478   0.243   1.367   2.283 -0.0525  0.3310 -0.1262
 4615SOL    HW225479   0.263   1.350   2.139 -1.9695 -0.9745 -1.1101
 4616SOL     OW25480   1.638   2.873  14.846 -0.3330 -0.1377  0.4927
 4616SOL    HW125481   1.690   2.924  14.784 -1.1459 -1.2731 -1.1414
 4616SOL    HW225482   1.717   2.834  14.882  0.7592 -0.0711 -1.7909
 4617SOL     OW25483   3.736   4.032   5.947  0.3339 -0.5676  0.3569
 4617SOL    HW125484   3.763   4.081   5.869  0.5945 -1.0720  0.1349
 4617SOL    HW225485   3.643   4.013   5.931  0.3773 -1.3153  1.0088
 4618SOL     OW25486   3.819   4.189   3.120  0.1982 -0.3491  0.1606
 4618SOL    HW125487   3.728   4.166   3.100  0.4235  0.6851 -2.0318
 4618SOL    HW225488   3.828   4.274   3.076  1.7010  0.4992  2.1099
 4619SOL     OW25489   2.361   2.208   9.457 -0.4192  0.4178  0.2327
 4619SOL    HW125490   2.431   2.212   9.522  0.6811 -2.4529 -0.7921
 4619SOL    HW225491   2.287   2.223   9.516  1.0140  1.0523  1.8785
 4620SOL     OW25492   2.974   1.096   8.188  0.1115  0.0424  0.2997
 4620SOL    HW125493   2.896   1.120   8.138  0.2599  0.6784  0.3640
 4620SOL    HW225494   3.026   1.059   8.117 -0.9471 -0.8091 -0.0265
 4621SOL     OW25495   1.873   3.026   4.752  0.4846  0.0306 -0.0484
 4621SOL    HW125496   1.841   3.116   4.746  0.3894 -0.0667 -1.0405
 4621SOL    HW225497   1.816   2.982   4.689 -2.9764  3.7751  0.4465
 4622SOL     OW25498   2.356   3.407   6.921  0.2579  0.4541  0.5498
 4622SOL    HW125499   2.324   3.471   6.984 -0.0426 -1.3800  2.2736
 4622SOL    HW225500   2.418   3.453   6.865  1.1305 -0.8939  0.3944
 4623SOL     OW25501   2.939   4.706   1.369  0.1267 -0.1037  0.3044
 4623SOL    HW125502   2.933   0.026   1.445 -0.5750  2.6072 -1.7529
 4623SOL    HW225503   2.871   4.736   1.309 -0.7946  0.4422  1.6358
 4624SOL     OW25504   2.340   1.451  11.205 -0.3840  0.1441  0.6262
 4624SOL    HW125505   2.404   1.387  11.237 -1.0268 -1.3228 -1.0554
 4624SOL    HW225506   2.397   1.507  11.152  0.2507 -1.0272  0.0797
 4625SOL     OW25507   1.920   0.990   8.519 -0.5684 -0.4171 -0.2504
 4625SOL    HW125508   1.894   0.929   8.588  0.2278 -1.0342 -0.4907
 4625SOL    HW225509   1.956   0.937   8.448  2.6656  1.6772 -0.1317
 4626SOL     OW25510   1.075   4.099  11.164  0.0914  0.1347  0.3350
 4626SOL    HW125511   1.087   4.043  11.240  2.9981 -0.3047 -0.4656
 4626SOL    HW225512   0.988   4.138  11.176 -1.1517 -2.9140  1.1689
 4627SOL     OW25513   0.979   3.164   9.109  0.4800  0.2003  0.6444
 4627SOL    HW125514   1.031   3.227   9.058 -3.1590  1.3186 -1.6350
 4627SOL    HW225515   0.948   3.091   9.056  1.9043  0.0306  0.0344
 4628SOL     OW25516   3.747   3.545   9.184  0.0692 -0.5347  0.6815
 4628SOL    HW125517   3.728   3.463   9.138 -2.7167  0.4983  0.0244
 4628SOL    HW225518   3.774   3.508   9.269 -0.8066 -0.7266  0.8783
 4629SOL     OW25519   0.275   3.588   6.893 -0.1494  0.4550  0.2401
 4629SOL    HW125520   0.293   3.505   6.850 -1.4229 -0.5046  1.5845
 4629SOL    HW225521   0.192   3.576   6.939  1.1727 -2.3968  1.8729
 4630SOL     OW25522   4.344   1.201   0.038  0.2450 -0.1947 -0.4217
 4630SOL    HW125523   4.304   1.216   0.124 -2.2521 -1.9253 -1.2755
 4630SOL    HW225524   4.351   1.105   0.036 -0.3000 -0.2422 -0.2492
 4631SOL     OW25525   3.101   4.556   1.589  0.2851  0.1932  0.4985
 4631SOL    HW125526   3.047   4.529   1.514  0.9590  1.5713 -0.4840
 4631SOL    HW225527   3.118   4.469   1.624  2.1425 -0.3889 -1.8852
 4632SOL     OW25528   2.881   2.413   6.910 -0.3310 -0.1745 -0.1537
 4632SOL    HW125529   2.860   2.506   6.893  1.4909  0.7584  2.8740
 4632SOL    HW225530   2.909   2.437   6.998  0.0508  2.8903 -1.1022
 4633SOL     OW25531   1.813   0.300  16.239  0.6821  0.4957 -0.0970
 4633SOL    HW125532   1.776   0.229  16.292 -0.9788  0.0515 -1.8448
 4633SOL    HW225533   1.767   0.376  16.273 -2.6650 -1.6588  0.2143
 4634SOL     OW25534   0.083   1.496   8.159  0.1122  0.5795  0.3049
 4634SOL    HW125535   0.105   1.562   8.093 -1.3291  0.5911 -0.1497
 4634SOL    HW225536   0.082   1.417   8.106 -3.3986  1.1194 -0.4009
 4635SOL     OW25537   1.602   2.536   6.307  0.4266  0.1495 -0.1611
 4635SOL    HW125538   1.548   2.461   6.284  0.4794  0.6750 -2.0130
 4635SOL    HW225539   1.627   2.504   6.393 -0.8304 -2.1371 -0.6342
 4636SOL     OW25540   0.071   4.642  13.029  0.2273 -0.0861  0.2128
 4636SOL    HW125541   0.004   4.695  12.984 -0.4168 -0.8247  0.2935
 4636SOL    HW225542   0.109   4.700  13.095 -0.8107  0.2891  0.4862
 4637SOL     OW25543   0.008   3.090   2.306  0.3500 -0.5743  0.1583
 4637SOL    HW125544   0.074   3.123   2.368 -0.9432 -0.8435  1.6735
 4637SOL    HW225545   0.064   3.075   2.230  0.4414 -2.0526  0.5255
 4638SOL     OW25546   0.250   3.226   8.839  0.1623 -0.7888  0.2570
 4638SOL    HW125547   0.239   3.264   8.926 -1.3462  2.2690 -1.2803
 4638SOL    HW225548   0.164   3.193   8.815 -0.1735  0.3636 -0.1019
 4639SOL     OW25549   4.113   0.717   3.816  0.5616  0.3726 -0.0734
 4639SOL    HW125550   4.192   0.735   3.765  0.1783  0.8543 -0.4866
 4639SOL    HW225551   4.126   0.631   3.856  1.4421  0.5946  0.1255
 4640SOL     OW25552   3.556   0.721   5.826 -0.4105  0.1280 -0.2423
 4640SOL    HW125553   3.596   0.808   5.818 -1.4255  0.3958 -2.3424
 4640SOL    HW225554   3.490   0.745   5.892  0.3414  0.2916  0.4519
 4641SOL     OW25555   4.029   3.766   4.108 -0.0526  0.3378 -0.2424
 4641SOL    HW125556   4.042   3.683   4.154  0.5423 -0.3989 -1.6989
 4641SOL    HW225557   4.052   3.729   4.022  0.6259 -1.6707  0.7970
 4642SOL     OW25558   4.297   1.836  16.115 -0.1993 -0.0945 -0.2469
 4642SOL    HW125559   4.318   1.839  16.208 -0.8630 -2.6499 -0.0315
 4642SOL    HW225560   4.284   1.930  16.100  0.8773  0.0497 -0.2395
 4643SOL     OW25561   4.616   4.073  10.816  0.1532  0.1500  0.1642
 4643SOL    HW125562   4.679   4.108  10.879 -1.2514  2.0596  0.5166
 4643SOL    HW225563   4.642   4.129  10.742  0.1069  1.3182  1.0407
 4644SOL     OW25564   1.998   2.592   2.408 -0.1574  0.7931  0.5083
 4644SOL    HW125565   1.997   2.620   2.500  0.9025 -0.0340  0.7662
 4644SOL    HW225566   1.971   2.501   2.422  0.9230  0.5863  1.2450
 4645SOL     OW25567   3.762   0.079  12.589  0.4444 -0.1055 -0.3350
 4645SOL    HW125568   3.675   0.085  12.629 -0.0428 -3.0257 -0.9436
 4645SOL    HW225569   3.788   0.171  12.592  0.4353 -0.1707  1.3861
 4646SOL     OW25570   2.289   1.347   0.743 -0.4730  0.6505 -0.4339
 4646SOL    HW125571   2.374   1.387   0.758  0.2665 -0.7507 -0.9083
 4646SOL    HW225572   2.297   1.261   0.784  0.1847  1.3186  0.8404
 4647SOL     OW25573   3.695   0.354   0.761 -0.8526  0.0248  0.6678
 4647SOL    HW125574   3.655   0.440   0.747 -0.0371 -0.1437 -2.8792
 4647SOL    HW225575   3.646   0.289   0.710  2.3110 -0.7657 -1.3691
 4648SOL     OW25576   3.447   4.386   1.204  0.0076  0.6374 -0.0759
 4648SOL    HW125577   3.507   4.428   1.142 -0.5970  1.1677 -0.3013
 4648SOL    HW225578   3.478   4.424   1.286  2.2840 -2.2974  0.4162
 4649SOL     OW25579   1.020   3.378  13.310 -0.0907 -0.0909 -0.1227
 4649SOL    HW125580   1.073   3.398  13.387 -1.0950 -0.6158  0.7019
 4649SOL    HW225581   0.973   3.300  13.338  0.5702 -0.0807  1.0174
 4650SOL     OW25582   0.374   1.149   8.386 -0.8133  0.2819  0.3693
 4650SOL    HW125583   0.423   1.102   8.454 -0.6374 -0.2432 -0.1295
 4650SOL    HW225584   0.381   1.097   8.306 -0.2672  1.3430 -0.2713
 4651SOL     OW25585   1.921   3.548   5.898  0.4293 -0.7367  0.3913
 4651SOL    HW125586   1.866   3.627   5.902  0.0155 -0.9995 -0.2390
 4651SOL    HW225587   1.912   3.505   5.813  3.7660  0.5460 -0.6137
 4652SOL     OW25588   0.274   1.838   7.426 -0.4044  0.9686 -0.2243
 4652SOL    HW125589   0.345   1.825   7.489 -0.9656  1.8232  0.5885
 4652SOL    HW225590   0.243   1.926   7.447 -1.7044  0.7703 -1.3056
 4653SOL     OW25591   1.516   4.020   5.876  0.3636  0.6949  0.3026
 4653SOL    HW125592   1.474   4.086   5.931 -0.5610  0.5418 -0.2019
 4653SOL    HW225593   1.438   3.976   5.840  1.7310  1.4116 -3.5671
 4654SOL     OW25594   3.575   1.609  16.615  0.2047  0.0041 -0.0058
 4654SOL    HW125595   3.622   1.692  16.611  2.5383 -1.3553 -0.3555
 4654SOL    HW225596   3.649   1.556  16.587 -0.9881 -0.2655 -2.5679
 4655SOL     OW25597   4.166   0.895   1.520  0.3454  0.5641 -0.3896
 4655SOL    HW125598   4.187   0.833   1.589  0.2047  2.1420  1.0772
 4655SOL    HW225599   4.071   0.896   1.535  0.4196 -0.0105  0.0898
 4656SOL     OW25600   2.996   2.431   1.868 -0.2757  0.0553  0.8430
 4656SOL    HW125601   3.086   2.405   1.851 -0.0719  1.9431 -0.9505
 4656SOL    HW225602   2.992   2.522   1.840  1.7800 -0.5462 -1.3689
 4657SOL     OW25603   4.323   0.816  15.258 -0.7388  0.0045  0.3996
 4657SOL    HW125604   4.296   0.802  15.349  1.4856  0.9797  1.2235
 4657SOL    HW225605   4.404   0.765  15.248 -1.7366 -1.4991  0.1028
 4658SOL     OW25606   0.767   0.710   7.989  0.1212  0.2910 -0.3205
 4658SOL    HW125607   0.681   0.747   7.973  0.0913 -0.9917 -3.2333
 4658SOL    HW225608   0.820   0.789   7.982 -0.9709  0.7322 -3.9080
 4659SOL     OW25609   2.622   4.083   2.879  0.1056  0.1544  0.2089
 4659SOL    HW125610   2.602   4.055   2.968 -0.7276 -0.0379 -0.0404
 4659SOL    HW225611   2.701   4.033   2.859 -1.0970 -1.9334  0.5931
 4660SOL     OW25612   1.339   3.193  12.058 -0.4021 -0.2381 -0.2611
 4660SOL    HW125613   1.313   3.223  11.970 -0.1082  1.9184  0.3840
 4660SOL    HW225614   1.410   3.250  12.087  1.9055 -2.2240 -1.9540
 4661SOL     OW25615   0.095   2.037   3.914 -0.6139 -0.4716 -0.1830
 4661SOL    HW125616   0.184   2.064   3.933 -1.3491 -0.0272  2.5897
 4661SOL    HW225617   0.052   2.122   3.922  2.3468  0.6905  3.1181
 4662SOL     OW25618   3.043   4.070   1.303  0.6530  0.0252  0.1426
 4662SOL    HW125619   3.114   4.078   1.367  0.2961 -2.7227  0.8693
 4662SOL    HW225620   3.081   4.016   1.235 -1.4541  0.0099 -1.0085
 4663SOL     OW25621   0.880   4.695   6.916  0.8634  0.1236 -0.2444
 4663SOL    HW125622   0.899   4.626   6.980  1.5707 -0.8871 -1.5443
 4663SOL    HW225623   0.880   4.647   6.833 -2.7359  0.6472 -0.5490
 4664SOL     OW25624   1.827   3.108   1.635 -0.2076 -0.4079  0.5181
 4664SOL    HW125625   1.842   3.092   1.542  1.3332  2.0890  0.3256
 4664SOL    HW225626   1.907   3.157   1.656 -0.0412  0.1389 -1.3869
 4665SOL     OW25627   3.367   0.941   7.921  0.0430  0.4143  0.0524
 4665SOL    HW125628   3.348   0.856   7.961  0.9829  0.7313  1.1777
 4665SOL    HW225629   3.461   0.938   7.939  0.5264  0.1300 -2.5064
 4666SOL     OW25630   2.106   2.953   6.362 -0.2044 -0.5072  0.0212
 4666SOL    HW125631   2.188   2.975   6.317 -0.7099 -0.2745 -0.7903
 4666SOL    HW225632   2.052   3.022   6.323  1.3139  0.3161 -0.6344
 4667SOL     OW25633   3.468   2.549   2.352  0.1013  0.1210  0.2040
 4667SOL    HW125634   3.430   2.462   2.369 -0.7209  0.6116  0.9007
 4667SOL    HW225635   3.413   2.601   2.410  1.7778  0.1636  1.7242
 4668SOL     OW25636   3.329   3.990  11.574  0.0320  0.0468 -0.5344
 4668SOL    HW125637   3.367   4.063  11.525 -0.4391  2.1826  2.3122
 4668SOL    HW225638   3.373   3.920  11.525  0.0337  0.3621 -0.9847
 4669SOL     OW25639   0.693   3.166   4.753 -1.0398  0.3412  0.3408
 4669SOL    HW125640   0.695   3.232   4.685 -0.6322 -1.3779 -1.3193
 4669SOL    HW225641   0.782   3.132   4.753 -0.9300  0.6499 -1.3215
 4670SOL     OW25642   0.716   1.933  16.502  0.2526 -0.0260 -0.1627
 4670SOL    HW125643   0.717   1.854  16.556  0.4970 -1.1537 -1.8446
 4670SOL    HW225644   0.809   1.942  16.482  0.0579 -0.0830 -1.0745
 4671SOL     OW25645   3.178   1.449   4.536 -0.2436 -0.6164  0.1799
 4671SOL    HW125646   3.134   1.374   4.574  1.0286 -1.7872 -0.6750
 4671SOL    HW225647   3.105   1.506   4.512  1.2539  0.3707 -2.0070
 4672SOL     OW25648   3.368   0.629  13.752  0.6111 -0.1677 -0.3010
 4672SOL    HW125649   3.352   0.567  13.681  1.7748 -0.2689 -0.4844
 4672SOL    HW225650   3.282   0.636  13.793  1.0386  2.6152  0.0771
 4673SOL     OW25651   2.274   3.179   2.006 -0.1263  0.1419  0.5130
 4673SOL    HW125652   2.355   3.223   1.981 -0.9994  1.6919  0.3507
 4673SOL    HW225653   2.317   3.138   2.081 -0.1094  0.6267  0.7677
 4674SOL     OW25654   1.814   2.231   1.763 -0.3714  0.3072 -0.2105
 4674SOL    HW125655   1.880   2.167   1.792 -1.0088 -0.6186 -0.8190
 4674SOL    HW225656   1.819   2.305   1.824 -0.1875  0.3178 -0.2393
 4675SOL     OW25657   0.720   2.720   9.566  0.1285  0.3183 -0.0356
 4675SOL    HW125658   0.748   2.725   9.474  2.1960 -2.3860  0.4386
 4675SOL    HW225659   0.717   2.628   9.591  1.5300  0.0872 -0.7253
 4676SOL     OW25660   2.489   3.349   3.507  0.5692 -0.1837  0.1600
 4676SOL    HW125661   2.543   3.390   3.575 -1.8376  1.8747  0.8499
 4676SOL    HW225662   2.407   3.386   3.542 -0.4366 -3.3752  1.1511
 4677SOL     OW25663   2.146   2.770   4.725  0.5351 -0.1166  0.0065
 4677SOL    HW125664   2.147   2.759   4.630  2.0597 -0.5972  0.0883
 4677SOL    HW225665   2.230   2.728   4.740  0.6980  0.2572  0.1409
 4678SOL     OW25666   0.499   0.219   7.161  0.4697  0.4789 -0.1008
 4678SOL    HW125667   0.419   0.183   7.123 -0.3292  1.4907  0.5935
 4678SOL    HW225668   0.557   0.150   7.129  2.4338  1.9186  0.3350
 4679SOL     OW25669   1.587   4.486   6.349 -0.1960 -0.5974  0.4996
 4679SOL    HW125670   1.644   4.561   6.332 -0.0915 -0.6686  0.5317
 4679SOL    HW225671   1.638   4.416   6.307  0.0936 -0.0543 -0.0551
 4680SOL     OW25672   0.396   4.386  16.824 -0.2344  0.3910  0.3132
 4680SOL    HW125673   0.448   4.467  16.824 -2.3145  1.7322 -0.1779
 4680SOL    HW225674   0.404   4.357  16.733  0.5483 -1.3431  0.9400
 4681SOL     OW25675   1.297   0.354   1.456 -0.1087 -0.1759 -0.0273
 4681SOL    HW125676   1.227   0.315   1.402 -0.4119  0.8667 -0.3980
 4681SOL    HW225677   1.276   0.444   1.428 -0.5066  0.2071  1.5248
 4682SOL     OW25678   1.808   1.293   1.535 -0.2931 -0.6784 -0.7095
 4682SOL    HW125679   1.777   1.371   1.581 -0.4774 -1.1713  0.0135
 4682SOL    HW225680   1.861   1.250   1.602 -0.9262  0.6081  0.6187
 4683SOL     OW25681   3.858   2.251   6.249 -0.3421 -0.2174  0.6562
 4683SOL    HW125682   3.780   2.250   6.304 -0.4168  0.2217  0.5568
 4683SOL    HW225683   3.825   2.200   6.175  0.8261  3.0145 -2.0830
 4684SOL     OW25684   4.735   2.761  10.193  0.3045  0.0233  0.3637
 4684SOL    HW125685   4.654   2.719  10.221  2.8497 -2.3174  4.2193
 4684SOL    HW225686   0.049   2.762  10.274  0.1605 -1.3451  0.4691
 4685SOL     OW25687   2.840   0.442   2.096 -0.2372  0.1655 -0.2655
 4685SOL    HW125688   2.820   0.522   2.048 -0.3567  1.1716  1.4512
 4685SOL    HW225689   2.781   0.375   2.061 -1.5964  1.0456  0.3114
 4686SOL     OW25690   2.993   3.824   4.517 -0.3320 -0.4802  0.3316
 4686SOL    HW125691   3.028   3.845   4.603  2.8332 -0.1532 -1.0560
 4686SOL    HW225692   3.073   3.820   4.464 -0.6539 -1.5163 -0.0819
 4687SOL     OW25693   1.807   0.487   2.811 -0.1679 -0.4756 -0.0981
 4687SOL    HW125694   1.844   0.574   2.823  1.0838 -0.8641 -1.1746
 4687SOL    HW225695   1.784   0.457   2.899  0.1319  1.5636  0.6584
 4688SOL     OW25696   2.371   0.580   4.466  0.3635  0.3406 -0.5499
 4688SOL    HW125697   2.348   0.521   4.394  1.8029 -1.0851  0.1630
 4688SOL    HW225698   2.432   0.531   4.520 -0.7616 -0.0597  0.3575
 4689SOL     OW25699   3.253   1.302   2.999  0.1951 -0.3261  0.0298
 4689SOL    HW125700   3.331   1.315   2.946 -1.4040  1.7615 -1.8181
 4689SOL    HW225701   3.278   1.345   3.082  1.9551 -0.4151 -0.4499
 4690SOL     OW25702   1.450   3.952   5.560 -0.3448  0.5894  0.1938
 4690SOL    HW125703   1.418   3.998   5.637 -0.9320  0.4388  0.0375
 4690SOL    HW225704   1.527   4.000   5.529  0.2341  0.4734  1.4480
 4691SOL     OW25705   4.385   4.097  10.940 -0.1602  0.2665 -0.0323
 4691SOL    HW125706   4.328   4.034  10.896 -0.3902 -1.4735  2.7409
 4691SOL    HW225707   4.467   4.071  10.897  0.3459  0.5853  0.7468
 4692SOL     OW25708   3.357   0.833   4.462 -0.3225  0.7425 -0.6192
 4692SOL    HW125709   3.431   0.775   4.442 -1.1228 -0.7638  0.7853
 4692SOL    HW225710   3.288   0.805   4.403  0.2221 -2.4352  0.2367
 4693SOL     OW25711   3.177   3.420   2.778 -0.1442 -0.0066  0.4752
 4693SOL    HW125712   3.210   3.450   2.862 -1.7286 -0.4922  1.2742
 4693SOL    HW225713   3.089   3.385   2.791  0.7962 -1.7899  2.0320
 4694SOL     OW25714   1.983   3.280   0.676  0.0419  0.1058  0.0886
 4694SOL    HW125715   1.993   3.374   0.685  2.9404 -0.1340 -0.7420
 4694SOL    HW225716   2.050   3.276   0.607 -0.6732  0.6540 -0.6402
 4695SOL     OW25717   3.106   4.572   5.542  0.0895 -0.6831 -0.3459
 4695SOL    HW125718   3.094   4.666   5.531 -0.5067 -0.9208 -1.6478
 4695SOL    HW225719   3.058   4.533   5.469 -3.5040  1.3453  0.9372
 4696SOL     OW25720   2.508   1.576   7.408  0.5033  0.5671  0.3858
 4696SOL    HW125721   2.424   1.617   7.389  0.0787 -0.6723 -0.4348
 4696SOL    HW225722   2.573   1.642   7.382  0.5528  0.3205 -0.1313
 4697SOL     OW25723   4.106   2.099   5.783 -0.4086  0.5894 -0.3905
 4697SOL    HW125724   4.045   2.069   5.850 -0.1942 -0.0855 -0.4937
 4697SOL    HW225725   4.181   2.104   5.841 -0.2771 -1.4088 -0.3879
 4698SOL     OW25726   3.127   0.121   8.313 -0.2068 -0.3615  0.0704
 4698SOL    HW125727   3.180   0.199   8.330  0.4972 -0.6819 -0.6504
 4698SOL    HW225728   3.157   0.099   8.225 -2.2240  1.2441 -1.0205
 4699SOL     OW25729   3.674   1.516  17.592  0.6451  0.5184 -0.2044
 4699SOL    HW125730   3.756   1.532  17.640  0.7059  0.8423 -0.4208
 4699SOL    HW225731   3.610   1.513  17.663  2.2344 -1.7093  1.1485
 4700SOL     OW25732   0.182   0.160   1.367  0.3034  0.4476 -0.3714
 4700SOL    HW125733   0.175   0.150   1.462 -1.8674 -0.2007 -0.5938
 4700SOL    HW225734   0.212   0.076   1.334  0.5646  0.4996 -0.2671
 4701SOL     OW25735   0.087   2.051   4.807 -0.2355 -0.3165 -0.3133
 4701SOL    HW125736   0.157   2.034   4.744 -3.2709 -1.3773 -3.4022
 4701SOL    HW225737   0.070   1.968   4.851  1.1728 -1.0851 -1.2282
 4702SOL     OW25738   0.224   2.875  15.948 -0.3350 -0.1707 -0.2025
 4702SOL    HW125739   0.176   2.874  16.031 -1.0278  1.1877 -0.5789
 4702SOL    HW225740   0.215   2.965  15.915 -0.0888 -0.4204 -0.9388
 4703SOL     OW25741   1.605   0.766   7.416 -0.5410  0.8816  0.7599
 4703SOL    HW125742   1.599   0.704   7.488  3.3769 -0.0107  0.3539
 4703SOL    HW225743   1.529   0.748   7.362  1.3059 -0.2570 -1.4574
 4704SOL     OW25744   4.361   2.246   9.170  0.2488  0.1352 -0.0072
 4704SOL    HW125745   4.281   2.241   9.221 -0.7268 -0.4328 -1.5697
 4704SOL    HW225746   4.369   2.165   9.118  1.5142  0.8995 -1.0031
 4705SOL     OW25747   2.272   3.589   7.107 -0.1788 -0.0371  0.0939
 4705SOL    HW125748   2.347   3.646   7.124 -1.0431  0.7957  1.0273
 4705SOL    HW225749   2.273   3.529   7.182  0.1792  0.6833  0.6630
 4706SOL     OW25750   3.081   1.077   0.730  0.2982 -0.8952  0.1842
 4706SOL    HW125751   3.115   1.112   0.647  0.3723 -1.1998  0.0846
 4706SOL    HW225752   3.121   1.134   0.795 -1.0621 -1.3048  1.3625
 4707SOL     OW25753   2.889   4.524   5.935  0.5381 -0.3590 -0.1367
 4707SOL    HW125754   2.844   4.515   5.851 -2.5038 -2.5818  1.7108
 4707SOL    HW225755   2.887   4.432   5.961  1.5016 -1.1924 -3.0355
 4708SOL     OW25756   0.018   3.537   8.851 -0.1850 -0.5712 -0.3467
 4708SOL    HW125757   4.682   3.482   8.822 -1.4917  1.9864 -1.9430
 4708SOL    HW225758   4.729   3.557   8.941  0.4053 -0.7613 -0.1361
 4709SOL     OW25759   2.168   3.469   1.958  0.1781  0.1942  0.3851
 4709SOL    HW125760   2.128   3.447   1.874 -1.1355  0.6930  0.8907
 4709SOL    HW225761   2.224   3.539   1.925 -1.5926  1.7912  0.8462
 4710SOL     OW25762   4.646   3.191   4.304 -0.8190 -0.0831 -0.4865
 4710SOL    HW125763   4.623   3.111   4.256 -0.5978  0.4618 -1.5062
 4710SOL    HW225764   4.653   3.258   4.235  5.1957  1.4778  1.7253
 4711SOL     OW25765   1.838   1.364   9.111 -0.3884 -0.2606  0.5410
 4711SOL    HW125766   1.931   1.384   9.103 -0.6169  0.2561 -0.7894
 4711SOL    HW225767   1.799   1.450   9.098 -1.2422 -0.7802 -0.2996
 4712SOL     OW25768   0.439   2.946   2.181 -0.3864 -0.6581  0.0884
 4712SOL    HW125769   0.453   2.865   2.229  0.0895 -0.7179 -0.1537
 4712SOL    HW225770   0.497   3.005   2.230 -0.3243  0.9003 -1.8727
 4713SOL     OW25771   2.585   3.372   3.965  0.4737  0.6970  0.4230
 4713SOL    HW125772   2.505   3.321   3.980  1.5892 -0.9266  0.8346
 4713SOL    HW225773   2.654   3.314   3.996 -0.0948  0.9570  2.1552
 4714SOL     OW25774   0.351   0.669   6.568  0.4807  0.5760  0.3282
 4714SOL    HW125775   0.257   0.668   6.550  0.4142  2.9115  0.5319
 4714SOL    HW225776   0.351   0.625   6.654 -1.0645  0.1768  0.1359
 4715SOL     OW25777   2.092   4.588   8.406 -0.0900  0.2169 -0.4082
 4715SOL    HW125778   2.066   4.655   8.470 -1.0174 -1.4711  0.9760
 4715SOL    HW225779   2.034   4.592   8.329 -0.1727 -2.2900 -0.4707
 4716SOL     OW25780   3.668   2.946   8.625 -0.0395 -0.3761 -0.3080
 4716SOL    HW125781   3.716   2.917   8.547  0.2264  2.7777 -1.2849
 4716SOL    HW225782   3.625   3.023   8.589  0.1887 -0.6706 -1.2333
 4717SOL     OW25783   0.981   2.042   6.109  0.4177  0.1861 -0.3101
 4717SOL    HW125784   0.898   2.067   6.152 -0.1588  0.1647 -1.4173
 4717SOL    HW225785   1.030   2.028   6.190 -0.8278 -1.5458  0.1335
 4718SOL     OW25786   4.696   2.892  13.804  0.2194 -0.1885  0.0532
 4718SOL    HW125787   4.712   2.894  13.710 -0.6876  2.3021 -0.0420
 4718SOL    HW225788   4.681   2.984  13.827 -1.1813 -0.0829 -1.3017
 4719SOL     OW25789   1.593   3.247  14.820 -0.1819  0.2069  0.0331
 4719SOL    HW125790   1.632   3.315  14.875 -1.3795  1.8414 -1.1099
 4719SOL    HW225791   1.533   3.299  14.766  0.8934 -0.6461 -1.9758
 4720SOL     OW25792   2.513   1.353   0.934  0.3780  0.3286 -0.2949
 4720SOL    HW125793   2.599   1.351   0.893  1.3756 -2.7477  1.9837
 4720SOL    HW225794   2.536   1.371   1.026 -1.8162  2.7436 -0.2217
 4721SOL     OW25795   0.115   2.965   7.841  0.1879 -0.6803  0.4153
 4721SOL    HW125796   0.033   2.932   7.875 -1.1206  1.8080 -0.3565
 4721SOL    HW225797   0.088   3.053   7.815 -0.4759 -1.2300 -0.7515
 4722SOL     OW25798   3.841   1.894   1.567  0.3003  0.2985 -0.6764
 4722SOL    HW125799   3.814   1.938   1.487 -2.1743 -0.5453 -0.3248
 4722SOL    HW225800   3.798   1.808   1.559  1.0437 -0.2526  1.1455
 4723SOL     OW25801   3.449   3.120   4.513  0.2337 -0.1523  0.3399
 4723SOL    HW125802   3.446   3.067   4.592 -0.9912 -1.3011 -0.4760
 4723SOL    HW225803   3.469   3.208   4.544  1.7591 -0.2575 -0.3657
 4724SOL     OW25804   3.056   3.171   0.039 -0.3316 -0.2080 -0.6017
 4724SOL    HW125805   3.002   3.171   0.118  0.3970 -0.2337 -0.1105
 4724SOL    HW225806   2.987   3.143  17.724 -1.2055  0.0132  0.2959
 4725SOL     OW25807   4.404   1.024   8.556 -0.1055  0.3090 -0.3767
 4725SOL    HW125808   4.490   1.064   8.561  0.3206 -0.8445  1.7023
 4725SOL    HW225809   4.414   0.949   8.615  0.8763  0.5200 -0.2878
 4726SOL     OW25810   2.298   4.287   0.300 -0.2512 -0.1316 -0.6709
 4726SOL    HW125811   2.261   4.288   0.388 -0.4815  0.6489 -0.7744
 4726SOL    HW225812   2.229   4.322   0.243 -0.3911 -0.2008 -0.5436
 4727SOL     OW25813   1.246   1.797   6.213 -0.3577 -0.2881  0.2959
 4727SOL    HW125814   1.217   1.785   6.123  0.8460 -0.1157 -0.1069
 4727SOL    HW225815   1.259   1.892   6.216  1.0257 -0.4451 -1.1759
 4728SOL     OW25816   3.084   1.536   2.761 -0.2946  0.2224 -0.6621
 4728SOL    HW125817   3.122   1.588   2.832  0.1101 -1.4218  0.3199
 4728SOL    HW225818   3.154   1.553   2.698  1.6483  0.0895  1.4298
 4729SOL     OW25819   0.054   3.051   4.876 -0.3557  0.0492  0.1890
 4729SOL    HW125820   0.134   3.034   4.825 -0.9547 -0.3526 -0.6176
 4729SOL    HW225821   0.068   3.142   4.904  1.7648  0.5020 -2.3121
 4730SOL     OW25822   1.385   1.744  13.312 -0.2218 -0.1344 -0.2625
 4730SOL    HW125823   1.315   1.732  13.248  0.2694 -1.2619 -0.5987
 4730SOL    HW225824   1.467   1.765  13.266  0.5160 -3.0555 -0.2999
 4731SOL     OW25825   3.015   2.899   2.753  0.7894 -0.2874 -0.2617
 4731SOL    HW125826   2.967   2.824   2.788 -0.8423  0.2079 -1.4465
 4731SOL    HW225827   2.940   2.954   2.728  0.6428 -0.9487 -1.2706
 4732SOL     OW25828   1.369   1.643  16.932  0.2261  0.2740 -0.0923
 4732SOL    HW125829   1.312   1.581  16.978 -1.9861  1.3399 -1.4084
 4732SOL    HW225830   1.403   1.700  17.001 -1.1064 -0.1611  0.9285
 4733SOL     OW25831   2.995   2.578   2.191  0.1117 -0.9130  0.1968
 4733SOL    HW125832   3.070   2.519   2.197 -0.0358 -1.0294  0.9777
 4733SOL    HW225833   2.926   2.515   2.215 -1.4029  0.5922 -0.2260
 4734SOL     OW25834   4.588   0.213   8.416 -0.3492 -0.2078 -0.0905
 4734SOL    HW125835   4.606   0.230   8.509  1.4121 -0.4767 -0.3820
 4734SOL    HW225836   4.499   0.179   8.429 -0.9625  1.9766  1.3638
 4735SOL     OW25837   1.299   4.435   4.445  0.5528 -0.0237  0.4852
 4735SOL    HW125838   1.280   4.520   4.403  1.9224  0.5705  1.0817
 4735SOL    HW225839   1.220   4.385   4.423 -0.6324  1.2476  1.8354
 4736SOL     OW25840   0.909   2.470   0.803 -0.1001  0.0648  0.4005
 4736SOL    HW125841   0.900   2.431   0.890 -0.9664  0.3302  0.4391
 4736SOL    HW225842   0.971   2.407   0.768 -1.2480  0.1934 -1.8436
 4737SOL     OW25843   1.013   2.377   2.488  0.2429  0.8485  0.3593
 4737SOL    HW125844   1.080   2.446   2.492 -0.1745  1.3612 -1.7626
 4737SOL    HW225845   1.067   2.302   2.464  0.0148  0.4484  1.0868
 4738SOL     OW25846   0.239   2.564   3.913 -1.0187 -0.2249  0.3456
 4738SOL    HW125847   0.202   2.482   3.880  1.7310 -1.6954  0.9352
 4738SOL    HW225848   0.196   2.564   3.999 -1.2646  1.6988  0.2131
 4739SOL     OW25849   1.650   1.604  15.758  0.4663  0.3965  0.2802
 4739SOL    HW125850   1.719   1.566  15.704  0.8266  0.0950  0.9468
 4739SOL    HW225851   1.648   1.696  15.731 -0.4948  0.2703 -0.0836
 4740SOL     OW25852   0.581   2.613  12.919 -0.0940  0.0907 -0.2689
 4740SOL    HW125853   0.549   2.702  12.935  0.8418  0.7839 -2.2877
 4740SOL    HW225854   0.673   2.632  12.939 -0.1470 -0.5596  0.5947
 4741SOL     OW25855   0.582   3.585   5.296  0.0316  0.8430 -0.1442
 4741SOL    HW125856   0.517   3.532   5.342 -0.0455  0.4910 -0.6631
 4741SOL    HW225857   0.627   3.623   5.371  0.8191 -0.0850 -0.1353
 4742SOL     OW25858   4.650   0.055  13.587  0.2320  0.1298 -0.0593
 4742SOL    HW125859   4.662   0.075  13.494  0.3713 -1.9754 -0.4991
 4742SOL    HW225860   4.696   0.132  13.620 -2.2181  0.9831  1.4150
 4743SOL     OW25861   0.608   2.146   6.483  0.0228 -0.8890  0.5297
 4743SOL    HW125862   0.516   2.118   6.488  0.1770 -1.5948 -0.5956
 4743SOL    HW225863   0.645   2.122   6.568  0.4639  0.6601  0.7680
 4744SOL     OW25864   2.465   4.328  10.708 -0.1680  0.0710 -0.1864
 4744SOL    HW125865   2.439   4.256  10.767 -2.5399  0.3214 -0.9158
 4744SOL    HW225866   2.413   4.308  10.631  0.1251  0.2038 -0.4171
 4745SOL     OW25867   3.032   4.512   0.978 -0.3569  0.4114  0.1484
 4745SOL    HW125868   3.110   4.561   0.951 -0.5553  0.0126 -1.1113
 4745SOL    HW225869   3.062   4.476   1.062  1.5849  0.6605 -0.4276
 4746SOL     OW25870   0.162   2.775   9.298 -0.8393  0.3234  0.5566
 4746SOL    HW125871   0.085   2.776   9.354 -0.4174  0.8210  1.1271
 4746SOL    HW225872   0.176   2.681   9.288  1.0708  0.4379  2.0974
 4747SOL     OW25873   0.378   3.155   9.096  0.1570  0.3112  0.1815
 4747SOL    HW125874   0.329   3.102   9.159  3.2157 -1.7747  0.8044
 4747SOL    HW225875   0.368   3.103   9.016  0.7251  1.3529 -0.5599
 4748SOL     OW25876   4.565   0.456   5.877 -0.1418  0.3762 -0.2660
 4748SOL    HW125877   4.635   0.445   5.941  0.1691 -1.1638 -0.8839
 4748SOL    HW225878   4.503   0.508   5.928 -1.2119 -0.3678 -0.7955
 4749SOL     OW25879   4.024   4.057  15.797  0.3860  0.2710 -1.0420
 4749SOL    HW125880   4.063   4.022  15.876 -0.5110  2.0687  0.2138
 4749SOL    HW225881   4.020   3.981  15.739  2.1274 -0.0069 -0.7759
 4750SOL     OW25882   3.750   2.784   7.004  0.1022 -0.4132  0.0067
 4750SOL    HW125883   3.747   2.880   7.001  2.5426 -0.2845  1.6170
 4750SOL    HW225884   3.818   2.775   7.070  0.9951  1.4481 -0.6366
 4751SOL     OW25885   2.476   2.541  15.416  0.3121 -0.0664  0.1099
 4751SOL    HW125886   2.561   2.513  15.450 -0.8996 -2.6167  1.0666
 4751SOL    HW225887   2.430   2.508  15.493  0.0794 -0.0461 -0.0208
 4752SOL     OW25888   3.275   2.729   2.189  0.0028 -0.0575 -0.1337
 4752SOL    HW125889   3.188   2.719   2.150  1.2495 -0.9441 -2.7373
 4752SOL    HW225890   3.278   2.656   2.251 -0.2441 -0.4304 -0.5508
 4753SOL     OW25891   1.218   3.914   7.417  0.3230  0.5680 -0.3036
 4753SOL    HW125892   1.290   3.915   7.354  0.8833 -0.5084  0.3198
 4753SOL    HW225893   1.242   3.835   7.466  0.2069 -0.1697 -1.4316
 4754SOL     OW25894   2.790   2.696   3.060 -0.0483  0.0180 -0.7249
 4754SOL    HW125895   2.762   2.699   3.151  2.7111 -0.1554  0.1217
 4754SOL    HW225896   2.863   2.757   3.061  0.2423 -0.3530  0.2541
 4755SOL     OW25897   4.198   1.237  12.394 -0.5757 -0.2075  0.7671
 4755SOL    HW125898   4.279   1.222  12.443  0.9541 -0.0916 -1.7608
 4755SOL    HW225899   4.169   1.147  12.407  0.0979 -0.5329 -0.0336
 4756SOL     OW25900   0.167   4.236  15.163  0.2925  0.6190 -0.1280
 4756SOL    HW125901   0.097   4.241  15.228  1.4557 -0.2044  1.1970
 4756SOL    HW225902   0.138   4.300  15.098 -0.9045 -0.1980 -0.3910
 4757SOL     OW25903   2.555   2.113   2.655 -0.4654  0.2531  0.1348
 4757SOL    HW125904   2.516   2.176   2.595  1.7728 -1.8558 -3.5432
 4757SOL    HW225905   2.521   2.032   2.617  1.5737 -0.7794  0.5078
 4758SOL     OW25906   2.215   1.762  14.092  0.1692  0.1890 -0.4432
 4758SOL    HW125907   2.132   1.772  14.138  0.2122 -3.2666  0.4022
 4758SOL    HW225908   2.253   1.741  14.177 -0.7776 -2.3223 -0.6292
 4759SOL     OW25909   2.334   2.322   9.065 -0.5569 -0.5495 -0.7094
 4759SOL    HW125910   2.395   2.248   9.057 -1.7445 -1.5251 -0.7264
 4759SOL    HW225911   2.389   2.393   9.098 -1.2472 -0.6306  0.6210
 4760SOL     OW25912   3.718   3.317  13.357  0.0103 -1.1807 -0.2477
 4760SOL    HW125913   3.656   3.382  13.324  2.2177  0.0421 -1.9750
 4760SOL    HW225914   3.800   3.366  13.359  0.3134 -1.6636 -1.2880
 4761SOL     OW25915   0.165   3.145   7.364  0.7268  0.8791  0.1025
 4761SOL    HW125916   0.095   3.168   7.303 -0.3013  0.1825  1.0115
 4761SOL    HW225917   0.111   3.131   7.442 -1.6060  0.0444 -1.6375
 4762SOL     OW25918   3.084   1.211  11.437  0.2392  0.5494 -0.2684
 4762SOL    HW125919   3.141   1.164  11.375 -1.1017  0.0782 -1.1323
 4762SOL    HW225920   3.129   1.179  11.516 -0.2687 -0.1431 -0.2586
 4763SOL     OW25921   0.045   4.133  11.044 -0.5828 -0.5845 -0.3372
 4763SOL    HW125922   0.075   4.047  11.017 -1.1011 -1.2734  1.2633
 4763SOL    HW225923   0.095   4.156  11.123 -0.8887 -0.8611 -0.0605
 4764SOL     OW25924   2.231   0.926   6.483  0.4558  0.2863 -0.3032
 4764SOL    HW125925   2.276   0.843   6.464  0.2782  0.6416 -2.3467
 4764SOL    HW225926   2.145   0.910   6.521  1.4978 -0.3517  1.7398
 4765SOL     OW25927   0.685   2.207   2.846  0.5917 -0.6738 -0.4305
 4765SOL    HW125928   0.717   2.272   2.784  2.0124 -0.6454  0.3201
 4765SOL    HW225929   0.766   2.183   2.892  0.7741 -1.7313 -1.3109
 4766SOL     OW25930   2.990   1.271  10.567  0.4063 -0.1458 -0.1010
 4766SOL    HW125931   2.939   1.344  10.601 -0.5092 -0.9636  0.2760
 4766SOL    HW225932   2.923   1.203  10.563  2.0918 -1.8257  0.1853
 4767SOL     OW25933   3.550   4.192   4.198 -0.0694  0.1586  0.2285
 4767SOL    HW125934   3.519   4.274   4.160 -0.5058  0.3793  1.0584
 4767SOL    HW225935   3.550   4.214   4.291 -1.0844  0.0179  0.2688
 4768SOL     OW25936   4.158   0.105   5.884 -0.0284  0.0733  0.0686
 4768SOL    HW125937   4.206   0.184   5.860  1.6206  0.0735  3.3046
 4768SOL    HW225938   4.137   0.118   5.976 -0.7654 -0.8147  0.0335
 4769SOL     OW25939   0.640   1.808   4.973 -0.1022  0.2046 -0.0126
 4769SOL    HW125940   0.643   1.746   4.900  1.5372 -0.5644  0.7015
 4769SOL    HW225941   0.723   1.855   4.964  0.8231 -1.6402 -1.1764
 4770SOL     OW25942   4.246   1.748   4.958  0.4394  0.1169 -0.5017
 4770SOL    HW125943   4.182   1.677   4.958 -0.5594  1.0383  3.4475
 4770SOL    HW225944   4.192   1.821   4.989 -2.4233 -2.2420  0.0014
 4771SOL     OW25945   4.708   0.743   7.064  0.1751 -0.5479  0.0057
 4771SOL    HW125946   4.661   0.663   7.042 -0.8234 -0.0388  0.3010
 4771SOL    HW225947   4.677   0.753   7.154 -0.5692  1.4809 -0.4676
 4772SOL     OW25948   4.714   3.368  10.979 -0.4750 -0.4806  0.1569
 4772SOL    HW125949   0.014   3.298  11.032  0.5727  0.1896  0.3274
 4772SOL    HW225950   4.622   3.359  11.005 -1.1725  0.6431 -1.9423
 4773SOL     OW25951   4.452   2.333   6.357 -0.7216 -0.2883 -0.0468
 4773SOL    HW125952   4.366   2.371   6.340 -0.0408  1.9881  1.6168
 4773SOL    HW225953   4.505   2.361   6.282  0.3442  0.4292  0.9823
 4774SOL     OW25954   4.680   4.355   5.094  0.3335  0.3825 -0.2303
 4774SOL    HW125955   4.714   4.272   5.060  1.3504  0.1418  1.3844
 4774SOL    HW225956   4.700   4.343   5.187  1.8658 -0.2066 -0.6307
 4775SOL     OW25957   2.579   0.826   9.537  0.3634  0.4304 -0.4699
 4775SOL    HW125958   2.550   0.835   9.628 -0.8786 -1.3814 -0.6813
 4775SOL    HW225959   2.538   0.900   9.493  0.1392 -0.7884 -2.2842
 4776SOL     OW25960   0.522   4.123  13.073  0.3481  0.3182  0.1371
 4776SOL    HW125961   0.430   4.142  13.055  0.6186 -1.2258 -2.7945
 4776SOL    HW225962   0.517   4.100  13.166  1.0806  1.5158  0.4647
 4777SOL     OW25963   0.251   0.819   3.949 -0.7324 -0.7163 -0.2095
 4777SOL    HW125964   0.175   0.860   3.990  1.0823  0.5515  1.9182
 4777SOL    HW225965   0.308   0.806   4.025  0.8263 -0.9198 -1.4030
 4778SOL     OW25966   2.857   4.021   8.454  0.2692  0.0090  0.5012
 4778SOL    HW125967   2.936   3.974   8.481 -0.6626  0.0453  3.3464
 4778SOL    HW225968   2.788   3.990   8.514 -0.8873  0.0323 -0.8113
 4779SOL     OW25969   2.351   2.638   7.948 -0.5391  0.3493  0.1334
 4779SOL    HW125970   2.299   2.696   8.002 -0.6428  0.8881 -0.5422
 4779SOL    HW225971   2.384   2.704   7.887 -0.7604  0.7583  0.4633
 4780SOL     OW25972   2.089   4.432  14.047 -0.7600 -0.6724 -0.5002
 4780SOL    HW125973   2.088   4.344  14.084 -1.3051 -0.1643  0.6943
 4780SOL    HW225974   2.025   4.432  13.976  0.9108  0.8765 -2.0133
 4781SOL     OW25975   0.519   2.027   5.412  0.8166 -0.1588  0.6269
 4781SOL    HW125976   0.576   1.968   5.363  0.5073  0.9014 -0.9898
 4781SOL    HW225977   0.527   1.993   5.501  2.9308 -0.7220  0.2411
 4782SOL     OW25978   3.807   3.600  17.054  0.2619 -0.0675  0.0039
 4782SOL    HW125979   3.772   3.513  17.073  0.0787 -0.1043 -0.4796
 4782SOL    HW225980   3.898   3.585  17.030  0.1459 -5.2857  2.9483
 4783SOL     OW25981   0.892   3.729   9.363 -0.0117 -0.1239  0.0683
 4783SOL    HW125982   0.808   3.774   9.371  0.1681  0.0008  1.2907
 4783SOL    HW225983   0.903   3.706   9.271  0.8279 -2.0492  0.6561
 4784SOL     OW25984   0.533   2.091   2.145  0.1407 -0.0842  0.2708
 4784SOL    HW125985   0.554   2.141   2.066 -1.9912 -0.0446 -0.2825
 4784SOL    HW225986   0.615   2.045   2.162  0.5075  0.1808 -0.7764
 4785SOL     OW25987   2.699   4.336  15.346 -0.0087 -0.4779  0.2671
 4785SOL    HW125988   2.604   4.333  15.334 -0.0767 -2.4554  1.3736
 4785SOL    HW225989   2.717   4.258  15.397  0.4352 -0.1529  0.6083
 4786SOL     OW25990   0.671   4.668   5.552 -0.2815 -0.5771 -0.6021
 4786SOL    HW125991   0.628   4.727   5.613  2.8275 -0.7796  1.7813
 4786SOL    HW225992   0.647   4.704   5.467 -0.3226 -0.1106 -0.3894
 4787SOL     OW25993   2.360   0.901   5.639 -0.0206 -0.7596 -0.1868
 4787SOL    HW125994   2.283   0.923   5.586 -0.6580  0.8062  1.4077
 4787SOL    HW225995   2.374   0.809   5.613 -1.6866 -0.3904 -2.4336
 4788SOL     OW25996   2.251   0.693   4.179 -0.7915 -0.1566  0.0927
 4788SOL    HW125997   2.237   0.599   4.163  0.6003 -0.6870  2.0752
 4788SOL    HW225998   2.159   0.714   4.194 -0.6650 -0.2684  0.9924
 4789SOL     OW25999   1.525   1.722  15.117  0.2310 -0.0890 -0.7013
 4789SOL    HW126000   1.460   1.723  15.047  1.1852 -2.1108 -1.6214
 4789SOL    HW226001   1.599   1.672  15.082 -0.2302  0.4291 -2.3807
 4790SOL     OW26002   0.285   3.065   9.636  0.1656  0.0350  0.2829
 4790SOL    HW126003   0.352   2.999   9.651 -0.0796 -1.6514 -5.7919
 4790SOL    HW226004   0.327   3.133   9.689 -1.0447  0.1275  1.1120
 4791SOL     OW26005   3.447   2.150  10.320  0.2167 -0.3239  0.7642
 4791SOL    HW126006   3.514   2.120  10.381 -0.7634 -3.6295  0.2190
 4791SOL    HW226007   3.380   2.083  10.335 -1.2759  0.7308 -1.2612
 4792SOL     OW26008   2.240   1.209   8.613 -0.2988  0.3072  0.2974
 4792SOL    HW126009   2.302   1.197   8.541 -2.4673  1.3626 -1.7458
 4792SOL    HW226010   2.214   1.119   8.632  0.9662  0.2186  1.6056
 4793SOL     OW26011   3.491   2.622   4.553  0.9035 -0.2596 -0.2933
 4793SOL    HW126012   3.569   2.580   4.517 -0.6148 -2.9221 -0.4553
 4793SOL    HW226013   3.477   2.554   4.619 -0.7737  0.0059 -0.3708
 4794SOL     OW26014   3.057   1.831  17.504 -0.4212 -0.1215  0.0416
 4794SOL    HW126015   3.083   1.900  17.565 -1.5536 -0.2906  0.7026
 4794SOL    HW226016   2.964   1.832  17.525 -0.6797 -4.1766 -0.8017
 4795SOL     OW26017   0.634   0.220   5.008 -0.1884  0.1933 -0.0638
 4795SOL    HW126018   0.581   0.143   4.987  1.7679 -0.3727 -2.9153
 4795SOL    HW226019   0.714   0.189   5.050 -0.3373 -0.5895 -0.3464
 4796SOL     OW26020   1.139   3.674  16.247  0.0459 -0.1970  0.2414
 4796SOL    HW126021   1.077   3.670  16.174 -0.3410 -0.1696  0.5700
 4796SOL    HW226022   1.074   3.655  16.315 -0.6907  2.0254  0.1808
 4797SOL     OW26023   2.776   0.143   3.892 -0.2263 -0.0697  0.1023
 4797SOL    HW126024   2.697   0.138   3.837 -1.2179  2.5571  1.3166
 4797SOL    HW226025   2.803   0.232   3.871 -2.8861 -0.0347 -3.2215
 4798SOL     OW26026   0.237   0.508   8.962 -0.1427 -0.3091  0.3515
 4798SOL    HW126027   0.209   0.585   9.011 -2.5448 -0.7633 -0.3403
 4798SOL    HW226028   0.236   0.434   9.023 -0.0143 -1.4044 -0.9578
 4799SOL     OW26029   0.139   1.936   2.802 -0.1408  0.9219  0.5539
 4799SOL    HW126030   0.165   1.846   2.820  2.7249  1.5459 -0.4516
 4799SOL    HW226031   0.066   1.945   2.863  0.0265  1.9488  0.6075
 4800SOL     OW26032   4.681   0.111   8.185  0.3759 -0.7286 -0.0837
 4800SOL    HW126033   4.640   0.140   8.267  0.5952  1.6216 -0.8206
 4800SOL    HW226034   0.033   0.132   8.212 -0.5888 -0.5121  2.9758
 4801SOL     OW26035   2.010   0.522  14.911 -0.2417  0.5924 -0.6446
 4801SOL    HW126036   1.969   0.608  14.914 -0.2686  0.4931  1.3695
 4801SOL    HW226037   2.092   0.535  14.957 -0.5961  0.8565 -0.0931
 4802SOL     OW26038   3.696   1.476   6.487  0.2517 -0.3429 -0.0774
 4802SOL    HW126039   3.783   1.441   6.465  1.0122  1.5916 -0.2043
 4802SOL    HW226040   3.699   1.552   6.429 -0.1738 -2.2569 -2.5924
 4803SOL     OW26041   2.705   0.641   1.379  0.0471  0.3509 -0.5850
 4803SOL    HW126042   2.699   0.565   1.437  0.3039  1.3052  0.7010
 4803SOL    HW226043   2.613   0.659   1.358 -0.3429  3.4243  3.6881
 4804SOL     OW26044   1.896   4.281   2.600 -0.6371  0.0572  0.7607
 4804SOL    HW126045   1.977   4.235   2.577 -0.8189 -0.0837  0.4050
 4804SOL    HW226046   1.868   4.298   2.511 -0.8554 -2.5562  0.3445
 4805SOL     OW26047   2.549   2.516   6.945  0.7119  0.3722 -0.4566
 4805SOL    HW126048   2.579   2.605   6.964 -1.7383  1.2655 -0.7819
 4805SOL    HW226049   2.555   2.468   7.028  0.5380 -0.0783 -0.7040
 4806SOL     OW26050   2.524   0.197   7.658 -0.2144 -0.4660  0.0453
 4806SOL    HW126051   2.492   0.243   7.580 -1.3474 -0.4776  0.5015
 4806SOL    HW226052   2.481   0.113   7.646 -0.3213 -0.5563  1.0835
 4807SOL     OW26053   3.390   4.012  16.046  0.2784  0.0853 -0.0267
 4807SOL    HW126054   3.321   3.946  16.054  0.6130 -0.2366  0.1856
 4807SOL    HW226055   3.464   3.968  16.004  2.0130  1.1138  1.9564
 4808SOL     OW26056   4.409   4.130   5.444  0.1793 -0.4060  0.1084
 4808SOL    HW126057   4.398   4.035   5.450 -1.0202 -0.0734  2.9845
 4808SOL    HW226058   4.415   4.163   5.534 -0.1467 -2.0994  0.7520
 4809SOL     OW26059   0.360   1.123   5.235  1.1188 -0.0267 -0.6696
 4809SOL    HW126060   0.383   1.176   5.159 -0.2645  0.1580 -0.9579
 4809SOL    HW226061   0.355   1.185   5.308 -3.1351 -0.8588 -0.2335
 4810SOL     OW26062   1.522   0.821   3.793  0.2976 -0.8086  0.0142
 4810SOL    HW126063   1.514   0.792   3.884 -1.9847  4.2560  1.3679
 4810SOL    HW226064   1.456   0.774   3.741  1.0451 -1.7034 -0.1395
 4811SOL     OW26065   2.053   4.415   1.583  0.2225  0.1084 -0.6955
 4811SOL    HW126066   2.134   4.465   1.577  0.6366 -0.7179 -2.1220
 4811SOL    HW226067   1.998   4.474   1.532  2.1243  2.3169 -0.1907
 4812SOL     OW26068   2.466   3.067   1.541  0.2506 -0.1524  0.1183
 4812SOL    HW126069   2.435   3.156   1.525  1.2667 -0.6020 -4.3945
 4812SOL    HW226070   2.509   3.047   1.457  2.0684 -2.0090  1.5004
 4813SOL     OW26071   4.576   0.504   7.025 -0.6286  0.1717  0.4970
 4813SOL    HW126072   4.513   0.433   7.015 -0.3169 -0.0447  0.0747
 4813SOL    HW226073   4.638   0.466   7.087  0.7475  0.5174 -0.6657
 4814SOL     OW26074   1.738   3.890   6.227 -0.2706  0.0356 -0.0777
 4814SOL    HW126075   1.774   3.839   6.299 -0.9483 -1.3521 -0.7101
 4814SOL    HW226076   1.677   3.949   6.270 -1.7010  0.7997 -3.0877
 4815SOL     OW26077   3.884   2.485   6.559 -0.2348 -0.4796 -0.3428
 4815SOL    HW126078   3.873   2.531   6.643  0.7601 -0.3017 -0.3020
 4815SOL    HW226079   3.854   2.397   6.582 -0.7173 -0.4940 -1.0448
 4816SOL     OW26080   4.415   2.146   2.045 -0.5364  0.2304  0.1448
 4816SOL    HW126081   4.506   2.145   2.015 -0.5394  2.7377  0.0987
 4816SOL    HW226082   4.374   2.126   1.960  0.0347 -0.8576  0.1250
 4817SOL     OW26083   0.562   4.475   7.836  0.6774  0.1722  0.3468
 4817SOL    HW126084   0.503   4.483   7.911 -0.3868 -0.2445 -0.4421
 4817SOL    HW226085   0.625   4.413   7.872 -2.5676 -3.4580 -0.3272
 4818SOL     OW26086   2.567   2.915   9.932  0.0475  0.4725 -0.5585
 4818SOL    HW126087   2.479   2.879   9.928  0.3160 -0.3308  0.5663
 4818SOL    HW226088   2.557   2.978   9.860 -2.0447 -0.8509 -1.4006
 4819SOL     OW26089   0.289   0.422   3.150 -0.2834 -0.5783 -0.2755
 4819SOL    HW126090   0.372   0.374   3.144 -0.3009 -0.7617  0.9468
 4819SOL    HW226091   0.310   0.503   3.103 -1.8164  0.5261  0.9632
 4820SOL     OW26092   4.690   4.654   1.232 -0.1683  0.6682 -0.4818
 4820SOL    HW126093   4.601   4.664   1.266 -0.6927 -3.5234 -0.6760
 4820SOL    HW226094   4.681   4.687   1.142 -2.0784  2.4953  0.3523
 4821SOL     OW26095   1.364   1.849  12.033  0.0457 -0.4388 -0.3427
 4821SOL    HW126096   1.329   1.937  12.032  1.6530  0.2445  1.8790
 4821SOL    HW226097   1.303   1.808  12.095  0.7096 -1.1115 -0.1329
 4822SOL     OW26098   1.121   2.276   5.736  0.3119 -0.3255 -0.5507
 4822SOL    HW126099   1.187   2.236   5.678  0.7681 -0.9207  0.3797
 4822SOL    HW226100   1.163   2.354   5.772 -1.2244  1.8332 -3.4238
 4823SOL     OW26101   1.102   3.752   7.922 -0.3749 -0.5421 -0.0026
 4823SOL    HW126102   1.084   3.821   7.985  0.0995  0.1058 -0.5832
 4823SOL    HW226103   1.038   3.772   7.854 -0.4590 -0.3951  0.1216
 4824SOL     OW26104   1.845   3.025  12.566 -0.1673 -0.1895 -0.2671
 4824SOL    HW126105   1.922   3.019  12.510  0.2351  1.9844  0.0641
 4824SOL    HW226106   1.862   3.119  12.577 -0.3787 -0.2513  0.6314
 4825SOL     OW26107   4.145   3.051   4.129 -0.3642  0.3678 -0.4724
 4825SOL    HW126108   4.209   3.040   4.058 -1.6403 -0.1055 -1.5503
 4825SOL    HW226109   4.188   3.069   4.213  0.6277 -2.1687 -0.4219
 4826SOL     OW26110   2.487   3.512   1.031 -0.4418 -0.1564  0.5940
 4826SOL    HW126111   2.498   3.517   1.126  2.4024  0.4018  0.2162
 4826SOL    HW226112   2.535   3.585   0.994  1.5827 -0.7054  2.1435
 4827SOL     OW26113   4.430   0.423   4.540 -0.1755  0.0765 -0.0927
 4827SOL    HW126114   4.415   0.400   4.631  0.0835  0.6691  0.1028
 4827SOL    HW226115   4.495   0.355   4.520 -0.8706 -0.6560  0.1666
 4828SOL     OW26116   0.388   2.402   6.440  0.2600 -0.0906 -0.5479
 4828SOL    HW126117   0.342   2.480   6.409 -0.0277  0.2293  0.6573
 4828SOL    HW226118   0.322   2.365   6.498  1.4793 -1.2790  0.0800
 4829SOL     OW26119   0.640   2.992   2.914 -0.2013  0.7568  0.2419
 4829SOL    HW126120   0.687   2.910   2.929 -2.5306 -0.6508 -0.2007
 4829SOL    HW226121   0.665   3.038   2.995 -1.9107 -0.3714  1.4313
 4830SOL     OW26122   1.037   4.180  15.728  0.7427  0.1543 -0.0872
 4830SOL    HW126123   1.067   4.258  15.682  0.3532  0.4129  0.0894
 4830SOL    HW226124   1.010   4.217  15.812 -1.3398 -0.0860 -0.6405
 4831SOL     OW26125   3.188   3.497   2.092  0.3469 -0.1611  0.1255
 4831SOL    HW126126   3.180   3.511   2.186 -1.3265  1.0437 -0.1885
 4831SOL    HW226127   3.281   3.515   2.086  0.5946 -1.5162 -0.1367
 4832SOL     OW26128   2.254   2.901  13.772  0.0939 -0.1686 -0.0143
 4832SOL    HW126129   2.272   2.967  13.705 -1.0500 -0.0981 -0.2563
 4832SOL    HW226130   2.282   2.817  13.735 -2.1074 -1.5359  1.3983
 4833SOL     OW26131   0.202   1.186   8.163 -0.4976 -0.2361 -0.1080
 4833SOL    HW126132   0.112   1.161   8.185 -0.0283 -0.3217  1.6715
 4833SOL    HW226133   0.218   1.158   8.073 -0.1152 -0.6799  0.0984
 4834SOL     OW26134   2.884   1.162   3.467 -0.1218 -0.0530 -0.0446
 4834SOL    HW126135   2.878   1.158   3.371  0.3470  1.8269 -0.1585
 4834SOL    HW226136   2.791   1.176   3.484 -0.1054 -0.1454  0.1145
 4835SOL     OW26137   3.850   3.174   8.768  0.3387  0.2096 -0.4091
 4835SOL    HW126138   3.938   3.155   8.736 -0.5030 -1.1187 -1.9706
 4835SOL    HW226139   3.799   3.101   8.732 -2.1169  0.6170  2.2363
 4836SOL     OW26140   3.330   0.107   1.136  0.6117 -0.1583 -0.6972
 4836SOL    HW126141   3.283   0.052   1.200  0.6043  2.7582  1.7990
 4836SOL    HW226142   3.315   0.050   1.061 -0.0920 -0.4262 -0.3604
 4837SOL     OW26143   3.946   0.004   3.060  0.1306  0.7174  1.0672
 4837SOL    HW126144   3.998   4.665   3.087 -0.3584 -0.4949 -1.4036
 4837SOL    HW226145   3.956   0.055   3.140  2.7137  0.1118  1.1403
 4838SOL     OW26146   4.370   3.499   8.711  0.2663 -0.3774  0.0933
 4838SOL    HW126147   4.304   3.530   8.650 -0.1534 -2.2587 -0.4076
 4838SOL    HW226148   4.418   3.581   8.721  3.1625 -1.8767 -1.5246
 4839SOL     OW26149   4.415   1.218   4.208  0.2171 -0.2659  0.1734
 4839SOL    HW126150   4.360   1.194   4.283 -0.2955  3.0729  0.8524
 4839SOL    HW226151   4.412   1.314   4.204  0.3362 -0.2550  0.3457
 4840SOL     OW26152   2.037   4.730   1.861  0.2752 -0.2737  0.6421
 4840SOL    HW126153   2.108   0.009   1.924  1.8895 -1.7221 -0.8078
 4840SOL    HW226154   1.983   4.677   1.919  0.5932 -0.2772  0.9359
 4841SOL     OW26155   0.924   0.972  11.533  0.2902  0.3891 -0.3566
 4841SOL    HW126156   0.946   0.932  11.617  0.1265 -0.6574 -0.8185
 4841SOL    HW226157   0.829   0.970  11.546  0.3078  0.5848 -0.1955
 4842SOL     OW26158   0.033   1.086   3.568  0.2215  0.3752 -0.6570
 4842SOL    HW126159   4.714   1.091   3.646  0.6474 -1.0418 -0.2656
 4842SOL    HW226160   4.717   1.027   3.515  2.6199 -1.6267 -0.8081
 4843SOL     OW26161   3.756   4.659   5.507  0.3481  0.1185 -0.0415
 4843SOL    HW126162   3.835   4.608   5.492  1.8555  2.5797 -0.5744
 4843SOL    HW226163   3.797   0.006   5.486 -0.9576  0.2948 -1.8659
 4844SOL     OW26164   2.856   3.241   4.750 -0.1473 -0.0933  0.2794
 4844SOL    HW126165   2.810   3.159   4.729  1.2306 -0.1917 -2.3797
 4844SOL    HW226166   2.945   3.208   4.762 -0.2452  0.2455  1.9121
 4845SOL     OW26167   1.158   0.116   7.328  0.3703  0.7307  0.6003
 4845SOL    HW126168   1.183   0.177   7.397 -0.6406  0.3707  1.2759
 4845SOL    HW226169   1.127   0.042   7.379  3.1172 -1.2293 -0.5923
 4846SOL     OW26170   0.576   4.245  12.814 -0.1276  0.1147 -0.4929
 4846SOL    HW126171   0.499   4.255  12.758 -0.8346  0.6469  0.5739
 4846SOL    HW226172   0.535   4.181  12.873  1.2420  0.2505  0.5963
 4847SOL     OW26173   4.453   4.349   2.326 -0.3830  0.2184  0.1081
 4847SOL    HW126174   4.479   4.259   2.342 -0.4615 -0.1185 -1.6932
 4847SOL    HW226175   4.478   4.398   2.404 -1.4450 -0.5393  0.9288
 4848SOL     OW26176   4.346   2.975  16.466  0.0256  0.3654  0.1680
 4848SOL    HW126177   4.350   3.069  16.449  1.5784 -0.3148 -3.3526
 4848SOL    HW226178   4.434   2.943  16.446 -0.5813 -0.7543 -0.7154
 4849SOL     OW26179   2.942   0.400   7.540 -0.2241  0.1526  0.5210
 4849SOL    HW126180   3.033   0.425   7.525 -0.2343  0.0782  0.3365
 4849SOL    HW226181   2.906   0.398   7.451 -2.6890 -0.8430  1.5342
 4850SOL     OW26182   2.156   0.648  14.607 -0.2847 -0.0928  0.3569
 4850SOL    HW126183   2.125   0.583  14.543 -0.8863  0.5558 -0.0058
 4850SOL    HW226184   2.200   0.713  14.554  0.7003 -0.1688  1.0670
 4851SOL     OW26185   1.905   0.625  13.182 -0.1296  0.1295  0.4037
 4851SOL    HW126186   1.963   0.639  13.257  1.2563  0.5918 -0.7499
 4851SOL    HW226187   1.820   0.615  13.224 -0.0030  0.2498  0.6855
 4852SOL     OW26188   0.781   0.895   3.874 -0.5419  0.2538  0.3369
 4852SOL    HW126189   0.742   0.972   3.832 -1.6438 -0.7244 -0.4252
 4852SOL    HW226190   0.772   0.830   3.804 -0.9040  1.5515 -0.8176
 4853SOL     OW26191   0.334   0.912   5.611  0.2292 -0.0251 -0.1690
 4853SOL    HW126192   0.409   0.971   5.596 -1.1607  1.5491 -0.9913
 4853SOL    HW226193   0.278   0.966   5.667  1.9547  2.1529 -0.5492
 4854SOL     OW26194   0.714   0.598   1.324  0.1064  0.5839 -0.4551
 4854SOL    HW126195   0.695   0.529   1.388  0.4956 -3.5418 -4.7588
 4854SOL    HW226196   0.645   0.585   1.259 -0.7672  0.0698  0.5745
 4855SOL     OW26197   4.215   2.697   8.057 -0.4002 -0.3939 -0.5322
 4855SOL    HW126198   4.187   2.766   7.996 -0.7073 -0.7884 -0.8329
 4855SOL    HW226199   4.308   2.722   8.062 -0.3714 -0.7058  0.5440
 4856SOL     OW26200   3.969   0.963  17.265 -0.0818  0.0629 -0.0389
 4856SOL    HW126201   3.919   0.887  17.296 -0.9424  0.1837 -1.1314
 4856SOL    HW226202   3.953   1.011  17.346 -1.1134 -1.2826  0.5628
 4857SOL     OW26203   3.510   1.420   9.636 -0.9970  0.9963  0.6215
 4857SOL    HW126204   3.425   1.430   9.593  0.0996  3.2891 -0.9752
 4857SOL    HW226205   3.492   1.477   9.710  0.0064  2.9323 -0.6411
 4858SOL     OW26206   0.637   3.326   1.861 -0.0234 -0.0628  0.6318
 4858SOL    HW126207   0.730   3.348   1.866  0.1372 -0.1197 -2.1892
 4858SOL    HW226208   0.606   3.400   1.913  1.0289 -0.1700  1.4010
 4859SOL     OW26209   4.369   1.663  13.385  0.6408 -0.2706 -0.0688
 4859SOL    HW126210   4.379   1.591  13.448  1.3478  1.4221  1.7474
 4859SOL    HW226211   4.334   1.607  13.316  0.0588 -1.9563  1.5611
 4860SOL     OW26212   3.232   1.572  12.889  0.0293 -0.1653 -0.0280
 4860SOL    HW126213   3.321   1.585  12.857  0.3693  2.4195  1.9999
 4860SOL    HW226214   3.206   1.503  12.828 -1.7631  1.3190 -0.9294
 4861SOL     OW26215   4.566   2.676  17.017 -0.0460  0.4468  0.2354
 4861SOL    HW126216   4.607   2.745  16.965 -0.8979  0.3893 -0.5107
 4861SOL    HW226217   4.479   2.711  17.034 -0.5207 -1.1192  1.0704
 4862SOL     OW26218   1.352   4.318   7.674  0.4971 -0.2623  0.3576
 4862SOL    HW126219   1.392   4.394   7.630  1.2316  0.4940  2.3465
 4862SOL    HW226220   1.259   4.338   7.663  0.4642 -1.5351 -1.7033
 4863SOL     OW26221   3.852   2.009  17.039  0.6527  0.1272  0.0938
 4863SOL    HW126222   3.769   1.972  17.009  0.5263  1.1692 -0.8586
 4863SOL    HW226223   3.897   1.929  17.064  1.6461  0.9961  1.0531
 4864SOL     OW26224   3.158   3.608  12.927 -0.6063 -0.6269  0.7878
 4864SOL    HW126225   3.192   3.636  12.843 -0.4993 -1.6304  0.4896
 4864SOL    HW226226   3.240   3.579  12.968  1.0720  0.9132 -1.5129
 4865SOL     OW26227   2.616   2.323   4.240 -0.4350  0.0339  0.0858
 4865SOL    HW126228   2.702   2.288   4.264 -0.3366  1.1940  1.3863
 4865SOL    HW226229   2.648   2.353   4.155 -2.0792  0.3514 -0.4214
 4866SOL     OW26230   3.157   4.383   4.087 -0.1177  0.4984 -0.2366
 4866SOL    HW126231   3.071   4.425   4.092  0.0468  0.6738  1.0005
 4866SOL    HW226232   3.123   4.313   4.031  0.9537  0.6025 -1.0234
 4867SOL     OW26233   0.444   3.030   8.811 -0.1233 -0.6429  0.4684
 4867SOL    HW126234   0.389   3.106   8.792  0.7621  0.0105  0.5216
 4867SOL    HW226235   0.387   2.973   8.862  1.6753 -1.9109  1.0519
 4868SOL     OW26236   1.206   1.884   7.739 -0.3265  0.7357 -0.2931
 4868SOL    HW126237   1.296   1.904   7.765  1.1330 -1.1198 -3.9914
 4868SOL    HW226238   1.160   1.922   7.815 -2.1929 -2.7049  0.2792
 4869SOL     OW26239   2.565   2.656  11.200  0.3358 -0.0264  0.1030
 4869SOL    HW126240   2.478   2.691  11.179  1.2093  1.7243 -0.5818
 4869SOL    HW226241   2.585   2.729  11.258 -1.4270 -1.5690  2.6419
 4870SOL     OW26242   3.554   0.883   5.491 -0.5055 -0.1396 -0.4715
 4870SOL    HW126243   3.536   0.947   5.561 -0.6806  1.4912 -2.0180
 4870SOL    HW226244   3.648   0.902   5.490 -0.0328 -2.2839  2.1436
 4871SOL     OW26245   1.863   4.695  10.663 -0.1568 -0.6964  1.1335
 4871SOL    HW126246   1.901   0.046  10.662 -2.2916  0.2172  0.4386
 4871SOL    HW226247   1.916   4.646  10.725  2.2243  0.9408  0.3779
 4872SOL     OW26248   2.099   0.579  15.962 -0.2747 -0.0717 -0.2143
 4872SOL    HW126249   2.097   0.573  15.866  0.1533 -0.5293 -0.1888
 4872SOL    HW226250   2.045   0.507  15.994 -1.0180 -0.8444 -3.2192
 4873SOL     OW26251   1.445   0.625   4.523 -0.6126  0.1334 -0.0543
 4873SOL    HW126252   1.383   0.612   4.594  0.4873 -0.0654  0.8533
 4873SOL    HW226253   1.430   0.719   4.507 -0.4414  0.0483 -0.7056
 4874SOL     OW26254   3.373   4.378   8.750  0.1963 -0.2187 -0.5040
 4874SOL    HW126255   3.380   4.364   8.656 -2.0728 -1.1346 -0.5418
 4874SOL    HW226256   3.319   4.304   8.779 -2.3247  1.4711 -0.9136
 4875SOL     OW26257   3.156   3.874  17.664  0.1283 -0.3523 -0.2198
 4875SOL    HW126258   3.156   3.942  17.597 -2.6791 -0.5271 -0.4054
 4875SOL    HW226259   3.068   3.874  17.702  0.4603 -2.6967  0.5709
 4876SOL     OW26260   1.873   1.070  11.563  0.4016  0.0166 -0.2069
 4876SOL    HW126261   1.835   1.080  11.650 -0.2914  0.0651 -0.5145
 4876SOL    HW226262   1.800   1.081  11.502  1.1956  2.1651 -0.7539
 4877SOL     OW26263   1.773   0.003   9.178  0.7506 -0.4892  0.2421
 4877SOL    HW126264   1.862   4.730   9.144  0.3082  0.9306 -1.3325
 4877SOL    HW226265   1.770   0.089   9.221  0.0208  0.3678 -1.5611
 4878SOL     OW26266   4.505   1.813  11.767  0.4335  0.4818  0.0773
 4878SOL    HW126267   4.470   1.863  11.693  2.3622  1.7080  0.0103
 4878SOL    HW226268   4.597   1.837  11.766  0.4423  0.3711 -1.2963
 4879SOL     OW26269   4.731   1.467   9.996 -0.2558 -0.2742  0.1201
 4879SOL    HW126270   4.647   1.422   9.988 -0.7410  0.7366 -0.5350
 4879SOL    HW226271   0.040   1.415  10.062 -2.1361 -1.9458  0.1021
 4880SOL     OW26272   0.858   1.426   1.973 -0.0980 -0.0883  0.1704
 4880SOL    HW126273   0.925   1.360   1.956  0.2261  0.0528  0.9150
 4880SOL    HW226274   0.875   1.419   2.066 -1.5001 -0.3930  0.3939
 4881SOL     OW26275   4.328   2.831   6.294  0.3050 -0.0992  0.0517
 4881SOL    HW126276   4.384   2.782   6.353  0.2989  1.6518  1.5246
 4881SOL    HW226277   4.380   2.876   6.226 -0.8885  1.4379  0.1546
 4882SOL     OW26278   2.252   0.415   4.814 -0.0654 -0.2596  0.3300
 4882SOL    HW126279   2.271   0.342   4.873  0.4566  0.0121  0.5004
 4882SOL    HW226280   2.334   0.465   4.819  0.2290 -0.8178  1.1999
 4883SOL     OW26281   3.982   3.372   4.413  0.0287  0.1049  0.2329
 4883SOL    HW126282   4.068   3.393   4.449  0.5942  0.7268 -1.4895
 4883SOL    HW226283   3.966   3.453   4.364  1.3432 -1.1232 -2.1771
 4884SOL     OW26284   3.689   1.164  11.222  1.3618  0.2441  0.4309
 4884SOL    HW126285   3.773   1.196  11.254  0.8195  1.6467  0.4540
 4884SOL    HW226286   3.719   1.096  11.161  2.4544  0.9064  0.2403
 4885SOL     OW26287   0.985   2.537   4.024 -0.1737 -0.0234 -0.5885
 4885SOL    HW126288   0.956   2.496   3.942 -1.1930 -1.0252  0.2736
 4885SOL    HW226289   0.913   2.594   4.052 -1.6711 -0.6612 -3.1373
 4886SOL     OW26290   3.093   3.193  17.108  0.3402  0.3843  0.4842
 4886SOL    HW126291   3.058   3.184  17.019 -0.3103 -0.4555  0.8286
 4886SOL    HW226292   3.159   3.262  17.102 -0.9980  1.3902 -2.8279
 4887SOL     OW26293   1.727   0.708  15.549 -0.4099  0.5560  0.6850
 4887SOL    HW126294   1.652   0.762  15.524 -2.0452 -1.3974  1.4090
 4887SOL    HW226295   1.789   0.776  15.574 -0.7164  1.7061 -1.7047
 4888SOL     OW26296   0.915   3.542   6.148  0.3498 -0.5989 -0.6963
 4888SOL    HW126297   0.997   3.507   6.184  0.5967  0.1716 -0.5241
 4888SOL    HW226298   0.951   3.630   6.136  1.1201 -0.8866 -0.5132
 4889SOL     OW26299   2.391   4.329   6.552 -0.1832 -0.5435 -0.5825
 4889SOL    HW126300   2.308   4.374   6.536  0.0147 -0.0016 -0.0702
 4889SOL    HW226301   2.394   4.306   6.645 -2.7723  0.1680 -0.3294
 4890SOL     OW26302   4.476   1.707   9.722 -0.7066 -0.3010  0.2144
 4890SOL    HW126303   4.534   1.644   9.679 -1.8508 -1.7164  0.7217
 4890SOL    HW226304   4.399   1.653   9.740  0.2728 -1.1089  2.0604
 4891SOL     OW26305   4.016   2.388   4.437 -0.2777  0.1083 -0.1437
 4891SOL    HW126306   4.011   2.355   4.347  1.0018  0.5497 -0.3840
 4891SOL    HW226307   4.064   2.470   4.426  1.3677 -0.3260  3.7940
 4892SOL     OW26308   4.621   1.923   2.343 -0.3632 -0.3217  0.5651
 4892SOL    HW126309   4.621   1.873   2.425  0.3369 -0.5057  0.4523
 4892SOL    HW226310   4.580   2.002   2.378  0.5167  0.0577  0.7368
 4893SOL     OW26311   1.385   1.738   7.152  0.4651  0.7787 -0.4669
 4893SOL    HW126312   1.351   1.817   7.193 -0.9226  0.1727 -0.4533
 4893SOL    HW226313   1.395   1.690   7.233 -2.8714 -0.3501 -0.7349
 4894SOL     OW26314   0.005   4.713   5.198 -0.5777  0.0194  0.4076
 4894SOL    HW126315   0.023   4.645   5.263  1.9685  0.6100  0.3030
 4894SOL    HW226316   4.665   0.022   5.233  0.2830  1.6624  0.1219
 4895SOL     OW26317   2.266   4.525   8.041 -0.0556 -0.7515 -0.9509
 4895SOL    HW126318   2.296   4.522   8.132 -1.2433 -1.0517 -0.5602
 4895SOL    HW226319   2.171   4.511   8.047 -0.2529  1.0112  0.1790
 4896SOL     OW26320   0.726   0.142   6.609 -0.4259 -0.0891  0.2255
 4896SOL    HW126321   0.738   0.112   6.518 -0.2884 -1.7936  0.8014
 4896SOL    HW226322   0.813   0.132   6.648 -0.7347 -1.1087  0.6387
 4897SOL     OW26323   2.877   2.131  16.041 -0.3577  0.0826  0.0501
 4897SOL    HW126324   2.855   2.199  16.105  0.1877 -1.1495  1.5457
 4897SOL    HW226325   2.960   2.095  16.073 -0.4006 -0.2289 -0.1880
 4898SOL     OW26326   0.970   0.190  15.006  0.1307 -0.4821  0.0328
 4898SOL    HW126327   1.064   0.207  14.998  0.0874  0.0066  0.5730
 4898SOL    HW226328   0.927   0.251  14.946  0.3431  0.3647  0.7440
 4899SOL     OW26329   0.354   1.283   6.566 -0.1680  0.1657 -0.7664
 4899SOL    HW126330   0.311   1.246   6.643  0.2087 -2.1650 -1.6967
 4899SOL    HW226331   0.444   1.291   6.599  0.2980 -1.7603 -1.5660
 4900SOL     OW26332   3.864   0.269   6.725 -0.5325  0.3498  0.1540
 4900SOL    HW126333   3.910   0.330   6.668  1.4437 -0.5776  0.7609
 4900SOL    HW226334   3.918   0.190   6.723 -1.3983 -0.2805  1.5167
 4901SOL     OW26335   2.699   0.371   3.538  0.2576  0.2847  0.3653
 4901SOL    HW126336   2.740   0.446   3.495 -0.9973 -0.0569 -1.4630
 4901SOL    HW226337   2.754   0.364   3.615 -0.9317 -0.2259  1.1737
 4902SOL     OW26338   2.414   4.679   6.567 -0.1194  0.1757  0.2523
 4902SOL    HW126339   2.463   0.002   6.624  0.2084 -1.0442  1.2537
 4902SOL    HW226340   2.341   4.677   6.628 -2.5268  1.0919 -2.6081
 4903SOL     OW26341   2.356   3.901  10.007  0.5509  0.0059  0.1177
 4903SOL    HW126342   2.318   3.875  10.091 -2.6167  1.6519 -0.8095
 4903SOL    HW226343   2.387   3.990  10.024 -1.0911  0.7813 -0.9500
 4904SOL     OW26344   1.912   0.842   7.252 -0.3951  0.1239  0.1944
 4904SOL    HW126345   1.934   0.752   7.275  1.9123  0.9446  1.1621
 4904SOL    HW226346   1.818   0.846   7.234 -0.5022  0.5938  0.8761
 4905SOL     OW26347   1.367   2.111  17.046 -0.0848 -0.9719 -0.3339
 4905SOL    HW126348   1.453   2.090  17.010  1.3740  0.3227  2.4282
 4905SOL    HW226349   1.348   2.188  16.992 -1.6000 -1.4142 -0.4291
 4906SOL     OW26350   0.310   0.211  17.232  0.5386  0.7884 -0.0115
 4906SOL    HW126351   0.345   0.132  17.273  0.4094  0.1329 -1.1761
 4906SOL    HW226352   0.377   0.233  17.168  0.9869 -2.5826 -0.6977
 4907SOL     OW26353   2.438   3.217  14.704  0.2121  0.0836  0.2991
 4907SOL    HW126354   2.489   3.164  14.643 -1.1806  0.7847 -1.5019
 4907SOL    HW226355   2.377   3.151  14.738 -1.8158  1.5583 -0.4614
 4908SOL     OW26356   4.310   0.735  12.358 -0.4953  0.3659  0.2299
 4908SOL    HW126357   4.230   0.740  12.306 -0.1186 -1.7178 -0.5741
 4908SOL    HW226358   4.338   0.826  12.355  0.7273 -0.0449 -0.8847
 4909SOL     OW26359   1.029   0.251   4.298  0.4747 -0.0226  0.0199
 4909SOL    HW126360   1.112   0.265   4.345 -0.7490  1.6064  1.6902
 4909SOL    HW226361   1.008   0.334   4.254 -2.0594 -0.1487  0.9933
 4910SOL     OW26362   4.283   1.524   2.080 -0.1433  0.5837  0.1704
 4910SOL    HW126363   4.338   1.537   2.003  0.0689  3.1311  0.7432
 4910SOL    HW226364   4.234   1.457   2.034 -0.3781  1.4831 -0.8830
 4911SOL     OW26365   2.505   3.090  11.829 -0.5009  0.4051 -0.0883
 4911SOL    HW126366   2.510   3.173  11.876 -1.7218  1.9047 -2.5909
 4911SOL    HW226367   2.568   3.037  11.878 -0.9380  1.3257  1.4463
 4912SOL     OW26368   2.655   3.307   1.488  0.0848 -0.2430  0.1847
 4912SOL    HW126369   2.748   3.288   1.476 -0.0478 -0.6087 -0.2547
 4912SOL    HW226370   2.648   3.316   1.583 -0.5115 -0.1450  0.1316
 4913SOL     OW26371   1.448   4.594   9.667  0.3206  0.1435  0.0574
 4913SOL    HW126372   1.523   4.585   9.607  0.1368 -0.1180 -0.1308
 4913SOL    HW226373   1.384   4.576   9.599  1.3707 -3.2957  0.0113
 4914SOL     OW26374   2.053   1.310   2.105 -0.8633  0.2625  0.2112
 4914SOL    HW126375   2.144   1.328   2.082 -0.5493 -1.2019  0.3102
 4914SOL    HW226376   2.015   1.394   2.081  1.7231  1.3192 -0.1645
 4915SOL     OW26377   1.625   0.020   7.112 -1.1754 -0.0707  0.8296
 4915SOL    HW126378   1.588   4.671   7.091  2.9442 -0.7494 -3.6402
 4915SOL    HW226379   1.549   0.049   7.162 -2.3141 -3.1152  0.9051
 4916SOL     OW26380   4.605   3.052  12.265 -0.9731 -0.2299  0.6624
 4916SOL    HW126381   4.585   3.117  12.197 -1.1459  0.6256  1.5220
 4916SOL    HW226382   4.667   2.991  12.225  0.5572 -0.2829  3.1571
 4917SOL     OW26383   2.038   1.833   5.623 -0.0125  0.1642 -0.4897
 4917SOL    HW126384   2.041   1.798   5.534 -0.8004  0.4818 -0.6393
 4917SOL    HW226385   2.093   1.912   5.617  1.9987 -1.0076  2.0887
 4918SOL     OW26386   3.349   0.396  11.291  0.0430 -0.6041 -0.5413
 4918SOL    HW126387   3.278   0.341  11.259 -0.0970  0.3911 -1.9066
 4918SOL    HW226388   3.426   0.357  11.249  2.1828  0.5995  2.1921
 4919SOL     OW26389   3.397   2.685   7.703  0.2813  0.1957  0.2554
 4919SOL    HW126390   3.399   2.780   7.694  2.2176  0.2777  1.6628
 4919SOL    HW226391   3.366   2.678   7.793  0.0657  0.5924  0.2132
 4920SOL     OW26392   4.657   1.659   3.718  0.3183 -0.0870 -0.0812
 4920SOL    HW126393   4.735   1.710   3.737  1.4999 -1.8479 -0.2523
 4920SOL    HW226394   4.622   1.621   3.798 -2.6032  2.2889 -0.2031
 4921SOL     OW26395   3.542   2.384   5.895  0.1072  0.0798  0.4856
 4921SOL    HW126396   3.583   2.454   5.844  0.1877 -2.0164 -2.3667
 4921SOL    HW226397   3.588   2.315   5.848  0.9700  0.4507  0.7811
 4922SOL     OW26398   3.746   3.209   5.210  0.1150 -0.9938  0.0510
 4922SOL    HW126399   3.777   3.214   5.301  1.7204  1.6465 -0.6389
 4922SOL    HW226400   3.808   3.143   5.179  1.7645  1.4349 -1.7870
 4923SOL     OW26401   3.079   3.442  14.938  0.0806 -0.0079  0.3919
 4923SOL    HW126402   3.066   3.536  14.930  1.7549  0.2788  0.9762
 4923SOL    HW226403   3.124   3.429  14.855  0.4835 -2.0921  0.9323
 4924SOL     OW26404   2.710   1.706   6.602  0.2915  0.2793  0.1825
 4924SOL    HW126405   2.667   1.775   6.551  1.0255  1.0168  0.5605
 4924SOL    HW226406   2.707   1.729   6.695  1.0681  0.8830  0.0613
 4925SOL     OW26407   0.194   2.068   8.348 -0.1983  0.5501  0.2683
 4925SOL    HW126408   0.235   2.154   8.357  3.0842 -0.8326 -1.4156
 4925SOL    HW226409   0.170   2.052   8.439 -0.2713 -0.2125  0.1149
 4926SOL     OW26410   4.609   4.011   4.000 -0.0476 -0.0098  0.2970
 4926SOL    HW126411   4.601   4.046   4.089  1.0845  0.3020  0.2725
 4926SOL    HW226412   4.580   4.080   3.940  0.6880 -0.2132 -0.2902
 4927SOL     OW26413   0.676   4.491  14.070 -0.4504 -0.6398  0.5715
 4927SOL    HW126414   0.664   4.502  13.976  0.9196 -0.3915  0.4188
 4927SOL    HW226415   0.765   4.454  14.069 -0.4606 -0.6328 -0.9081
 4928SOL     OW26416   3.087   2.712   6.305  0.0081  0.3629  0.4575
 4928SOL    HW126417   3.160   2.708   6.366 -0.2844  1.4878  0.8796
 4928SOL    HW226418   3.012   2.687   6.359  0.5437  0.4636  1.2397
 4929SOL     OW26419   4.188   1.298   2.977  0.1609  0.4075 -0.5637
 4929SOL    HW126420   4.238   1.227   2.936  0.6315  0.5971 -0.3163
 4929SOL    HW226421   4.150   1.255   3.053  1.0573  1.0666  0.2485
 4930SOL     OW26422   2.899   2.019   4.104  0.1389  0.3636  0.6734
 4930SOL    HW126423   2.861   1.940   4.142 -0.9540  1.3416  1.6280
 4930SOL    HW226424   2.845   2.026   4.025 -0.0184 -0.8669  0.6771
 4931SOL     OW26425   0.309   1.542   3.536  0.0817  0.3517 -0.1174
 4931SOL    HW126426   0.287   1.477   3.603  2.6710 -0.2535  0.1328
 4931SOL    HW226427   0.236   1.596   3.564 -0.2471  0.1974 -0.6788
 4932SOL     OW26428   2.228   0.707   5.289 -0.2852 -0.0983 -0.1928
 4932SOL    HW126429   2.272   0.791   5.306  0.5379 -0.4646 -0.5227
 4932SOL    HW226430   2.300   0.656   5.252 -1.2813 -1.0668 -0.7806
 4933SOL     OW26431   0.063   4.502   5.394 -0.2680 -0.2226  0.1625
 4933SOL    HW126432   0.081   4.524   5.485  1.3191  0.3377 -0.2807
 4933SOL    HW226433   0.036   4.411   5.389  2.2883 -0.8814 -1.7746
 4934SOL     OW26434   1.251   4.250   7.294  0.0411 -0.0825  0.4831
 4934SOL    HW126435   1.303   4.314   7.342 -2.9172  0.1538  3.3601
 4934SOL    HW226436   1.287   4.251   7.205 -0.5790  1.3968  0.2577
 4935SOL     OW26437   0.994   1.487  10.880  0.4324  0.0741 -0.0410
 4935SOL    HW126438   1.015   1.522  10.966  0.5498 -0.9979  0.3635
 4935SOL    HW226439   0.975   1.397  10.906 -0.0197  0.0264 -0.5391
 4936SOL     OW26440   1.508   0.298   1.185 -0.2124  0.7080 -0.6947
 4936SOL    HW126441   1.526   0.335   1.271 -1.6629 -0.3489  0.0814
 4936SOL    HW226442   1.484   0.378   1.139  0.6597  0.3467 -1.7813
 4937SOL     OW26443   4.697   2.824   6.734 -0.0081 -0.3864  0.1994
 4937SOL    HW126444   0.050   2.848   6.758  0.2237 -0.4165 -0.6455
 4937SOL    HW226445   4.703   2.803   6.641 -1.8685  2.0394 -0.4568
 4938SOL     OW26446   3.171   2.367   2.278  0.3102 -0.1622  0.1982
 4938SOL    HW126447   3.240   2.364   2.344  2.4887 -0.2150 -2.1084
 4938SOL    HW226448   3.110   2.311   2.326  0.7034 -0.1512  0.7152
 4939SOL     OW26449   2.109   4.129   6.611  0.1395 -0.0467  0.1149
 4939SOL    HW126450   2.194   4.111   6.652  0.1445  1.0415  0.5908
 4939SOL    HW226451   2.128   4.212   6.568 -1.1276  0.3349  0.2965
 4940SOL     OW26452   3.736   4.180   0.138 -0.3325  0.0065  0.3596
 4940SOL    HW126453   3.804   4.112   0.131 -1.7617 -1.3609 -0.3104
 4940SOL    HW226454   3.705   4.183   0.047  1.4533  3.2516 -0.1415
 4941SOL     OW26455   3.679   2.293  12.889  0.3193 -0.7208  0.5383
 4941SOL    HW126456   3.756   2.338  12.857  0.1511  0.0892  1.2892
 4941SOL    HW226457   3.614   2.363  12.882 -0.3369 -1.5978 -1.9659
 4942SOL     OW26458   2.630   0.874   1.660 -0.6507 -0.2318  0.2701
 4942SOL    HW126459   2.549   0.866   1.611 -1.3631 -0.7546  1.5458
 4942SOL    HW226460   2.614   0.960   1.698 -0.7518  0.1664 -0.6637
 4943SOL     OW26461   0.007   3.996   4.526  0.3678 -0.1161 -0.4055
 4943SOL    HW126462   0.019   3.908   4.493 -2.1414  0.1541 -2.0761
 4943SOL    HW226463   0.099   4.019   4.538  0.5459 -0.5251 -0.9897
 4944SOL     OW26464   4.711   2.455   2.029  0.3058  0.3442  0.4869
 4944SOL    HW126465   4.728   2.363   2.050 -0.1601  0.2028  0.2614
 4944SOL    HW226466   4.649   2.441   1.957  1.2157  1.8853 -0.5851
 4945SOL     OW26467   3.735   0.568   8.011 -0.8511  0.7931  0.2899
 4945SOL    HW126468   3.772   0.519   8.085 -2.8268  0.1737  0.8964
 4945SOL    HW226469   3.673   0.505   7.974 -0.7466  2.2728 -2.3981
 4946SOL     OW26470   1.115   2.997   7.282  0.3563 -0.8905 -0.2617
 4946SOL    HW126471   1.167   2.950   7.217  0.0244 -1.7644  0.1025
 4946SOL    HW226472   1.174   3.013   7.355  1.3660 -0.4316 -1.1808
 4947SOL     OW26473   3.746   2.508   7.993  0.3348 -0.4916  0.3924
 4947SOL    HW126474   3.722   2.432   8.046  3.2375  0.3417  2.8641
 4947SOL    HW226475   3.728   2.484   7.902 -1.6635 -2.2878  1.2654
 4948SOL     OW26476   0.846   3.631   1.872 -0.2973 -0.3147 -0.4489
 4948SOL    HW126477   0.896   3.551   1.890  0.4693  0.7269  2.0944
 4948SOL    HW226478   0.862   3.642   1.779 -0.8242 -2.1522 -0.7529
 4949SOL     OW26479   2.623   2.641   6.623  0.1640  0.2010  0.3112
 4949SOL    HW126480   2.669   2.704   6.567 -0.9425  0.1938 -0.5953
 4949SOL    HW226481   2.607   2.687   6.706 -0.0665 -1.4873  1.2136
 4950SOL     OW26482   2.445   0.007   4.776  0.1456  0.0239  0.3001
 4950SOL    HW126483   2.411   0.060   4.704  1.6342 -0.8676 -1.0689
 4950SOL    HW226484   2.423   4.655   4.749 -1.2176  1.0167 -1.8346
 4951SOL     OW26485   1.180   4.517   5.067  0.2531 -0.3736  0.1210
 4951SOL    HW126486   1.126   4.457   5.118 -1.4572  0.2694 -0.9356
 4951SOL    HW226487   1.265   4.517   5.112 -1.4565 -1.9506  3.2980
 4952SOL     OW26488   1.790   1.055   1.914 -0.3645 -0.7730  0.0412
 4952SOL    HW126489   1.731   1.050   1.839 -2.0059 -2.1617  1.4372
 4952SOL    HW226490   1.730   1.018   1.979  0.4381 -0.3761  1.0132
 4953SOL     OW26491   1.071   1.397   5.182  0.9056  0.0383  0.0566
 4953SOL    HW126492   1.151   1.411   5.131  1.6333  0.2618  1.2520
 4953SOL    HW226493   1.031   1.324   5.135  0.5454  1.2398 -1.4915
 4954SOL     OW26494   4.479   0.475   6.299 -0.0054  0.2846  0.2856
 4954SOL    HW126495   4.396   0.461   6.253  0.0967  0.9005 -0.0874
 4954SOL    HW226496   4.549   0.446   6.241 -1.1903  0.5743 -1.3162
 4955SOL     OW26497   1.048   3.077   9.410 -0.1669  0.0313  0.0753
 4955SOL    HW126498   1.107   3.148   9.434 -1.7974  0.6534  2.2103
 4955SOL    HW226499   1.064   3.066   9.317 -0.9714  0.6840 -0.1432
 4956SOL     OW26500   3.849   4.192   2.819 -0.4411 -0.3640 -0.0665
 4956SOL    HW126501   3.830   4.277   2.860 -0.1165 -0.1753 -0.3043
 4956SOL    HW226502   3.931   4.169   2.861 -0.6318  1.6183  1.4241
 4957SOL     OW26503   0.958   0.365   5.311  0.0755  0.0408 -0.5013
 4957SOL    HW126504   1.006   0.424   5.369 -0.4062  0.9934 -1.0682
 4957SOL    HW226505   0.878   0.418   5.308  0.7489  1.2208  2.0345
 4958SOL     OW26506   1.550   0.356   8.518  0.0394 -0.2005 -0.2562
 4958SOL    HW126507   1.502   0.358   8.435 -0.2877  0.0163 -0.0635
 4958SOL    HW226508   1.545   0.447   8.548  0.7540 -1.2275  3.0110
 4959SOL     OW26509   4.554   4.562   4.064  0.5719 -0.3190 -0.2107
 4959SOL    HW126510   4.563   4.475   4.102 -2.7188  0.3419  2.1159
 4959SOL    HW226511   4.595   4.545   3.980  1.1534  0.5973 -0.1214
 4960SOL     OW26512   1.753   2.437  16.782  0.9488 -0.1771 -0.2965
 4960SOL    HW126513   1.767   2.509  16.844 -0.9063 -2.3151  2.6101
 4960SOL    HW226514   1.762   2.474  16.694  1.3072 -0.3975 -0.3510
 4961SOL     OW26515   3.759   3.163   6.419  0.2690 -0.5672 -0.2597
 4961SOL    HW126516   3.733   3.076   6.389 -2.4113  0.0978  0.1083
 4961SOL    HW226517   3.804   3.147   6.502  1.3627  0.0506 -0.7351
 4962SOL     OW26518   1.618   2.609   8.113 -0.7563 -0.8909  0.1114
 4962SOL    HW126519   1.567   2.529   8.125 -2.6365  0.1621 -0.7948
 4962SOL    HW226520   1.642   2.645   8.199 -1.6224 -0.2701  0.0977
 4963SOL     OW26521   0.667   1.689   3.065  0.6029 -0.0832 -0.3007
 4963SOL    HW126522   0.634   1.723   3.148 -1.3808  0.3948 -1.2840
 4963SOL    HW226523   0.582   1.714   3.027  0.3345 -0.5927 -0.0274
 4964SOL     OW26524   1.744   1.100   3.182  0.1907  0.4722 -0.1288
 4964SOL    HW126525   1.664   1.107   3.130 -1.0766  0.6632  1.8739
 4964SOL    HW226526   1.811   1.097   3.113 -0.8191  1.4558 -1.1667
 4965SOL     OW26527   0.443   0.816   4.406 -0.3332  0.2283 -0.3677
 4965SOL    HW126528   0.359   0.772   4.396  1.1145 -2.0017 -2.5104
 4965SOL    HW226529   0.467   0.756   4.477 -1.0316  0.3710 -0.0106
 4966SOL     OW26530   1.233   0.366   9.023  1.0527  0.4840 -0.4163
 4966SOL    HW126531   1.271   0.435   8.968  1.4265 -0.0242 -0.7932
 4966SOL    HW226532   1.315   0.329   9.057  0.5281  0.3183  0.6455
 4967SOL     OW26533   3.696   0.458   3.350 -0.0109  0.1663 -0.3298
 4967SOL    HW126534   3.743   0.388   3.304  0.3491  0.3845 -0.2907
 4967SOL    HW226535   3.670   0.414   3.431  1.0963 -1.8801 -1.0878
 4968SOL     OW26536   0.457   1.883   1.185 -0.3411 -0.5375 -1.0264
 4968SOL    HW126537   0.425   1.926   1.264  0.0383  1.3911 -1.9223
 4968SOL    HW226538   0.458   1.964   1.134 -0.5767  0.3584  0.4067
 4969SOL     OW26539   1.074   2.608   7.233  0.2688  0.4697 -0.3722
 4969SOL    HW126540   1.007   2.541   7.246 -0.1711  1.0771  0.5024
 4969SOL    HW226541   1.078   2.651   7.319 -1.0219  1.4527 -0.8053
 4970SOL     OW26542   3.486   3.784  13.942  0.3274  0.0871  0.7272
 4970SOL    HW126543   3.545   3.738  14.002 -0.0767 -0.6909  0.5256
 4970SOL    HW226544   3.442   3.712  13.898  2.5840 -0.8460  0.0124
 4971SOL     OW26545   1.184   0.972   1.666 -0.4047  0.3857  0.1258
 4971SOL    HW126546   1.277   0.958   1.648 -0.0527  0.3627  1.9142
 4971SOL    HW226547   1.141   0.991   1.583 -0.5481 -2.3508 -0.4091
 4972SOL     OW26548   1.049   2.533   6.474 -0.0765  0.3544  0.2400
 4972SOL    HW126549   0.991   2.609   6.472 -1.4453 -0.6700  1.3598
 4972SOL    HW226550   1.066   2.518   6.566 -0.4613 -2.2132 -0.1240
 4973SOL     OW26551   4.673   2.833   7.263  0.2756 -0.4878  0.0233
 4973SOL    HW126552   4.625   2.886   7.200  2.4831  0.2693 -1.0115
 4973SOL    HW226553   4.605   2.834   7.331 -1.1143 -1.4599 -1.3398
 4974SOL     OW26554   2.023   4.441   8.045  0.4067  0.1128  0.3574
 4974SOL    HW126555   1.940   4.482   8.021  1.3680  1.6552 -0.3228
 4974SOL    HW226556   2.008   4.346   8.039 -0.2707  0.3817 -2.1082
 4975SOL     OW26557   0.312   1.118   3.885  0.1411  0.2770 -0.2666
 4975SOL    HW126558   0.379   1.148   3.947  0.7895 -1.2863 -0.2317
 4975SOL    HW226559   0.267   1.055   3.941  2.4806  0.0635  1.3928
 4976SOL     OW26560   2.620   0.402   4.813 -0.4529  0.0356  0.1136
 4976SOL    HW126561   2.709   0.418   4.845 -0.4460  0.1119  0.0554
 4976SOL    HW226562   2.601   0.330   4.873 -1.1972  1.1667  1.2325
 4977SOL     OW26563   4.469   2.569   2.106 -0.0181 -0.4111 -0.1405
 4977SOL    HW126564   4.564   2.557   2.111 -0.1926 -1.3920  1.0077
 4977SOL    HW226565   4.435   2.496   2.159 -0.1759 -0.9884 -1.0387
 4978SOL     OW26566   0.196   0.795   3.672 -0.2064 -0.0702  0.1214
 4978SOL    HW126567   0.261   0.797   3.742  0.0485 -0.7669 -0.0985
 4978SOL    HW226568   0.199   0.882   3.632 -0.1212 -0.5501 -0.9149
 4979SOL     OW26569   4.530   3.684   6.319 -0.6059 -0.3521 -0.2402
 4979SOL    HW126570   4.496   3.772   6.304  0.4771  0.0029 -0.6342
 4979SOL    HW226571   4.557   3.688   6.411  2.3396  2.2653 -1.1875
 4980SOL     OW26572   4.147   4.712   2.196  0.1045 -0.3668  0.1157
 4980SOL    HW126573   4.159   4.632   2.246 -1.0496 -0.2106  0.6550
 4980SOL    HW226574   4.066   4.703   2.146  1.0893  0.5359 -1.6695
 4981SOL     OW26575   2.597   1.257   6.564 -0.3876  0.0197 -0.3695
 4981SOL    HW126576   2.502   1.256   6.571 -0.1515 -0.8011  2.7980
 4981SOL    HW226577   2.634   1.258   6.652 -1.1880  2.9326 -0.0743
 4982SOL     OW26578   3.335   0.941  16.056  0.1500 -0.2095 -0.7267
 4982SOL    HW126579   3.413   0.985  16.089 -1.6348  1.9631  0.5637
 4982SOL    HW226580   3.280   1.015  16.031 -0.6519 -0.5194  0.1246
 4983SOL     OW26581   1.449   3.358   7.262  0.6278 -0.1463  0.4365
 4983SOL    HW126582   1.501   3.295   7.211 -0.0579  1.7244 -2.5453
 4983SOL    HW226583   1.384   3.401   7.207  2.0240 -0.4899 -1.5031
 4984SOL     OW26584   0.873   0.192   5.154  0.0034  0.0197 -0.6967
 4984SOL    HW126585   0.915   0.259   5.207 -2.2735 -0.5953  1.8902
 4984SOL    HW226586   0.949   0.144   5.122  0.9100  0.2664  1.0559
 4985SOL     OW26587   3.524   2.137   5.436 -0.0553 -0.0762 -0.4110
 4985SOL    HW126588   3.515   2.210   5.374  1.3039 -2.2552 -3.2106
 4985SOL    HW226589   3.496   2.070   5.374  0.0552  0.8758 -1.5013
 4986SOL     OW26590   1.367   2.397   8.753  0.2255 -0.0241  0.5079
 4986SOL    HW126591   1.357   2.409   8.848  1.2957 -0.8540  0.7301
 4986SOL    HW226592   1.389   2.482   8.716  0.7484  0.3575  1.7136
 4987SOL     OW26593   0.474   3.231   2.637 -1.0779  0.0759 -0.0220
 4987SOL    HW126594   0.521   3.150   2.655  1.1091  1.3148 -0.1034
 4987SOL    HW226595   0.512   3.293   2.700  1.0718 -0.2367 -0.9907
 4988SOL     OW26596   3.963   1.968   5.996 -0.3882  0.5914 -0.6378
 4988SOL    HW126597   3.868   1.980   6.006 -0.4751 -1.4492  0.8360
 4988SOL    HW226598   3.997   1.964   6.085  1.2064  1.4658 -1.2134
 4989SOL     OW26599   1.936   3.207   2.903 -0.2364  0.9479  0.3015
 4989SOL    HW126600   1.864   3.164   2.858 -0.8269 -0.4692  2.5884
 4989SOL    HW226601   1.956   3.281   2.845 -0.1394  0.8022  0.1495
 4990SOL     OW26602   2.574   3.813  10.755 -0.0022 -0.6495  0.3711
 4990SOL    HW126603   2.645   3.868  10.790 -0.6770  0.7458 -0.4601
 4990SOL    HW226604   2.605   3.723  10.767 -0.3410 -0.7614  0.3970
 4991SOL     OW26605   1.223   4.475  16.489 -0.0686 -0.0851  0.2429
 4991SOL    HW126606   1.227   4.433  16.403  0.3243  0.5061 -0.0235
 4991SOL    HW226607   1.222   4.569  16.472 -2.2801  0.2633  2.2308
 4992SOL     OW26608   0.008   3.120   7.565 -0.0028 -0.0519  0.0080
 4992SOL    HW126609   0.040   3.184   7.629  1.6563 -2.3612  1.5084
 4992SOL    HW226610   4.672   3.081   7.612  0.8300 -0.3229  1.0831
 4993SOL     OW26611   2.757   4.337  16.734 -0.1564 -0.0719  0.0342
 4993SOL    HW126612   2.707   4.312  16.812 -0.2875  0.4018  0.0995
 4993SOL    HW226613   2.698   4.298  16.669  0.5954  1.4105 -1.5623
 4994SOL     OW26614   3.014   0.799   2.470  0.1028  0.2389  0.2148
 4994SOL    HW126615   3.106   0.772   2.474  0.1548  0.1310 -1.6464
 4994SOL    HW226616   3.020   0.892   2.452 -0.5674  0.1625 -0.4176
 4995SOL     OW26617   1.776   0.027   5.258 -0.0440  0.1284 -0.5577
 4995SOL    HW126618   1.685   0.009   5.234  0.1964 -2.6561  0.5717
 4995SOL    HW226619   1.761   0.092   5.326  1.5322  0.0034 -0.0844
 4996SOL     OW26620   4.579   2.895  15.486 -0.3830 -0.0710 -0.0929
 4996SOL    HW126621   4.517   2.963  15.513  0.6888  1.5929 -1.8744
 4996SOL    HW226622   4.559   2.889  15.393 -0.5835 -1.5012  0.0539
 4997SOL     OW26623   0.569   0.594  11.380  0.0538 -0.0766  0.1896
 4997SOL    HW126624   0.652   0.600  11.333 -0.5562 -2.0589 -1.1131
 4997SOL    HW226625   0.528   0.666  11.333 -0.7884 -0.9211 -0.3558
 4998SOL     OW26626   3.561   2.009  10.517 -0.2633  0.2417 -0.1592
 4998SOL    HW126627   3.604   2.058  10.587  0.4958 -0.7322  0.0501
 4998SOL    HW226628   3.605   1.924  10.519  2.4494  1.6735 -0.4400
 4999SOL     OW26629   3.040   3.995  14.732  0.6768 -0.0307 -0.2385
 4999SOL    HW126630   3.028   4.027  14.821  0.5777  1.2201 -0.7069
 4999SOL    HW226631   2.959   3.945  14.722  0.3420  0.8155 -1.7814
 5000SOL     OW26632   2.730   1.487   1.085 -0.5167  0.0164 -0.1803
 5000SOL    HW126633   2.822   1.513   1.087 -0.2124 -1.1762  0.8813
 5000SOL    HW226634   2.722   1.489   0.989  0.0324  1.3076 -0.2082
 5001SOL     OW26635   3.237   0.932   4.684  0.3125  0.5305  0.5321
 5001SOL    HW126636   3.272   0.913   4.597 -0.0906 -0.7059  0.6366
 5001SOL    HW226637   3.317   0.953   4.732  0.3545  1.1317  0.1935
 5002SOL     OW26638   2.758   1.185   8.065  0.4772  0.0178 -0.1589
 5002SOL    HW126639   2.708   1.227   8.135 -0.6047 -0.0987 -0.8608
 5002SOL    HW226640   2.689   1.137   8.019  2.3282 -2.0974 -0.7000
 5003SOL     OW26641   2.642   1.299   2.429 -0.2867 -0.1513  0.1628
 5003SOL    HW126642   2.684   1.226   2.385 -0.2914  0.4523 -0.8471
 5003SOL    HW226643   2.690   1.304   2.511  1.8204 -1.3553 -1.0013
 5004SOL     OW26644   0.047   2.107   5.269 -0.3853 -0.6632 -0.0260
 5004SOL    HW126645   0.080   2.172   5.330  1.7630  0.0222 -1.9268
 5004SOL    HW226646   0.118   2.043   5.270  1.1682  1.0764  0.5141
 5005SOL     OW26647   3.858   3.433   5.903  0.3599  0.1918  0.1353
 5005SOL    HW126648   3.789   3.482   5.858  1.6726 -0.2368 -2.3788
 5005SOL    HW226649   3.890   3.504   5.959 -0.4555  1.3294 -0.8371
 5006SOL     OW26650   4.187   2.111   5.255 -0.2430 -0.4110 -0.1427
 5006SOL    HW126651   4.200   2.199   5.290  0.6295 -1.1960  1.5186
 5006SOL    HW226652   4.147   2.063   5.328  0.3003 -0.4412  0.1419
 5007SOL     OW26653   2.062   2.479   7.861  0.0360  0.8684  0.3596
 5007SOL    HW126654   2.132   2.506   7.920  0.8905 -0.4081 -0.0582
 5007SOL    HW226655   1.989   2.536   7.884 -0.4479  0.4508 -0.1380
 5008SOL     OW26656   0.547   0.826   1.155  0.4701 -0.5844  0.4961
 5008SOL    HW126657   0.505   0.744   1.182 -1.1672  0.4743  1.1394
 5008SOL    HW226658   0.580   0.864   1.236 -1.2018  1.2277  0.3132
 5009SOL     OW26659   0.382   2.281   2.381 -0.4679  0.1870  0.3125
 5009SOL    HW126660   0.289   2.274   2.405 -0.8079 -0.1020 -1.1071
 5009SOL    HW226661   0.413   2.327   2.459  1.5165 -0.6642  0.0202
 5010SOL     OW26662   3.026   3.745   5.408 -0.0869 -0.0965  0.2106
 5010SOL    HW126663   3.066   3.668   5.448  1.0231 -0.2799 -1.2338
 5010SOL    HW226664   3.098   3.776   5.352  0.8208 -1.8917  0.3645
 5011SOL     OW26665   2.434   3.879   3.811  0.1397  0.2195  0.5932
 5011SOL    HW126666   2.481   3.833   3.742  0.0806  0.9985  0.0372
 5011SOL    HW226667   2.504   3.938   3.840  2.3019 -1.2375 -1.7450
 5012SOL     OW26668   2.958   4.370   1.423 -0.3118 -0.1656 -0.5043
 5012SOL    HW126669   3.026   4.388   1.358 -0.2908 -0.3547 -0.5351
 5012SOL    HW226670   2.904   4.320   1.361 -2.2357  0.6988  0.4633
 5013SOL     OW26671   2.903   0.679   4.267 -0.2110  0.4544  0.3138
 5013SOL    HW126672   2.901   0.628   4.348  0.3130  2.0023  1.3078
 5013SOL    HW226673   2.891   0.766   4.304 -2.0576  0.7785 -1.0803
 5014SOL     OW26674   2.016   3.754   4.183  0.1192  0.4410  0.0444
 5014SOL    HW126675   2.041   3.798   4.265 -2.5910  1.0661  0.5324
 5014SOL    HW226676   2.012   3.823   4.117 -0.4681  0.9219  0.5777
 5015SOL     OW26677   3.810   3.323   0.674  0.3613 -0.1310  0.1527
 5015SOL    HW126678   3.754   3.365   0.608  0.1687 -0.7313 -0.0726
 5015SOL    HW226679   3.740   3.283   0.727  1.2087 -0.7932  0.7650
 5016SOL     OW26680   3.469   2.920  15.179 -0.1797 -0.1022 -0.3919
 5016SOL    HW126681   3.386   2.963  15.160  0.8935  1.9341 -0.4499
 5016SOL    HW226682   3.476   2.930  15.274  1.9184 -1.2111 -0.4271
 5017SOL     OW26683   4.477   2.681   3.174 -0.0107  0.2029  0.5839
 5017SOL    HW126684   4.486   2.771   3.144  1.7991 -0.6691 -1.5491
 5017SOL    HW226685   4.474   2.633   3.091  0.4639 -1.4129  1.4791
 5018SOL     OW26686   4.138   4.348  17.404  0.3603 -0.3185 -0.1418
 5018SOL    HW126687   4.105   4.427  17.445  2.0965  0.1104  0.4510
 5018SOL    HW226688   4.055   4.311  17.376  0.1815  0.2020 -0.2898
 5019SOL     OW26689   1.913   1.964   7.044  0.2013 -0.0428  0.7506
 5019SOL    HW126690   1.858   1.970   7.121 -0.9532  0.6490 -0.1303
 5019SOL    HW226691   1.872   1.895   6.993 -0.2036  0.2948  0.6239
 5020SOL     OW26692   3.719   4.394  17.237  0.3188  0.2587 -0.5207
 5020SOL    HW126693   3.750   4.380  17.326 -0.2140 -0.2334 -0.4144
 5020SOL    HW226694   3.656   4.464  17.255 -1.0777 -1.9334  3.1427
 5021SOL     OW26695   0.812   4.166   4.592  0.4319 -0.4531 -0.2515
 5021SOL    HW126696   0.877   4.197   4.654 -0.8322  0.6842  0.5178
 5021SOL    HW226697   0.857   4.084   4.572  1.6503 -0.3604  2.2031
 5022SOL     OW26698   2.742   1.909  11.673  0.7459  0.0314 -0.3895
 5022SOL    HW126699   2.650   1.889  11.654 -0.2639  2.0705  2.1931
 5022SOL    HW226700   2.737   1.933  11.766  0.6600  2.2593 -0.9682
 5023SOL     OW26701   3.709   3.201   2.245  0.1653  0.6286  0.2476
 5023SOL    HW126702   3.785   3.258   2.255 -1.5410  2.9633  0.0698
 5023SOL    HW226703   3.709   3.182   2.151  0.1987  1.4984  0.0651
 5024SOL     OW26704   2.791   2.047   5.447  0.4773 -0.0231 -0.3160
 5024SOL    HW126705   2.711   2.008   5.411 -0.0842  2.5935 -1.9434
 5024SOL    HW226706   2.816   2.098   5.370  1.2082  0.7027  0.4073
 5025SOL     OW26707   2.703   0.925  11.421 -0.4599 -0.1328 -0.3439
 5025SOL    HW126708   2.773   0.894  11.477 -1.6876 -1.0728  0.6604
 5025SOL    HW226709   2.631   0.938  11.483  2.0819 -0.1403  2.5926
 5026SOL     OW26710   1.907   0.104   5.645 -0.2961 -0.1737 -0.1477
 5026SOL    HW126711   1.987   0.154   5.629 -0.0920  0.5481  3.1118
 5026SOL    HW226712   1.945   0.018   5.626  0.6238  0.1348  0.2799
 5027SOL     OW26713   1.836   2.761   4.092 -0.2358 -0.4041  0.4928
 5027SOL    HW126714   1.766   2.820   4.120 -1.1014 -0.3099 -1.8809
 5027SOL    HW226715   1.780   2.697   4.047  2.2514 -0.0197 -3.1740
 5028SOL     OW26716   2.188   2.214  16.233  0.1257  0.1141  0.5748
 5028SOL    HW126717   2.095   2.229  16.247  0.1716 -0.6841  1.7263
 5028SOL    HW226718   2.190   2.124  16.201 -0.0666  0.9479 -1.8126
 5029SOL     OW26719   2.252   3.505   1.387 -0.5394  0.2195  0.2674
 5029SOL    HW126720   2.199   3.461   1.321 -0.4250 -1.2848  1.1827
 5029SOL    HW226721   2.228   3.594   1.360  2.8313  1.0247 -0.0693
 5030SOL     OW26722   3.813   1.430  10.953 -0.0872 -0.7793  0.0975
 5030SOL    HW126723   3.760   1.429  11.033  0.2422 -1.3068  0.3154
 5030SOL    HW226724   3.843   1.521  10.951 -1.1183 -0.5193 -3.4132
 5031SOL     OW26725   0.610   0.529   9.325 -0.7057  0.0814  0.4249
 5031SOL    HW126726   0.551   0.568   9.261  0.9685  1.9304 -0.0086
 5031SOL    HW226727   0.557   0.460   9.364  0.1903 -0.0422  1.4156
 5032SOL     OW26728   1.181   1.847   5.439  0.6198  0.2261  0.5109
 5032SOL    HW126729   1.256   1.817   5.386 -1.6001 -1.7234 -1.5495
 5032SOL    HW226730   1.157   1.933   5.405 -0.1825 -0.2786 -0.2143
 5033SOL     OW26731   1.049   0.037   3.195 -0.0631  0.0371 -0.3715
 5033SOL    HW126732   1.105   0.078   3.129  1.6455  1.3090  1.8975
 5033SOL    HW226733   1.059   4.687   3.157 -2.3137 -0.3138 -0.1745
 5034SOL     OW26734   2.066   3.461  17.483  0.0915 -0.4909 -0.3224
 5034SOL    HW126735   2.086   3.525  17.552 -2.0362  1.2943 -1.3597
 5034SOL    HW226736   2.050   3.381  17.533 -1.0319 -0.6780 -0.9885
 5035SOL     OW26737   1.088   0.080   2.349 -0.3788  0.5056 -0.7139
 5035SOL    HW126738   1.152   0.023   2.391  1.7980  3.6018  0.1920
 5035SOL    HW226739   1.093   0.037   2.264  2.3646  1.9732 -1.3079
 5036SOL     OW26740   0.630   0.824   0.876 -0.4337 -0.2259 -0.1368
 5036SOL    HW126741   0.606   0.733   0.859 -0.2849 -0.6508  1.9018
 5036SOL    HW226742   0.630   0.832   0.971 -0.2558  0.2553 -0.1785
 5037SOL     OW26743   3.826   4.079  17.593 -0.0466  0.0541 -0.5322
 5037SOL    HW126744   3.919   4.056  17.601 -0.0534  0.7078  1.5205
 5037SOL    HW226745   3.811   4.060  17.500 -1.8252  0.2167 -0.2804
 5038SOL     OW26746   1.226   0.997   3.555 -0.1152 -0.3868  0.1661
 5038SOL    HW126747   1.190   0.988   3.643 -0.1632 -1.5906  0.0189
 5038SOL    HW226748   1.262   1.086   3.557  2.5585 -1.5116  2.1820
 5039SOL     OW26749   0.581   0.554   4.255 -0.4296  0.1321 -0.3232
 5039SOL    HW126750   0.508   0.536   4.195 -1.9954  0.0299  1.5809
 5039SOL    HW226751   0.589   0.470   4.299  1.4423  1.4875  1.9573
 5040SOL     OW26752   2.356   3.019   6.248 -0.1516 -0.0164 -0.9181
 5040SOL    HW126753   2.386   2.933   6.218 -2.9748 -0.9984 -0.9044
 5040SOL    HW226754   2.350   3.064   6.165  1.0024  0.5392 -0.7006
 5041SOL     OW26755   1.997   0.105   3.371  0.4963  0.1761 -0.2569
 5041SOL    HW126756   2.027   0.040   3.308 -1.7602 -0.4570 -0.7009
 5041SOL    HW226757   1.920   0.065   3.411 -0.3956  1.6373 -0.4977
 5042SOL     OW26758   0.651   1.698  16.616  0.5042  0.2463 -0.2338
 5042SOL    HW126759   0.711   1.638  16.661  0.1557 -0.8441 -1.2111
 5042SOL    HW226760   0.610   1.645  16.548 -0.1529  2.2033 -1.3590
 5043SOL     OW26761   1.249   4.277   8.223  0.2622 -0.2467 -0.1022
 5043SOL    HW126762   1.266   4.222   8.299 -1.4017  1.8725  1.7820
 5043SOL    HW226763   1.279   4.239   8.140 -0.7438 -0.5832 -0.3064
 5044SOL     OW26764   1.288   1.868   2.573 -0.4479 -0.0380  0.4961
 5044SOL    HW126765   1.303   1.834   2.485 -0.8724 -1.0136  0.8118
 5044SOL    HW226766   1.375   1.870   2.614  0.0916  1.8483 -0.7151
 5045SOL     OW26767   4.279   2.035  12.759  0.0168 -0.1073  0.2795
 5045SOL    HW126768   4.263   2.022  12.665  1.8692  2.1683 -0.3485
 5045SOL    HW226769   4.190   2.021  12.790  0.0962 -0.7858  0.2011
 5046SOL     OW26770   0.016   2.502  16.857 -0.0512  0.5689 -0.5871
 5046SOL    HW126771   0.011   2.556  16.778  0.1359  0.7464 -0.4766
 5046SOL    HW226772   4.677   2.543  16.899  0.6327 -0.2312  1.4282
 5047SOL     OW26773   1.623   1.942   1.168 -0.2035 -0.2617  0.2869
 5047SOL    HW126774   1.602   2.009   1.233 -0.5465  0.5826 -0.6976
 5047SOL    HW226775   1.705   1.910   1.206 -1.0903 -1.9879  0.7496
 5048SOL     OW26776   1.014   1.954   8.600 -0.1236 -0.3521  0.6068
 5048SOL    HW126777   1.102   1.929   8.574  0.9025  4.0094 -0.2006
 5048SOL    HW226778   1.023   2.047   8.579 -0.4070 -0.7224 -1.1620
 5049SOL     OW26779   2.654   0.360   8.184 -0.8149 -0.5876  0.3435
 5049SOL    HW126780   2.686   0.326   8.267  0.0157 -1.6953 -0.4381
 5049SOL    HW226781   2.685   0.291   8.126  0.2466  0.2342 -0.0705
 5050SOL     OW26782   0.184   3.711  16.026  0.4512  0.2221 -0.3607
 5050SOL    HW126783   0.242   3.648  15.983 -0.8375 -2.4614  1.8287
 5050SOL    HW226784   0.149   3.759  15.951 -0.3460 -0.7329 -0.6094
 5051SOL     OW26785   0.595   4.684  12.621  0.0333  0.0653 -0.0455
 5051SOL    HW126786   0.519   4.631  12.598  0.9803 -1.6409  0.8254
 5051SOL    HW226787   0.617   4.733  12.541  1.3534 -2.6230 -1.3091
 5052SOL     OW26788   2.388   2.425   8.428  0.2822  0.4066 -0.0832
 5052SOL    HW126789   2.329   2.462   8.362 -0.1933  0.6109  0.4552
 5052SOL    HW226790   2.324   2.405   8.496  1.4818 -0.8727  0.6764
 5053SOL     OW26791   2.852   1.495  10.624 -0.1703 -0.3146 -0.8857
 5053SOL    HW126792   2.790   1.544  10.569 -0.0640 -0.9878 -1.6111
 5053SOL    HW226793   2.799   1.488  10.703  0.7876 -0.6530 -0.2839
 5054SOL     OW26794   1.418   2.065   1.830  0.8817  0.3387 -0.7150
 5054SOL    HW126795   1.372   2.050   1.748  2.1058 -2.3084 -0.9129
 5054SOL    HW226796   1.469   2.141   1.802  1.6209  0.7605  1.7673
 5055SOL     OW26797   1.888   2.741   0.976 -0.0368  0.2206  0.0967
 5055SOL    HW126798   1.792   2.736   0.977  0.1293 -2.9868 -1.4356
 5055SOL    HW226799   1.908   2.788   0.894  0.0715 -0.1921 -0.1126
 5056SOL     OW26800   0.445   0.112   6.855  0.3134 -0.4178  0.4592
 5056SOL    HW126801   0.413   0.031   6.816 -0.3362  0.1649 -0.2320
 5056SOL    HW226802   0.506   0.076   6.920 -0.6112 -1.4427  0.7685
 5057SOL     OW26803   2.586   3.589   4.813  0.0924  0.5748  0.4380
 5057SOL    HW126804   2.511   3.643   4.787 -0.6119  0.1031  1.4992
 5057SOL    HW226805   2.646   3.596   4.739  0.9927  0.3189  1.1451
 5058SOL     OW26806   2.801   0.293   2.659 -0.2037  0.0713 -0.5036
 5058SOL    HW126807   2.823   0.309   2.567  1.4883 -1.8869 -0.4246
 5058SOL    HW226808   2.846   0.210   2.676  0.3106  0.4851  0.1397
 5059SOL     OW26809   3.943   3.859   6.070 -0.8117  0.3399  0.3225
 5059SOL    HW126810   3.850   3.879   6.062 -0.6078  0.9994 -0.4266
 5059SOL    HW226811   3.979   3.928   6.014  0.1287 -1.9232 -1.8395
 5060SOL     OW26812   2.609   1.572   4.900  0.2261 -0.1329  0.3672
 5060SOL    HW126813   2.699   1.600   4.919  1.5995 -2.5116 -2.5782
 5060SOL    HW226814   2.555   1.649   4.914 -1.2391 -0.9145 -0.9836
 5061SOL     OW26815   4.305   1.755   4.458  0.5871  0.1097  0.3950
 5061SOL    HW126816   4.284   1.834   4.408 -1.0142  0.4431  1.6010
 5061SOL    HW226817   4.222   1.736   4.501  0.6192 -0.1964  0.3176
 5062SOL     OW26818   0.695   4.531   8.692  0.3873  0.0525 -1.0592
 5062SOL    HW126819   0.675   4.489   8.608 -1.9118  2.0407 -1.5244
 5062SOL    HW226820   0.615   4.577   8.718  1.1328  0.4759  0.5002
 5063SOL     OW26821   0.853   4.148   1.353  0.2918 -0.2870 -0.4269
 5063SOL    HW126822   0.805   4.165   1.434 -2.6051  2.6525 -2.7403
 5063SOL    HW226823   0.862   4.234   1.312 -0.7733  0.3458  0.6763
 5064SOL     OW26824   4.110   4.710   2.486 -0.7116  0.2366  0.1341
 5064SOL    HW126825   4.134   0.031   2.558 -1.6051 -0.1505  0.7531
 5064SOL    HW226826   4.174   0.008   2.424  0.9520 -3.1615 -0.0696
 5065SOL     OW26827   1.268   2.025   9.589 -0.0464  0.1988 -0.0635
 5065SOL    HW126828   1.301   2.064   9.670  0.8370 -0.1016 -0.2724
 5065SOL    HW226829   1.354   1.996   9.558  0.7045 -0.7088  2.8612
 5066SOL     OW26830   2.503   4.291   5.012 -0.0044  0.0819 -0.5328
 5066SOL    HW126831   2.489   4.197   5.026  2.5470 -0.2141  0.0345
 5066SOL    HW226832   2.486   4.326   5.099 -2.8118 -2.0006 -0.2270
 5067SOL     OW26833   0.307   4.106   5.880  0.3493  0.0276 -0.3406
 5067SOL    HW126834   0.393   4.114   5.921 -0.4278 -0.3383  1.3679
 5067SOL    HW226835   0.289   4.014   5.900  2.0500 -0.2314  0.0022
 5068SOL     OW26836   2.339   0.479   2.625  0.0180  0.2536 -0.2028
 5068SOL    HW126837   2.268   0.446   2.570  0.3651 -0.1808 -0.3948
 5068SOL    HW226838   2.313   0.452   2.713 -0.3818  0.0638 -0.3831
 5069SOL     OW26839   2.777   3.720   4.636  0.1607 -0.3546 -0.0987
 5069SOL    HW126840   2.843   3.743   4.570 -1.9248  1.1858 -1.6169
 5069SOL    HW226841   2.785   3.625   4.628 -0.8868 -0.2266 -2.5537
 5070SOL     OW26842   1.882   2.810   8.167  0.0099  0.1569  0.1700
 5070SOL    HW126843   1.813   2.759   8.209 -0.1088  1.2482  1.2972
 5070SOL    HW226844   1.952   2.815   8.233 -2.3082  1.3805  2.5348
 5071SOL     OW26845   0.803   3.271   7.507  0.2748  0.2011  0.2768
 5071SOL    HW126846   0.866   3.247   7.439  0.3848  0.6645  0.2180
 5071SOL    HW226847   0.756   3.187   7.503 -0.7442  0.7131  1.6033
 5072SOL     OW26848   0.430   3.777  15.873 -0.0567 -0.5441  0.0156
 5072SOL    HW126849   0.388   3.832  15.807 -1.6188 -0.1110  1.3764
 5072SOL    HW226850   0.407   3.814  15.958 -3.4121 -0.8897 -0.7309
 5073SOL     OW26851   0.103   0.610   6.481  0.2768 -0.3480 -0.1792
 5073SOL    HW126852   0.088   0.630   6.389  1.0470  1.4628  0.0924
 5073SOL    HW226853   0.014   0.609   6.515 -0.4786  0.0991 -2.1322
 5074SOL     OW26854   2.257   2.385   4.918 -0.6867  0.3507  0.2511
 5074SOL    HW126855   2.327   2.325   4.893 -0.8103  0.3230 -0.0281
 5074SOL    HW226856   2.299   2.463   4.954  0.3000  0.0537 -0.2702
 5075SOL     OW26857   3.923   0.592  10.625  0.0744  0.1426  0.0835
 5075SOL    HW126858   3.861   0.536  10.671 -0.4950 -0.7106 -1.7219
 5075SOL    HW226859   4.002   0.600  10.679  0.5915 -1.0543 -0.5033
 5076SOL     OW26860   3.091   3.224   2.076  0.2973  0.5184  0.4035
 5076SOL    HW126861   3.122   3.314   2.065  2.2254 -0.1847 -0.0495
 5076SOL    HW226862   3.046   3.221   2.161 -1.2665  0.6990 -0.4266
 5077SOL     OW26863   3.361   2.295   2.440  0.5320  0.2981  0.3165
 5077SOL    HW126864   3.365   2.216   2.387  2.7570  1.3191 -1.0300
 5077SOL    HW226865   3.365   2.255   2.526  1.0357 -1.3091 -0.4479
 5078SOL     OW26866   3.317   0.112   6.643  0.6172  0.0546 -0.2629
 5078SOL    HW126867   3.349   0.199   6.621  2.4102 -0.3691  0.7332
 5078SOL    HW226868   3.402   0.070   6.649  0.9487  0.5601 -1.3609
 5079SOL     OW26869   0.137   2.600   1.393  0.2845 -0.4258  0.1294
 5079SOL    HW126870   0.183   2.682   1.410  0.2559 -0.9592  2.7709
 5079SOL    HW226871   0.143   2.554   1.477  0.2435 -0.3695  0.1634
 5080SOL     OW26872   3.557   2.321   8.636  0.4440 -0.2689 -0.6227
 5080SOL    HW126873   3.483   2.293   8.582  0.6166 -2.2200  0.1619
 5080SOL    HW226874   3.601   2.376   8.571 -0.5199  1.6337  0.3171
 5081SOL     OW26875   2.272   0.934   3.037  0.4541 -0.6733 -0.0040
 5081SOL    HW126876   2.318   0.922   3.120 -1.7912 -0.7326  1.2321
 5081SOL    HW226877   2.298   0.861   2.980  0.5663 -0.0239 -0.7859
 5082SOL     OW26878   3.846   2.902  12.184 -0.0291 -0.2437 -0.0320
 5082SOL    HW126879   3.935   2.874  12.163 -0.1592 -1.4120  0.9888
 5082SOL    HW226880   3.842   2.922  12.278  2.2425  1.1750 -0.2423
 5083SOL     OW26881   1.436   2.748   2.767 -0.2036  0.8812 -0.2999
 5083SOL    HW126882   1.348   2.767   2.732 -1.2527  0.9055  2.3337
 5083SOL    HW226883   1.451   2.822   2.827  0.6859  0.0434  0.5058
 5084SOL     OW26884   0.841   2.077   3.355  0.2389 -0.5041  0.3499
 5084SOL    HW126885   0.921   2.119   3.322  0.5667 -2.0151 -0.7773
 5084SOL    HW226886   0.875   1.992   3.382  1.5529 -0.0848  0.0142
 5085SOL     OW26887   3.092   4.411   9.721 -0.2758  0.0075  0.3879
 5085SOL    HW126888   3.117   4.320   9.738 -1.9678 -0.0731  2.4821
 5085SOL    HW226889   3.033   4.441   9.790 -1.8423 -1.2949 -0.3950
 5086SOL     OW26890   4.417   0.641   1.419  0.4764  0.1544 -0.0008
 5086SOL    HW126891   4.331   0.609   1.444  1.6981 -2.6036  0.7080
 5086SOL    HW226892   4.462   0.559   1.394 -1.6462 -1.3245  1.0522
 5087SOL     OW26893   3.828   0.800  16.233 -0.0879 -0.0265 -0.0271
 5087SOL    HW126894   3.787   0.854  16.301 -0.5141 -3.2493  2.2437
 5087SOL    HW226895   3.863   0.864  16.170  0.9074 -0.2409  0.2971
 5088SOL     OW26896   2.293   2.472  12.770  0.1618  0.1966 -0.0760
 5088SOL    HW126897   2.235   2.409  12.814  1.9050 -1.1228  0.3113
 5088SOL    HW226898   2.260   2.555  12.803  0.0435  0.1787 -0.1469
 5089SOL     OW26899   3.430   1.090   4.819 -0.1953  0.1742 -0.4293
 5089SOL    HW126900   3.508   1.094   4.874 -1.7897  0.2992  1.8381
 5089SOL    HW226901   3.443   1.171   4.771 -1.0714  0.8936  0.5453
 5090SOL     OW26902   0.754   4.191  15.648  0.1582 -0.0344  0.3956
 5090SOL    HW126903   0.843   4.166  15.670  0.1475  0.3380  0.8533
 5090SOL    HW226904   0.704   4.171  15.727  1.5776 -0.9133  1.0518
 5091SOL     OW26905   3.673   3.104   1.956  0.3140 -0.2798 -0.7134
 5091SOL    HW126906   3.729   3.116   1.879  2.6363 -1.9951  0.7094
 5091SOL    HW226907   3.589   3.090   1.912 -0.6864  1.1405  0.7521
 5092SOL     OW26908   1.547   1.825   9.087 -0.0540  0.0761 -0.0543
 5092SOL    HW126909   1.497   1.804   9.007  0.2443  0.9951 -0.4764
 5092SOL    HW226910   1.581   1.912   9.065  2.5507 -0.3130  2.5060
 5093SOL     OW26911   2.391   3.855  17.395  0.1957 -0.2816 -0.4802
 5093SOL    HW126912   2.469   3.847  17.449  0.3446 -0.1999 -0.6857
 5093SOL    HW226913   2.425   3.930  17.346  0.2048  1.4589  2.1841
 5094SOL     OW26914   0.908   4.473   8.877  0.1546 -0.3698 -0.5118
 5094SOL    HW126915   0.859   4.522   8.811 -0.1710  0.5723  0.4362
 5094SOL    HW226916   0.835   4.410   8.882 -0.4195  0.4478  1.3728
 5095SOL     OW26917   3.227   1.126  11.653  0.6132  0.5038 -0.3049
 5095SOL    HW126918   3.292   1.062  11.681 -1.0867 -1.3601 -0.5475
 5095SOL    HW226919   3.262   1.209  11.687 -2.1716  0.5170  2.5757
 5096SOL     OW26920   4.653   3.370   9.222 -0.0791  0.3348 -0.4337
 5096SOL    HW126921   4.725   3.349   9.281  0.1672 -1.1158 -1.2554
 5096SOL    HW226922   4.577   3.394   9.276 -0.6859 -2.2538 -0.1387
 5097SOL     OW26923   4.625   3.898   3.462  0.7012  0.6361  0.1295
 5097SOL    HW126924   4.548   3.853   3.496  0.3730 -0.4985 -2.0948
 5097SOL    HW226925   4.605   3.986   3.494  0.9805  1.0627 -0.8480
 5098SOL     OW26926   4.609   2.194  10.128 -0.3538 -0.5183 -0.0747
 5098SOL    HW126927   4.623   2.111  10.082 -1.1441 -0.9766  0.5166
 5098SOL    HW226928   4.589   2.178  10.220  3.1592  1.0956  0.9457
 5099SOL     OW26929   2.614   2.779   4.595 -0.4046 -0.5603 -0.0248
 5099SOL    HW126930   2.679   2.709   4.590 -0.8018 -1.0077  1.0952
 5099SOL    HW226931   2.563   2.766   4.515  1.5511 -0.5980 -1.2493
 5100SOL     OW26932   1.219   1.228   6.306 -0.0385  0.0491 -0.0970
 5100SOL    HW126933   1.217   1.311   6.259 -1.4287 -0.3682 -0.7653
 5100SOL    HW226934   1.191   1.171   6.235  0.9054 -1.7204  0.9709
 5101SOL     OW26935   3.926   0.163   0.794 -0.0194  0.5328  0.2926
 5101SOL    HW126936   3.838   0.197   0.781 -1.2002 -2.1453  1.1464
 5101SOL    HW226937   3.942   0.187   0.885  0.9116 -0.7743  0.4839
 5102SOL     OW26938   1.401   1.541   6.625  0.2032  0.4078 -0.0067
 5102SOL    HW126939   1.431   1.512   6.539  1.7581 -1.5473  1.2065
 5102SOL    HW226940   1.393   1.636   6.613  0.5782  0.4477  0.0728
 5103SOL     OW26941   3.168   0.670   6.581 -0.4914 -0.2519 -0.4312
 5103SOL    HW126942   3.087   0.625   6.556  0.0381 -3.2536  3.3730
 5103SOL    HW226943   3.221   0.594   6.603 -0.3461  0.2198  0.8407
 5104SOL     OW26944   2.176   4.418   1.007  0.0894 -0.0748  0.0076
 5104SOL    HW126945   2.171   4.434   1.102 -2.5774 -2.3647  0.2627
 5104SOL    HW226946   2.144   4.498   0.965  2.7194 -0.2077 -2.2550
 5105SOL     OW26947   1.664   3.457   7.429 -0.0956 -0.3502  0.9856
 5105SOL    HW126948   1.599   3.423   7.368  1.7815 -0.6534 -0.8675
 5105SOL    HW226949   1.663   3.391   7.498  1.0170 -0.9100  0.4741
 5106SOL     OW26950   1.904   2.953   3.484  0.0066 -0.0793  0.6715
 5106SOL    HW126951   1.842   2.923   3.550  1.0410 -1.5095  1.0039
 5106SOL    HW226952   1.884   3.046   3.489 -0.7661 -0.2032 -0.0317
 5107SOL     OW26953   0.610   2.642  14.045  0.1959  0.0245  0.0445
 5107SOL    HW126954   0.696   2.623  14.085 -0.1411 -0.0585  0.7326
 5107SOL    HW226955   0.554   2.683  14.111  0.7643 -0.3363  0.7627
 5108SOL     OW26956   1.200   3.398   8.313 -0.2170 -0.4849 -0.7417
 5108SOL    HW126957   1.243   3.317   8.286  2.1207  1.2118 -2.1533
 5108SOL    HW226958   1.110   3.377   8.337 -0.4675  0.1672 -1.1082
 5109SOL     OW26959   0.728   1.685   3.645  0.4465 -0.1417 -0.0047
 5109SOL    HW126960   0.746   1.614   3.707  0.6228 -0.3196 -0.2589
 5109SOL    HW226961   0.740   1.759   3.705  0.4272 -1.1849  1.2933
 5110SOL     OW26962   3.008   0.751   3.772  0.2923 -0.7436 -0.1927
 5110SOL    HW126963   2.934   0.730   3.830 -0.3312 -0.8188 -1.0117
 5110SOL    HW226964   3.083   0.744   3.830  0.4200  0.9321 -0.1578
 5111SOL     OW26965   2.175   2.909   3.447  0.2296 -0.0377  0.0543
 5111SOL    HW126966   2.085   2.941   3.449 -0.3074 -1.5224 -0.4153
 5111SOL    HW226967   2.177   2.901   3.352 -2.0172 -4.2196  0.3374
 5112SOL     OW26968   2.297   4.265   6.796  0.4165 -0.1818  0.3293
 5112SOL    HW126969   2.315   4.297   6.884 -0.8921 -1.4804  1.0590
 5112SOL    HW226970   2.202   4.266   6.809  0.6573  2.5525  1.9179
 5113SOL     OW26971   2.670   2.829   6.839  0.2578 -0.2028  0.3803
 5113SOL    HW126972   2.696   2.919   6.819 -3.3589  0.3047 -2.0255
 5113SOL    HW226973   2.581   2.841   6.872 -0.1562  0.9909 -1.1358
 5114SOL     OW26974   2.873   3.476   9.332  0.1005 -0.0039 -0.7255
 5114SOL    HW126975   2.930   3.539   9.375 -0.3307  0.7063 -1.1978
 5114SOL    HW226976   2.806   3.454   9.396  2.7659 -3.0053  1.0149
 5115SOL     OW26977   3.734   0.466  11.994  0.1690  0.8846 -0.0148
 5115SOL    HW126978   3.803   0.532  11.997 -1.2484  2.4477 -1.2530
 5115SOL    HW226979   3.741   0.434  12.084  0.6437  1.0562  0.0098
 5116SOL     OW26980   1.974   4.010   7.335 -0.1303  0.1541 -0.4575
 5116SOL    HW126981   2.029   3.976   7.405  0.0395  0.1835 -0.5765
 5116SOL    HW226982   1.996   4.104   7.333 -1.3386  0.4634  0.7853
 5117SOL     OW26983   2.819   4.374  14.985  0.2323 -0.1908 -0.3663
 5117SOL    HW126984   2.760   4.313  14.940  1.3631 -0.7855 -1.0440
 5117SOL    HW226985   2.837   4.439  14.917 -1.0566 -0.3032 -0.8107
 5118SOL     OW26986   3.729   0.103   4.207  0.1905  0.1074 -0.3474
 5118SOL    HW126987   3.776   0.162   4.148 -1.2265 -0.0216 -1.5926
 5118SOL    HW226988   3.801   0.073   4.262  1.5565  2.5292 -0.8017
 5119SOL     OW26989   4.502   2.975  15.907 -0.3858  0.8476  0.2729
 5119SOL    HW126990   4.553   2.980  15.826  0.0295  0.8432  0.5330
 5119SOL    HW226991   4.420   2.938  15.875 -0.4483  2.6265 -1.6260
 5120SOL     OW26992   0.614   1.467   1.321 -0.1754 -0.5742 -0.1014
 5120SOL    HW126993   0.594   1.373   1.318 -0.5522 -0.4262 -1.9832
 5120SOL    HW226994   0.637   1.485   1.230  2.1135 -0.2972  0.5348
 5121SOL     OW26995   0.935   4.431  10.378 -0.6282  0.1836 -0.2243
 5121SOL    HW126996   0.930   4.337  10.396  1.0904  0.1299 -0.0652
 5121SOL    HW226997   1.026   4.455  10.396 -0.2576 -1.5185  0.1981
 5122SOL     OW26998   3.674   1.187   9.641 -0.3108 -0.2755 -0.1219
 5122SOL    HW126999   3.649   1.180   9.549  0.9528  0.0275 -0.4818
 5122SOL    HW227000   3.619   1.262   9.664  2.8150  2.7905 -2.7079
 5123SOL     OW27001   0.201   4.361   1.995 -0.3977  0.5834 -0.1261
 5123SOL    HW127002   0.219   4.272   1.967 -1.1398  0.0467  1.1095
 5123SOL    HW227003   0.208   4.353   2.091  0.5749  3.6948  0.0714
 5124SOL     OW27004   1.424   0.851   7.200 -0.0242 -0.1515 -0.0174
 5124SOL    HW127005   1.361   0.789   7.163 -0.4805  0.5438 -0.3989
 5124SOL    HW227006   1.381   0.934   7.178 -0.1050 -0.0840  0.3777
 5125SOL     OW27007   0.375   3.938   3.258 -0.3390  0.1242 -0.6866
 5125SOL    HW127008   0.293   3.897   3.288 -0.1834  1.3282  1.3539
 5125SOL    HW227009   0.386   4.004   3.326 -0.5323 -0.9121  0.3703
 5126SOL     OW27010   3.310   0.070   2.954 -0.1658  0.2090  0.2591
 5126SOL    HW127011   3.257   0.035   3.025  2.7329 -3.8787  0.3874
 5126SOL    HW227012   3.297   0.165   2.956  3.2599  0.6824 -0.4545
 5127SOL     OW27013   4.627   0.087   3.953  0.2891 -0.0487  0.3796
 5127SOL    HW127014   4.619   0.112   3.861 -0.6115 -0.7768  0.2551
 5127SOL    HW227015   4.633   4.728   3.951 -1.7596 -0.1527 -0.7566
 5128SOL     OW27016   2.260   4.264   5.817 -0.1913  0.0691  0.2685
 5128SOL    HW127017   2.248   4.180   5.862 -2.1072 -1.5683 -3.3077
 5128SOL    HW227018   2.353   4.261   5.796 -0.6784 -3.7518 -1.3450
 5129SOL     OW27019   1.306   0.444  13.923 -0.0149 -0.0524 -0.6811
 5129SOL    HW127020   1.399   0.441  13.942 -0.1350  1.2840  0.0801
 5129SOL    HW227021   1.309   0.536  13.898  0.2452  0.9168  2.8787
 5130SOL     OW27022   0.749   2.605   5.349 -0.1100  0.1930  0.1314
 5130SOL    HW127023   0.745   2.680   5.409 -1.9292  1.1069 -1.1378
 5130SOL    HW227024   0.725   2.528   5.401  1.2301 -1.1748 -1.2786
 5131SOL     OW27025   4.326   0.878   1.276  0.3102  0.3461  0.1959
 5131SOL    HW127026   4.300   0.825   1.351 -0.7284 -0.6769 -0.8929
 5131SOL    HW227027   4.365   0.810   1.220  1.1501  0.4761  0.6144
 5132SOL     OW27028   4.339   3.544   5.230 -0.2553 -0.0194  0.0786
 5132SOL    HW127029   4.321   3.508   5.317  0.2576  0.9241  0.5718
 5132SOL    HW227030   4.304   3.476   5.172 -1.1566 -0.7141  1.4395
 5133SOL     OW27031   1.951   3.609   0.583 -0.1560  0.4061  0.2664
 5133SOL    HW127032   1.863   3.638   0.559 -0.9938 -1.2098  1.4312
 5133SOL    HW227033   1.950   3.616   0.678 -0.8041  0.4603  0.2562
 5134SOL     OW27034   0.707   3.508   8.438  0.1439  0.0724 -0.4668
 5134SOL    HW127035   0.613   3.516   8.420 -0.0812 -0.1716  0.5821
 5134SOL    HW227036   0.727   3.601   8.437 -3.3816  0.8606  1.2654
 5135SOL     OW27037   2.167   4.133   1.787 -0.2398 -0.4641  0.0403
 5135SOL    HW127038   2.075   4.114   1.770 -0.2627  0.3444 -0.7881
 5135SOL    HW227039   2.163   4.189   1.864 -1.6414  2.2946 -2.0012
 5136SOL     OW27040   3.096   2.142   7.973 -0.3280 -0.1034 -0.1794
 5136SOL    HW127041   3.037   2.067   7.971 -0.2894 -0.1192 -1.0550
 5136SOL    HW227042   3.141   2.143   7.888 -0.4062 -0.1963 -0.2219
 5137SOL     OW27043   4.082   0.307   5.135 -0.1411  0.3358  0.5903
 5137SOL    HW127044   4.083   0.253   5.056 -1.9525 -1.1678  1.5776
 5137SOL    HW227045   4.083   0.396   5.101  3.0357 -0.8718 -2.5060
 5138SOL     OW27046   1.493   3.924   4.962 -0.4015 -0.1903  0.4490
 5138SOL    HW127047   1.401   3.933   4.984 -1.0073 -1.1296 -1.7255
 5138SOL    HW227048   1.499   3.830   4.944 -1.8460 -0.4179  1.2213
 5139SOL     OW27049   2.727   0.056   1.726 -0.2394  0.4163 -0.0244
 5139SOL    HW127050   2.640   0.094   1.737  0.1793  1.8134 -1.5414
 5139SOL    HW227051   2.739   0.007   1.808 -1.7936 -1.0684 -0.6908
 5140SOL     OW27052   3.710   3.885   7.534 -0.0513 -0.2186  0.1448
 5140SOL    HW127053   3.731   3.874   7.442 -1.8110 -2.8197  0.0735
 5140SOL    HW227054   3.614   3.891   7.533 -0.1626 -1.4882  2.2794
 5141SOL     OW27055   4.319   2.131  11.298  0.2471  0.3447  0.4446
 5141SOL    HW127056   4.306   2.165  11.210 -0.2648  0.3605  0.5293
 5141SOL    HW227057   4.411   2.105  11.293  0.1148  0.1753 -1.0990
 5142SOL     OW27058   1.203   3.100  14.813 -0.5151 -0.7781 -0.3497
 5142SOL    HW127059   1.121   3.120  14.766  0.5430 -1.4645 -2.5061
 5142SOL    HW227060   1.266   3.145  14.756 -2.2732  0.1032 -1.6170
 5143SOL     OW27061   2.648   0.605  14.903  0.2558 -0.0021 -0.0189
 5143SOL    HW127062   2.700   0.669  14.951 -0.5533  0.3799  0.3280
 5143SOL    HW227063   2.582   0.655  14.855 -2.1747 -0.7948  2.5040
 5144SOL     OW27064   3.602   1.106   6.137  0.0434 -0.0020  0.2008
 5144SOL    HW127065   3.525   1.163   6.147  0.7178  0.7636  1.0409
 5144SOL    HW227066   3.650   1.129   6.217  0.9631  2.2115 -1.0097
 5145SOL     OW27067   3.657   2.196   8.862  0.0473 -0.5261  0.2609
 5145SOL    HW127068   3.723   2.172   8.797  0.1733 -1.9835  0.9336
 5145SOL    HW227069   3.605   2.256   8.808 -0.4642 -2.3525 -1.3055
 5146SOL     OW27070   0.995   1.402   3.365 -0.5064  0.3222 -0.0641
 5146SOL    HW127071   1.036   1.371   3.447 -0.6250 -0.8418 -0.4461
 5146SOL    HW227072   0.904   1.395   3.392 -0.7892  1.0238 -0.8545
 5147SOL     OW27073   2.665   1.081  16.795  0.6037  0.2634  0.3039
 5147SOL    HW127074   2.606   1.080  16.870 -1.0688  2.3189 -0.9762
 5147SOL    HW227075   2.737   1.023  16.820  0.7419 -0.9025 -2.7950
 5148SOL     OW27076   0.902   0.703   0.152 -0.3760 -0.3462 -0.6330
 5148SOL    HW127077   0.963   0.772   0.126  0.8085 -1.2056 -0.1494
 5148SOL    HW227078   0.833   0.753   0.195 -0.1865 -0.9115  0.3322
 5149SOL     OW27079   0.054   0.708   5.810 -0.4512 -0.5108  0.0565
 5149SOL    HW127080   0.007   0.791   5.807 -0.3663 -0.4864 -0.6346
 5149SOL    HW227081   0.124   0.717   5.745 -1.1576 -0.0916 -0.6338
 5150SOL     OW27082   0.085   4.276  17.620  0.5407  0.3538 -0.0693
 5150SOL    HW127083   0.005   4.284  17.567  0.8713  3.5987 -0.0797
 5150SOL    HW227084   0.072   4.189  17.657  1.2990  1.0618  1.8611
 5151SOL     OW27085   1.009   0.075  15.971  0.1786 -0.3954  0.5349
 5151SOL    HW127086   1.048   0.112  15.892 -0.7269  1.2690  0.8863
 5151SOL    HW227087   1.010   0.141  16.040  2.5803  0.6363 -0.5039
 5152SOL     OW27088   3.068   2.399   2.850  0.2055 -0.3182 -0.1362
 5152SOL    HW127089   2.998   2.432   2.905 -0.5602 -0.2987 -1.1276
 5152SOL    HW227090   3.129   2.472   2.834  1.2546 -1.6545 -2.2596
 5153SOL     OW27091   3.608   2.235   6.379 -0.5406  0.0022 -0.2083
 5153SOL    HW127092   3.548   2.232   6.305 -1.4179 -2.7123  0.6273
 5153SOL    HW227093   3.533   2.244   6.439 -0.6555  3.6570 -0.8589
 5154SOL     OW27094   3.559   4.192   8.428  0.2682  0.7977 -0.0370
 5154SOL    HW127095   3.463   4.186   8.434  0.5977 -2.0967  2.6669
 5154SOL    HW227096   3.589   4.102   8.421 -1.5747  0.1016  0.8943
 5155SOL     OW27097   3.442   4.144   6.657 -0.3878  0.7574  0.4495
 5155SOL    HW127098   3.519   4.148   6.599 -0.6075 -3.6750 -0.1544
 5155SOL    HW227099   3.450   4.232   6.694  1.4050  0.1613  1.5036
 5156SOL     OW27100   1.066   1.992   2.135  0.1106  0.3284  0.4717
 5156SOL    HW127101   1.025   2.047   2.069  1.0225  0.5094  0.0587
 5156SOL    HW227102   1.124   2.060   2.168  1.4895  0.0048 -1.2390
 5157SOL     OW27103   0.569   1.536   6.483  0.2339  0.2469 -0.2017
 5157SOL    HW127104   0.543   1.499   6.398  1.1992  0.4023 -0.5578
 5157SOL    HW227105   0.580   1.457   6.537 -1.0569  1.6900  2.1855
 5158SOL     OW27106   4.267   1.796   3.986  0.4854 -0.0917  0.1219
 5158SOL    HW127107   4.332   1.729   3.965 -0.1075 -0.1465 -1.5265
 5158SOL    HW227108   4.307   1.881   3.964  0.1414  0.5566  1.9657
 5159SOL     OW27109   2.503   0.587  12.611 -0.6134  0.0846  0.0303
 5159SOL    HW127110   2.547   0.665  12.579  0.2951 -1.1563 -1.7263
 5159SOL    HW227111   2.459   0.620  12.689  1.1177 -1.5921  1.7399
 5160SOL     OW27112   0.320   1.353   2.808  0.1895  0.0201  0.3748
 5160SOL    HW127113   0.238   1.364   2.760  0.6631 -1.7859 -0.8366
 5160SOL    HW227114   0.376   1.425   2.779 -1.1288  1.4896  1.4535
 5161SOL     OW27115   2.046   1.124  17.489  0.4536  0.4533 -0.0828
 5161SOL    HW127116   2.053   1.183  17.414  1.5935 -0.6094 -0.8070
 5161SOL    HW227117   2.045   1.039  17.446 -0.3510  0.7207 -0.5794
 5162SOL     OW27118   3.695   1.902   6.716  0.3136 -0.6065  0.0763
 5162SOL    HW127119   3.608   1.927   6.686  1.5565 -0.4188 -3.4481
 5162SOL    HW227120   3.758   1.918   6.645  0.8202 -1.1705  0.3983
 5163SOL     OW27121   3.859   2.719  13.190  0.2032  0.3511  0.7053
 5163SOL    HW127122   3.944   2.758  13.169  0.9918 -0.1523  2.9843
 5163SOL    HW227123   3.831   2.789  13.250 -0.4684  2.9319 -2.6376
 5164SOL     OW27124   3.197   1.002   7.122 -0.4029  0.0581 -0.1719
 5164SOL    HW127125   3.108   0.973   7.142 -0.1956  0.7669  1.8041
 5164SOL    HW227126   3.253   0.929   7.148 -1.3848  0.3475  2.6931
 5165SOL     OW27127   4.313   4.345   1.798 -0.7311 -0.0457  0.3896
 5165SOL    HW127128   4.350   4.427   1.765  1.4639 -1.0114  0.3952
 5165SOL    HW227129   4.327   4.365   1.890 -1.1682 -1.2952  0.7303
 5166SOL     OW27130   0.356   3.140   1.724  0.9831  0.5626 -0.6127
 5166SOL    HW127131   0.276   3.166   1.770  1.7690  0.4255  0.8254
 5166SOL    HW227132   0.400   3.095   1.796 -0.2236 -0.4786 -0.5290
 5167SOL     OW27133   4.118   4.324   5.119  0.4675 -0.5589 -0.5639
 5167SOL    HW127134   4.204   4.308   5.157 -0.9808  0.8227  3.2699
 5167SOL    HW227135   4.061   4.258   5.158 -0.7829  1.6054  1.2101
 5168SOL     OW27136   2.689   2.018  16.614  0.6831 -0.2517  0.2100
 5168SOL    HW127137   2.649   2.026  16.528  1.0851  0.2797  0.0705
 5168SOL    HW227138   2.721   2.107  16.630 -1.5491  0.2839  1.6224
 5169SOL     OW27139   1.601   1.598   5.196 -0.8231 -0.0521 -1.2696
 5169SOL    HW127140   1.555   1.535   5.139 -0.4421 -0.9267 -0.6074
 5169SOL    HW227141   1.528   1.648   5.233  0.3191  0.2248  0.5509
 5170SOL     OW27142   0.444   4.488   8.078  0.1058 -1.4530  0.5291
 5170SOL    HW127143   0.400   4.404   8.089  0.8855 -1.9119  0.0735
 5170SOL    HW227144   0.371   4.550   8.070 -0.0785 -2.0195 -2.0926
 5171SOL     OW27145   4.113   2.534   2.194 -0.1816 -0.2624  0.1002
 5171SOL    HW127146   4.066   2.461   2.235  2.2364 -1.3553  0.8628
 5171SOL    HW227147   4.159   2.569   2.269 -1.7728 -0.7332  1.3023
 5172SOL     OW27148   0.164   3.095   4.363  0.3333 -0.3756  0.1595
 5172SOL    HW127149   0.224   3.102   4.290  2.1198 -0.5579  1.6053
 5172SOL    HW227150   0.081   3.132   4.334 -0.8677 -2.3605  1.0120
 5173SOL     OW27151   2.460   3.199   4.701 -0.2424  0.5636  0.8477
 5173SOL    HW127152   2.491   3.110   4.685 -2.9965 -0.3343  0.5054
 5173SOL    HW227153   2.437   3.226   4.612  0.5968 -1.6095 -0.0208
 5174SOL     OW27154   2.275   1.098  13.001 -0.1237 -0.0642 -0.8727
 5174SOL    HW127155   2.333   1.153  13.052  0.0424 -0.7752 -0.2994
 5174SOL    HW227156   2.191   1.144  13.013  0.0228 -0.2208  0.7214
 5175SOL     OW27157   1.228   1.053   0.437 -0.2224  0.6727  0.0622
 5175SOL    HW127158   1.228   1.037   0.531  1.3516  1.8182  0.2558
 5175SOL    HW227159   1.271   0.971   0.412 -1.6461  0.1997 -0.8801
 5176SOL     OW27160   4.483   2.059   7.139  0.5245 -0.3775  0.4105
 5176SOL    HW127161   4.470   1.970   7.105 -0.5486 -0.5729  1.3173
 5176SOL    HW227162   4.493   2.095   7.051 -1.7049  1.0652  0.7326
 5177SOL     OW27163   1.391   3.634   0.552  0.4349  0.2093 -0.0579
 5177SOL    HW127164   1.404   3.705   0.615  0.9266  1.2606 -1.3481
 5177SOL    HW227165   1.296   3.629   0.567  0.3952 -0.7797 -0.6818
 5178SOL     OW27166   1.745   3.296  11.918 -0.3330  0.1099  0.1834
 5178SOL    HW127167   1.671   3.339  11.960 -0.1491  1.9908 -1.3914
 5178SOL    HW227168   1.703   3.226  11.866 -1.4695  1.3372 -0.5509
 5179SOL     OW27169   3.390   2.934   7.318 -0.5342  0.2143 -0.1838
 5179SOL    HW127170   3.364   2.943   7.409  0.9437 -1.7625  0.4244
 5179SOL    HW227171   3.458   2.867   7.322  1.5697  2.2572 -1.9518
 5180SOL     OW27172   3.406   0.757  14.753 -0.7058  0.4065 -0.2620
 5180SOL    HW127173   3.455   0.825  14.708  1.2271 -0.4338  0.5786
 5180SOL    HW227174   3.478   0.696  14.770  0.5446  1.3529 -2.1840
 5181SOL     OW27175   0.352   2.943   2.983  0.3737  0.6337 -0.0240
 5181SOL    HW127176   0.444   2.958   3.003  0.5756 -1.4144  0.6182
 5181SOL    HW227177   0.311   2.950   3.069  1.2576 -0.1309  0.4607
 5182SOL     OW27178   3.276   3.892   5.403  0.0588 -0.3456 -0.2349
 5182SOL    HW127179   3.338   3.960   5.431 -1.6763  0.9509  0.4398
 5182SOL    HW227180   3.333   3.818   5.424 -1.7171 -1.5039  0.4893
 5183SOL     OW27181   1.646   1.414   6.107 -0.7327  0.0519  0.0700
 5183SOL    HW127182   1.741   1.428   6.109 -0.9808  1.7375 -0.1062
 5183SOL    HW227183   1.621   1.488   6.052 -2.4840  1.0335  2.2142
 5184SOL     OW27184   3.036   2.113  12.588 -0.2457  0.1941 -0.4509
 5184SOL    HW127185   3.106   2.067  12.636 -0.6539  1.1048  1.0363
 5184SOL    HW227186   3.093   2.176  12.544 -1.0875  1.1778 -0.1289
 5185SOL     OW27187   3.630   1.089   4.500  0.1154 -0.1927 -0.3401
 5185SOL    HW127188   3.590   1.043   4.426 -1.7900  0.7857  0.0801
 5185SOL    HW227189   3.713   1.041   4.508 -0.0727 -0.7703 -2.0051
 5186SOL     OW27190   1.527   4.628   7.723  0.0946  0.6698  0.3950
 5186SOL    HW127191   1.589   4.648   7.653 -0.3745 -0.2843 -0.2979
 5186SOL    HW227192   1.471   4.700   7.696 -2.2056 -0.6416  1.6063
 5187SOL     OW27193   1.975   3.899   9.789  0.1244  0.3604  0.2473
 5187SOL    HW127194   1.986   3.808   9.763  2.3696  0.7469 -0.2492
 5187SOL    HW227195   1.884   3.898   9.816 -0.2310 -0.8536 -0.9801
 5188SOL     OW27196   2.270   0.313   9.041  0.2180 -0.1823 -0.1129
 5188SOL    HW127197   2.190   0.306   8.991  1.3646 -0.4795 -1.8987
 5188SOL    HW227198   2.333   0.289   8.973 -0.1964  1.5703 -1.1282
 5189SOL     OW27199   0.914   3.239  12.326  0.5606  0.2500 -0.5293
 5189SOL    HW127200   1.004   3.256  12.355  0.4387 -0.1483  0.0762
 5189SOL    HW227201   0.910   3.161  12.380  0.5204 -0.2058 -1.1880
 5190SOL     OW27202   0.162   4.711   7.038  0.1795 -0.3873  0.8420
 5190SOL    HW127203   0.179   4.617   7.042  1.2271 -0.3270 -2.1070
 5190SOL    HW227204   0.187   4.735   7.127 -0.0192  2.0087  0.2544
 5191SOL     OW27205   1.217   0.991   4.961  0.3587 -0.9706 -0.5980
 5191SOL    HW127206   1.218   1.047   4.884 -1.0588 -0.4919 -0.2566
 5191SOL    HW227207   1.304   1.004   5.000 -0.1984  2.3475 -0.5036
 5192SOL     OW27208   0.769   4.329   3.588 -0.4656 -0.1585  0.3234
 5192SOL    HW127209   0.861   4.353   3.604 -0.4542  0.5447 -0.7675
 5192SOL    HW227210   0.781   4.235   3.601 -0.2630 -0.1092  0.5006
 5193SOL     OW27211   0.424   0.158   6.108 -0.3903 -0.1919 -0.0499
 5193SOL    HW127212   0.492   0.095   6.132 -0.7396 -0.8490 -0.7850
 5193SOL    HW227213   0.426   0.136   6.015  2.3353  1.5205 -0.3851
 5194SOL     OW27214   1.596   2.123  16.912 -0.6430  0.0849 -0.1382
 5194SOL    HW127215   1.595   2.213  16.945  0.2972 -0.7811  2.2414
 5194SOL    HW227216   1.609   2.140  16.819 -0.5732  0.1441 -0.1185
 5195SOL     OW27217   1.933   2.559   8.641 -0.3396 -0.2441  0.1654
 5195SOL    HW127218   1.847   2.571   8.681 -1.1174 -1.4458 -1.1481
 5195SOL    HW227219   1.918   2.514   8.558  0.2376 -2.8750  1.4833
 5196SOL     OW27220   2.933   3.012   4.017 -0.2659  0.5034 -0.1334
 5196SOL    HW127221   3.027   3.000   4.028 -0.3232 -0.6708 -1.0062
 5196SOL    HW227222   2.903   2.973   4.099 -1.7464 -1.4890 -1.6289
 5197SOL     OW27223   2.617   2.605   1.902 -0.0293  0.0063  0.5276
 5197SOL    HW127224   2.587   2.646   1.821  0.3826 -1.3070 -0.2977
 5197SOL    HW227225   2.572   2.663   1.964  2.9471  0.3392  2.3745
 5198SOL     OW27226   1.389   1.959  10.469  0.2741 -0.9084 -0.4752
 5198SOL    HW127227   1.399   1.876  10.423  1.3135 -1.4080  0.6402
 5198SOL    HW227228   1.297   1.949  10.494  0.5069  0.7663  1.0664
 5199SOL     OW27229   1.767   0.068   4.491 -0.3909 -0.0634  0.1498
 5199SOL    HW127230   1.793   0.160   4.491 -0.4692 -0.0440  0.5798
 5199SOL    HW227231   1.840   0.025   4.535 -1.5660  0.3998  2.5081
 5200SOL     OW27232   1.372   2.215   8.499  0.2727 -0.2587 -0.5765
 5200SOL    HW127233   1.374   2.310   8.511  0.9584 -0.5289  1.5478
 5200SOL    HW227234   1.459   2.199   8.534  0.1030  0.7063  0.2966
 5201SOL     OW27235   4.400   3.937   3.653 -0.1428  0.2188 -0.0709
 5201SOL    HW127236   4.304   3.929   3.650 -0.1178  0.9708 -2.5769
 5201SOL    HW227237   4.407   4.029   3.681  2.3228 -0.7036  2.3193
 5202SOL     OW27238   1.484   0.788   3.171  0.1400 -0.2746  0.6172
 5202SOL    HW127239   1.437   0.871   3.173  0.1851 -0.2331 -0.1733
 5202SOL    HW227240   1.532   0.813   3.092  0.1118  1.1631  1.0552
 5203SOL     OW27241   3.131   3.744   1.102  0.2215 -0.2427  0.1205
 5203SOL    HW127242   3.046   3.707   1.078  1.2204 -1.9072 -0.8687
 5203SOL    HW227243   3.141   3.698   1.185  0.0624 -0.8747 -0.2087
 5204SOL     OW27244   0.909   3.333   8.323 -0.4093 -0.1024  0.6095
 5204SOL    HW127245   0.855   3.395   8.371  0.5115 -0.1418  1.6887
 5204SOL    HW227246   0.878   3.251   8.361  1.2987 -1.4575 -0.8937
 5205SOL     OW27247   1.697   0.465   7.203  0.1514 -0.4482  0.2780
 5205SOL    HW127248   1.788   0.441   7.186  0.3282  0.0158  0.5699
 5205SOL    HW227249   1.696   0.556   7.175 -1.4095 -0.5704 -0.0797
 5206SOL     OW27250   2.120   3.041   8.842  0.4518  0.1481  0.6730
 5206SOL    HW127251   2.042   2.985   8.844  1.0441 -0.7027 -0.4594
 5206SOL    HW227252   2.170   2.998   8.912  0.7077  0.3397  0.6090
 5207SOL     OW27253   3.202   0.065   8.036  0.1933  0.1161 -0.9586
 5207SOL    HW127254   3.146   0.017   7.975 -1.2258 -0.1656  0.5605
 5207SOL    HW227255   3.284   0.016   8.026  0.4123  0.1855  0.4860
 5208SOL     OW27256   1.065   4.714   0.100 -0.0789 -0.2643 -0.0919
 5208SOL    HW127257   1.030   4.734   0.187 -0.6677 -0.7970 -0.2097
 5208SOL    HW227258   1.159   4.704   0.114 -0.0026 -0.1363 -0.5217
 5209SOL     OW27259   4.054   0.013  14.899  0.3437  0.2750 -0.1581
 5209SOL    HW127260   3.984   0.077  14.911 -1.3086 -1.3039 -1.3981
 5209SOL    HW227261   4.136   0.056  14.879  0.3815  0.2568 -0.0441
 5210SOL     OW27262   4.192   4.696  11.552  0.2429 -0.5435  0.3682
 5210SOL    HW127263   4.232   4.621  11.596  1.5039 -0.7620 -1.1379
 5210SOL    HW227264   4.215   0.039  11.599  2.1786 -1.9411  1.7718
 5211SOL     OW27265   0.165   2.338   3.751 -0.3034 -0.4306 -0.3251
 5211SOL    HW127266   0.208   2.310   3.670  0.7483  1.4777 -0.4161
 5211SOL    HW227267   0.207   2.280   3.814  0.5769 -0.4553 -0.9296
 5212SOL     OW27268   3.765   0.445   2.628 -0.7992  0.0831  0.2553
 5212SOL    HW127269   3.801   0.530   2.655  2.2262 -1.0190 -0.3180
 5212SOL    HW227270   3.713   0.414   2.701 -2.1246 -0.5199 -0.9561
 5213SOL     OW27271   2.616   0.878  11.708 -0.1018  0.1125  0.0681
 5213SOL    HW127272   2.538   0.925  11.739  0.7262 -0.2894  2.7715
 5213SOL    HW227273   2.606   0.783  11.721 -2.0280  0.0540 -1.9344
 5214SOL     OW27274   0.226   1.800  12.988 -0.0415  0.0396  0.6289
 5214SOL    HW127275   0.217   1.726  12.928  0.9650 -1.4556  2.3184
 5214SOL    HW227276   0.138   1.837  12.989 -0.3170 -0.5672 -0.7063
 5215SOL     OW27277   2.505   4.515   0.205  0.0127  0.2544 -0.6891
 5215SOL    HW127278   2.585   4.562   0.228 -1.6079  2.2279  0.8923
 5215SOL    HW227279   2.510   4.439   0.263 -0.1542  1.1287  0.4668
 5216SOL     OW27280   2.846   3.629  10.618 -0.3058 -0.1004  0.5074
 5216SOL    HW127281   2.908   3.670  10.557 -0.5356 -0.7186 -0.1521
 5216SOL    HW227282   2.900   3.563  10.662  0.9721  0.8299  0.3431
 5217SOL     OW27283   0.282   0.005  17.452 -0.2709  0.4589 -0.1778
 5217SOL    HW127284   0.239   4.685  17.516 -0.2977  0.8586  0.1644
 5217SOL    HW227285   0.205   0.011  17.397 -0.7961  1.0841  0.6258
 5218SOL     OW27286   0.865   2.294   9.693 -0.8146  0.1713 -0.1865
 5218SOL    HW127287   0.877   2.352   9.769  0.4466 -0.8200  0.3590
 5218SOL    HW227288   0.797   2.237   9.729 -1.8264  2.9165  2.2987
 5219SOL     OW27289   2.946   0.901   7.155  0.2190 -0.3329  0.0293
 5219SOL    HW127290   2.910   0.894   7.067  1.2672  1.3154 -0.5308
 5219SOL    HW227291   2.895   0.836   7.204 -0.0620  0.6026  0.9543
 5220SOL     OW27292   4.323   1.821   2.588  1.0469 -0.3347  0.2603
 5220SOL    HW127293   4.405   1.796   2.631  1.4218 -1.5695 -1.1642
 5220SOL    HW227294   4.353   1.894   2.533 -1.9243  0.5570 -0.1951
 5221SOL     OW27295   3.938   3.569   5.223 -1.0408 -0.3497  0.0733
 5221SOL    HW127296   3.867   3.542   5.164 -2.2285  1.7961  0.5138
 5221SOL    HW227297   3.904   3.542   5.309  0.4537 -2.2249  0.0813
 5222SOL     OW27298   0.427   0.511   3.677 -0.3056 -0.3350 -0.1567
 5222SOL    HW127299   0.338   0.477   3.689 -0.4183 -0.8222 -2.4307
 5222SOL    HW227300   0.436   0.492   3.584 -1.8198  0.0091 -0.3714
 5223SOL     OW27301   0.933   3.207   6.163  0.0243 -0.0573 -0.1058
 5223SOL    HW127302   0.956   3.185   6.253 -0.5917  0.7678  0.2576
 5223SOL    HW227303   0.837   3.207   6.170  0.0585 -0.2440  0.3683
 5224SOL     OW27304   3.194   0.337  15.124 -0.3553 -0.8055  0.4684
 5224SOL    HW127305   3.101   0.340  15.101 -0.4589  1.0468  1.0842
 5224SOL    HW227306   3.200   0.246  15.150 -1.1402 -0.8514  0.4889
 5225SOL     OW27307   2.409   3.657   8.869 -0.8137 -0.5021 -0.2607
 5225SOL    HW127308   2.476   3.600   8.906  0.4804  0.5896 -0.9006
 5225SOL    HW227309   2.420   3.740   8.916  1.2389 -1.1714  0.4546
 5226SOL     OW27310   0.417   1.342   5.081 -0.3484 -0.3202 -0.6185
 5226SOL    HW127311   0.492   1.391   5.112 -0.6160  0.3869 -1.0888
 5226SOL    HW227312   0.455   1.303   5.002 -1.3070 -1.5674 -0.4595
 5227SOL     OW27313   0.328   1.571   5.660  0.5371 -0.4127 -0.3021
 5227SOL    HW127314   0.374   1.621   5.593 -1.8083  0.0500 -1.6055
 5227SOL    HW227315   0.323   1.640   5.725  0.8728 -2.6671  2.1268
 5228SOL     OW27316   4.090   2.600   9.187 -0.4770  0.3740  0.1215
 5228SOL    HW127317   4.002   2.636   9.190 -1.0689 -0.7258 -4.3121
 5228SOL    HW227318   4.074   2.523   9.133 -1.1186  0.2395  0.5013
 5229SOL     OW27319   0.425   3.168   6.320 -0.2375 -0.3365  0.5088
 5229SOL    HW127320   0.428   3.145   6.227 -1.5310 -1.1864  0.6854
 5229SOL    HW227321   0.501   3.227   6.320  0.2957 -1.0153 -0.7171
 5230SOL     OW27322   1.979   2.713  12.543 -0.4464  0.5205  0.0071
 5230SOL    HW127323   2.061   2.761  12.555  0.2462 -0.8103  0.6410
 5230SOL    HW227324   1.940   2.699  12.629 -0.2813  0.6365  0.1021
 5231SOL     OW27325   2.478   4.242  17.723 -0.1706 -0.6556  0.2547
 5231SOL    HW127326   2.484   4.158  17.678 -0.3378 -0.5404  0.0170
 5231SOL    HW227327   2.405   4.280  17.674 -0.2922 -0.4567  0.5842
 5232SOL     OW27328   2.204   1.654  14.358  0.5926 -0.7027 -0.4561
 5232SOL    HW127329   2.144   1.586  14.327 -1.7382 -0.0179  2.4969
 5232SOL    HW227330   2.275   1.599  14.391  2.7806  2.4286  0.0003
 5233SOL     OW27331   4.206   0.874   4.100  0.1167  0.3112 -0.4275
 5233SOL    HW127332   4.265   0.800   4.118 -0.9216 -0.5159 -0.4157
 5233SOL    HW227333   4.126   0.832   4.131 -0.2236  2.4980  1.6192
 5234SOL     OW27334   0.969   1.074  11.164 -0.1543  0.3911 -0.0558
 5234SOL    HW127335   0.968   0.989  11.120 -0.5862  0.0874  0.5354
 5234SOL    HW227336   0.949   1.047  11.254 -0.3030 -1.3930 -0.6368
 5235SOL     OW27337   3.331   4.625   2.417  0.4513  0.3153  0.0493
 5235SOL    HW127338   3.399   4.597   2.478 -1.4689  1.2240  2.6562
 5235SOL    HW227339   3.382   4.679   2.357  1.1571  0.2964  0.6261
 5236SOL     OW27340   3.685   4.150  10.963  0.0405  0.2904 -0.0933
 5236SOL    HW127341   3.596   4.138  10.930 -0.6621 -1.4033  2.4038
 5236SOL    HW227342   3.682   4.221  11.028 -1.1994  0.2454 -0.1042
 5237SOL     OW27343   4.216   3.028   1.842 -0.2923 -0.1317  0.5051
 5237SOL    HW127344   4.257   2.968   1.904 -1.2149 -0.4077  0.8341
 5237SOL    HW227345   4.160   2.971   1.790  0.2378 -0.3178  0.1339
 5238SOL     OW27346   3.561   2.683   5.262  0.2231 -0.2595  0.1812
 5238SOL    HW127347   3.632   2.635   5.304 -0.8198 -1.6540  0.3406
 5238SOL    HW227348   3.486   2.624   5.265 -0.5164  0.6409 -0.3260
 5239SOL     OW27349   2.260   2.612   8.872  0.8377  0.2796  0.2578
 5239SOL    HW127350   2.305   2.553   8.812  0.8697 -0.0369  0.5894
 5239SOL    HW227351   2.340   2.637   8.918  0.0098  1.4910  1.0390
 5240SOL     OW27352   0.469   2.986   1.911  0.3871  0.3089 -0.3876
 5240SOL    HW127353   0.451   2.973   2.004 -1.6521  0.3735 -0.7910
 5240SOL    HW227354   0.487   2.895   1.888 -0.5690  0.1938 -0.6616
 5241SOL     OW27355   0.352   3.989   0.626 -0.1409 -0.1502 -0.5396
 5241SOL    HW127356   0.341   3.917   0.688  1.2900 -0.6507 -0.8833
 5241SOL    HW227357   0.438   3.969   0.591  0.2698 -0.3486  0.5922
 5242SOL     OW27358   0.245   0.505   2.302 -1.1566 -0.0603  0.3014
 5242SOL    HW127359   0.179   0.473   2.240  1.0262 -3.3906 -0.2770
 5242SOL    HW227360   0.284   0.422   2.331 -1.8095 -0.8859 -1.2069
 5243SOL     OW27361   1.039   0.361  16.122 -0.4953 -0.5013 -0.5858
 5243SOL    HW127362   1.127   0.336  16.096 -1.2070 -2.9367 -0.6937
 5243SOL    HW227363   0.993   0.368  16.038 -0.9540  0.9100 -0.2174
 5244SOL     OW27364   1.982   3.641   9.684 -0.3259 -0.0577 -0.1230
 5244SOL    HW127365   1.903   3.637   9.630 -0.6564 -1.8885  0.5287
 5244SOL    HW227366   1.990   3.554   9.722  1.3713  1.2858  2.6097
 5245SOL     OW27367   2.758   0.364  16.815 -0.2829  0.0513 -0.4381
 5245SOL    HW127368   2.698   0.296  16.846  0.9309 -1.4789 -1.4660
 5245SOL    HW227369   2.743   0.367  16.720  2.9419  1.8315 -0.8790
 5246SOL     OW27370   0.650   1.006   8.515  0.0403  0.1086  0.3134
 5246SOL    HW127371   0.616   0.924   8.476 -0.2764  0.4535 -0.1453
 5246SOL    HW227372   0.707   1.036   8.444 -1.0010  1.4219  0.0252
 5247SOL     OW27373   0.549   0.944   2.370  0.2992  0.0798  0.5605
 5247SOL    HW127374   0.607   1.006   2.326 -0.5942  0.7283  0.2890
 5247SOL    HW227375   0.462   0.983   2.357 -0.7258 -1.9021  1.4564
 5248SOL     OW27376   0.784   4.380   0.961  0.7180 -0.3113 -0.4157
 5248SOL    HW127377   0.874   4.348   0.957  0.2708 -1.6342  0.5452
 5248SOL    HW227378   0.788   4.475   0.946  1.8024  0.1962  3.0080
 5249SOL     OW27379   4.538   3.494   7.529 -0.2091  0.4197 -0.0575
 5249SOL    HW127380   4.468   3.549   7.564 -1.0143 -0.6325 -0.0400
 5249SOL    HW227381   4.504   3.408   7.551  1.1067 -0.2054 -0.4754
 5250SOL     OW27382   1.641   3.752  14.949  0.1761  0.1249 -0.0784
 5250SOL    HW127383   1.553   3.784  14.969 -0.6419 -3.9154  2.9052
 5250SOL    HW227384   1.696   3.830  14.948 -0.4830  0.5927  0.1392
 5251SOL     OW27385   3.947   1.047   5.820 -0.3655 -0.2230  0.3164
 5251SOL    HW127386   3.969   1.135   5.790  1.4259 -0.5483  0.6825
 5251SOL    HW227387   4.028   1.001   5.798 -0.2299  0.4977 -0.7241
 5252SOL     OW27388   4.032   1.846   7.861  0.1002 -0.0834  0.2291
 5252SOL    HW127389   4.115   1.806   7.836  0.4131  1.2246 -0.8412
 5252SOL    HW227390   4.007   1.792   7.936  0.9935  2.3204  2.2437
 5253SOL     OW27391   0.872   1.908   6.469  0.0559  0.2426 -0.2360
 5253SOL    HW127392   0.778   1.924   6.464  0.4173  1.1890 -3.5413
 5253SOL    HW227393   0.875   1.812   6.475 -1.0189  0.0871 -2.5195
 5254SOL     OW27394   1.154   2.644   1.017  0.5369 -0.1334  0.4417
 5254SOL    HW127395   1.234   2.688   1.046  0.0985  2.0958 -1.8303
 5254SOL    HW227396   1.118   2.638   1.106  0.0428 -1.1156  0.1796
 5255SOL     OW27397   3.779   0.159   5.751  0.1077  0.5356 -0.0671
 5255SOL    HW127398   3.843   0.200   5.810 -0.4282 -0.3892  1.1493
 5255SOL    HW227399   3.818   0.073   5.736  0.1340  0.1670  2.1219
 5256SOL     OW27400   3.824   2.073   4.947  0.3288 -0.2390  0.7078
 5256SOL    HW127401   3.828   2.078   4.851 -1.8750 -0.3146  0.6150
 5256SOL    HW227402   3.880   2.145   4.975 -0.2060  0.3551  0.2632
 5257SOL     OW27403   2.849   2.073   7.879 -0.0319 -0.6766 -0.0711
 5257SOL    HW127404   2.915   2.087   7.811  0.1502 -0.9487  0.0493
 5257SOL    HW227405   2.787   2.014   7.837  0.9669 -0.6636 -1.5573
 5258SOL     OW27406   1.634   3.889   7.725  0.0702  0.3343  0.4020
 5258SOL    HW127407   1.615   3.824   7.657  4.1963  1.9159 -2.2373
 5258SOL    HW227408   1.557   3.946   7.723  1.0767  1.6442 -1.0943
 5259SOL     OW27409   1.465   2.720   3.480  0.3147 -0.2722 -0.2767
 5259SOL    HW127410   1.542   2.694   3.531  0.2671 -0.8210 -0.4898
 5259SOL    HW227411   1.469   2.645   3.420  1.6298 -0.0773 -0.4474
 5260SOL     OW27412   1.952   3.721   2.500  0.0446 -0.3030  0.0002
 5260SOL    HW127413   1.863   3.718   2.465  0.7699 -0.1537 -1.9028
 5260SOL    HW227414   2.001   3.658   2.445 -2.4302 -1.6242 -0.6699
 5261SOL     OW27415   2.392   1.630   6.548 -0.3484 -0.4776 -0.0113
 5261SOL    HW127416   2.437   1.626   6.464 -0.0631 -2.6406  0.2361
 5261SOL    HW227417   2.430   1.556   6.595 -2.6130 -0.7309  1.4549
 5262SOL     OW27418   4.059   3.493   3.456  0.2065 -0.3160  0.5828
 5262SOL    HW127419   4.072   3.421   3.394 -1.5809  1.5297 -1.9498
 5262SOL    HW227420   3.974   3.461   3.488 -0.5305  0.3518 -0.7193
 5263SOL     OW27421   2.335   0.312   4.000  0.1846  0.2747  0.1865
 5263SOL    HW127422   2.305   0.268   3.921  0.5965 -1.9784  1.2606
 5263SOL    HW227423   2.423   0.338   3.974  0.9493 -0.9441  1.5175
 5264SOL     OW27424   2.004   3.166  15.250 -0.4327 -0.7296 -0.3293
 5264SOL    HW127425   2.051   3.243  15.280  2.8007 -2.4560 -0.9253
 5264SOL    HW227426   1.962   3.149  15.334 -1.3254  1.5038 -0.3369
 5265SOL     OW27427   1.008   2.057   3.627  0.3120 -0.4589 -0.4313
 5265SOL    HW127428   1.044   2.037   3.713 -2.1562 -0.7766  0.5202
 5265SOL    HW227429   0.984   1.969   3.596  1.4191 -1.1187  0.5707
 5266SOL     OW27430   3.118   0.951   9.813 -0.2910 -0.3155 -0.4321
 5266SOL    HW127431   3.172   1.023   9.844  0.6059 -1.6026  1.0112
 5266SOL    HW227432   3.081   0.930   9.899  0.5928 -1.7015 -0.3877
 5267SOL     OW27433   3.260   1.078  10.213 -0.5299 -0.1641 -0.5302
 5267SOL    HW127434   3.354   1.086  10.232 -0.1312 -1.3860 -1.9733
 5267SOL    HW227435   3.234   1.170  10.209  1.1187  0.4716  2.8873
 5268SOL     OW27436   3.497   2.886  12.216 -0.3947  0.2473 -0.0491
 5268SOL    HW127437   3.540   2.828  12.279 -1.4013 -0.4891 -0.0477
 5268SOL    HW227438   3.557   2.958  12.235 -2.5554  1.8676  0.5577
 5269SOL     OW27439   4.391   4.128  11.371 -0.0280  0.2759 -0.3532
 5269SOL    HW127440   4.382   4.220  11.396 -0.7716  0.9400 -3.1373
 5269SOL    HW227441   4.448   4.136  11.294  0.0256 -0.4257 -0.3853
 5270SOL     OW27442   2.473   2.225   4.930  0.7858  0.3353  0.1817
 5270SOL    HW127443   2.555   2.273   4.939  2.1335 -1.8907  0.0014
 5270SOL    HW227444   2.485   2.155   4.994 -0.0719  1.1043  1.1753
 5271SOL     OW27445   1.272   2.299   6.012  0.1521 -0.4505 -0.0437
 5271SOL    HW127446   1.251   2.376   5.958  0.1795 -0.2395  0.2415
 5271SOL    HW227447   1.327   2.344   6.076 -2.3434  0.9537  1.1188
 5272SOL     OW27448   1.280   4.019   6.748 -0.1159  0.0441  0.3038
 5272SOL    HW127449   1.284   4.112   6.726  1.5681 -0.1029  0.0228
 5272SOL    HW227450   1.263   3.988   6.659 -0.8328  1.2855  0.0035
 5273SOL     OW27451   0.979   0.286   5.937  0.3754  0.3731 -0.3573
 5273SOL    HW127452   0.992   0.259   5.846  2.5404  0.9864 -0.2268
 5273SOL    HW227453   0.897   0.242   5.961 -0.5784  2.4660  0.2794
 5274SOL     OW27454   0.983   1.820   7.201  0.1637  0.3771 -0.1148
 5274SOL    HW127455   0.992   1.817   7.106  0.3666  0.5205 -0.1012
 5274SOL    HW227456   0.897   1.858   7.218  0.2076  0.0565  0.8682
 5275SOL     OW27457   0.530   0.093  17.582 -0.4306 -0.4315  0.3186
 5275SOL    HW127458   0.598   0.094  17.514 -0.0004  0.0116  0.7544
 5275SOL    HW227459   0.448   0.083  17.534  1.0021 -0.2374 -2.1860
 5276SOL     OW27460   3.532   1.415   5.834 -0.2420 -0.5168 -0.1618
 5276SOL    HW127461   3.518   1.492   5.779  3.2359 -0.4764 -0.9874
 5276SOL    HW227462   3.614   1.378   5.802  0.2035  1.0857 -0.8422
 5277SOL     OW27463   1.402   0.362   6.641 -0.6927  0.5744 -0.0350
 5277SOL    HW127464   1.362   0.425   6.581 -0.8395 -0.4199 -0.9952
 5277SOL    HW227465   1.321   0.323   6.673 -1.5424  1.4093 -1.1460
 5278SOL     OW27466   3.795   2.296   1.266  0.2556  0.2944 -0.5453
 5278SOL    HW127467   3.721   2.356   1.257 -1.8130 -2.2970 -0.9461
 5278SOL    HW227468   3.871   2.340   1.229 -0.1430  0.5222 -1.1076
 5279SOL     OW27469   1.258   1.440   5.002  0.4215 -0.3382  0.7090
 5279SOL    HW127470   1.352   1.434   5.020  0.4810 -0.8570  0.2371
 5279SOL    HW227471   1.237   1.533   5.013 -1.4654 -0.7743  0.8911
 5280SOL     OW27472   1.022   2.697  11.520  0.0052 -0.0292 -0.0070
 5280SOL    HW127473   1.084   2.758  11.560  0.4381  0.7092 -1.7679
 5280SOL    HW227474   0.939   2.743  11.531 -0.2045  0.2761 -2.7111
 5281SOL     OW27475   1.920   2.336   2.507 -0.4990 -0.0103 -0.0015
 5281SOL    HW127476   1.841   2.283   2.516 -0.3868 -0.1119  0.3938
 5281SOL    HW227477   1.975   2.283   2.449  0.0593 -0.5345  1.0039
 5282SOL     OW27478   1.299   4.051   9.134 -0.0606  0.0521  1.1112
 5282SOL    HW127479   1.239   4.090   9.197 -2.8494 -1.5292 -0.6076
 5282SOL    HW227480   1.256   3.967   9.119  2.9234 -1.1811 -0.4931
 5283SOL     OW27481   2.125   3.541   8.236  0.2947  0.3177 -0.3229
 5283SOL    HW127482   2.063   3.493   8.181 -1.2365  0.8571  0.9314
 5283SOL    HW227483   2.113   3.508   8.325  1.1460 -0.5124 -0.5210
 5284SOL     OW27484   4.218   2.144   6.778  0.0846 -0.1090 -0.1971
 5284SOL    HW127485   4.295   2.143   6.721  1.0110  1.6559  1.0016
 5284SOL    HW227486   4.145   2.122   6.720 -0.3299  2.3092 -0.6001
 5285SOL     OW27487   3.088   3.034   8.588  0.5571 -0.8327  0.0981
 5285SOL    HW127488   3.094   3.038   8.684  1.9471  3.2873 -0.1574
 5285SOL    HW227489   3.132   2.954   8.561 -1.0110 -1.7273  0.1942
 5286SOL     OW27490   1.454   2.269   5.144  0.6847 -0.1002 -0.4260
 5286SOL    HW127491   1.475   2.356   5.178 -2.2640 -0.5510  2.5042
 5286SOL    HW227492   1.436   2.289   5.052 -0.3397  2.4566  0.3444
 5287SOL     OW27493   2.146   3.558   8.888  0.3104 -0.3530  0.3199
 5287SOL    HW127494   2.118   3.597   8.805  1.2929 -0.0525  0.1255
 5287SOL    HW227495   2.218   3.618   8.911 -0.3398  0.7450 -0.5040
 5288SOL     OW27496   4.430   2.185   4.786  0.5305 -0.4239 -0.3732
 5288SOL    HW127497   4.353   2.176   4.731 -0.8887  0.2751  1.5089
 5288SOL    HW227498   4.429   2.280   4.786  1.6484 -0.4039  2.1789
 5289SOL     OW27499   1.132   1.548   4.318 -0.7507 -0.0991 -0.1236
 5289SOL    HW127500   1.217   1.527   4.357  0.5137  1.0795 -2.2730
 5289SOL    HW227501   1.080   1.481   4.362 -1.1646  3.2768  4.6494
 5290SOL     OW27502   4.134   1.743   2.178  0.4988  0.5494 -0.0112
 5290SOL    HW127503   4.121   1.816   2.118  3.2596  1.4190  0.4474
 5290SOL    HW227504   4.190   1.682   2.129 -0.2868 -0.2294  0.0540
 5291SOL     OW27505   2.089   2.575   6.785 -0.2177  0.4153 -0.3251
 5291SOL    HW127506   2.086   2.655   6.837  0.9270  1.1111 -1.3560
 5291SOL    HW227507   2.182   2.562   6.769 -0.0264  2.3162 -0.7631
 5292SOL     OW27508   2.695   3.762   2.052  0.7117 -0.1526  0.8001
 5292SOL    HW127509   2.729   3.848   2.025 -0.4922 -0.1563 -0.7015
 5292SOL    HW227510   2.731   3.768   2.141  1.2964 -0.0885  0.5600
 5293SOL     OW27511   3.991   1.257  13.657 -0.5260  0.4526 -0.0799
 5293SOL    HW127512   4.076   1.289  13.688  1.0613 -1.5901 -2.3421
 5293SOL    HW227513   4.025   1.196  13.593 -1.6184  2.1229 -2.2518
 5294SOL     OW27514   2.829   0.972  10.228 -0.3640 -0.5358  0.0100
 5294SOL    HW127515   2.872   1.055  10.246 -3.1176  0.9049  0.0462
 5294SOL    HW227516   2.892   0.926  10.173  1.2534 -0.2790  1.6592
 5295SOL     OW27517   1.972   0.790   6.448  0.0188  0.5438 -0.2281
 5295SOL    HW127518   1.981   0.701   6.481  0.4527  0.9330  0.7255
 5295SOL    HW227519   1.928   0.764   6.367 -0.0921  1.2765 -0.4048
 5296SOL     OW27520   2.247   0.434   4.215 -0.2183  0.1758 -0.1175
 5296SOL    HW127521   2.271   0.401   4.129  1.1499  1.9331 -0.4049
 5296SOL    HW227522   2.241   0.356   4.271 -0.4854 -0.5965 -1.2213
 5297SOL     OW27523   2.214   0.177   1.388  0.1486  0.1804  0.2902
 5297SOL    HW127524   2.147   0.172   1.457  1.2968 -0.7140  1.3425
 5297SOL    HW227525   2.170   0.119   1.326  0.3036  0.6018 -0.2107
 5298SOL     OW27526   1.205   1.142   2.591 -0.4430  0.2879 -0.1220
 5298SOL    HW127527   1.129   1.182   2.634 -0.8438  1.6774 -2.0943
 5298SOL    HW227528   1.262   1.218   2.582 -2.1933  1.4421 -1.5650
 5299SOL     OW27529   4.331   3.354  16.187 -0.3152 -0.2402 -0.5156
 5299SOL    HW127530   4.355   3.339  16.095 -0.2761 -0.7751 -0.4184
 5299SOL    HW227531   4.256   3.413  16.187 -2.0481 -2.4091 -0.8955
 5300SOL     OW27532   0.933   4.331  15.918  0.5105  0.7725  0.1725
 5300SOL    HW127533   0.972   4.407  15.962  0.6355  0.4714  0.5806
 5300SOL    HW227534   0.851   4.316  15.966  1.4755 -0.4575  1.4065
 5301SOL     OW27535   3.648   1.432   8.204  0.3965  0.2279 -0.2461
 5301SOL    HW127536   3.599   1.421   8.122  0.0330  0.4891 -0.0615
 5301SOL    HW227537   3.718   1.368   8.190  0.1714  0.3037 -1.6613
 5302SOL     OW27538   1.751   4.335   0.851 -0.1967 -0.0636 -0.5093
 5302SOL    HW127539   1.666   4.296   0.871 -1.3241  3.2924  1.3569
 5302SOL    HW227540   1.726   4.401   0.786  2.7295 -1.0163 -2.5881
 5303SOL     OW27541   1.561   2.142  10.426 -0.4691  0.3910  0.4156
 5303SOL    HW127542   1.477   2.095  10.431  0.8213 -2.0721 -0.7090
 5303SOL    HW227543   1.624   2.093  10.480 -0.4821 -1.4515 -1.2475
 5304SOL     OW27544   0.640   1.713   7.855 -0.1056 -0.4865 -0.0358
 5304SOL    HW127545   0.571   1.658   7.892  0.7039 -0.9306  0.7915
 5304SOL    HW227546   0.592   1.796   7.847  0.1777 -0.4079 -0.9322
 5305SOL     OW27547   1.171   3.257   2.367  0.1626  0.1974  0.3623
 5305SOL    HW127548   1.264   3.259   2.344  0.0404  1.6545 -0.0626
 5305SOL    HW227549   1.120   3.225   2.293 -1.6570 -1.4391  2.3289
 5306SOL     OW27550   1.869   3.521   2.052 -0.1683 -0.2455 -0.1484
 5306SOL    HW127551   1.925   3.528   1.976  0.5582  1.1059  0.5123
 5306SOL    HW227552   1.877   3.427   2.068 -0.9929 -0.2775  0.1227
 5307SOL     OW27553   1.163   0.321  14.627  0.6028  0.5254  0.1034
 5307SOL    HW127554   1.242   0.284  14.666  0.6572  0.0658 -0.4534
 5307SOL    HW227555   1.139   0.258  14.560  0.5379  1.7653 -1.0255
 5308SOL     OW27556   1.216   3.918   3.593  0.1713  0.6916 -0.4760
 5308SOL    HW127557   1.188   3.996   3.641  1.2433  0.0650  1.1773
 5308SOL    HW227558   1.261   3.954   3.516  0.1509  0.4179 -0.6150
 5309SOL     OW27559   4.159   4.025   4.900 -0.1010 -0.6860 -0.3681
 5309SOL    HW127560   4.140   4.116   4.879  0.2720 -0.1059  1.7801
 5309SOL    HW227561   4.083   4.000   4.953 -0.4966  2.2191  0.4338
 5310SOL     OW27562   4.541   3.775  12.886  0.3153 -0.1203 -0.0838
 5310SOL    HW127563   4.634   3.753  12.895 -0.3930 -2.6905  0.8693
 5310SOL    HW227564   4.501   3.711  12.944 -1.0621  1.1117  0.3252
 5311SOL     OW27565   0.300   0.635  10.340 -0.4657 -0.2843  0.3190
 5311SOL    HW127566   0.283   0.543  10.319  2.0241 -0.2833 -1.6784
 5311SOL    HW227567   0.221   0.673  10.301  0.1023 -1.2545 -1.7840
 5312SOL     OW27568   1.030   3.751   2.779  0.6303 -0.1776  0.5382
 5312SOL    HW127569   1.035   3.846   2.781 -0.3831 -0.1212  0.3571
 5312SOL    HW227570   1.044   3.745   2.684 -0.6546 -3.3652  0.5585
 5313SOL     OW27571   4.308   4.318  11.933  0.3195 -0.1451  0.6991
 5313SOL    HW127572   4.357   4.272  12.001  1.6359  0.1207 -0.0752
 5313SOL    HW227573   4.359   4.398  11.942  0.6748 -0.1668 -1.1546
 5314SOL     OW27574   1.394   0.188   5.777  0.5420 -0.2573  0.7527
 5314SOL    HW127575   1.334   0.220   5.844 -0.5065  0.7550 -0.6563
 5314SOL    HW227576   1.469   0.168   5.833  0.9934 -1.8388 -0.4053
 5315SOL     OW27577   3.366   2.188   3.889 -0.3225  0.3721 -0.8191
 5315SOL    HW127578   3.273   2.168   3.899 -0.2343  0.3343 -0.0704
 5315SOL    HW227579   3.398   2.218   3.974 -1.7198  0.2881 -0.2640
 5316SOL     OW27580   1.213   2.375   8.256 -0.2483  0.3627 -0.2492
 5316SOL    HW127581   1.149   2.439   8.288 -1.9450 -1.4779  0.0740
 5316SOL    HW227582   1.161   2.295   8.256  0.6130 -0.1889 -1.7242
 5317SOL     OW27583   1.467   3.561  10.588 -0.2840 -0.4325 -0.3365
 5317SOL    HW127584   1.429   3.474  10.593 -0.2567 -0.5287 -1.7741
 5317SOL    HW227585   1.463   3.575  10.494 -0.5094 -3.0716 -0.7155
 5318SOL     OW27586   3.379   3.650   5.513 -0.6540  0.3614  0.0431
 5318SOL    HW127587   3.409   3.558   5.510 -3.0015 -0.3588 -0.8343
 5318SOL    HW227588   3.461   3.695   5.535  0.4429 -1.5914 -0.0081
 5319SOL     OW27589   3.694   3.743   1.562 -0.0672 -0.2882 -0.5967
 5319SOL    HW127590   3.623   3.803   1.540 -0.6618 -0.7851 -0.0362
 5319SOL    HW227591   3.762   3.802   1.529 -0.0286  0.0386  0.0735
 5320SOL     OW27592   2.163   4.455   1.269  0.2914  0.1068  0.2636
 5320SOL    HW127593   2.200   4.405   1.341  1.2812 -0.9941 -0.9911
 5320SOL    HW227594   2.225   4.527   1.269 -0.6213  0.9011 -0.5229
 5321SOL     OW27595   3.376   0.344  15.727  0.1557 -0.1593 -0.0309
 5321SOL    HW127596   3.327   0.265  15.703  0.3608 -0.8988  1.9185
 5321SOL    HW227597   3.308   0.407  15.703  1.0472  1.1277  0.8278
 5322SOL     OW27598   3.969   1.084   2.412  0.4090  0.5093  0.1543
 5322SOL    HW127599   3.902   1.148   2.385 -0.5474 -0.6893 -0.3096
 5322SOL    HW227600   4.011   1.138   2.479  0.4402 -2.0101  2.1259
 5323SOL     OW27601   3.495   2.802   5.032 -0.1730 -0.2893 -0.8982
 5323SOL    HW127602   3.401   2.788   5.038 -0.2651  0.5659 -0.3940
 5323SOL    HW227603   3.526   2.752   5.107 -0.6077  0.1338 -0.4417
 5324SOL     OW27604   4.482   1.894   4.867  0.1631  0.4253  0.5204
 5324SOL    HW127605   4.438   1.975   4.841  2.5533  0.9276 -1.9385
 5324SOL    HW227606   4.405   1.861   4.914 -0.1744 -0.6968 -0.8283
 5325SOL     OW27607   4.001   0.959   3.857  0.0609  0.1878 -0.1877
 5325SOL    HW127608   4.081   0.983   3.904  0.0476  0.5817 -0.3633
 5325SOL    HW227609   4.032   0.869   3.845 -1.0558 -0.1577 -0.4738
 5326SOL     OW27610   2.938   2.591   6.503  0.0640  0.0590  0.5428
 5326SOL    HW127611   3.018   2.538   6.498  0.0928  0.2103 -0.5328
 5326SOL    HW227612   2.892   2.544   6.572  3.4239 -1.8914  1.4713
 5327SOL     OW27613   1.756   1.762   8.433 -0.0753 -0.0924 -0.1679
 5327SOL    HW127614   1.676   1.771   8.485  0.1942 -4.1831  0.9028
 5327SOL    HW227615   1.783   1.853   8.420  2.5489 -0.8174  0.3373
 5328SOL     OW27616   4.033   3.281  13.208  0.5825  0.4212  0.1600
 5328SOL    HW127617   4.123   3.293  13.237  0.6076 -1.8550  1.0488
 5328SOL    HW227618   4.005   3.372  13.209  1.1043  0.5932 -0.5462
 5329SOL     OW27619   2.325   2.629  14.112 -0.7338  0.2247  0.0124
 5329SOL    HW127620   2.267   2.611  14.186 -0.1595  2.8508  1.1196
 5329SOL    HW227621   2.285   2.698  14.059 -0.6523  1.0979  1.0724
 5330SOL     OW27622   1.498   0.483   3.138 -0.5629 -0.5982  0.0703
 5330SOL    HW127623   1.428   0.504   3.200 -0.3654 -0.0848  0.1154
 5330SOL    HW227624   1.448   0.495   3.057  0.3918  2.0430 -0.1137
 5331SOL     OW27625   1.508   1.313   3.200 -0.2280  0.1455 -0.2921
 5331SOL    HW127626   1.536   1.374   3.132  3.5310 -1.9642 -0.6257
 5331SOL    HW227627   1.414   1.320   3.182  0.2624  1.5652 -2.4102
 5332SOL     OW27628   0.454   2.306   4.902  0.2039 -0.1659 -0.1280
 5332SOL    HW127629   0.484   2.228   4.855 -1.1818 -2.7547  3.3002
 5332SOL    HW227630   0.400   2.267   4.970  1.1836 -1.2800  0.0198
 5333SOL     OW27631   3.899   1.006  16.045 -0.8251 -0.0709  0.2027
 5333SOL    HW127632   3.958   1.079  16.065  0.2103 -0.4486 -1.5337
 5333SOL    HW227633   3.825   1.050  16.003  0.6740  0.1409 -2.1891
 5334SOL     OW27634   0.271   1.294   8.804 -0.3458 -0.2362  0.6132
 5334SOL    HW127635   0.350   1.303   8.857 -0.1490  1.5193  0.0312
 5334SOL    HW227636   0.281   1.201   8.782 -0.7720 -0.3073  0.7273
 5335SOL     OW27637   3.976   4.018   8.885  0.0863 -0.5132 -0.0955
 5335SOL    HW127638   3.944   4.084   8.946 -0.8753  2.4103 -3.7199
 5335SOL    HW227639   4.010   4.084   8.824 -3.2936  0.8921 -0.4636
 5336SOL     OW27640   0.491   0.244   2.013  0.2035  0.4875  0.4027
 5336SOL    HW127641   0.439   0.249   1.933 -0.6699 -0.5281  0.9015
 5336SOL    HW227642   0.424   0.233   2.080 -1.9958 -1.5816 -2.1102
 5337SOL     OW27643   3.545   2.138   5.017  0.6375 -0.2490 -0.3631
 5337SOL    HW127644   3.621   2.122   4.962 -0.8149 -0.7250 -2.2131
 5337SOL    HW227645   3.566   2.208   5.080  1.4069 -1.2185  0.4672
 5338SOL     OW27646   0.932   1.155   7.471  0.2420 -0.1763  0.7379
 5338SOL    HW127647   0.955   1.235   7.422 -0.1067  0.6248  1.8906
 5338SOL    HW227648   0.932   1.185   7.562 -2.8143 -1.9973  1.3475
 5339SOL     OW27649   3.377   1.366   6.474  0.2175  0.1574  0.0595
 5339SOL    HW127650   3.360   1.453   6.438  4.5624  1.1584  0.4384
 5339SOL    HW227651   3.323   1.370   6.553 -1.0935  1.1195 -0.8692
 5340SOL     OW27652   0.269   0.666   9.316 -0.7193 -0.4961  0.1538
 5340SOL    HW127653   0.347   0.720   9.303 -0.2792 -0.9274  1.0592
 5340SOL    HW227654   0.234   0.664   9.226 -2.5527 -1.1957  0.8908
 5341SOL     OW27655   2.086   2.771   9.005 -0.2377 -0.3996 -0.0762
 5341SOL    HW127656   2.150   2.720   8.956 -2.1866  0.4162 -3.4597
 5341SOL    HW227657   2.033   2.807   8.933 -0.3705  0.8606  0.6358
 5342SOL     OW27658   3.413   0.164   0.801  0.8711 -0.1350 -0.4093
 5342SOL    HW127659   3.479   0.160   0.732 -0.7362  1.9945 -2.0639
 5342SOL    HW227660   3.415   0.259   0.816 -1.1500 -0.4889  2.0908
 5343SOL     OW27661   3.689   4.506   4.190  0.0328  0.4087 -0.6988
 5343SOL    HW127662   3.648   4.472   4.110 -1.8482  0.2875  0.3079
 5343SOL    HW227663   3.732   4.586   4.161 -1.3541  1.3595 -0.1072
 5344SOL     OW27664   1.927   4.024   8.190 -0.4737 -0.2443 -0.4381
 5344SOL    HW127665   1.993   4.093   8.194 -2.2305  1.3209  1.3846
 5344SOL    HW227666   1.980   3.945   8.202  3.6895  2.6337 -0.2329
 5345SOL     OW27667   2.773   4.467   5.694 -0.5671 -0.2944 -0.2461
 5345SOL    HW127668   2.788   4.377   5.665 -0.1811 -0.4289  0.3757
 5345SOL    HW227669   2.687   4.462   5.734 -0.7928 -2.1706 -0.9792
 5346SOL     OW27670   2.349   1.258   5.663  0.7288 -0.4017  0.1792
 5346SOL    HW127671   2.346   1.175   5.616  1.7302 -0.7498  0.7282
 5346SOL    HW227672   2.365   1.315   5.588  0.2394  0.5890  0.8284
 5347SOL     OW27673   2.118   3.785  14.997 -0.7949 -0.0581  0.3261
 5347SOL    HW127674   2.106   3.859  14.937 -2.5659  1.3893  2.4330
 5347SOL    HW227675   2.200   3.806  15.042  0.2900 -3.5828 -0.0611
 5348SOL     OW27676   0.337   2.182   5.110 -0.1780  0.5484  0.1168
 5348SOL    HW127677   0.368   2.233   5.185  0.5084 -0.2784  0.3858
 5348SOL    HW227678   0.327   2.092   5.140 -2.3344  0.4922 -0.7430
 5349SOL     OW27679   0.395   2.383   5.305  0.0808 -0.7678 -0.0768
 5349SOL    HW127680   0.404   2.470   5.267  2.4644 -0.9848  0.0095
 5349SOL    HW227681   0.488   2.368   5.320  0.0646  2.1481  2.8062
 5350SOL     OW27682   3.237   4.348   3.772  0.8623  0.3259 -0.2058
 5350SOL    HW127683   3.253   4.424   3.828 -0.4025  0.8761 -0.5896
 5350SOL    HW227684   3.158   4.317   3.816  0.4334  0.2944 -1.0002
 5351SOL     OW27685   2.256   4.050   4.112 -0.3114 -0.6855  0.5015
 5351SOL    HW127686   2.234   4.135   4.151 -1.1261 -0.2540 -0.9378
 5351SOL    HW227687   2.214   3.984   4.167 -1.4871 -2.1226 -2.1281
 5352SOL     OW27688   2.414   0.189   6.281  0.4998  0.5958 -0.2306
 5352SOL    HW127689   2.448   0.100   6.280 -0.6948  0.1496 -0.9235
 5352SOL    HW227690   2.371   0.190   6.196  1.2833 -1.9532 -0.6360
 5353SOL     OW27691   2.068   3.707   7.934 -0.1921 -0.5847 -0.2711
 5353SOL    HW127692   2.055   3.742   8.022  0.1558  1.4319 -1.0203
 5353SOL    HW227693   1.981   3.703   7.893 -0.1761 -2.3367 -0.1677
 5354SOL     OW27694   3.979   1.426   1.040  0.1797 -0.1926 -0.4481
 5354SOL    HW127695   4.073   1.428   1.058 -0.0426 -2.1357  0.8381
 5354SOL    HW227696   3.952   1.476   1.117 -1.0250  1.0567 -1.6588
 5355SOL     OW27697   4.147   4.405   6.054  0.1270 -0.2300  0.1142
 5355SOL    HW127698   4.201   4.476   6.087  0.9129  0.0126 -1.7226
 5355SOL    HW227699   4.064   4.441   6.087 -0.8444 -2.2237 -0.1427
 5356SOL     OW27700   0.831   3.897   2.525  0.4858  0.1547 -0.3558
 5356SOL    HW127701   0.897   3.847   2.477 -0.5277 -1.6821  0.1781
 5356SOL    HW227702   0.795   3.831   2.585 -0.7233  2.0820  1.0273
 5357SOL     OW27703   4.495   1.705   7.592  0.2497  0.0220 -0.4590
 5357SOL    HW127704   4.491   1.668   7.504  1.6103 -1.4112  0.0628
 5357SOL    HW227705   4.429   1.653   7.637 -0.3376  0.9059 -0.3000
 5358SOL     OW27706   4.189   2.620   3.387  0.3359 -0.0645 -0.7648
 5358SOL    HW127707   4.157   2.702   3.348 -1.9979 -0.5952  0.0577
 5358SOL    HW227708   4.210   2.655   3.474 -1.0575  0.8983 -0.8179
 5359SOL     OW27709   1.856   2.906   3.024  0.4204 -0.5554  0.0818
 5359SOL    HW127710   1.926   2.865   2.974  0.3113  0.9620 -1.3106
 5359SOL    HW227711   1.804   2.955   2.960 -0.6180 -0.2619  1.1322
 5360SOL     OW27712   0.291   0.381   3.443 -0.6440 -0.1806 -0.1172
 5360SOL    HW127713   0.208   0.428   3.451  0.8297  2.0837  1.6875
 5360SOL    HW227714   0.302   0.378   3.348 -0.8794 -1.4119 -0.1050
 5361SOL     OW27715   3.626   0.476   5.852  0.1457  0.7385  0.6768
 5361SOL    HW127716   3.613   0.462   5.946  1.5985  1.5086  1.0014
 5361SOL    HW227717   3.616   0.571   5.847 -0.6213  0.6629  0.7755
 5362SOL     OW27718   0.833   3.199  10.951  0.2833  0.0272 -0.5828
 5362SOL    HW127719   0.915   3.150  10.946  0.1626 -0.4692  2.2948
 5362SOL    HW227720   0.831   3.239  10.864  1.1533  0.2639 -0.4938
 5363SOL     OW27721   3.708   1.275  13.673  0.1935  0.2881 -0.1903
 5363SOL    HW127722   3.802   1.262  13.660  0.1935  0.0905  0.0180
 5363SOL    HW227723   3.682   1.327  13.597 -1.9128 -0.8531 -0.2426
 5364SOL     OW27724   3.871   0.094   2.361  0.1245 -0.0836  0.0814
 5364SOL    HW127725   3.857   0.001   2.341  0.0730 -0.3807  1.4669
 5364SOL    HW227726   3.944   0.083   2.422 -0.6202 -0.8243  0.8396
 5365SOL     OW27727   3.244   3.332  13.933  0.4025  0.6357  0.2887
 5365SOL    HW127728   3.152   3.317  13.911 -0.2091  3.3926  0.9416
 5365SOL    HW227729   3.237   3.427  13.947 -1.9513  0.3329  1.1969
 5366SOL     OW27730   3.543   1.286   4.661  0.4675  0.1745 -0.2165
 5366SOL    HW127731   3.566   1.217   4.598 -0.7524  0.1887 -0.6895
 5366SOL    HW227732   3.492   1.339   4.599  2.0425  1.4609 -0.4087
 5367SOL     OW27733   4.453   4.004   2.146 -0.9266  0.1217 -0.9682
 5367SOL    HW127734   4.473   4.048   2.063  0.2979 -1.4710 -1.5214
 5367SOL    HW227735   4.358   3.992   2.140 -0.9033 -0.4989 -0.0388
 5368SOL     OW27736   4.460   3.390   4.407  0.1859 -0.2812  0.4597
 5368SOL    HW127737   4.511   3.314   4.378 -0.3654 -0.1660 -0.8337
 5368SOL    HW227738   4.533   3.447   4.431  1.2923 -1.1464 -0.7746
 5369SOL     OW27739   1.905   4.657   8.244  0.5212 -0.0999 -0.0538
 5369SOL    HW127740   1.823   4.692   8.279 -0.6142 -0.8473 -1.9739
 5369SOL    HW227741   1.880   4.622   8.159 -2.0004  0.9414  0.2504
 5370SOL     OW27742   0.415   0.255   6.506 -0.5414 -0.2888 -0.1764
 5370SOL    HW127743   0.365   0.175   6.496  0.3413 -0.6783 -1.5311
 5370SOL    HW227744   0.486   0.225   6.563 -0.3510 -1.1553 -0.8592
 5371SOL     OW27745   1.153   1.595   5.530 -0.5736 -0.0211 -0.1985
 5371SOL    HW127746   1.211   1.591   5.606  2.7973 -1.5112 -2.8210
 5371SOL    HW227747   1.128   1.688   5.531 -1.3670 -0.2124 -2.2680
 5372SOL     OW27748   2.851   0.301   1.307 -0.0756 -0.2562  0.5406
 5372SOL    HW127749   2.804   0.346   1.378  1.8085 -0.8843  2.2024
 5372SOL    HW227750   2.926   0.273   1.360  0.3841 -2.5777 -1.3596
 5373SOL     OW27751   2.133   2.848   6.939 -0.2500 -0.3496 -0.0731
 5373SOL    HW127752   2.117   2.940   6.958  0.5479  0.1117 -1.6313
 5373SOL    HW227753   2.117   2.813   7.027 -3.1312  1.2434  0.0439
 5374SOL     OW27754   1.497   2.700   7.053  0.1140 -0.3933 -0.8837
 5374SOL    HW127755   1.572   2.738   7.100 -1.0414 -0.7987  1.2951
 5374SOL    HW227756   1.543   2.660   6.980 -0.3932  0.3847 -1.6321
 5375SOL     OW27757   4.103   3.837   1.241  0.0281  0.2279 -0.0832
 5375SOL    HW127758   4.171   3.815   1.178 -1.0653  0.7910 -1.4639
 5375SOL    HW227759   4.027   3.833   1.183 -0.7099  1.0536  0.8257
 5376SOL     OW27760   3.269   0.344   4.688 -0.1962  0.3255 -0.1336
 5376SOL    HW127761   3.291   0.254   4.716 -1.1318  0.0597 -0.2440
 5376SOL    HW227762   3.315   0.387   4.760 -2.6540  1.3679  0.8160
 5377SOL     OW27763   3.992   3.813   7.919 -0.5937  0.1833  0.3754
 5377SOL    HW127764   3.968   3.810   8.012 -1.5295  0.1929  0.1372
 5377SOL    HW227765   3.915   3.773   7.878 -1.3798  1.8215  0.2592
 5378SOL     OW27766   3.517   4.736   7.494  0.3484  0.8168 -0.2532
 5378SOL    HW127767   3.441   0.007   7.436 -0.4281 -3.1053  0.2363
 5378SOL    HW227768   3.485   4.736   7.585 -0.4387  1.4765 -0.5264
 5379SOL     OW27769   1.959   2.910  15.708  0.0061  0.2896 -0.8760
 5379SOL    HW127770   1.954   2.817  15.686  1.2281 -0.0068  0.1405
 5379SOL    HW227771   1.877   2.938  15.667 -0.1880  0.7646 -0.1709
 5380SOL     OW27772   2.709   2.219   6.815 -0.6267  0.0724 -0.4747
 5380SOL    HW127773   2.693   2.270   6.736 -0.5000  2.4354  1.0205
 5380SOL    HW227774   2.746   2.293   6.864 -2.2485  1.1521 -0.8580
 5381SOL     OW27775   0.189   2.473   9.281 -0.1139  0.4332 -0.4684
 5381SOL    HW127776   0.148   2.463   9.194  0.2876 -2.6826 -0.2795
 5381SOL    HW227777   0.184   2.380   9.303  1.7008  0.8045  1.4306
 5382SOL     OW27778   4.073   1.450   3.707  0.1853  0.3878  0.6273
 5382SOL    HW127779   4.067   1.478   3.616 -1.9794  1.4090  1.0880
 5382SOL    HW227780   4.022   1.520   3.748  0.7566  1.9454 -1.2901
 5383SOL     OW27781   1.744   2.324   1.393  0.5937  0.6944  0.0424
 5383SOL    HW127782   1.696   2.407   1.391 -0.1506  0.2409 -0.9875
 5383SOL    HW227783   1.686   2.263   1.346  1.1891  2.5266 -3.0669
 5384SOL     OW27784   2.269   1.201   8.294  0.0347 -0.3109 -0.2436
 5384SOL    HW127785   2.323   1.278   8.308 -2.0358  0.5342  3.2753
 5384SOL    HW227786   2.312   1.155   8.222 -1.5760  1.1760 -2.1211
 5385SOL     OW27787   2.590   3.318  10.575  0.3420 -0.2255  0.0556
 5385SOL    HW127788   2.573   3.319  10.480 -1.5178 -1.0031  0.3893
 5385SOL    HW227789   2.513   3.274  10.608 -1.2052  3.4611  1.3720
 5386SOL     OW27790   2.521   2.668   1.650  0.7213  0.3496  0.0484
 5386SOL    HW127791   2.544   2.610   1.578 -0.0556 -1.9417  1.6604
 5386SOL    HW227792   2.439   2.711   1.624  1.1266  0.1340 -1.6113
 5387SOL     OW27793   3.843   4.631   3.339  0.4914 -0.3649  0.2949
 5387SOL    HW127794   3.821   4.560   3.400  1.4830 -0.5606  0.4190
 5387SOL    HW227795   3.764   4.656   3.291  2.3619  1.0438 -2.0292
 5388SOL     OW27796   1.177   4.597   9.128 -0.2508 -0.5455 -0.4691
 5388SOL    HW127797   1.149   4.683   9.096 -2.0192 -1.4161 -1.3163
 5388SOL    HW227798   1.098   4.547   9.105 -0.7761  0.1675 -0.2137
 5389SOL     OW27799   0.162   1.973  13.476  0.5121  0.0768 -0.2823
 5389SOL    HW127800   0.132   1.921  13.551 -1.0515  1.0595 -0.2278
 5389SOL    HW227801   0.094   1.961  13.410 -0.7844 -0.2503  1.1046
 5390SOL     OW27802   3.742   0.715  10.451 -0.3570  0.1405  0.3215
 5390SOL    HW127803   3.651   0.716  10.482 -1.1573 -1.2119 -1.9695
 5390SOL    HW227804   3.775   0.633  10.488  0.0439  0.8920  1.6015
 5391SOL     OW27805   4.053   1.054   5.399 -0.1428 -0.0333 -0.5659
 5391SOL    HW127806   4.069   1.149   5.393  0.2766  0.0194  1.3310
 5391SOL    HW227807   4.133   1.042   5.450 -0.5764  2.1382  0.6640
 5392SOL     OW27808   1.350   2.664   4.288 -0.1707  0.3508  0.2417
 5392SOL    HW127809   1.381   2.578   4.262  2.4101  1.0247  1.0540
 5392SOL    HW227810   1.325   2.700   4.203 -1.4248 -0.8423  0.1190
 5393SOL     OW27811   4.340   3.389   5.457 -0.2897  0.6399 -0.1379
 5393SOL    HW127812   4.305   3.462   5.508  1.8946  1.9105 -0.4108
 5393SOL    HW227813   4.431   3.416   5.445 -0.5771  0.4915 -2.6608
 5394SOL     OW27814   1.017   3.979   3.941  0.3862  0.3396 -0.1363
 5394SOL    HW127815   1.022   4.072   3.917  3.2351 -0.0900 -1.1876
 5394SOL    HW227816   0.924   3.959   3.938  0.0841  1.7879 -0.4625
 5395SOL     OW27817   3.823   1.280   3.833  0.2146  0.7457 -0.4678
 5395SOL    HW127818   3.897   1.298   3.774  1.2672  1.9170  1.2067
 5395SOL    HW227819   3.869   1.304   3.914 -0.5697 -1.5998  0.6741
 5396SOL     OW27820   2.567   3.739   2.470  0.6575  0.0979 -1.0415
 5396SOL    HW127821   2.627   3.719   2.398 -0.0313  0.0092 -1.6053
 5396SOL    HW227822   2.627   3.759   2.541  0.8978  2.0724 -1.8264
 5397SOL     OW27823   0.905   4.510   4.509 -0.5017 -0.0283  0.2949
 5397SOL    HW127824   0.891   4.563   4.431  2.0630  1.5470  0.8921
 5397SOL    HW227825   0.815   4.493   4.534 -0.5732 -0.1215 -0.0301
 5398SOL     OW27826   3.354   2.973  17.109 -0.5116 -0.0103  0.0296
 5398SOL    HW127827   3.386   2.971  17.018 -0.4361 -1.9561  0.0918
 5398SOL    HW227828   3.274   3.025  17.101 -0.5252 -0.0223  0.0940
 5399SOL     OW27829   3.256   4.165   4.361  0.8382  0.3812 -0.1246
 5399SOL    HW127830   3.182   4.145   4.419  0.9865  1.3561  0.4012
 5399SOL    HW227831   3.245   4.259   4.351 -1.4646  0.1441  0.2442
 5400SOL     OW27832   0.200   4.092   1.857  0.1165  0.3680 -0.1208
 5400SOL    HW127833   0.174   4.052   1.775 -0.9714  0.1615  0.3139
 5400SOL    HW227834   0.112   4.122   1.880 -0.4273 -0.1772 -1.5384
 5401SOL     OW27835   0.576   0.679   0.337 -0.0469  0.6346 -0.2009
 5401SOL    HW127836   0.549   0.688   0.428 -0.3750  3.8932 -0.6169
 5401SOL    HW227837   0.645   0.745   0.326  1.7065 -0.7707  2.5657
 5402SOL     OW27838   1.092   1.258   1.972  0.0195 -0.0420 -0.1481
 5402SOL    HW127839   1.104   1.168   1.944  0.0389 -0.7749  2.2606
 5402SOL    HW227840   1.161   1.278   2.034 -2.4245 -2.4686  3.3085
 5403SOL     OW27841   0.277   3.214  11.582 -0.0991 -0.0160  0.2614
 5403SOL    HW127842   0.313   3.128  11.559  0.4907  0.0682  0.8758
 5403SOL    HW227843   0.245   3.192  11.670 -0.6959 -0.6402 -0.1113
 5404SOL     OW27844   2.631   4.155   2.206  0.4983  0.0244 -0.2673
 5404SOL    HW127845   2.558   4.097   2.227  0.4236  0.3524  0.3571
 5404SOL    HW227846   2.682   4.114   2.136  2.0676  0.9691  0.3193
 5405SOL     OW27847   4.324   2.846  13.022 -0.4217  0.0736  0.2897
 5405SOL    HW127848   4.368   2.762  13.009 -0.5187  0.4936 -2.7203
 5405SOL    HW227849   4.233   2.838  12.991 -0.4431 -0.1803  0.4164
 5406SOL     OW27850   0.196   2.347   1.255 -0.3918 -0.6522  0.3385
 5406SOL    HW127851   0.161   2.420   1.307 -2.0766 -0.7203 -0.7013
 5406SOL    HW227852   0.136   2.347   1.181 -1.7204  3.2247  1.3942
 5407SOL     OW27853   2.279   4.702   1.239  0.2976 -0.5466  0.3513
 5407SOL    HW127854   2.343   4.697   1.310  0.1422  0.3020  0.5573
 5407SOL    HW227855   2.332   0.012   1.174  1.5208  0.1660  1.8493
 5408SOL     OW27856   0.747   4.167   4.116  0.3830 -0.3477  0.5858
 5408SOL    HW127857   0.807   4.236   4.089 -0.2139 -0.8541 -2.0196
 5408SOL    HW227858   0.691   4.162   4.039  0.3372 -3.2368  0.7870
 5409SOL     OW27859   0.618   2.347   2.270  0.1069  0.0019 -0.9243
 5409SOL    HW127860   0.622   2.252   2.260  0.1113 -0.0689 -0.2010
 5409SOL    HW227861   0.526   2.361   2.295 -0.0091 -1.1198 -0.7231
 5410SOL     OW27862   4.244   0.513   2.766 -0.2372  0.3417  0.0441
 5410SOL    HW127863   4.224   0.441   2.705 -1.8616  0.9846 -0.1660
 5410SOL    HW227864   4.339   0.526   2.767  0.0939 -1.9006 -1.5883
 5411SOL     OW27865   2.166   1.120  15.377  0.3153 -0.3195 -0.6295
 5411SOL    HW127866   2.233   1.055  15.399  0.8927 -0.3167 -2.4058
 5411SOL    HW227867   2.160   1.191  15.441  2.6189  2.2158 -3.2633
 5412SOL     OW27868   1.333   2.331   1.248 -0.4282 -0.4449  0.0735
 5412SOL    HW127869   1.313   2.336   1.341  1.5271 -1.2176  0.5236
 5412SOL    HW227870   1.302   2.418   1.222  1.2468  0.2814  0.4963
 5413SOL     OW27871   3.757   1.832  16.664 -0.0988 -0.0348  0.2729
 5413SOL    HW127872   3.716   1.844  16.750  1.3312  0.6959  0.8675
 5413SOL    HW227873   3.828   1.894  16.683  1.3741 -1.6527  0.0238
 5414SOL     OW27874   3.268   3.664   7.525 -0.2466  0.2354  0.1201
 5414SOL    HW127875   3.234   3.576   7.504  3.6128 -0.6138 -2.4806
 5414SOL    HW227876   3.253   3.654   7.619 -0.5227 -0.8953 -0.0426
 5415SOL     OW27877   1.408   1.584   2.156  0.0901  0.3029  0.1352
 5415SOL    HW127878   1.400   1.661   2.213  1.8373  0.6627 -0.0972
 5415SOL    HW227879   1.503   1.579   2.144 -0.1825 -0.2028 -1.7823
 5416SOL     OW27880   3.203   1.150   0.960  0.1974  0.0897 -0.0696
 5416SOL    HW127881   3.189   1.056   0.974 -1.6318  0.5807  1.2924
 5416SOL    HW227882   3.129   1.189   1.007 -0.6835 -0.0428 -1.3385
 5417SOL     OW27883   1.032   1.891   5.084  0.0266  0.1192 -0.2720
 5417SOL    HW127884   1.108   1.832   5.090  0.0444  0.0734 -0.9456
 5417SOL    HW227885   1.033   1.943   5.164 -0.1115 -1.8185  1.0072
 5418SOL     OW27886   3.127   4.279  10.120  0.3699 -0.3199 -0.2231
 5418SOL    HW127887   3.048   4.333  10.127  1.1880  0.6148  1.6823
 5418SOL    HW227888   3.078   4.198  10.104 -1.5680  0.6049  1.0275
 5419SOL     OW27889   1.580   1.286  11.986 -0.5896 -0.0439  0.1067
 5419SOL    HW127890   1.600   1.379  11.996 -1.8630  0.1654  0.7532
 5419SOL    HW227891   1.580   1.246  12.073  0.8743 -0.2918 -0.0185
 5420SOL     OW27892   3.618   0.451   2.904  0.0967 -0.8728  0.3103
 5420SOL    HW127893   3.699   0.428   2.950  0.2898  0.9192  0.8667
 5420SOL    HW227894   3.564   0.460   2.982 -0.3272 -0.7332 -0.0022
 5421SOL     OW27895   2.544   1.028   5.067  0.2576  0.1404 -0.3768
 5421SOL    HW127896   2.534   1.099   5.130 -0.3400  0.6884 -1.0921
 5421SOL    HW227897   2.451   1.014   5.054 -0.2236 -0.5941  3.9998
 5422SOL     OW27898   0.688   2.880   0.853 -0.0714  0.6383  0.0906
 5422SOL    HW127899   0.668   2.927   0.934  0.0544  3.0432 -1.2771
 5422SOL    HW227900   0.779   2.854   0.869 -0.2459 -0.7086 -1.0596
 5423SOL     OW27901   0.921   2.727   4.287 -0.2598 -0.6364  0.4292
 5423SOL    HW127902   0.989   2.749   4.350  0.5829 -0.2860 -0.5974
 5423SOL    HW227903   0.843   2.716   4.340  0.8889 -0.0089  2.2459
 5424SOL     OW27904   3.025   2.949   7.534 -0.0948  0.1532  0.0817
 5424SOL    HW127905   3.023   3.044   7.542  0.7047  0.4051 -2.5055
 5424SOL    HW227906   2.960   2.917   7.597 -0.0279 -2.0232 -0.9401
 5425SOL     OW27907   2.777   3.179   5.295  0.7207 -0.2338 -0.6627
 5425SOL    HW127908   2.717   3.130   5.238  1.0261  0.6884 -1.7868
 5425SOL    HW227909   2.812   3.116   5.358  0.7395  0.8340  0.3874
 5426SOL     OW27910   1.769   1.880   4.926 -0.7092  0.0609  0.0420
 5426SOL    HW127911   1.839   1.940   4.900 -0.6722 -0.4920 -1.1127
 5426SOL    HW227912   1.779   1.880   5.021 -0.9447  1.7334  0.0611
 5427SOL     OW27913   2.234   2.496   8.189 -0.1091 -0.5024 -0.5236
 5427SOL    HW127914   2.150   2.454   8.170 -1.4256  2.0287 -0.2018
 5427SOL    HW227915   2.221   2.589   8.174  2.0088 -0.6283 -3.0705
 5428SOL     OW27916   2.835   4.315   4.316 -0.7159 -0.7896 -0.5826
 5428SOL    HW127917   2.821   4.280   4.227  1.8608  1.7205 -1.9715
 5428SOL    HW227918   2.863   4.404   4.299  0.0999 -1.1883 -1.3475
 5429SOL     OW27919   1.061   3.704   9.597 -0.1321 -0.0419  0.0642
 5429SOL    HW127920   1.151   3.718   9.567  0.4587 -0.1963  1.7644
 5429SOL    HW227921   1.017   3.721   9.514 -1.1165  1.7013  0.9587
 5430SOL     OW27922   1.941   0.704  13.880 -0.2236 -0.8274 -0.2267
 5430SOL    HW127923   1.872   0.679  13.818 -1.1679 -1.2664  0.9741
 5430SOL    HW227924   1.985   0.770  13.828  0.5083 -3.0842 -2.4448
 5431SOL     OW27925   0.298   1.573  12.302 -0.5574 -0.3803  0.1018
 5431SOL    HW127926   0.288   1.651  12.357  2.8543  0.1014  0.0488
 5431SOL    HW227927   0.371   1.526  12.341 -0.6101 -0.4806  0.0784
 5432SOL     OW27928   0.036   2.403  10.239  0.2783 -0.3474 -0.9943
 5432SOL    HW127929   0.003   2.386  10.151  1.0306 -0.7524 -1.1967
 5432SOL    HW227930   4.691   2.421  10.285 -0.6373 -0.4745 -2.5785
 5433SOL     OW27931   4.340   3.180   2.771  0.3665  0.1750 -0.0557
 5433SOL    HW127932   4.421   3.133   2.754 -1.7731 -2.5947 -2.5897
 5433SOL    HW227933   4.282   3.122   2.721  0.7890  1.2226 -1.7900
 5434SOL     OW27934   2.623   1.505  12.340  1.1078 -0.5913  0.3841
 5434SOL    HW127935   2.613   1.570  12.409  2.1408 -1.7696  1.6519
 5434SOL    HW227936   2.551   1.443  12.351 -0.0702  0.4319 -1.6534
 5435SOL     OW27937   2.528   0.575   8.709  0.4722 -0.2584 -0.3466
 5435SOL    HW127938   2.508   0.482   8.720 -1.2157  0.2950  1.3546
 5435SOL    HW227939   2.516   0.608   8.798  2.7127  1.5456 -0.7235
 5436SOL     OW27940   1.471   0.333   7.079  0.6661  0.7217  0.8331
 5436SOL    HW127941   1.416   0.411   7.090 -0.4543  0.0005  0.3909
 5436SOL    HW227942   1.556   0.375   7.065  0.9313 -0.7714 -2.1228
 5437SOL     OW27943   2.238   3.618   5.686  0.1314 -0.3762 -0.1882
 5437SOL    HW127944   2.171   3.587   5.625  0.8130 -3.4171  0.5942
 5437SOL    HW227945   2.196   3.699   5.713  2.2217  0.0130  1.8494
 5438SOL     OW27946   1.401   3.676   5.142 -0.5809  0.7518 -0.4035
 5438SOL    HW127947   1.449   3.731   5.205  2.1018 -0.5400 -1.3039
 5438SOL    HW227948   1.311   3.687   5.170 -0.6789 -1.6633  0.1963
 5439SOL     OW27949   0.840   2.706   3.283 -0.4183 -0.2296  0.0563
 5439SOL    HW127950   0.842   2.629   3.340 -1.0854 -2.0063 -2.3150
 5439SOL    HW227951   0.921   2.742   3.320 -0.0081 -2.0377  0.9093
 5440SOL     OW27952   4.364   3.072  15.527 -0.0012 -0.0525  0.9654
 5440SOL    HW127953   4.300   3.139  15.552  1.2213  1.3964  0.1678
 5440SOL    HW227954   4.310   3.022  15.466  0.7459 -0.4194  0.6056
 5441SOL     OW27955   4.390   1.579   6.700 -0.2126  0.3574 -0.1633
 5441SOL    HW127956   4.299   1.552   6.690 -0.3328  0.1128  1.6263
 5441SOL    HW227957   4.383   1.673   6.689  3.1732  0.4780 -1.4353
 5442SOL     OW27958   0.616   4.729  16.558 -0.2013  0.4037  0.4075
 5442SOL    HW127959   0.646   4.720  16.468 -2.0663 -1.1268 -0.0644
 5442SOL    HW227960   0.635   0.085  16.572 -1.4620  0.8998 -1.0807
 5443SOL     OW27961   2.178   2.880   5.390 -0.1995  0.1338 -0.1757
 5443SOL    HW127962   2.200   2.973   5.383  0.0627 -0.1306 -2.6743
 5443SOL    HW227963   2.188   2.855   5.298 -1.6645  2.3131 -0.9333
 5444SOL     OW27964   3.695   2.475   7.453  0.5543  0.2437  0.3386
 5444SOL    HW127965   3.720   2.383   7.444 -0.9436 -0.0531 -0.8282
 5444SOL    HW227966   3.619   2.468   7.395 -0.9938  0.8640  2.3004
 5445SOL     OW27967   4.017   1.897   3.053  0.1729  0.6620 -0.5403
 5445SOL    HW127968   4.070   1.828   3.011 -0.5869 -1.2983  1.7682
 5445SOL    HW227969   3.929   1.863   3.040  0.5451 -1.1035  1.6098
 5446SOL     OW27970   4.071   0.469  15.884  0.2855  0.1160 -0.1352
 5446SOL    HW127971   4.032   0.530  15.947  2.7423  0.5722  0.9575
 5446SOL    HW227972   3.988   0.440  15.847  0.6258 -2.9175  1.4720
 5447SOL     OW27973   2.380   3.206   5.082  0.3925 -0.0078 -0.7473
 5447SOL    HW127974   2.313   3.254   5.033 -2.9689 -1.8583  2.1337
 5447SOL    HW227975   2.463   3.231   5.041  0.3931 -0.5655 -1.0881
 5448SOL     OW27976   3.444   1.981   3.731  0.1578 -0.5837  0.0896
 5448SOL    HW127977   3.535   1.969   3.756 -0.2018 -1.7586  0.8487
 5448SOL    HW227978   3.425   2.064   3.775 -0.7370 -0.4373 -0.5822
 5449SOL     OW27979   2.293   1.842   4.165 -0.1759 -0.0597  0.7471
 5449SOL    HW127980   2.381   1.841   4.203  0.1201 -0.8437  0.0212
 5449SOL    HW227981   2.295   1.771   4.101 -1.4774 -0.4713  1.1722
 5450SOL     OW27982   1.167   3.562   5.623 -0.2652 -0.0550 -0.0719
 5450SOL    HW127983   1.189   3.579   5.714  2.1531 -0.7787 -0.5212
 5450SOL    HW227984   1.159   3.651   5.589 -3.1948 -0.3118 -0.0118
 5451SOL     OW27985   1.689   3.171   6.091 -0.0488  0.1452  0.2694
 5451SOL    HW127986   1.655   3.204   6.008 -0.1085 -1.3003 -0.2849
 5451SOL    HW227987   1.680   3.077   6.076  0.8606  0.4501 -2.1626
 5452SOL     OW27988   0.937   0.511  17.704  0.3448  0.2431  0.0727
 5452SOL    HW127989   0.928   0.442   0.025  0.0085  0.4545  0.2421
 5452SOL    HW227990   0.917   0.586   0.013  1.1328 -0.7391  1.7179
 5453SOL     OW27991   1.382   0.089   7.205 -0.5683  0.1695 -0.2476
 5453SOL    HW127992   1.301   0.108   7.253 -0.4858  2.3292 -0.9857
 5453SOL    HW227993   1.412   0.173   7.170 -0.0355 -0.0454 -0.3015
 5454SOL     OW27994   0.867   1.027   3.142 -0.1360  0.2198 -0.6840
 5454SOL    HW127995   0.946   1.012   3.193 -0.1108  2.0234 -0.1918
 5454SOL    HW227996   0.906   0.998   3.059 -1.1299 -0.8773 -0.7632
 5455SOL     OW27997   3.467   1.996   4.419 -0.4326  0.2030 -0.4434
 5455SOL    HW127998   3.399   2.007   4.353 -1.5689 -1.7560  0.3934
 5455SOL    HW227999   3.499   2.086   4.426 -0.5719  0.2392 -0.2885
 5456SOL     OW28000   0.401   2.986   6.925 -0.1630 -0.0553 -0.4146
 5456SOL    HW128001   0.456   3.060   6.952  0.4533 -0.4312 -0.6564
 5456SOL    HW228002   0.316   3.030   6.916 -0.2611  0.2522  2.0845
 5457SOL     OW28003   3.422   1.572  13.804  0.0142  0.2596 -1.0162
 5457SOL    HW128004   3.505   1.618  13.817 -0.2482  0.2993  0.5714
 5457SOL    HW228005   3.357   1.642  13.793 -1.1016 -0.6410 -0.2631
 5458SOL     OW28006   4.073   1.210  15.833  0.1129  0.0797  0.0688
 5458SOL    HW128007   4.017   1.282  15.864  0.8954  1.1792 -1.0633
 5458SOL    HW228008   4.109   1.255  15.756 -2.5229 -2.5212 -2.7070
 5459SOL     OW28009   2.805   4.537  11.149  0.4637 -0.1344  0.4714
 5459SOL    HW128010   2.767   4.522  11.063 -1.3842  0.3531  1.2027
 5459SOL    HW228011   2.741   4.486  11.199 -0.7465  2.5242  1.6432
 5460SOL     OW28012   4.650   2.338   2.819  0.1019  0.6093 -0.1828
 5460SOL    HW128013   4.705   2.413   2.843  1.3145  0.4981 -2.5624
 5460SOL    HW228014   4.710   2.268   2.844 -0.4788 -0.0051 -0.4856
 5461SOL     OW28015   2.949   2.014  11.527 -0.3937 -1.2839  0.1156
 5461SOL    HW128016   2.873   1.998  11.583  0.0835 -2.6563  0.3774
 5461SOL    HW228017   2.992   1.929  11.541  2.1292 -0.2739 -1.4749
 5462SOL     OW28018   1.774   3.920   4.432  0.2986  0.1835  0.0754
 5462SOL    HW128019   1.852   3.919   4.378 -0.4506 -0.9265 -0.9852
 5462SOL    HW228020   1.743   4.009   4.415 -0.6814 -0.3398 -0.8977
 5463SOL     OW28021   2.070   2.836   1.484  0.1680  0.2026  0.1925
 5463SOL    HW128022   2.016   2.905   1.448  0.7853 -0.0818 -1.2738
 5463SOL    HW228023   2.005   2.782   1.530 -0.5230  1.3893  0.6035
 5464SOL     OW28024   4.711   2.743   2.652 -0.1234 -0.5365  0.2740
 5464SOL    HW128025   4.675   2.744   2.563 -0.4783 -1.0750  0.4084
 5464SOL    HW228026   4.682   2.830   2.680 -2.7511 -0.5768 -2.2891
 5465SOL     OW28027   0.187   0.862   4.902 -0.2783 -0.0925 -0.3215
 5465SOL    HW128028   0.240   0.904   4.834 -1.0900 -0.0589 -0.9393
 5465SOL    HW228029   0.144   0.944   4.928  0.8915 -0.1784  1.8481
 5466SOL     OW28030   3.449   1.440  15.789 -0.1851  0.2195  0.0013
 5466SOL    HW128031   3.512   1.448  15.861 -0.9990 -0.2058  0.7606
 5466SOL    HW228032   3.479   1.355  15.757 -1.8730  0.0091 -1.0308
 5467SOL     OW28033   3.904   1.961   6.544 -0.0377 -0.0006  0.0581
 5467SOL    HW128034   3.985   1.937   6.588 -0.6357 -2.6729 -0.2804
 5467SOL    HW228035   3.928   1.947   6.452 -1.2269  0.4394 -0.3207
 5468SOL     OW28036   2.729   2.076   3.911 -0.0631  0.1190  0.4422
 5468SOL    HW128037   2.684   1.993   3.895  1.1676  0.0162 -2.5951
 5468SOL    HW228038   2.725   2.104   3.820 -0.7751  2.3726  1.1745
 5469SOL     OW28039   2.988   1.640   0.473 -0.0808  0.1951 -0.2240
 5469SOL    HW128040   3.026   1.715   0.520 -0.2516  0.5540 -0.6607
 5469SOL    HW228041   2.898   1.647   0.504 -0.0295 -1.5738  0.3209
 5470SOL     OW28042   3.325   1.434   3.287 -0.3317 -0.8176  0.0530
 5470SOL    HW128043   3.268   1.495   3.334  1.0872  0.1818  0.4831
 5470SOL    HW228044   3.391   1.488   3.243 -0.6155 -0.7191 -0.2478
 5471SOL     OW28045   0.384   0.956  11.472 -0.4414  0.0195  0.0443
 5471SOL    HW128046   0.472   0.989  11.490  0.2834 -2.9348  1.8216
 5471SOL    HW228047   0.320   1.024  11.494 -0.5022 -0.9283  2.6991
 5472SOL     OW28048   3.871   3.913   3.227  0.4038  0.6220  0.1334
 5472SOL    HW128049   3.887   4.002   3.197  0.2928  1.3411  2.2156
 5472SOL    HW228050   3.866   3.866   3.144 -2.3080  0.1081  0.5633
 5473SOL     OW28051   3.954   4.373  14.602 -0.2184  0.1631  0.1615
 5473SOL    HW128052   3.897   4.307  14.563 -1.5116 -0.1041  2.4587
 5473SOL    HW228053   3.915   4.370  14.690 -0.6148  0.1142 -0.0154
 5474SOL     OW28054   2.774   0.097   4.730 -0.7336 -0.2897  0.0094
 5474SOL    HW128055   2.760   0.104   4.636 -0.0044 -1.1747 -0.1692
 5474SOL    HW228056   2.773   0.187   4.763  4.0879 -0.0846 -0.4092
 5475SOL     OW28057   1.402   3.860   1.018 -0.4356 -0.0920  0.6334
 5475SOL    HW128058   1.438   3.948   1.006 -0.0687 -0.1810  1.0905
 5475SOL    HW228059   1.328   3.852   0.958 -0.6425 -0.6391  0.9565
 5476SOL     OW28060   1.889   1.820   4.397 -0.5297 -0.5085 -0.7089
 5476SOL    HW128061   1.920   1.874   4.323  1.0670  0.4572  0.6579
 5476SOL    HW228062   1.830   1.881   4.442 -0.7189 -1.7396  0.7237
 5477SOL     OW28063   4.431   3.095   6.820  0.5360  0.1528  0.0289
 5477SOL    HW128064   4.364   3.163   6.828  1.5866  1.0654  0.8709
 5477SOL    HW228065   4.394   3.058   6.739  0.8903 -0.7169  0.2708
 5478SOL     OW28066   1.908   4.170  12.068 -0.4220  0.6130  0.0869
 5478SOL    HW128067   1.836   4.233  12.058 -0.3775  0.6526  0.0118
 5478SOL    HW228068   1.926   4.182  12.162 -0.5668  0.2960  0.1518
 5479SOL     OW28069   2.092   2.572   7.394 -0.1748 -0.1006  0.0981
 5479SOL    HW128070   1.997   2.583   7.405 -0.1506  0.1821  0.0453
 5479SOL    HW228071   2.112   2.532   7.478  2.0261  0.0246 -0.3657
 5480SOL     OW28072   4.553   0.201   9.535 -0.2909 -0.0933  0.4597
 5480SOL    HW128073   4.582   0.139   9.601  0.6382 -1.4841 -1.2549
 5480SOL    HW228074   4.596   0.177   9.453 -1.3465  0.0183 -0.1219
 5481SOL     OW28075   0.810   0.486   6.818 -0.6031 -0.0920  0.4370
 5481SOL    HW128076   0.725   0.444   6.814 -1.2238  1.2122 -0.0733
 5481SOL    HW228077   0.785   0.577   6.805 -0.5050 -0.2011 -0.4636
 5482SOL     OW28078   0.919   1.182  15.585 -0.5349 -0.2456  0.2321
 5482SOL    HW128079   1.012   1.206  15.576 -0.2743 -1.5034 -0.3738
 5482SOL    HW228080   0.909   1.215  15.674 -1.0102  1.1266 -0.3403
 5483SOL     OW28081   2.727   0.494  13.041  0.1964  0.5391  0.1962
 5483SOL    HW128082   2.664   0.565  13.030 -0.0103  0.6358  1.8937
 5483SOL    HW228083   2.777   0.548  13.103  1.2016  1.4138 -1.3827
 5484SOL     OW28084   3.979   1.709   8.098 -0.2153  0.6215  0.4009
 5484SOL    HW128085   4.003   1.772   8.166 -2.3520 -0.4887  2.1793
 5484SOL    HW228086   3.883   1.712   8.105 -0.4056 -1.2595 -1.4931
 5485SOL     OW28087   0.055   3.542   4.126 -0.0305  0.0144 -0.2129
 5485SOL    HW128088   4.722   3.489   4.088 -0.0125 -0.1562 -0.0080
 5485SOL    HW228089   0.004   3.622   4.138  1.2101  0.6523  0.8062
 5486SOL     OW28090   2.419   0.452   7.142  0.2127 -0.1882 -0.3151
 5486SOL    HW128091   2.424   0.492   7.054 -1.8767  2.1638  0.6428
 5486SOL    HW228092   2.416   0.531   7.195 -0.9796 -0.0372 -0.6092
 5487SOL     OW28093   0.079   2.936   6.247 -0.2003  0.1996 -0.4865
 5487SOL    HW128094   0.120   2.949   6.162 -1.3423  1.4252 -0.8452
 5487SOL    HW228095   0.159   2.909   6.294  0.5053  3.0461 -0.0288
 5488SOL     OW28096   4.363   1.237   6.547  0.3019  0.4295  0.1634
 5488SOL    HW128097   4.375   1.249   6.641 -0.1053  1.6146  0.0582
 5488SOL    HW228098   4.286   1.288   6.522 -0.4297 -0.5014  0.5254
 5489SOL     OW28099   1.780   0.789   5.424 -0.1776  0.0972  0.1345
 5489SOL    HW128100   1.863   0.764   5.466 -0.8768 -1.5331  0.5688
 5489SOL    HW228101   1.793   0.770   5.330 -3.2316  0.0947 -0.2636
 5490SOL     OW28102   3.233   0.566   3.125 -0.1945 -0.2564 -0.3677
 5490SOL    HW128103   3.250   0.643   3.072  3.3779 -0.5984  0.3067
 5490SOL    HW228104   3.242   0.600   3.214  1.3263 -2.3143  0.2564
 5491SOL     OW28105   1.440   2.418   8.141  0.1683  0.6914  0.1334
 5491SOL    HW128106   1.411   2.362   8.069  2.8610 -1.8285  1.0205
 5491SOL    HW228107   1.359   2.413   8.193  0.4960  3.1029  0.8960
 5492SOL     OW28108   1.495   3.656   0.866  0.1244  0.0434  0.7374
 5492SOL    HW128109   1.580   3.697   0.851 -0.9978  2.3453  0.5696
 5492SOL    HW228110   1.471   3.735   0.916 -0.9462  0.1953 -0.0143
 5493SOL     OW28111   0.114   0.688  12.119 -0.1935  0.7789 -0.3991
 5493SOL    HW128112   0.031   0.642  12.135  0.3859 -0.4903 -1.0742
 5493SOL    HW228113   0.181   0.623  12.139 -0.6152  1.1241  2.1221
 5494SOL     OW28114   3.478   2.100   7.364  1.0558 -0.1171 -0.2339
 5494SOL    HW128115   3.570   2.125   7.370  0.6333  0.6482  3.0491
 5494SOL    HW228116   3.481   2.008   7.336 -1.3450  0.2912 -1.8255
 5495SOL     OW28117   4.176   1.526   4.116 -0.3136 -0.4513 -0.7845
 5495SOL    HW128118   4.226   1.547   4.195 -1.1433 -0.7617 -0.1806
 5495SOL    HW228119   4.224   1.581   4.053  0.9292 -0.8740 -0.2070
 5496SOL     OW28120   2.686   1.287   4.163  0.0577  0.4618  0.4503
 5496SOL    HW128121   2.758   1.271   4.102 -0.5383 -1.5387  0.2741
 5496SOL    HW228122   2.615   1.234   4.125  1.8215 -0.7630 -1.1102
 5497SOL     OW28123   2.421   4.220   4.758 -0.1343  0.0808  0.5053
 5497SOL    HW128124   2.476   4.142   4.746  2.7245  2.3139 -0.7606
 5497SOL    HW228125   2.474   4.265   4.824  0.6594 -1.8384  1.1685
 5498SOL     OW28126   0.096   4.551   2.696 -0.0302 -0.5912  0.0689
 5498SOL    HW128127   0.085   4.482   2.630 -2.1934  0.8928 -1.1229
 5498SOL    HW228128   0.180   4.588   2.668 -0.3430 -1.1655 -1.6489
 5499SOL     OW28129   2.663   4.617   7.380  0.1560 -0.0467  0.4125
 5499SOL    HW128130   2.616   4.534   7.376 -1.7235  1.1141 -2.1891
 5499SOL    HW228131   2.726   4.588   7.446 -1.5940 -2.0254  1.2085
 5500SOL     OW28132   2.193   1.190  11.420  0.0394 -0.1519  0.0918
 5500SOL    HW128133   2.216   1.258  11.484  2.4747 -1.7165  0.8910
 5500SOL    HW228134   2.279   1.148  11.422  0.8161  1.4404  0.2986
 5501SOL     OW28135   0.569   1.938   8.786 -0.1093 -0.3501 -0.2444
 5501SOL    HW128136   0.619   1.856   8.785  0.0275 -0.2958  1.1449
 5501SOL    HW228137   0.628   1.993   8.735  0.4345 -1.4282 -0.7701
 5502SOL     OW28138   1.590   4.055   4.748 -0.1903 -0.2898 -0.1674
 5502SOL    HW128139   1.553   4.143   4.750  1.3770  0.3475  0.6789
 5502SOL    HW228140   1.551   4.020   4.828  0.3439  0.2915  0.3483
 5503SOL     OW28141   1.817   0.839  11.374  0.6893  0.5565  0.3229
 5503SOL    HW128142   1.895   0.888  11.347  0.4667  0.9793  0.4402
 5503SOL    HW228143   1.806   0.773  11.305 -3.4652 -0.3115  1.8191
 5504SOL     OW28144   1.309   2.511  12.056 -0.1766 -0.5856  0.6274
 5504SOL    HW128145   1.223   2.515  12.014 -0.3073  1.3524  1.0518
 5504SOL    HW228146   1.347   2.427  12.030 -0.7057 -0.4240 -0.6264
 5505SOL     OW28147   3.955   3.279   6.789 -0.3254  0.9582  0.4816
 5505SOL    HW128148   3.911   3.220   6.728 -0.3896 -0.7410  2.1688
 5505SOL    HW228149   3.925   3.248   6.874 -0.3090  0.0085  0.1335
 5506SOL     OW28150   4.223   0.574   4.730  0.1042  0.0727 -0.5565
 5506SOL    HW128151   4.222   0.485   4.694  2.3768  0.4240 -1.4529
 5506SOL    HW228152   4.236   0.551   4.823  0.2564  1.4737 -0.2363
 5507SOL     OW28153   1.653   4.653   5.648  0.4131  0.1514 -0.7182
 5507SOL    HW128154   1.670   4.585   5.713 -1.5070 -0.0337 -0.4194
 5507SOL    HW228155   1.727   4.711   5.664  0.5297 -0.9678  2.6945
 5508SOL     OW28156   3.837   3.807  12.034 -0.1512  0.1755 -0.0573
 5508SOL    HW128157   3.889   3.859  11.973 -2.3358  1.6771 -0.6348
 5508SOL    HW228158   3.908   3.749  12.062  0.3111  0.4907 -0.5765
 5509SOL     OW28159   1.288   1.347   2.120 -0.6410  0.1505  0.1660
 5509SOL    HW128160   1.314   1.439   2.115 -0.3329 -0.0508 -1.7043
 5509SOL    HW228161   1.375   1.308   2.112 -0.7687  0.1340 -1.1523
 5510SOL     OW28162   0.328   4.343   2.223 -0.1226 -0.3617  0.4199
 5510SOL    HW128163   0.330   4.268   2.282 -0.2792  0.6484  1.7144
 5510SOL    HW228164   0.415   4.383   2.223 -1.3033  2.1991  0.7577
 5511SOL     OW28165   0.372   2.435   8.197  0.2308 -0.2471  0.2381
 5511SOL    HW128166   0.373   2.395   8.284  0.7224 -0.0250  0.3356
 5511SOL    HW228167   0.350   2.357   8.147 -0.5482  0.2552 -0.2009
 5512SOL     OW28168   3.902   1.411   6.311  0.0546  0.5952 -0.0957
 5512SOL    HW128169   3.857   1.440   6.231  0.2813 -0.6876 -0.7009
 5512SOL    HW228170   3.864   1.323   6.322  0.0042  0.7762  1.1211
 5513SOL     OW28171   3.090   4.434   2.371 -0.5853  0.5070 -0.3467
 5513SOL    HW128172   3.170   4.485   2.383  0.7321 -1.0107 -2.5518
 5513SOL    HW228173   3.140   4.356   2.394 -0.1382  0.7001 -0.6640
 5514SOL     OW28174   3.242   3.847   9.016 -0.0287  0.7117  0.2352
 5514SOL    HW128175   3.212   3.918   9.073  0.1684  0.8174  0.2072
 5514SOL    HW228176   3.331   3.839   9.050  0.8843  0.4649 -2.2007
 5515SOL     OW28177   2.102   0.021   0.076  0.4793 -0.2601 -0.1907
 5515SOL    HW128178   2.129   0.003  17.732 -0.3423 -2.5244  0.0307
 5515SOL    HW228179   2.163   4.702   0.124 -0.5915  0.5900  2.1663
 5516SOL     OW28180   0.669   1.623   5.857  0.1559  0.3273  0.1585
 5516SOL    HW128181   0.686   1.676   5.778 -1.8592 -0.8251 -1.0424
 5516SOL    HW228182   0.665   1.689   5.925 -0.8139  0.1960  0.2358
 5517SOL     OW28183   3.681   0.316   2.376  0.0831  0.1267  0.9654
 5517SOL    HW128184   3.699   0.373   2.452  0.7128  1.3024 -0.0728
 5517SOL    HW228185   3.751   0.252   2.381 -0.1863 -0.2001  0.4928
 5518SOL     OW28186   2.093   1.534  11.091  0.3343 -0.2760  0.1486
 5518SOL    HW128187   2.159   1.485  11.140 -0.4984 -0.3159  1.2450
 5518SOL    HW228188   2.142   1.611  11.063 -0.9209  0.9571  1.3341
 5519SOL     OW28189   3.606   0.103   6.724 -0.3342 -0.2899  0.3072
 5519SOL    HW128190   3.670   0.174   6.715  1.2208 -1.6139  0.7576
 5519SOL    HW228191   3.606   0.099   6.820  1.8370 -0.2306  0.3302
 5520SOL     OW28192   3.326   4.271   7.103 -0.1461 -0.4140 -0.1235
 5520SOL    HW128193   3.293   4.196   7.054  1.1481  0.0890 -1.7542
 5520SOL    HW228194   3.412   4.270   7.062 -0.3690  0.9211 -0.6424
 5521SOL     OW28195   3.752   2.393   6.994  0.5681  0.3708  0.3347
 5521SOL    HW128196   3.735   2.300   7.009  1.4704  0.3986  1.5654
 5521SOL    HW228197   3.837   2.409   7.036  0.6824 -2.6455  1.2174
 5522SOL     OW28198   0.362   4.527  15.149 -0.1803 -0.1977  0.3587
 5522SOL    HW128199   0.337   4.565  15.065  0.8877 -1.2318 -0.4197
 5522SOL    HW228200   0.274   4.513  15.182 -1.7509  3.6910 -2.2272
 5523SOL     OW28201   1.030   3.114   0.399 -0.0308 -0.0634  0.7318
 5523SOL    HW128202   1.038   3.040   0.459  1.5166 -1.2583 -0.9314
 5523SOL    HW228203   1.112   3.159   0.422  0.1202 -0.2583  0.5672
 5524SOL     OW28204   2.924   3.674   4.893 -0.5389  0.3349 -0.5396
 5524SOL    HW128205   2.932   3.721   4.810 -1.3731 -1.0131 -1.3753
 5524SOL    HW228206   2.864   3.738   4.931  0.7860  0.5541  1.1528
 5525SOL     OW28207   2.007   1.704  15.727 -0.4491 -0.0288  0.2782
 5525SOL    HW128208   1.964   1.677  15.646 -2.7252  2.1365  0.7619
 5525SOL    HW228209   2.078   1.639  15.729 -0.1084  0.3419  0.2134
 5526SOL     OW28210   2.022   0.897   9.464  0.0449 -0.1228 -0.1502
 5526SOL    HW128211   2.036   0.900   9.559  1.9443 -1.1393 -0.4022
 5526SOL    HW228212   2.014   0.991   9.445 -2.7678  0.0575  1.9487
 5527SOL     OW28213   3.920   3.218  13.658 -0.5727  0.0790  0.4954
 5527SOL    HW128214   3.956   3.302  13.686  0.9616  0.2050 -1.8439
 5527SOL    HW228215   3.993   3.163  13.684 -0.2798 -0.0401 -0.5830
 5528SOL     OW28216   2.603   1.022   7.918  0.5096 -0.0455  0.4881
 5528SOL    HW128217   2.629   1.078   7.845 -1.9666 -0.8203 -1.0078
 5528SOL    HW228218   2.619   0.935   7.880  1.3403  0.3794 -0.1305
 5529SOL     OW28219   1.782   4.046   8.559  0.3581 -0.3350 -0.1366
 5529SOL    HW128220   1.710   4.105   8.579  0.8226  0.1500  0.0996
 5529SOL    HW228221   1.850   4.098   8.601  1.4859 -2.6471  0.9219
 5530SOL     OW28222   3.258   0.327  15.431 -0.3481  0.2499  0.0396
 5530SOL    HW128223   3.163   0.335  15.441 -0.5291  0.0297 -1.5708
 5530SOL    HW228224   3.249   0.260  15.363 -0.5043 -0.1423  0.4395
 5531SOL     OW28225   1.350   1.246   3.571  0.0242 -0.0342 -0.1706
 5531SOL    HW128226   1.440   1.233   3.598  0.1002  1.3707  0.2390
 5531SOL    HW228227   1.365   1.321   3.513 -0.2504 -0.9667 -1.4668
 5532SOL     OW28228   1.513   3.009   5.352  0.0332 -0.1865  0.2301
 5532SOL    HW128229   1.585   3.012   5.289  1.2641 -1.0224  1.6053
 5532SOL    HW228230   1.507   2.916   5.372 -3.3360 -0.3662 -1.4966
 5533SOL     OW28231   1.234   1.680   6.919 -0.5332  0.5136  0.4897
 5533SOL    HW128232   1.187   1.597   6.926  1.1631 -0.4710  0.1747
 5533SOL    HW228233   1.272   1.692   7.005  1.5536 -0.5500 -0.3005
 5534SOL     OW28234   0.943   4.714  11.969 -0.3514  0.3709 -0.0683
 5534SOL    HW128235   0.851   4.687  11.966  0.0876 -0.9591 -1.2785
 5534SOL    HW228236   0.965   4.715  12.063  0.0485 -3.9343 -0.1184
 5535SOL     OW28237   2.517   4.512   5.783 -0.1540 -0.1098  0.2270
 5535SOL    HW128238   2.483   4.510   5.872 -0.6968 -1.3286 -0.0187
 5535SOL    HW228239   2.540   4.605   5.786  0.7615 -0.2950 -1.0402
 5536SOL     OW28240   1.702   4.334   0.338 -0.0036 -0.1568  0.3558
 5536SOL    HW128241   1.665   4.388   0.268 -1.7685 -0.5082  1.0384
 5536SOL    HW228242   1.765   4.294   0.277 -0.6555  0.5926 -0.8220
 5537SOL     OW28243   0.917   1.934   8.269 -0.1562  0.8826  0.0160
 5537SOL    HW128244   0.950   1.857   8.314  1.0869 -0.2802 -2.8837
 5537SOL    HW228245   0.944   1.922   8.178 -0.6130 -0.7537  0.1084
 5538SOL     OW28246   2.850   0.768   3.982 -0.4304 -0.0415 -0.1307
 5538SOL    HW128247   2.893   0.852   3.995 -1.7738  0.7175 -0.5286
 5538SOL    HW228248   2.875   0.726   4.064  0.0121  0.5868  0.0527
 5539SOL     OW28249   0.939   3.437  10.314  0.0532 -0.3089 -0.1315
 5539SOL    HW128250   1.011   3.433  10.377 -0.6114 -1.8274  0.5292
 5539SOL    HW228251   0.941   3.344  10.295  0.4775 -0.1163 -1.0012
 5540SOL     OW28252   4.390   0.656   3.141 -0.0252 -0.0338  0.3310
 5540SOL    HW128253   4.357   0.716   3.073  0.9806  0.9035  0.6634
 5540SOL    HW228254   4.340   0.688   3.216  0.8808 -0.5747  1.1531
 5541SOL     OW28255   2.304   1.763   7.306  0.1748  0.6899  0.2675
 5541SOL    HW128256   2.252   1.779   7.227  1.1560 -3.3642 -1.1694
 5541SOL    HW228257   2.378   1.812   7.269  0.3289  0.1863 -0.0844
 5542SOL     OW28258   0.749   4.300   7.902  0.0575 -0.9559  0.1399
 5542SOL    HW128259   0.724   4.211   7.927 -0.6056 -0.7646  0.1660
 5542SOL    HW228260   0.840   4.276   7.887 -0.0629 -1.3402  0.0220
 5543SOL     OW28261   1.301   0.068   4.428 -0.7352 -0.5140  0.1784
 5543SOL    HW128262   1.222   0.097   4.473  0.4157  0.5903  1.5072
 5543SOL    HW228263   1.264   0.031   4.348  0.0151  1.6892 -1.2058
 5544SOL     OW28264   3.760   4.524  12.032 -0.3091  0.3640  0.1970
 5544SOL    HW128265   3.783   4.497  12.121  0.7126  0.2502 -0.1101
 5544SOL    HW228266   3.703   4.452  12.004  0.4004 -0.9230  2.0752
 5545SOL     OW28267   4.376   4.475   8.286 -0.2642 -0.6068 -0.2020
 5545SOL    HW128268   4.461   4.507   8.259 -0.7752 -0.3004 -1.4274
 5545SOL    HW228269   4.372   4.400   8.227 -1.6780 -0.6883 -0.0070
 5546SOL     OW28270   1.058   1.512  17.732  0.1656 -0.4409 -0.5703
 5546SOL    HW128271   1.131   1.568   0.015  1.6535 -2.0345 -1.2379
 5546SOL    HW228272   1.062   1.447   0.057 -0.1872  0.4686  0.2914
 5547SOL     OW28273   2.635   4.278  17.456  0.7751  0.2838 -0.4921
 5547SOL    HW128274   2.631   4.336  17.532  0.7239  1.0096 -1.0524
 5547SOL    HW228275   2.656   4.333  17.380  0.8515 -0.1944 -0.8168
 5548SOL     OW28276   2.620   1.792   1.225  0.5359  0.0287  0.0844
 5548SOL    HW128277   2.586   1.771   1.138 -0.3791  0.2100  0.3971
 5548SOL    HW228278   2.552   1.849   1.262 -0.3328 -1.0525  0.1464
 5549SOL     OW28279   3.741   4.535  10.526 -0.0490  0.0039 -0.0889
 5549SOL    HW128280   3.779   4.619  10.500  1.2327 -0.8406 -0.9695
 5549SOL    HW228281   3.749   4.558  10.618 -4.1251 -0.9150  0.4731
 5550SOL     OW28282   3.486   4.063  13.991 -0.1655 -0.3663 -0.7092
 5550SOL    HW128283   3.522   4.065  14.080 -0.2177 -0.5612 -0.6843
 5550SOL    HW228284   3.518   3.976  13.966  1.9788 -0.4851  2.3798
 5551SOL     OW28285   1.100   2.773   8.357 -0.4117  0.6559 -0.0870
 5551SOL    HW128286   1.136   2.786   8.444 -0.0759 -1.5855  0.1297
 5551SOL    HW228287   1.169   2.809   8.301  0.7188 -0.3363  0.6564
 5552SOL     OW28288   1.157   1.260   4.450 -0.3824 -0.6575  0.5185
 5552SOL    HW128289   1.240   1.293   4.415 -0.3931 -2.1017 -0.8801
 5552SOL    HW228290   1.145   1.177   4.404 -3.2325 -0.0689  0.2382
 5553SOL     OW28291   0.864   0.050   1.818  0.1280 -0.1540 -0.2565
 5553SOL    HW128292   0.822   0.046   1.904  0.0589  0.1694 -0.2762
 5553SOL    HW228293   0.817   4.726   1.760 -0.3349 -1.2785  1.3091
 5554SOL     OW28294   0.431   2.533   2.151  0.0545  0.5270 -0.2533
 5554SOL    HW128295   0.457   2.571   2.235  4.0370 -0.6687 -0.9758
 5554SOL    HW228296   0.336   2.532   2.165  0.2274 -2.4764  0.7578
 5555SOL     OW28297   3.374   1.219   3.947  0.1396  0.2411  0.2317
 5555SOL    HW128298   3.377   1.294   4.006  3.0837  0.8408 -0.6728
 5555SOL    HW228299   3.300   1.239   3.890 -0.3500  0.9826  1.1245
 5556SOL     OW28300   1.694   0.436  10.436  0.2269  0.1356  0.3719
 5556SOL    HW128301   1.776   0.482  10.416  1.8265 -2.7751  0.2427
 5556SOL    HW228302   1.637   0.512  10.448 -2.1158 -1.4359 -0.6676
 5557SOL     OW28303   4.019   0.090   7.662 -0.3520  0.3840 -0.6526
 5557SOL    HW128304   3.929   0.069   7.637 -0.7730 -0.7885  1.8735
 5557SOL    HW228305   4.050   0.159   7.604 -1.3534  1.1039 -0.3310
 5558SOL     OW28306   1.042   4.075  17.132  0.7813 -0.5750  0.4938
 5558SOL    HW128307   0.983   4.129  17.184  2.3315  0.6011  1.0466
 5558SOL    HW228308   1.009   3.986  17.139 -2.2742  0.6722  1.7798
 5559SOL     OW28309   2.366   4.431   1.882  0.8764 -0.4299  0.2074
 5559SOL    HW128310   2.424   4.432   1.957  0.4898  2.0325  0.4923
 5559SOL    HW228311   2.289   4.388   1.920  0.7696 -0.8532 -0.4810
 5560SOL     OW28312   2.156   0.548   1.413  0.1841 -0.6864  0.4346
 5560SOL    HW128313   2.164   0.534   1.318 -1.0354  2.3150 -0.1119
 5560SOL    HW228314   2.218   0.616   1.438 -3.8278  2.1661  2.4529
 5561SOL     OW28315   2.025   1.418   0.746 -0.0579 -0.7214  0.1232
 5561SOL    HW128316   2.120   1.410   0.734  0.0372  1.6388 -0.7447
 5561SOL    HW228317   2.014   1.369   0.827  2.2866 -0.2924  0.7053
 5562SOL     OW28318   3.625   3.672   7.693  0.7174 -0.0527  0.2101
 5562SOL    HW128319   3.603   3.617   7.617  1.1883 -0.6827  0.5270
 5562SOL    HW228320   3.675   3.741   7.650 -0.2889  1.5441  1.6273
 5563SOL     OW28321   0.661   1.225   1.048 -0.4192  0.3870  0.0545
 5563SOL    HW128322   0.615   1.301   1.011 -0.1093  0.8128  0.5342
 5563SOL    HW228323   0.728   1.266   1.102 -1.1122  0.9890  0.4633
 5564SOL     OW28324   1.979   1.011   2.683  0.0748  0.1008 -0.2520
 5564SOL    HW128325   1.946   1.037   2.596 -2.5550 -0.2917  0.6505
 5564SOL    HW228326   1.973   0.917   2.672  0.6654 -0.2082  2.2256
 5565SOL     OW28327   0.958   0.332   0.195 -0.0365  0.3214  0.2132
 5565SOL    HW128328   0.932   0.240   0.190 -3.8408  1.4227 -0.6885
 5565SOL    HW228329   0.958   0.340   0.290 -1.9936  2.4808  0.0601
 5566SOL     OW28330   0.048   1.183   6.687 -0.7943 -0.2244 -0.9321
 5566SOL    HW128331   0.137   1.218   6.692 -0.1384 -1.9018 -0.8840
 5566SOL    HW228332   0.002   1.250   6.737  0.3308 -0.0403 -0.1165
 5567SOL     OW28333   0.157   4.610   8.908  0.0736  0.1648 -0.6026
 5567SOL    HW128334   0.071   4.569   8.896  0.2692 -0.3983 -0.0853
 5567SOL    HW228335   0.212   4.546   8.862 -2.2563  0.0187 -3.1445
 5568SOL     OW28336   3.167   4.507   4.866  0.2647 -0.2113  0.2308
 5568SOL    HW128337   3.183   4.507   4.771 -1.6663 -0.4577 -0.1001
 5568SOL    HW228338   3.104   4.579   4.869 -0.1594 -0.6008  0.6681
 5569SOL     OW28339   2.376   2.008  12.079 -0.1040 -0.1522  0.3419
 5569SOL    HW128340   2.444   2.025  12.144  2.7867 -1.7545 -2.2859
 5569SOL    HW228341   2.297   2.013  12.133 -0.5355 -0.9031 -0.2306
 5570SOL     OW28342   3.143   3.312   8.884 -0.5421  0.2497 -0.5128
 5570SOL    HW128343   3.060   3.294   8.927  0.3386  1.0288  1.5302
 5570SOL    HW228344   3.211   3.286   8.946 -0.7641  1.3135  0.1702
 5571SOL     OW28345   1.168   4.499  10.141  0.5261 -0.0038 -0.9759
 5571SOL    HW128346   1.177   4.464  10.052  0.7263 -1.2961 -0.4586
 5571SOL    HW228347   1.137   4.421  10.188  0.4298 -0.0547 -1.1213
 5572SOL     OW28348   3.480   4.349   6.369 -0.4075 -0.1819 -0.1466
 5572SOL    HW128349   3.534   4.277   6.401 -3.3006 -2.2828  0.0117
 5572SOL    HW228350   3.393   4.310   6.380  0.0979 -1.4896 -0.6825
 5573SOL     OW28351   4.294   3.491   9.038 -0.3663 -0.4697 -0.3078
 5573SOL    HW128352   4.343   3.410   9.023  0.7998 -0.1253  1.6069
 5573SOL    HW228353   4.204   3.464   9.023 -0.7238 -0.0731  1.0712
 5574SOL     OW28354   2.278   2.329   0.524 -0.7893 -0.5437 -0.3381
 5574SOL    HW128355   2.197   2.297   0.563 -0.5778 -2.5045 -1.5301
 5574SOL    HW228356   2.256   2.422   0.533 -1.5674 -0.7580  0.0358
 5575SOL     OW28357   3.315   4.228   5.137 -0.1217 -0.2484  0.5179
 5575SOL    HW128358   3.378   4.203   5.070 -0.9137 -0.1548 -0.2608
 5575SOL    HW228359   3.370   4.279   5.197  1.1733 -2.0497  0.8577
 5576SOL     OW28360   1.246   0.931  15.668  1.1150  0.3350  0.1971
 5576SOL    HW128361   1.301   0.870  15.718 -1.1900  0.3432  2.7272
 5576SOL    HW228362   1.170   0.932  15.727  0.8103 -0.3148 -0.1745
 5577SOL     OW28363   3.443   2.385  16.395  0.0980  0.5155 -0.3774
 5577SOL    HW128364   3.462   2.325  16.323  1.7708  0.0486  0.4457
 5577SOL    HW228365   3.360   2.356  16.433  0.8285 -2.3017 -0.9446
 5578SOL     OW28366   0.501   2.602   2.408  0.3868 -0.3974 -0.0624
 5578SOL    HW128367   0.534   2.525   2.454 -0.5758 -0.1417  1.0668
 5578SOL    HW228368   0.476   2.665   2.476  0.8965 -0.3389  0.0708
 5579SOL     OW28369   1.426   2.589   7.500 -0.2527  0.3339 -0.3566
 5579SOL    HW128370   1.470   2.673   7.485  3.9925 -1.7617  0.6236
 5579SOL    HW228371   1.402   2.583   7.407 -3.9374  0.7115  0.5804
 5580SOL     OW28372   2.309   1.894   7.615 -0.0191  0.4096 -0.5432
 5580SOL    HW128373   2.384   1.937   7.576 -0.2119  0.5382 -0.7712
 5580SOL    HW228374   2.344   1.856   7.696  1.6096  1.1106 -0.9408
 5581SOL     OW28375   2.071   3.172   8.215 -0.1218  0.2387  0.0703
 5581SOL    HW128376   2.000   3.127   8.169 -0.0029 -1.5142  1.5820
 5581SOL    HW228377   2.064   3.254   8.165 -2.9681 -0.2750 -0.3839
 5582SOL     OW28378   2.584   3.019  12.884  0.0079 -0.2686 -0.3086
 5582SOL    HW128379   2.614   2.928  12.877 -1.2532 -0.6043 -1.1874
 5582SOL    HW228380   2.659   3.064  12.844  1.5227 -2.2687  0.2472
 5583SOL     OW28381   1.577   0.946   8.807  0.1676  0.1486 -0.1497
 5583SOL    HW128382   1.651   1.003   8.827 -1.4524  1.9544  0.6629
 5583SOL    HW228383   1.559   0.960   8.714 -2.8864 -2.4645  0.0378
 5584SOL     OW28384   3.883   3.203  16.695 -0.4711 -0.5238 -0.0378
 5584SOL    HW128385   3.943   3.277  16.692  1.7714 -2.3554 -0.4603
 5584SOL    HW228386   3.842   3.216  16.610 -1.6872  1.0716  0.8028
 5585SOL     OW28387   2.118   4.481   2.323  0.4898 -0.3251  0.0100
 5585SOL    HW128388   2.188   4.500   2.386 -0.5546 -0.8332  1.3209
 5585SOL    HW228389   2.058   4.555   2.340  0.3236 -0.6706  0.9250
 5586SOL     OW28390   0.632   3.691   3.500  0.6506  0.1819 -0.2973
 5586SOL    HW128391   0.722   3.694   3.532 -0.2045  0.1423  2.0677
 5586SOL    HW228392   0.587   3.736   3.572 -0.6249  0.9535 -1.5764
 5587SOL     OW28393   2.107   4.390   5.184 -0.0850  0.4833 -0.3615
 5587SOL    HW128394   2.146   4.476   5.203 -0.9078  1.2122 -2.0005
 5587SOL    HW228395   2.189   4.342   5.193  1.2698  2.5876 -1.4462
 5588SOL     OW28396   1.143   0.711   7.374 -0.5933  0.1142  0.4179
 5588SOL    HW128397   1.088   0.775   7.329  2.1693  0.6908 -2.2028
 5588SOL    HW228398   1.153   0.753   7.459  0.8608  0.0121  0.2980
 5589SOL     OW28399   1.006   1.523   3.986  0.2339  1.1134  0.0283
 5589SOL    HW128400   0.933   1.544   3.928 -1.1283  0.7972  1.6302
 5589SOL    HW228401   1.073   1.518   3.918  1.8198 -4.1793  2.0117
 5590SOL     OW28402   2.123   0.947   5.508 -0.2014  0.0349 -0.3863
 5590SOL    HW128403   2.123   1.012   5.438  0.2873  0.7253  0.2610
 5590SOL    HW228404   2.084   0.994   5.582 -1.7695 -1.8093 -0.0454
 5591SOL     OW28405   3.954   2.065   1.325 -0.2832  0.4069  0.5619
 5591SOL    HW128406   3.967   2.095   1.415  0.8311 -2.7541  1.4669
 5591SOL    HW228407   3.912   2.144   1.290  0.2103  0.4974  0.1689
 5592SOL     OW28408   0.153   2.628   0.091  0.2111  0.3715  0.2859
 5592SOL    HW128409   0.205   2.705   0.067  0.8780 -0.4891 -1.0327
 5592SOL    HW228410   0.200   2.553   0.055  1.3118  0.7839  0.8363
 5593SOL     OW28411   4.430   3.385   7.180  0.2375 -0.3350  0.1327
 5593SOL    HW128412   4.490   3.380   7.254 -0.3786  0.1007  0.6587
 5593SOL    HW228413   4.486   3.444   7.129  1.3295  0.2710  2.0563
 5594SOL     OW28414   3.565   2.917  16.859 -0.2397 -0.3602 -0.5614
 5594SOL    HW128415   3.493   2.969  16.823 -1.6879 -2.0847 -0.1220
 5594SOL    HW228416   3.636   2.982  16.853 -0.1041 -0.4537  0.0266
 5595SOL     OW28417   4.148   1.063  13.546 -0.2280  0.6060  0.1796
 5595SOL    HW128418   4.221   1.041  13.488 -1.0701  0.8136 -0.9761
 5595SOL    HW228419   4.134   0.983  13.596  0.1055 -0.1586 -0.9540
 5596SOL     OW28420   3.799   1.996   8.069  0.4453  0.7803 -0.1479
 5596SOL    HW128421   3.807   2.020   7.977 -2.0040  1.3732 -0.1998
 5596SOL    HW228422   3.738   1.923   8.075  1.3211 -0.1697 -3.1076
 5597SOL     OW28423   4.667   2.289  17.018  0.7004 -0.0033  0.2770
 5597SOL    HW128424   0.009   2.234  17.022  1.7906  1.5715  0.2188
 5597SOL    HW228425   4.700   2.362  16.966  0.2187 -0.8944 -1.2783
 5598SOL     OW28426   0.459   2.400  11.049 -0.6465 -0.2720 -0.2697
 5598SOL    HW128427   0.372   2.434  11.073 -0.4912 -0.1387  0.1029
 5598SOL    HW228428   0.510   2.432  11.124 -1.0045  0.1713 -0.2150
 5599SOL     OW28429   2.670   0.292   0.965 -0.2169 -0.3398  0.0879
 5599SOL    HW128430   2.710   0.208   0.989  1.9850  0.8679  0.7074
 5599SOL    HW228431   2.621   0.309   1.045 -0.6108  0.3141 -0.2951
 5600SOL     OW28432   3.800   4.385  17.506 -0.0883 -0.0597  0.2611
 5600SOL    HW128433   3.806   4.294  17.537  0.0408 -0.6363 -1.4577
 5600SOL    HW228434   3.751   4.435  17.571  0.5210  0.2455  0.4854
 5601SOL     OW28435   1.003   1.657   8.426 -0.2145 -0.0066 -0.2722
 5601SOL    HW128436   1.016   1.565   8.400  2.1048 -0.0583  1.0743
 5601SOL    HW228437   1.089   1.698   8.422  1.1832 -3.2128 -2.8678
 5602SOL     OW28438   1.441   1.913  12.752  0.1673 -0.0003  0.2429
 5602SOL    HW128439   1.436   1.819  12.771  1.5855 -0.1744 -0.2556
 5602SOL    HW228440   1.510   1.950  12.807 -1.8173  0.6474  2.2905
 5603SOL     OW28441   1.892   0.591  11.222  0.0360  0.2515  0.6304
 5603SOL    HW128442   1.834   0.623  11.152  0.9875  1.7802  0.5553
 5603SOL    HW228443   1.945   0.539  11.162  0.2156 -0.6273  1.5534
 5604SOL     OW28444   0.043   2.267   9.642  0.0843  0.7245  0.7285
 5604SOL    HW128445   4.695   2.270   9.686 -0.3178  1.8383 -0.1239
 5604SOL    HW228446   0.101   2.290   9.714  2.0755  0.8130 -0.8976
 5605SOL     OW28447   3.649   1.465  11.223 -0.5959  0.8871  0.8562
 5605SOL    HW128448   3.689   1.393  11.272 -1.4453 -2.1864 -2.9933
 5605SOL    HW228449   3.599   1.424  11.152 -0.0962 -0.3970  1.2456
 5606SOL     OW28450   0.026   2.936   9.058  0.3859 -0.1901 -0.1401
 5606SOL    HW128451   0.037   2.919   9.152 -0.2294 -2.4639 -0.4848
 5606SOL    HW228452   0.036   3.031   9.065  1.8261 -0.4128  0.9724
 5607SOL     OW28453   4.629   2.279   4.367 -0.0848  0.5216  0.1765
 5607SOL    HW128454   4.573   2.342   4.413 -0.3315 -1.1203  2.1338
 5607SOL    HW228455   4.659   2.219   4.435 -1.4635  0.9313  1.1523
 5608SOL     OW28456   4.567   0.355   1.617  0.7918  0.1722  0.0205
 5608SOL    HW128457   4.601   0.408   1.545  1.7925  2.0120  1.8596
 5608SOL    HW228458   4.472   0.358   1.605  0.8302 -1.7897 -0.9202
 5609SOL     OW28459   2.463   2.157   6.531 -0.4093 -0.3415  0.5059
 5609SOL    HW128460   2.454   2.155   6.435 -1.1643  1.4795  0.5471
 5609SOL    HW228461   2.378   2.190   6.558  0.5649  1.9805  0.7368
 5610SOL     OW28462   1.049   4.608  15.702  0.0345  0.0461  1.0759
 5610SOL    HW128463   0.971   4.553  15.690 -0.1257  0.1298  1.7334
 5610SOL    HW228464   1.008   4.695  15.711  0.6905  0.5354 -0.8195
 5611SOL     OW28465   1.402   0.230   4.745  0.0153  0.0994  0.0806
 5611SOL    HW128466   1.433   0.141   4.730  0.3589  0.4324 -1.1446
 5611SOL    HW228467   1.325   0.225   4.802 -0.2356 -2.6639 -0.5141
 5612SOL     OW28468   3.222   3.009   1.977 -0.1748  0.5076  0.1333
 5612SOL    HW128469   3.156   2.957   2.023  1.2470 -1.0746  0.3851
 5612SOL    HW228470   3.189   3.097   1.993  1.7397  1.5684 -1.7912
 5613SOL     OW28471   1.273   3.592   4.363 -0.2277  0.3978  0.2545
 5613SOL    HW128472   1.213   3.578   4.289  3.0565 -1.0344 -2.1265
 5613SOL    HW228473   1.287   3.687   4.355  0.3252 -0.1693 -5.5391
 5614SOL     OW28474   2.329   4.014  13.646 -0.6410  0.0165 -0.3418
 5614SOL    HW128475   2.254   4.042  13.593 -2.0621 -3.3668 -0.1184
 5614SOL    HW228476   2.396   4.052  13.589 -0.7604  0.1695 -0.3798
 5615SOL     OW28477   3.994   3.135  12.974  0.2381  0.6775  0.2553
 5615SOL    HW128478   4.011   3.176  13.059 -2.5591  1.4382  0.4396
 5615SOL    HW228479   3.902   3.163  12.976 -0.1264 -0.5559  1.0820
 5616SOL     OW28480   2.815   3.086  12.770 -0.1080  0.8228  0.0113
 5616SOL    HW128481   2.871   3.136  12.829 -0.2569  1.4235 -0.3568
 5616SOL    HW228482   2.874   3.065  12.698 -1.6466  1.4273 -1.4203
 5617SOL     OW28483   1.512   1.743   6.262 -0.4428  0.2126 -0.2015
 5617SOL    HW128484   1.518   1.795   6.182 -1.1121  1.6994  0.7043
 5617SOL    HW228485   1.417   1.730   6.271  0.1230 -4.0434 -0.2161
 5618SOL     OW28486   1.031   1.440   6.181  0.0905 -0.1591  0.4756
 5618SOL    HW128487   1.038   1.448   6.086  0.7243  1.5721  0.6597
 5618SOL    HW228488   0.981   1.358   6.179  2.2132 -1.4133 -1.2459
 5619SOL     OW28489   1.512   1.172   8.350  0.4729  0.1791  0.1912
 5619SOL    HW128490   1.549   1.178   8.439  0.0666  0.8655  0.3104
 5619SOL    HW228491   1.433   1.224   8.357  2.5453  3.4072 -0.4730
 5620SOL     OW28492   1.482   3.538  13.178  0.1673  0.7775  0.8716
 5620SOL    HW128493   1.518   3.562  13.092 -0.1176 -0.1551  0.4886
 5620SOL    HW228494   1.564   3.543  13.227  0.7228 -3.3645  0.4134
 5621SOL     OW28495   3.969   2.069  10.748 -0.3021  0.7869  0.3548
 5621SOL    HW128496   4.018   2.051  10.829  0.4336  0.1503 -0.2260
 5621SOL    HW228497   4.004   2.003  10.688 -1.4369  0.5815 -0.0765
 5622SOL     OW28498   1.742   0.700  10.147  0.2691 -0.0620 -0.5282
 5622SOL    HW128499   1.687   0.623  10.166  3.5402 -1.8816  1.6795
 5622SOL    HW228500   1.729   0.706  10.053  0.2695  0.8920 -0.4678
 5623SOL     OW28501   2.470   2.261   8.125 -0.0130 -0.0124  0.2057
 5623SOL    HW128502   2.423   2.342   8.146 -2.0046 -1.2084  0.4300
 5623SOL    HW228503   2.511   2.254   8.211  3.7765 -2.1689 -1.7823
 5624SOL     OW28504   4.554   0.820   9.204  0.8081 -0.4138  0.1441
 5624SOL    HW128505   4.549   0.747   9.142 -0.5882 -0.8342  0.7715
 5624SOL    HW228506   4.473   0.868   9.188  1.1711  0.4795  0.9479
 5625SOL     OW28507   1.381   1.378  13.640 -0.0475 -0.1458  0.2148
 5625SOL    HW128508   1.372   1.434  13.717 -3.4686 -0.1186 -0.1825
 5625SOL    HW228509   1.386   1.451  13.579  0.3550 -0.2729  0.0956
 5626SOL     OW28510   3.339   1.724   0.721  0.0049 -0.2038  0.1653
 5626SOL    HW128511   3.342   1.628   0.713 -3.1016 -0.2973  0.0759
 5626SOL    HW228512   3.275   1.755   0.657  0.0127  0.1681  0.3370
 5627SOL     OW28513   4.123   3.779   5.229  0.0793  0.3157  0.5858
 5627SOL    HW128514   4.066   3.702   5.224  0.4184  0.2066 -1.6487
 5627SOL    HW228515   4.208   3.737   5.216 -0.4051  0.0960 -1.7898
 5628SOL     OW28516   0.065   3.017  16.470 -0.1167 -0.7399  0.7979
 5628SOL    HW128517   0.123   3.079  16.426  0.5642 -1.0733  1.2289
 5628SOL    HW228518   0.082   3.038  16.562 -1.8393  2.1257  0.4529
 5629SOL     OW28519   1.542   1.317   2.086  0.3066  0.0957 -0.2781
 5629SOL    HW128520   1.589   1.400   2.074 -0.4143  0.7258  1.2675
 5629SOL    HW228521   1.553   1.314   2.181  1.0188  0.7376 -0.3377
 5630SOL     OW28522   1.322   3.120  10.830  0.6400 -0.3738 -0.0149
 5630SOL    HW128523   1.353   3.209  10.843  1.9724 -0.5892 -1.6804
 5630SOL    HW228524   1.403   3.070  10.840  1.8002  1.8971  1.9512
 5631SOL     OW28525   3.202   1.863   4.532  0.0445 -0.0312  0.3035
 5631SOL    HW128526   3.111   1.849   4.507  1.2183  0.7177 -4.3693
 5631SOL    HW228527   3.245   1.793   4.484 -2.1353 -2.4945  1.9667
 5632SOL     OW28528   1.572   3.974  12.641 -0.5182  0.4742  0.4374
 5632SOL    HW128529   1.510   4.046  12.635 -0.0609  0.8965  0.8492
 5632SOL    HW228530   1.603   3.968  12.550  0.2767 -0.7103  0.7842
 5633SOL     OW28531   3.074   4.412   6.310  0.8213 -0.1787  0.1348
 5633SOL    HW128532   3.042   4.494   6.272  0.9438 -0.0718  0.2655
 5633SOL    HW228533   3.138   4.439   6.376 -0.0865  2.4774 -0.0547
 5634SOL     OW28534   4.111   3.214  15.594 -0.2117 -0.0698 -0.5494
 5634SOL    HW128535   4.100   3.274  15.521 -0.0399  1.3549  0.6069
 5634SOL    HW228536   4.023   3.182  15.615  0.1661 -0.1260  0.9478
 5635SOL     OW28537   0.188   1.650   2.850  0.6340 -0.4686 -0.5757
 5635SOL    HW128538   0.164   1.603   2.771  2.6381  1.3914 -2.2923
 5635SOL    HW228539   0.157   1.593   2.921  0.7237 -0.7230 -0.7405
 5636SOL     OW28540   3.648   0.174  16.155 -0.3060 -0.2785  0.1000
 5636SOL    HW128541   3.591   0.220  16.093 -0.1918  1.2326  1.1246
 5636SOL    HW228542   3.582   0.163  16.224 -0.9088 -0.0322 -0.4302
 5637SOL     OW28543   2.784   2.785   1.657 -0.7137  0.2934  0.4300
 5637SOL    HW128544   2.701   2.747   1.631 -1.4776  0.5822  2.4388
 5637SOL    HW228545   2.842   2.760   1.585 -1.7212  1.1465 -0.6742
 5638SOL     OW28546   3.051   0.642   5.556 -0.0011 -0.4500  0.0927
 5638SOL    HW128547   3.086   0.553   5.565  2.6757  0.7167  1.1317
 5638SOL    HW228548   3.132   0.684   5.528  0.3912 -1.1860  0.1051
 5639SOL     OW28549   4.302   3.305   5.028 -0.4485 -0.1981 -0.1291
 5639SOL    HW128550   4.377   3.344   4.984 -0.0857 -1.4449 -0.6168
 5639SOL    HW228551   4.301   3.215   4.997  0.5207 -0.2405 -0.0490
 5640SOL     OW28552   3.781   3.123   3.551  0.4307  0.0780 -0.2268
 5640SOL    HW128553   3.692   3.104   3.580  0.6531  0.9564  1.0117
 5640SOL    HW228554   3.794   3.051   3.489 -0.2480  0.2011 -0.5171
 5641SOL     OW28555   2.965   3.250   5.748 -0.5560  1.1717  0.1170
 5641SOL    HW128556   2.881   3.293   5.732 -1.6308 -1.5601 -1.5235
 5641SOL    HW228557   2.994   3.234   5.658  2.0982 -0.4592  1.2513
 5642SOL     OW28558   2.899   3.788  13.711 -0.1462  0.3696  0.3906
 5642SOL    HW128559   2.971   3.809  13.771  1.4352  1.1969 -1.7774
 5642SOL    HW228560   2.834   3.855  13.731  0.0398  0.2339  1.4195
 5643SOL     OW28561   1.414   4.026   9.614  0.2700 -0.4559 -0.0179
 5643SOL    HW128562   1.438   4.004   9.705 -1.4677 -1.0903  0.3002
 5643SOL    HW228563   1.483   4.090   9.599  0.5339 -0.5142  0.9178
 5644SOL     OW28564   1.034   1.457  10.093  0.3282 -0.0331  0.6237
 5644SOL    HW128565   1.023   1.476  10.186 -0.1636  1.3186  0.2923
 5644SOL    HW228566   1.125   1.430  10.082  0.1529 -0.4132  0.1110
 5645SOL     OW28567   4.381   2.838   2.512  0.0901 -0.3286 -0.0145
 5645SOL    HW128568   4.470   2.856   2.483  0.2697 -0.2306  0.5942
 5645SOL    HW228569   4.383   2.743   2.502 -0.7932 -0.3428 -0.0377
 5646SOL     OW28570   0.663   4.422   4.598 -0.3318 -0.1077 -0.0616
 5646SOL    HW128571   0.715   4.343   4.607  2.2623  1.7993  1.5046
 5646SOL    HW228572   0.583   4.396   4.644 -0.6760  1.5657  0.2977
 5647SOL     OW28573   4.277   3.643  15.345 -0.3132 -0.2446  0.5839
 5647SOL    HW128574   4.259   3.620  15.254 -0.5160  0.8228  0.3507
 5647SOL    HW228575   4.201   3.696  15.370 -0.0118  0.9039 -0.8945
 5648SOL     OW28576   3.641   0.216   8.581  0.0701 -0.2573 -0.5647
 5648SOL    HW128577   3.615   0.195   8.671  1.7525  1.0151  0.2235
 5648SOL    HW228578   3.662   0.309   8.577  0.7542 -0.3348  1.3625
 5649SOL     OW28579   2.901   2.956   5.030 -0.4407 -0.6019  0.3856
 5649SOL    HW128580   2.969   2.983   5.092  1.2890 -1.8000 -1.0115
 5649SOL    HW228581   2.902   2.861   5.041  0.9751 -0.6064  0.1891
 5650SOL     OW28582   4.158   2.662  11.863  0.3091 -0.0279 -0.4737
 5650SOL    HW128583   4.090   2.651  11.797 -0.7711 -0.9493  0.8025
 5650SOL    HW228584   4.131   2.744  11.905 -0.5030  0.4009 -1.8400
 5651SOL     OW28585   1.883   2.650   3.468 -0.5093 -0.0022  0.1442
 5651SOL    HW128586   1.905   2.734   3.429 -0.9546  0.1219  0.1585
 5651SOL    HW228587   1.832   2.679   3.544  0.4704  0.2692  0.6852
 5652SOL     OW28588   0.674   3.783   6.299 -0.1901 -0.4117 -0.7665
 5652SOL    HW128589   0.620   3.786   6.378  0.7620 -2.0087 -0.0520
 5652SOL    HW228590   0.759   3.757   6.336 -0.5150  0.7369  0.7618
 5653SOL     OW28591   1.160   2.270   6.374  0.5063 -0.5514  0.3614
 5653SOL    HW128592   1.088   2.229   6.422  4.0198 -2.4035  4.0250
 5653SOL    HW228593   1.121   2.356   6.357  1.4221 -0.6723 -2.3878
 5654SOL     OW28594   4.094   4.274   7.221 -0.0325  0.5172  0.4432
 5654SOL    HW128595   4.018   4.308   7.268 -0.0170 -0.3761  1.1080
 5654SOL    HW228596   4.108   4.184   7.250 -0.4949  0.3930  0.2716
 5655SOL     OW28597   3.729   0.934   5.954 -0.5273 -0.1443  0.0456
 5655SOL    HW128598   3.699   1.012   6.001 -1.2108  0.8661 -2.0720
 5655SOL    HW228599   3.815   0.958   5.919 -0.8387  0.5425 -0.2450
 5656SOL     OW28600   3.646   2.842   7.986 -0.1134 -0.7881  0.0489
 5656SOL    HW128601   3.700   2.763   7.991  1.0871  0.1129  1.3517
 5656SOL    HW228602   3.707   2.909   7.955  0.3255 -1.8098 -1.2881
 5657SOL     OW28603   0.904   3.147  15.702 -0.4662 -0.0163  0.5669
 5657SOL    HW128604   0.875   3.212  15.637  0.3352 -2.9877 -2.7581
 5657SOL    HW228605   0.834   3.155  15.767 -0.9145  0.2655  0.0515
 5658SOL     OW28606   1.202   4.024   4.181 -0.3561  0.1287  0.8736
 5658SOL    HW128607   1.154   3.993   4.104  0.6644 -1.1042  0.7317
 5658SOL    HW228608   1.131   4.066   4.229  0.6439  0.7873  1.7603
 5659SOL     OW28609   0.588   3.551  15.846  0.1059  0.0321 -0.0955
 5659SOL    HW128610   0.547   3.637  15.859  0.3915  0.5082 -2.3114
 5659SOL    HW228611   0.649   3.554  15.920 -0.4202  0.8487  0.3147
 5660SOL     OW28612   4.012   1.261   8.283  0.1725 -0.2086  0.7726
 5660SOL    HW128613   4.103   1.231   8.286  0.1141 -0.4652  0.1184
 5660SOL    HW228614   4.013   1.337   8.225  0.1108 -0.2204  0.7559
 5661SOL     OW28615   0.620   0.752   5.298 -0.2810  0.0076  0.2709
 5661SOL    HW128616   0.566   0.696   5.242  0.4078  0.2049 -0.5970
 5661SOL    HW228617   0.600   0.715   5.384  0.3529  0.7390  0.7250
 5662SOL     OW28618   0.688   1.011   7.516  0.0886 -0.0828  0.0296
 5662SOL    HW128619   0.713   1.101   7.493  1.1170 -0.4432 -0.2719
 5662SOL    HW228620   0.606   1.026   7.562 -0.4539  2.4671 -1.7459
 5663SOL     OW28621   4.371   1.464   0.029 -0.2949 -0.1586  0.1358
 5663SOL    HW128622   4.371   1.370   0.014  1.6647 -0.0538 -0.5065
 5663SOL    HW228623   4.279   1.482   0.012 -0.2392  0.5098  0.5387
 5664SOL     OW28624   3.522   2.114   4.697  0.4892 -0.2929  0.1279
 5664SOL    HW128625   3.613   2.090   4.686  0.1855 -2.2976  1.9583
 5664SOL    HW228626   3.500   2.051   4.766  2.6448 -0.4321  0.6721
 5665SOL     OW28627   4.441   3.921  10.136 -0.1437  0.0947  0.3055
 5665SOL    HW128628   4.493   3.858  10.086 -0.9415  0.5957 -1.1380
 5665SOL    HW228629   4.401   3.966  10.062  2.4787  0.3829 -0.9227
 5666SOL     OW28630   1.667   4.286   7.514  0.6635  0.6663 -1.0785
 5666SOL    HW128631   1.698   4.340   7.587  1.2721 -2.0991  0.6942
 5666SOL    HW228632   1.697   4.198   7.537  1.5994  1.6286  1.4945
 5667SOL     OW28633   2.946   1.328   8.365 -0.3136  0.1162  0.8091
 5667SOL    HW128634   2.917   1.255   8.309 -1.7122  1.4281 -0.1779
 5667SOL    HW228635   3.041   1.325   8.352 -0.1657 -0.9580  2.1256
 5668SOL     OW28636   0.289   2.771   8.442  0.0651  0.4244 -1.2727
 5668SOL    HW128637   0.228   2.816   8.501 -0.7439 -1.5587 -0.6051
 5668SOL    HW228638   0.224   2.738   8.381 -1.0149 -0.6253  0.4651
 5669SOL     OW28639   3.668   4.625   0.253 -0.0485  0.0207  0.0241
 5669SOL    HW128640   3.665   4.643   0.159  1.0524  2.1941  0.4181
 5669SOL    HW228641   3.647   4.531   0.256 -0.8943  0.1848 -0.6973
 5670SOL     OW28642   4.052   2.070   4.355  0.2758 -0.4519  0.0462
 5670SOL    HW128643   4.000   2.134   4.307  0.6178 -0.4850 -0.3685
 5670SOL    HW228644   4.027   1.987   4.314 -3.2163  0.9893 -0.7310
 5671SOL     OW28645   2.189   4.613  14.237 -0.4244 -0.1026  0.0241
 5671SOL    HW128646   2.150   4.569  14.162  1.6603 -0.1393 -1.0356
 5671SOL    HW228647   2.277   4.614  14.199 -0.7532  3.1202 -0.7103
 5672SOL     OW28648   4.554   4.011   1.558  0.1494 -0.0571 -0.0249
 5672SOL    HW128649   4.593   4.000   1.471 -1.4592 -1.1025 -0.6115
 5672SOL    HW228650   4.489   4.079   1.538  1.3947  0.6640 -1.6510
 5673SOL     OW28651   0.031   3.191  10.258 -0.0906 -0.3558  0.5972
 5673SOL    HW128652   0.094   3.263  10.257 -2.1254  1.3410 -3.6349
 5673SOL    HW228653   0.071   3.129  10.319  1.3064 -0.0063  0.0318
 5674SOL     OW28654   4.112   4.333   4.856 -0.6012 -0.3730 -0.1348
 5674SOL    HW128655   4.021   4.363   4.852 -1.4762 -2.6627  2.8417
 5674SOL    HW228656   4.125   4.329   4.951  0.8466 -1.9111 -0.3964
 5675SOL     OW28657   1.880   4.274   5.989 -0.0362 -0.1083  0.0763
 5675SOL    HW128658   1.818   4.250   5.920  2.6415  0.6210 -2.6029
 5675SOL    HW228659   1.889   4.187   6.029 -0.5550  0.3505  1.1854
 5676SOL     OW28660   2.248   1.431   9.965 -0.0860  0.4514  0.3195
 5676SOL    HW128661   2.227   1.462   9.876 -1.3546 -0.0434  0.4413
 5676SOL    HW228662   2.249   1.508  10.022 -1.5237  1.4010 -0.9105
 5677SOL     OW28663   0.690   1.653  15.265  0.5174  0.2104  0.1264
 5677SOL    HW128664   0.597   1.631  15.258  0.5443 -0.3067  1.4245
 5677SOL    HW228665   0.701   1.675  15.357  1.2051  0.0583  0.0796
 5678SOL     OW28666   2.807   4.721   5.620 -0.7735 -0.3230 -0.3907
 5678SOL    HW128667   2.798   4.633   5.656  2.6441 -0.5176 -0.0191
 5678SOL    HW228668   2.730   0.022   5.662 -0.1168  1.0394 -0.4003
 5679SOL     OW28669   3.942   3.997   0.174  0.3083  0.3461 -0.8537
 5679SOL    HW128670   3.937   4.068   0.238  1.7078  0.0059 -0.3672
 5679SOL    HW228671   4.024   4.019   0.130 -0.0971  2.2617 -0.6328
 5680SOL     OW28672   1.917   4.221   8.992  0.0326  0.0285  0.2314
 5680SOL    HW128673   1.907   4.300   9.046  0.4730 -0.4979  1.0882
 5680SOL    HW228674   1.888   4.147   9.046 -0.3523  0.4232  0.5663
 5681SOL     OW28675   1.951   3.736  13.194 -0.3638 -0.2726  0.1727
 5681SOL    HW128676   2.039   3.710  13.223  0.2255  1.7580  0.2215
 5681SOL    HW228677   1.962   3.756  13.101 -0.2602  1.0661  0.4708
 5682SOL     OW28678   4.192   1.607   7.269  0.1985 -0.6398 -0.0418
 5682SOL    HW128679   4.154   1.690   7.298 -1.4817 -1.1755 -0.6963
 5682SOL    HW228680   4.130   1.584   7.199 -1.1306 -0.2063  0.9874
 5683SOL     OW28681   0.399   4.341  13.529 -0.5221 -0.1242 -0.2354
 5683SOL    HW128682   0.425   4.328  13.621 -2.2659 -1.0221  0.1289
 5683SOL    HW228683   0.441   4.421  13.498  1.4308 -0.6768  0.9410
 5684SOL     OW28684   1.622   0.280   7.680  0.4427  0.1157  0.0801
 5684SOL    HW128685   1.651   0.355   7.732 -0.7033  0.7979 -0.2565
 5684SOL    HW228686   1.709   0.251   7.652  0.2732 -0.7006  0.3965
 5685SOL     OW28687   2.173   0.146   0.711 -0.0735 -0.1502  0.2106
 5685SOL    HW128688   2.110   0.103   0.769  1.3116 -0.7812  1.2496
 5685SOL    HW228689   2.111   0.164   0.640 -2.3834 -1.0974  2.0048
 5686SOL     OW28690   2.712   1.444   5.703 -0.1274 -0.0377 -0.1451
 5686SOL    HW128691   2.675   1.532   5.694 -1.2665 -0.3412  1.5218
 5686SOL    HW228692   2.632   1.392   5.694 -0.9279  1.0903  0.5524
 5687SOL     OW28693   2.543   4.629   5.088 -0.3471  0.0119 -0.1901
 5687SOL    HW128694   2.597   4.573   5.144 -1.1002 -0.4040  0.1217
 5687SOL    HW228695   2.494   4.674   5.157  0.6211 -0.2730  0.6893
 5688SOL     OW28696   3.387   1.535   8.530 -0.6802  0.2582  0.9472
 5688SOL    HW128697   3.354   1.536   8.619 -2.8165  2.4744  0.1242
 5688SOL    HW228698   3.429   1.448   8.532  0.8350  0.9550 -0.3823
 5689SOL     OW28699   2.321   1.452  14.512  0.0963  0.8070 -0.1209
 5689SOL    HW128700   2.364   1.366  14.509 -0.6105  0.4987 -1.5878
 5689SOL    HW228701   2.263   1.438  14.587  0.8410 -0.5193  0.2090
 5690SOL     OW28702   4.433   1.112   7.582  0.2266 -0.7052  0.7149
 5690SOL    HW128703   4.374   1.150   7.517 -0.4779 -1.8306  0.6944
 5690SOL    HW228704   4.369   1.102   7.652 -3.3788 -1.9165 -2.7393
 5691SOL     OW28705   4.527   2.939   3.079 -0.2250  0.5181 -0.7140
 5691SOL    HW128706   4.509   3.030   3.058  0.8264  0.9421  0.2229
 5691SOL    HW228707   4.522   2.885   3.000  0.0085 -0.4105 -0.0953
 5692SOL     OW28708   4.377   1.018   9.115  0.2099  0.4989  0.3048
 5692SOL    HW128709   4.300   1.072   9.134 -0.2099  0.6891 -2.0129
 5692SOL    HW228710   4.373   1.020   9.020 -2.0278  0.1257  0.3944
 5693SOL     OW28711   4.372   0.329  16.065  0.2170 -0.6756  0.3991
 5693SOL    HW128712   4.333   0.416  16.076 -0.7380 -0.9323 -0.8859
 5693SOL    HW228713   4.464   0.346  16.084  0.6963 -0.9558 -1.7168
 5694SOL     OW28714   3.676   4.607   4.944 -0.2611 -0.2670  0.3216
 5694SOL    HW128715   3.588   4.585   4.974 -0.3902  0.6750  0.6526
 5694SOL    HW228716   3.676   4.702   4.929 -0.7433 -0.2805  0.2400
 5695SOL     OW28717   3.027   3.053   4.336  0.3371 -0.0917 -0.3158
 5695SOL    HW128718   3.107   3.089   4.296  0.1012  1.2419  0.4398
 5695SOL    HW228719   3.028   2.959   4.315 -2.8524  0.1809 -1.7637
 5696SOL     OW28720   3.233   3.142   7.792  0.1104  0.1368 -0.0735
 5696SOL    HW128721   3.201   3.086   7.864  2.5789 -0.5666  0.4877
 5696SOL    HW228722   3.150   3.162   7.749 -0.2917 -0.0939  0.5968
 5697SOL     OW28723   4.636   3.823  17.176  0.3637 -0.4572 -0.1082
 5697SOL    HW128724   4.648   3.805  17.083 -1.7601 -0.9656 -0.2961
 5697SOL    HW228725   4.723   3.801  17.210  0.1403 -1.7053 -0.3348
 5698SOL     OW28726   4.701   2.933  11.312 -0.0620  0.5397  0.0344
 5698SOL    HW128727   0.026   2.951  11.383  1.8897 -1.6686 -1.1134
 5698SOL    HW228728   0.008   2.857  11.274 -2.7298 -0.4626 -1.0273
 5699SOL     OW28729   4.680   0.159   8.911 -0.5194  0.1657  0.5614
 5699SOL    HW128730   4.683   0.063   8.917  0.6470  0.2191  0.6900
 5699SOL    HW228731   4.586   0.175   8.925 -0.5929 -0.0786  0.3489
 5700SOL     OW28732   2.839   0.367   3.799 -0.2720 -0.0438 -0.3288
 5700SOL    HW128733   2.860   0.389   3.890  0.3558  0.3187 -0.5583
 5700SOL    HW228734   2.923   0.394   3.762 -0.3407 -1.1515 -1.3006
 5701SOL     OW28735   2.372   2.227  16.025 -0.5028 -0.3761  0.1148
 5701SOL    HW128736   2.446   2.288  16.020  1.1962 -2.4038  0.6284
 5701SOL    HW228737   2.315   2.250  16.098 -2.6692 -0.8993 -1.4398
 5702SOL     OW28738   4.569   1.482   7.016 -0.1270  0.3692  0.2121
 5702SOL    HW128739   4.489   1.435   7.041  0.6094 -2.2933 -2.3814
 5702SOL    HW228740   4.577   1.457   6.924 -3.0168  0.3136 -0.0257
 5703SOL     OW28741   0.795   4.165  13.021 -0.4347  0.5551 -0.1411
 5703SOL    HW128742   0.701   4.161  13.040  0.0264  0.2289  2.0416
 5703SOL    HW228743   0.822   4.102  13.087  0.6956  3.3283  2.0533
 5704SOL     OW28744   0.578   0.783  11.001  0.0818  0.4779 -0.6640
 5704SOL    HW128745   0.617   0.695  10.999 -1.3545 -0.1562 -0.8836
 5704SOL    HW228746   0.578   0.807  11.094 -0.9221  0.8901 -0.7620
 5705SOL     OW28747   3.253   3.389  17.013  0.0328  0.3027  0.2420
 5705SOL    HW128748   3.349   3.383  17.009  0.1746  2.1957  0.7740
 5705SOL    HW228749   3.249   3.462  17.075  1.8543  1.6952 -1.2628
 5706SOL     OW28750   4.105   3.326   2.628  0.3633 -0.5425  0.0072
 5706SOL    HW128751   4.180   3.345   2.572  1.0280  2.0070  1.7328
 5706SOL    HW228752   4.143   3.323   2.716  1.9537 -0.2673 -0.6614
 5707SOL     OW28753   2.787   1.261  16.625  0.0916  0.2620  0.1044
 5707SOL    HW128754   2.745   1.201  16.687 -0.2784  0.1758 -0.2299
 5707SOL    HW228755   2.875   1.272  16.662  1.1943 -0.7877 -2.2563
 5708SOL     OW28756   3.357   3.295   8.182 -0.0229  0.1164  0.3440
 5708SOL    HW128757   3.362   3.364   8.247 -0.7856  1.9607 -1.5572
 5708SOL    HW228758   3.373   3.218   8.236 -0.7594 -0.5925 -0.4381
 5709SOL     OW28759   2.589   2.172   4.498 -0.3583  0.2261  0.7540
 5709SOL    HW128760   2.511   2.171   4.553 -0.5369  1.8196  0.5455
 5709SOL    HW228761   2.576   2.242   4.434 -0.4332  1.0518  1.6676
 5710SOL     OW28762   0.125   2.521   2.910 -0.8464  0.2572 -0.3058
 5710SOL    HW128763   0.184   2.597   2.908  0.9853 -1.1785 -0.3164
 5710SOL    HW228764   0.115   2.520   3.005 -0.8688 -2.1499 -0.3440
 5711SOL     OW28765   2.645   3.628   1.529  0.1339 -0.5454 -0.9839
 5711SOL    HW128766   2.597   3.545   1.524  0.9626 -1.0419 -0.6856
 5711SOL    HW228767   2.662   3.637   1.623  0.7846 -2.4879 -0.9105
 5712SOL     OW28768   2.424   1.795   4.932  0.0038  0.1512 -0.1272
 5712SOL    HW128769   2.472   1.877   4.947 -1.7293  0.8925  1.2855
 5712SOL    HW228770   2.376   1.786   5.014  1.8650 -0.0282  0.9581
 5713SOL     OW28771   0.863   3.345  15.418  0.3812 -0.1511  0.3973
 5713SOL    HW128772   0.826   3.300  15.342 -0.9704  0.1406  0.8927
 5713SOL    HW228773   0.783   3.379  15.457  0.3734 -0.3239  0.5312
 5714SOL     OW28774   2.754   1.863   7.739  0.5372 -0.0798  0.1269
 5714SOL    HW128775   2.756   1.769   7.720 -2.5658  0.0437 -0.8535
 5714SOL    HW228776   2.701   1.896   7.667 -0.5546 -0.4980  0.7157
 5715SOL     OW28777   2.510   4.412   1.356 -0.0512  0.1330  0.2933
 5715SOL    HW128778   2.482   4.359   1.431 -0.4559 -0.3642 -0.2113
 5715SOL    HW228779   2.597   4.371   1.355 -0.0183  0.2388 -1.2238
 5716SOL     OW28780   4.142   3.717  11.775 -0.6441  0.4758 -0.6010
 5716SOL    HW128781   4.198   3.737  11.700 -0.4760  1.3372 -0.2362
 5716SOL    HW228782   4.076   3.661  11.734 -1.4693 -0.0933  1.5071
 5717SOL     OW28783   4.576   2.361   5.254 -0.4467  0.0903  0.7442
 5717SOL    HW128784   4.583   2.312   5.172 -1.6119  0.3027  0.5210
 5717SOL    HW228785   4.649   2.422   5.243 -1.4096  1.5005  2.2554
 5718SOL     OW28786   2.326   3.608  14.567 -0.7519 -0.1682 -0.1324
 5718SOL    HW128787   2.317   3.585  14.474 -0.4758 -3.0346  0.5309
 5718SOL    HW228788   2.255   3.672  14.579 -2.0076 -1.5581 -0.0729
 5719SOL     OW28789   1.476   3.200   3.448 -0.1642  0.2107 -0.6109
 5719SOL    HW128790   1.413   3.256   3.496 -0.4672 -1.2136  0.6403
 5719SOL    HW228791   1.451   3.111   3.471 -0.2482  0.8004  1.6136
 5720SOL     OW28792   3.289   0.901  14.484  0.2176  0.1586 -0.2250
 5720SOL    HW128793   3.284   0.937  14.396 -1.8314 -0.7496 -0.4534
 5720SOL    HW228794   3.351   0.966  14.518 -3.0470  2.1083  2.0594
 5721SOL     OW28795   3.435   3.466   3.238  0.4410 -0.3762  0.3934
 5721SOL    HW128796   3.379   3.540   3.263 -0.7110 -0.9432 -0.4899
 5721SOL    HW228797   3.499   3.507   3.179 -0.8926 -0.4180 -1.0935
 5722SOL     OW28798   2.559   4.371   7.384  0.4350 -0.8746 -0.5700
 5722SOL    HW128799   2.606   4.289   7.370  0.8027 -0.3892 -2.2215
 5722SOL    HW228800   2.483   4.353   7.329 -0.6011  0.1187  0.5241
 5723SOL     OW28801   4.156   2.532   5.203  0.0835  0.4950  0.2495
 5723SOL    HW128802   4.208   2.504   5.278 -0.5035 -1.4606 -0.0597
 5723SOL    HW228803   4.180   2.622   5.184 -0.9852  0.4341 -1.4476
 5724SOL     OW28804   2.944   0.379  10.571  0.0317  0.0642 -0.2675
 5724SOL    HW128805   2.939   0.402  10.664  1.2062 -0.8546  0.0316
 5724SOL    HW228806   3.038   0.399  10.567  0.0612  0.1274  0.7188
 5725SOL     OW28807   1.530   4.396  10.125  0.8829  0.0294 -0.1860
 5725SOL    HW128808   1.483   4.335  10.069  1.0032 -0.5003  0.2961
 5725SOL    HW228809   1.505   4.474  10.075  0.6889  1.6089  2.3519
 5726SOL     OW28810   4.573   1.378   1.964  0.0699 -0.0768 -0.0404
 5726SOL    HW128811   4.651   1.350   1.915  0.6773  1.9425 -0.2347
 5726SOL    HW228812   4.514   1.375   1.888  1.7180  2.0200 -1.4299
 5727SOL     OW28813   2.697   4.232   6.739  0.1980 -0.5250 -0.0689
 5727SOL    HW128814   2.652   4.243   6.823 -0.1060  1.3058 -0.4776
 5727SOL    HW228815   2.671   4.313   6.696  0.3118 -1.2778 -1.5736
 5728SOL     OW28816   0.383   0.818   8.574 -0.6093 -0.5646  0.0950
 5728SOL    HW128817   0.450   0.795   8.510 -1.0361 -0.0411 -0.5388
 5728SOL    HW228818   0.367   0.731   8.611  0.7713 -1.2193 -0.8462
 5729SOL     OW28819   4.326   1.720  16.802 -0.3326 -0.3188 -0.3215
 5729SOL    HW128820   4.310   1.807  16.766 -3.7617 -1.1446 -0.8641
 5729SOL    HW228821   4.361   1.675  16.725 -1.3860 -0.4309 -0.7342
 5730SOL     OW28822   4.650   0.153   5.659 -0.0354 -0.6127 -0.2413
 5730SOL    HW128823   4.718   0.215   5.682  0.1652 -0.9785  0.1613
 5730SOL    HW228824   4.602   0.205   5.595 -0.8254  0.8560  1.5540
 5731SOL     OW28825   3.817   0.081  16.841  0.4613  0.3648 -0.0022
 5731SOL    HW128826   3.796   4.731  16.808  2.3458  0.3300 -1.1229
 5731SOL    HW228827   3.815   0.061  16.934  1.5429  1.4727  0.2722
 5732SOL     OW28828   3.861   0.018   8.905 -0.1911 -0.3458 -0.2676
 5732SOL    HW128829   3.943   0.011   8.953 -0.9733 -0.4604  1.0429
 5732SOL    HW228830   3.873   4.682   8.844  2.0699  1.2177 -1.6859
 5733SOL     OW28831   1.291   1.670   8.471  0.0572  0.5021 -0.2985
 5733SOL    HW128832   1.346   1.606   8.427 -1.3376 -1.2339  0.4829
 5733SOL    HW228833   1.358   1.724   8.513  1.4864 -1.0139 -0.6650
 5734SOL     OW28834   4.218   4.581   5.098 -0.0484 -0.7891 -0.4419
 5734SOL    HW128835   4.147   4.628   5.055  0.7886  1.7191  0.8919
 5734SOL    HW228836   4.184   4.493   5.113  0.1528 -0.9807 -1.1143
 5735SOL     OW28837   4.701   3.757   7.595  0.0247 -0.1213 -0.0087
 5735SOL    HW128838   4.654   3.674   7.607 -1.8586  1.0114  0.2524
 5735SOL    HW228839   0.051   3.717   7.605 -0.1954 -0.8953 -1.2879
 5736SOL     OW28840   0.823   1.798   9.276  0.0840  0.5186 -0.3764
 5736SOL    HW128841   0.730   1.814   9.266 -0.0095 -0.5533 -1.3253
 5736SOL    HW228842   0.834   1.872   9.335  1.5162 -2.2724  2.8992
 5737SOL     OW28843   0.660   1.360   8.344  0.8600  0.1671  0.2123
 5737SOL    HW128844   0.640   1.330   8.433 -2.2517 -0.7315 -0.7832
 5737SOL    HW228845   0.663   1.456   8.353 -1.0179  0.3183 -0.6974
 5738SOL     OW28846   4.519   2.964  14.203  0.0949  0.3774 -0.6624
 5738SOL    HW128847   4.452   2.972  14.271  0.2173  1.3469 -0.6538
 5738SOL    HW228848   4.485   3.026  14.138 -3.0256 -0.1249  0.4732
 5739SOL     OW28849   3.392   4.387  17.377  0.0685 -0.1753 -0.2363
 5739SOL    HW128850   3.416   4.424  17.462  0.1919 -1.2884  0.2092
 5739SOL    HW228851   3.300   4.414  17.371  0.2688  0.6061  0.3394
 5740SOL     OW28852   1.213   4.342  16.246  0.1344 -0.6227 -0.2576
 5740SOL    HW128853   1.133   4.294  16.267  0.4102 -0.0736  2.0144
 5740SOL    HW228854   1.191   4.423  16.201 -0.0131  0.4617  1.7730
 5741SOL     OW28855   1.531   4.287   1.169 -0.0674  0.1879  0.4500
 5741SOL    HW128856   1.463   4.347   1.199  1.6638  1.6783  1.4204
 5741SOL    HW228857   1.472   4.238   1.112 -0.8494  0.8510  0.6933
 5742SOL     OW28858   3.615   3.839   0.902 -0.1541 -0.0302  0.5114
 5742SOL    HW128859   3.589   3.776   0.969 -1.5415 -0.5075 -0.4969
 5742SOL    HW228860   3.628   3.778   0.830  4.6455  0.6501  0.7788
 5743SOL     OW28861   0.590   2.190   3.376  0.7097 -0.3115 -0.3033
 5743SOL    HW128862   0.557   2.200   3.287 -0.9180 -1.4852  0.1595
 5743SOL    HW228863   0.684   2.196   3.359  0.8538  0.5394  0.7590
 5744SOL     OW28864   4.455   3.842  11.052  0.1211 -0.4087 -0.0456
 5744SOL    HW128865   4.486   3.823  10.964  2.2598  1.3806  0.3183
 5744SOL    HW228866   4.531   3.812  11.101  1.0226  2.4841  0.3634
 5745SOL     OW28867   3.776   3.519  16.692  0.0561  0.0888 -0.0812
 5745SOL    HW128868   3.717   3.444  16.679 -0.4858  0.0721  2.6058
 5745SOL    HW228869   3.785   3.546  16.600  1.1119 -2.0198 -0.6156
 5746SOL     OW28870   0.238   0.568   5.608  0.6198 -0.0065 -0.5565
 5746SOL    HW128871   0.228   0.560   5.513  1.0977 -1.3587 -0.4831
 5746SOL    HW228872   0.333   0.576   5.613  0.5695 -0.7667  1.3287
 5747SOL     OW28873   2.122   0.600   4.595  0.0813 -0.4807  0.4396
 5747SOL    HW128874   2.162   0.597   4.682  0.8285  0.5713  0.1279
 5747SOL    HW228875   2.200   0.598   4.540  1.3655 -3.5728  2.3920
 5748SOL     OW28876   3.262   2.847   8.516 -0.2041  0.3215 -0.1965
 5748SOL    HW128877   3.209   2.771   8.492  4.0394 -3.0023  0.9759
 5748SOL    HW228878   3.325   2.807   8.575 -1.6480  1.3797  2.0866
 5749SOL     OW28879   0.884   4.268   5.286 -0.5072  0.2625 -0.5149
 5749SOL    HW128880   0.869   4.361   5.303 -0.3106  0.2883 -0.4769
 5749SOL    HW228881   0.828   4.262   5.209  1.7178 -0.6985 -2.0717
 5750SOL     OW28882   1.776   3.299   9.120  0.0691  0.2414 -0.2943
 5750SOL    HW128883   1.731   3.325   9.039 -1.4028  0.1552  0.5027
 5750SOL    HW228884   1.702   3.257   9.163  0.3287  0.2445  0.1476
 5751SOL     OW28885   3.539   3.580  11.298 -0.1123  0.2364 -0.0038
 5751SOL    HW128886   3.624   3.605  11.263 -1.2368  1.1774 -2.0255
 5751SOL    HW228887   3.555   3.496  11.342 -1.4879 -0.3688 -0.6689
 5752SOL     OW28888   2.280   0.047  17.388  0.5858 -0.6881 -0.3375
 5752SOL    HW128889   2.242   4.701  17.358  0.3555 -0.8641  0.4279
 5752SOL    HW228890   2.359   0.040  17.334  2.3868  1.2937  2.0751
 5753SOL     OW28891   1.060   2.692   8.927  0.2358 -0.3218 -0.1790
 5753SOL    HW128892   1.016   2.774   8.948  2.7641  1.4562 -1.7834
 5753SOL    HW228893   1.151   2.719   8.913  0.3845 -0.4899  0.4507
 5754SOL     OW28894   1.196   2.738   4.040  0.3962  0.4268  0.1163
 5754SOL    HW128895   1.224   2.695   3.960 -1.1816 -1.2713  0.4832
 5754SOL    HW228896   1.104   2.715   4.034 -0.1408  2.6752 -0.3867
 5755SOL     OW28897   0.179   4.442   7.047  0.1578 -0.3306 -0.4457
 5755SOL    HW128898   0.190   4.350   7.024  1.8874 -0.2398  0.0696
 5755SOL    HW228899   0.225   4.436   7.130 -1.0086 -1.6536  0.1058
 5756SOL     OW28900   4.115   3.866   3.654  0.0074 -0.1985 -0.3782
 5756SOL    HW128901   4.069   3.930   3.708  0.3361 -0.5845  0.3560
 5756SOL    HW228902   4.051   3.831   3.592  0.2961  0.7598 -1.2197
 5757SOL     OW28903   4.071   2.383   9.047 -0.6432  0.3573  0.1886
 5757SOL    HW128904   4.154   2.336   9.045 -0.9485 -0.1045 -1.5422
 5757SOL    HW228905   4.004   2.315   9.042  0.9527 -1.0936 -1.5392
 5758SOL     OW28906   2.769   1.212   2.669 -0.5764 -0.1687  0.2058
 5758SOL    HW128907   2.861   1.201   2.645 -1.0818 -1.5911 -1.0695
 5758SOL    HW228908   2.770   1.269   2.746 -0.6151  2.0765 -1.4626
 5759SOL     OW28909   0.422   3.077   7.216 -0.1868  0.0672  0.1851
 5759SOL    HW128910   0.435   3.135   7.141  1.4979 -0.8167 -0.2045
 5759SOL    HW228911   0.345   3.122   7.250 -0.4532 -1.0149  1.0070
 5760SOL     OW28912   0.332   1.066   9.998 -0.0024  0.0946 -0.1855
 5760SOL    HW128913   0.361   1.002  10.063  0.9049  0.5140 -0.1783
 5760SOL    HW228914   0.407   1.123   9.982 -0.0533 -0.2061 -1.4694
 5761SOL     OW28915   1.095   2.234   7.674 -0.6161  0.0304 -0.2875
 5761SOL    HW128916   1.007   2.269   7.668 -0.5625  0.2849  0.4297
 5761SOL    HW228917   1.125   2.271   7.757  2.1230  0.8059 -1.6197
 5762SOL     OW28918   4.431   2.713   5.028 -0.2246 -0.0907  0.2391
 5762SOL    HW128919   4.518   2.689   4.996 -1.3401 -1.1523 -2.0565
 5762SOL    HW228920   4.448   2.713   5.122 -3.2328  0.8397  0.7832
 5763SOL     OW28921   2.320   3.681   5.170 -0.0432  0.3727  0.3772
 5763SOL    HW128922   2.261   3.751   5.142 -1.1513 -0.1233  1.4693
 5763SOL    HW228923   2.375   3.675   5.092  1.4989 -2.5428  1.7012
 5764SOL     OW28924   2.560   1.909   2.292 -0.2606 -0.4163  0.2491
 5764SOL    HW128925   2.518   1.888   2.375 -1.4085 -2.2002 -0.7667
 5764SOL    HW228926   2.646   1.875   2.316 -0.0480 -0.2883 -0.3161
 5765SOL     OW28927   3.845   4.637  10.763  0.0854  0.4370 -0.1648
 5765SOL    HW128928   3.932   4.601  10.776 -0.3003 -0.4449 -0.0362
 5765SOL    HW228929   3.824   4.635  10.856 -1.0094  2.1073 -0.3727
 5766SOL     OW28930   1.409   4.034   4.540  0.8026 -0.0458  0.6549
 5766SOL    HW128931   1.351   4.006   4.611 -2.1610 -0.1181 -1.7837
 5766SOL    HW228932   1.492   4.043   4.587  1.2705 -1.9245  0.1836
 5767SOL     OW28933   0.929   2.377   5.524  0.1410  0.1727  0.3384
 5767SOL    HW128934   1.015   2.358   5.560  1.0820 -0.2981 -2.1245
 5767SOL    HW228935   0.939   2.367   5.429 -2.2061  1.3667 -0.0352
 5768SOL     OW28936   4.080   4.008   2.491 -0.4653  0.3077  0.2331
 5768SOL    HW128937   3.995   4.050   2.502 -1.3903 -2.0779  2.1568
 5768SOL    HW228938   4.129   4.063   2.552  1.0335  0.4478 -1.1046
 5769SOL     OW28939   1.785   4.420  13.562 -0.6791 -0.7021  0.4808
 5769SOL    HW128940   1.697   4.383  13.564  0.3836 -3.2161  0.5963
 5769SOL    HW228941   1.773   4.490  13.498  0.4919 -0.1385  0.8665
 5770SOL     OW28942   2.892   2.965  17.048  0.0376 -0.1813  0.0668
 5770SOL    HW128943   2.974   2.932  17.012 -0.7323 -1.5414 -0.4872
 5770SOL    HW228944   2.862   3.020  16.975  0.0750  0.8448  0.8376
 5771SOL     OW28945   2.144   1.810   2.558  0.5040 -0.1718 -0.6582
 5771SOL    HW128946   2.086   1.869   2.511  1.7541  1.0287 -0.7095
 5771SOL    HW228947   2.142   1.734   2.500 -2.6505 -1.0942  0.6971
 5772SOL     OW28948   0.929   0.916   7.901 -0.3353 -0.2329  0.4490
 5772SOL    HW128949   1.004   0.865   7.870 -0.3649 -0.4504  0.7422
 5772SOL    HW228950   0.884   0.954   7.826  0.2572 -2.1880 -0.9008
 5773SOL     OW28951   0.091   4.563  14.462  0.6466  0.2707  0.1820
 5773SOL    HW128952   0.040   4.636  14.496 -0.4268 -0.4114  0.0423
 5773SOL    HW228953   0.164   4.564  14.524 -0.0031 -1.0349  0.9468
 5774SOL     OW28954   1.567   4.444   3.157 -0.0769 -0.9896 -0.2921
 5774SOL    HW128955   1.613   4.500   3.096  0.3977  1.3950  2.2911
 5774SOL    HW228956   1.523   4.497   3.223 -0.2203  0.5424 -1.6250
 5775SOL     OW28957   0.261   2.902   3.234  0.1682 -0.0450 -0.4136
 5775SOL    HW128958   0.175   2.944   3.231  0.4190  0.3909 -1.8980
 5775SOL    HW228959   0.229   2.813   3.245  0.3702  0.1457  1.5466
 5776SOL     OW28960   2.626   4.232   8.897  0.5359 -0.3869 -0.2637
 5776SOL    HW128961   2.632   4.142   8.864 -0.6047 -0.6422  0.2332
 5776SOL    HW228962   2.619   4.202   8.988  1.2599 -2.7484 -0.9789
 5777SOL     OW28963   3.875   4.381   8.266 -0.0527  0.0386  0.2053
 5777SOL    HW128964   3.945   4.329   8.307  0.8066 -1.5393 -3.2305
 5777SOL    HW228965   3.813   4.400   8.336  0.6951 -0.4797  1.0138
 5778SOL     OW28966   2.307   2.245   5.405 -0.8102  0.5724  0.5498
 5778SOL    HW128967   2.284   2.297   5.482  0.1583  2.1129 -0.2022
 5778SOL    HW228968   2.316   2.317   5.343 -0.0623  1.2312  1.4161
 5779SOL     OW28969   1.157   2.993   4.645  0.4741  0.0694  0.2743
 5779SOL    HW128970   1.087   3.053   4.673  0.4215 -1.0187  2.4977
 5779SOL    HW228971   1.214   3.050   4.594 -0.3354 -0.5477 -1.3081
 5780SOL     OW28972   3.027   3.270   6.426 -0.0383 -0.2782  0.1555
 5780SOL    HW128973   2.961   3.255   6.358  0.7923  0.5685 -0.8502
 5780SOL    HW228974   3.096   3.212   6.392  0.1059  0.5980 -1.0784
 5781SOL     OW28975   0.051   2.204  10.899 -0.1075 -0.0388 -0.2845
 5781SOL    HW128976   4.729   2.210  10.974 -0.2410  1.1774 -0.5001
 5781SOL    HW228977   0.133   2.183  10.943 -0.5125 -0.0742  0.4557
 5782SOL     OW28978   2.264   1.176  10.103 -0.0023  0.1871 -0.4984
 5782SOL    HW128979   2.242   1.253  10.052  1.5725  0.3130 -0.9667
 5782SOL    HW228980   2.257   1.101  10.044 -0.2889  0.0116 -0.2443
 5783SOL     OW28981   3.479   1.573  11.459  0.2878 -0.3282 -0.0435
 5783SOL    HW128982   3.472   1.667  11.443  0.2768  0.0781  2.2659
 5783SOL    HW228983   3.535   1.553  11.385  0.2340  0.5498 -0.3229
 5784SOL     OW28984   1.976   4.031   0.729  0.0975  0.3644  0.8348
 5784SOL    HW128985   2.001   4.123   0.733  1.1339  0.1087  0.3458
 5784SOL    HW228986   1.995   4.021   0.635 -2.0709 -0.5572  0.5047
 5785SOL     OW28987   2.390   2.579   9.449  0.2995 -0.3996  0.3528
 5785SOL    HW128988   2.472   2.599   9.495  0.4770  0.0943 -0.1760
 5785SOL    HW228989   2.331   2.640   9.493  0.8766 -0.1572  0.7938
 5786SOL     OW28990   1.074   1.236   4.097 -0.0462  0.1712  0.0498
 5786SOL    HW128991   1.085   1.206   4.007  1.1855 -2.3640  1.0293
 5786SOL    HW228992   1.027   1.316   4.074 -1.1880 -0.6499 -0.4918
 5787SOL     OW28993   3.308   2.940   7.586  0.1563  0.0996 -0.4231
 5787SOL    HW128994   3.309   3.019   7.640  0.2970  1.1197 -1.9300
 5787SOL    HW228995   3.216   2.935   7.561 -0.5659  0.9131  2.0472
 5788SOL     OW28996   3.079   0.999  10.455  0.0656 -0.4838 -0.9161
 5788SOL    HW128997   3.079   1.076  10.398  1.4991 -1.7591 -2.6255
 5788SOL    HW228998   2.998   1.005  10.505  1.1723 -2.1439  1.0558
 5789SOL     OW28999   2.412   1.514   6.013  0.6329 -0.7087 -0.0405
 5789SOL    HW129000   2.409   1.425   5.978 -2.9591  0.7166 -3.2719
 5789SOL    HW229001   2.400   1.501   6.107  0.0871  0.6617  0.0861
 5790SOL     OW29002   3.463   4.488   3.577  0.3013  0.1621  0.4509
 5790SOL    HW129003   3.541   4.432   3.573  0.1745  0.1325 -1.5759
 5790SOL    HW229004   3.435   4.489   3.669 -0.3421  1.2024  0.2421
 5791SOL     OW29005   0.807   0.974   1.014  0.0852  0.1831 -0.1104
 5791SOL    HW129006   0.795   0.937   0.927 -0.4949  1.3064 -0.5143
 5791SOL    HW229007   0.748   1.049   1.000  1.6280  1.4201 -0.0276
 5792SOL     OW29008   3.920   1.219   8.742  0.0470  0.1554  0.0561
 5792SOL    HW129009   3.851   1.242   8.681  0.8023 -0.5132 -1.0395
 5792SOL    HW229010   3.994   1.204   8.683  1.7666  1.8828  1.7313
 5793SOL     OW29011   2.989   2.329  16.451  0.1539  0.1752 -0.2792
 5793SOL    HW129012   3.067   2.375  16.482  1.1125 -2.0749  0.6924
 5793SOL    HW229013   2.963   2.284  16.532 -0.5688  2.9425  1.0047
 5794SOL     OW29014   2.118   2.206   7.218  0.1516 -0.0122  0.4456
 5794SOL    HW129015   2.136   2.123   7.263  1.2169  0.3862  0.7396
 5794SOL    HW229016   2.206   2.235   7.196  0.1528 -0.9818 -0.8751
 5795SOL     OW29017   1.847   2.988  14.389 -0.4571 -0.1960  0.2801
 5795SOL    HW129018   1.755   3.011  14.401 -0.7590 -1.0425 -0.4153
 5795SOL    HW229019   1.853   2.905  14.436 -1.1558 -1.0138 -1.0674
 5796SOL     OW29020   0.579   2.988   1.077  0.4136 -0.1606  0.2143
 5796SOL    HW129021   0.542   3.076   1.072 -0.1128 -0.4731 -1.4429
 5796SOL    HW229022   0.501   2.934   1.088 -0.0203  0.4628  0.1900
 5797SOL     OW29023   4.451   4.606   7.478 -0.3348  0.0047 -0.2081
 5797SOL    HW129024   4.418   4.518   7.466 -0.3007 -0.2301  1.3674
 5797SOL    HW229025   4.496   4.604   7.563  0.2447  1.8785 -0.4617
 5798SOL     OW29026   3.308   2.966  12.043  0.2049  0.3421  0.2442
 5798SOL    HW129027   3.366   2.927  12.108 -0.4753 -1.9544 -0.5227
 5798SOL    HW229028   3.350   3.052  12.036  0.0542  0.4495  0.6615
 5799SOL     OW29029   3.873   3.133  17.101 -0.3587  0.1734 -0.1616
 5799SOL    HW129030   3.933   3.060  17.088 -0.5927 -0.0410 -0.0240
 5799SOL    HW229031   3.804   3.094  17.154  0.7883 -1.6074  0.0252
 5800SOL     OW29032   4.382   3.916   4.463 -0.2087 -0.0531  0.6549
 5800SOL    HW129033   4.438   3.867   4.524  2.5137  0.7733 -1.1594
 5800SOL    HW229034   4.391   3.858   4.388  0.3578  1.3743 -0.3744
 5801SOL     OW29035   3.569   4.489   2.875  0.0271  0.4748 -0.2440
 5801SOL    HW129036   3.542   4.490   2.783  2.5390 -0.9940 -1.0011
 5801SOL    HW229037   3.498   4.430   2.901  0.3635 -0.9555 -2.5706
 5802SOL     OW29038   2.300   1.688  11.358  0.3821  0.1552 -0.3932
 5802SOL    HW129039   2.283   1.608  11.307 -0.3747  0.6890 -0.9729
 5802SOL    HW229040   2.378   1.725  11.316 -0.2788 -0.7840 -2.4646
 5803SOL     OW29041   2.832   1.180  13.349 -0.1922  0.1455 -0.1461
 5803SOL    HW129042   2.900   1.155  13.410 -1.6660 -0.3276  1.3099
 5803SOL    HW229043   2.780   1.102  13.329 -0.5859  0.6315 -1.0363
 5804SOL     OW29044   2.545   2.789   4.310  0.6523  0.4599  0.1599
 5804SOL    HW129045   2.566   2.858   4.247  0.1249  2.2815  2.0041
 5804SOL    HW229046   2.456   2.765   4.285  1.4597 -2.6880  0.3203
 5805SOL     OW29047   1.365   4.222   6.369 -0.6112 -0.5108 -0.3263
 5805SOL    HW129048   1.391   4.252   6.456  0.9215  0.8644 -1.2440
 5805SOL    HW229049   1.275   4.251   6.380 -0.1856  0.2861  1.0510
 5806SOL     OW29050   2.861   1.133   3.198 -0.1547 -0.1937  0.1849
 5806SOL    HW129051   2.804   1.071   3.152  0.0870  0.5103 -1.0742
 5806SOL    HW229052   2.908   1.177   3.127  1.4188  2.3347  2.7820
 5807SOL     OW29053   4.339   1.395  13.464 -0.0406  0.1802 -0.1414
 5807SOL    HW129054   4.422   1.361  13.496 -1.1075 -0.2393  2.1601
 5807SOL    HW229055   4.285   1.317  13.450  0.8114 -0.0310 -2.2863
 5808SOL     OW29056   0.278   3.171   4.144  0.0042  0.7923 -0.5192
 5808SOL    HW129057   0.247   3.144   4.057 -0.2237  0.0643 -0.2143
 5808SOL    HW229058   0.326   3.250   4.121  2.5376 -1.3755 -2.7697
 5809SOL     OW29059   3.062   2.494   1.280 -0.3615 -0.2150 -0.3475
 5809SOL    HW129060   3.122   2.420   1.289  0.4394  0.7093  1.9115
 5809SOL    HW229061   3.014   2.462   1.204 -1.1225 -0.0780  0.0777
 5810SOL     OW29062   3.523   1.135  10.192  0.0142 -0.0184  0.3515
 5810SOL    HW129063   3.589   1.200  10.212 -0.5848  0.1717  1.7696
 5810SOL    HW229064   3.571   1.060  10.157 -1.4462 -0.7659 -0.0637
 5811SOL     OW29065   2.256   3.593   4.240 -0.5078  0.5731  0.2612
 5811SOL    HW129066   2.167   3.622   4.219  0.1265  2.8160  0.6736
 5811SOL    HW229067   2.304   3.655   4.186  0.5218 -0.1577  0.3242
 5812SOL     OW29068   3.855   4.605   8.103 -0.5689 -0.3520 -0.1163
 5812SOL    HW129069   3.907   4.541   8.152  0.1935  1.1024  0.9605
 5812SOL    HW229070   3.920   4.661   8.059 -0.4353  0.0225  0.5647
 5813SOL     OW29071   1.575   1.707  11.203  0.4798 -0.3076  0.1522
 5813SOL    HW129072   1.585   1.622  11.246  2.8508  0.0485  0.3061
 5813SOL    HW229073   1.489   1.737  11.232  0.8272  0.2656  0.5856
 5814SOL     OW29074   0.043   4.687   5.997  0.0234  0.4090  0.2078
 5814SOL    HW129075   4.724   4.639   5.936  0.9381 -2.6843  1.8352
 5814SOL    HW229076   0.018   4.652   6.082 -1.9898  0.1599 -0.5014
 5815SOL     OW29077   1.049   0.962  12.866 -0.6774 -0.6064 -0.1225
 5815SOL    HW129078   1.072   0.904  12.793  1.0704  1.1094 -0.9556
 5815SOL    HW229079   1.133   1.001  12.891 -0.3289 -1.1228 -0.4689
 5816SOL     OW29080   4.144   2.013  14.888 -0.6160 -0.8977  0.2801
 5816SOL    HW129081   4.163   1.934  14.837  3.4110  0.6614 -0.6050
 5816SOL    HW229082   4.206   2.070  14.842 -0.6160 -1.2111 -0.1039
 5817SOL     OW29083   2.801   0.685   8.635  0.1691 -0.0738  0.0756
 5817SOL    HW129084   2.730   0.665   8.695 -1.1160  0.0847 -1.3819
 5817SOL    HW229085   2.802   0.608   8.577  2.0643  1.2892 -1.7261
 5818SOL     OW29086   0.105   0.739  14.149  0.1749  0.1461 -0.6214
 5818SOL    HW129087   0.088   0.750  14.242 -0.4815 -0.7185 -0.6384
 5818SOL    HW229088   0.197   0.764  14.146  0.5930 -1.4037 -0.9972
 5819SOL     OW29089   0.386   1.107   2.859  0.0390  0.6139 -0.2959
 5819SOL    HW129090   0.478   1.132   2.845  0.3463 -0.1771  0.2749
 5819SOL    HW229091   0.347   1.190   2.832  0.7442  0.6534 -1.1935
 5820SOL     OW29092   0.814   4.255   2.222  0.1887 -0.2302 -0.3143
 5820SOL    HW129093   0.881   4.266   2.154 -0.0601 -0.3638 -0.5782
 5820SOL    HW229094   0.849   4.266   2.310 -1.1986  0.9393  0.0795
 5821SOL     OW29095   1.806   0.321   6.847 -0.2464 -0.2664  0.0949
 5821SOL    HW129096   1.864   0.355   6.779  0.6427 -0.7219  0.6260
 5821SOL    HW229097   1.748   0.394   6.867  1.3685  1.2666 -0.9023
 5822SOL     OW29098   2.367   1.480   2.614 -0.1127  0.2527 -0.3041
 5822SOL    HW129099   2.443   1.499   2.669 -2.4931 -2.7149  4.0014
 5822SOL    HW229100   2.358   1.386   2.629 -0.3718  0.4443  0.7205
 5823SOL     OW29101   1.087   3.972   9.752 -0.2056  0.7084  0.6735
 5823SOL    HW129102   1.101   3.951   9.660 -0.1359 -2.3971  1.4105
 5823SOL    HW229103   0.993   3.956   9.761 -0.4293  2.0948  0.8763
 5824SOL     OW29104   1.953   0.193  10.763 -0.2839 -0.3794 -0.0522
 5824SOL    HW129105   1.881   0.251  10.737 -0.6468 -0.6178  0.4298
 5824SOL    HW229106   1.912   0.162  10.843  0.2242 -1.5942 -0.2668
 5825SOL     OW29107   4.320   2.394   7.576 -0.0972  0.4982  0.1185
 5825SOL    HW129108   4.342   2.483   7.549  1.3242  0.4567  1.1123
 5825SOL    HW229109   4.272   2.370   7.497  0.5070 -1.6206  0.4070
 5826SOL     OW29110   4.591   2.557   6.198  0.2877  0.2191  0.8658
 5826SOL    HW129111   4.576   2.620   6.127 -1.3325  0.4901  1.4636
 5826SOL    HW229112   4.552   2.579   6.283  0.5190  0.8100  0.8206
 5827SOL     OW29113   2.539   3.372   1.997  0.4063 -0.3153 -0.0546
 5827SOL    HW129114   2.490   3.378   2.079 -2.6706 -1.2211 -1.8436
 5827SOL    HW229115   2.622   3.411   2.028 -0.0442  0.9533 -0.4193
 5828SOL     OW29116   1.172   2.178   3.447  0.3525 -0.3516  0.1844
 5828SOL    HW129117   1.118   2.128   3.507 -0.8684 -1.9805 -2.2872
 5828SOL    HW229118   1.182   2.266   3.483  1.5610  0.6674 -2.6717
 5829SOL     OW29119   0.911   1.822  10.770 -0.1019 -0.3791  0.1908
 5829SOL    HW129120   0.840   1.876  10.736  1.0800  1.8906  1.3017
 5829SOL    HW229121   0.874   1.792  10.853 -0.9408 -0.9826 -0.3978
 5830SOL     OW29122   3.305   4.236  10.322  0.2600 -0.1123 -0.0781
 5830SOL    HW129123   3.245   4.251  10.248 -0.9239  0.6168  1.0344
 5830SOL    HW229124   3.262   4.287  10.390  1.6954 -0.4611  1.0693
 5831SOL     OW29125   3.502   4.134  11.414 -0.0112 -0.1322  0.1498
 5831SOL    HW129126   3.479   4.215  11.368 -2.1947 -0.6681  0.3332
 5831SOL    HW229127   3.562   4.096  11.350 -1.2996 -1.3413 -0.3259
 5832SOL     OW29128   3.621   3.296   6.157  0.2064 -0.1591 -0.4147
 5832SOL    HW129129   3.632   3.205   6.184 -1.3889 -0.5886 -1.2088
 5832SOL    HW229130   3.695   3.308   6.098  0.4333  1.7635  0.2697
 5833SOL     OW29131   4.126   2.391   6.227 -0.2649 -0.1151 -0.2663
 5833SOL    HW129132   4.037   2.358   6.237 -0.4442  0.1569 -0.9306
 5833SOL    HW229133   4.113   2.482   6.253  1.0297  0.6473 -2.2361
 5834SOL     OW29134   0.780   3.514   8.738 -0.0760  0.2277  0.2671
 5834SOL    HW129135   0.738   3.487   8.656 -1.1059 -0.2523  0.9543
 5834SOL    HW229136   0.714   3.571   8.778 -1.2015 -1.8414  1.3074
 5835SOL     OW29137   4.485   0.785   7.549 -0.6728  0.2117  0.4860
 5835SOL    HW129138   4.418   0.721   7.571 -0.6877 -0.3499 -1.1496
 5835SOL    HW229139   4.540   0.794   7.627 -0.5188 -0.5628  0.4686
 5836SOL     OW29140   0.219   3.946  15.207  0.6043 -0.1754  0.6897
 5836SOL    HW129141   0.138   3.921  15.162  1.6648  0.1724 -1.4075
 5836SOL    HW229142   0.226   4.040  15.191  0.4209 -0.4957 -1.2536
 5837SOL     OW29143   0.976   0.628   6.988  0.2335  0.0319 -0.4087
 5837SOL    HW129144   0.905   0.667   7.039 -0.7384 -0.6217 -1.2734
 5837SOL    HW229145   0.928   0.580   6.921 -1.6543  0.7027  0.4713
 5838SOL     OW29146   3.684   4.527   5.722  0.4567  0.0060 -0.1915
 5838SOL    HW129147   3.702   4.559   5.634  1.1633 -1.3529 -0.5504
 5838SOL    HW229148   3.776   4.544   5.744 -0.4165  1.5185  2.2934
 5839SOL     OW29149   4.582   3.299   8.097  0.7631 -0.4083  0.4224
 5839SOL    HW129150   4.622   3.213   8.086 -0.4335 -0.8368 -0.5415
 5839SOL    HW229151   4.661   3.340   8.063  0.3590  1.0445  1.2289
 5840SOL     OW29152   3.206   2.619  11.445 -0.2614 -0.4114 -0.7497
 5840SOL    HW129153   3.131   2.665  11.482 -0.0686 -1.5094  1.0296
 5840SOL    HW229154   3.186   2.526  11.457  0.2847 -0.1411  2.3456
 5841SOL     OW29155   3.373   1.535   3.831  0.2018  0.5042 -0.1107
 5841SOL    HW129156   3.337   1.595   3.766  1.0525  1.0790 -0.0435
 5841SOL    HW229157   3.317   1.458   3.820  1.9360 -1.2377  2.9072
 5842SOL     OW29158   3.474   1.966   5.220  0.1668 -0.1093 -0.1506
 5842SOL    HW129159   3.464   1.876   5.189 -2.7023  0.4036 -0.6843
 5842SOL    HW229160   3.507   2.016   5.145 -1.1494  0.0362 -0.6256
 5843SOL     OW29161   3.321   4.078   8.399  0.4541 -0.3868  0.0225
 5843SOL    HW129162   3.264   4.002   8.414  1.9622 -1.9751 -2.0984
 5843SOL    HW229163   3.256   4.146   8.384  0.8851  0.1704  0.6845
 5844SOL     OW29164   3.832   1.638   6.702  0.2687  0.2921  0.3937
 5844SOL    HW129165   3.803   1.588   6.625 -0.7786  1.3273  0.1076
 5844SOL    HW229166   3.784   1.720   6.691  2.2124  1.5239  1.1449
 5845SOL     OW29167   2.054   3.215  17.603 -0.1515 -0.6066 -0.4688
 5845SOL    HW129168   1.974   3.210  17.655  0.7345  3.7507  1.3257
 5845SOL    HW229169   2.057   3.133  17.553  1.5849  0.4091 -2.0406
 5846SOL     OW29170   4.556   3.289   8.831 -0.1427 -0.0528  1.0108
 5846SOL    HW129171   4.484   3.246   8.876 -0.7111 -0.4902 -0.3120
 5846SOL    HW229172   4.501   3.356   8.791  0.2440  1.1620  2.5060
 5847SOL     OW29173   4.493   2.219   7.666 -0.6128  0.4579  0.5230
 5847SOL    HW129174   4.458   2.151   7.608  1.0580 -0.3222  0.4271
 5847SOL    HW229175   4.433   2.289   7.639  1.5760  1.6320 -1.2896
 5848SOL     OW29176   4.686   2.096   5.862 -0.3716  0.0467  0.4912
 5848SOL    HW129177   4.651   2.121   5.777 -1.1379 -2.4706  0.0833
 5848SOL    HW229178   4.698   2.178   5.911 -0.1758  0.9400 -1.0428
 5849SOL     OW29179   2.087   0.146   2.651 -0.1133  0.1484  0.0857
 5849SOL    HW129180   1.996   0.151   2.682 -0.3981 -0.8218 -0.6033
 5849SOL    HW229181   2.119   0.233   2.673  0.1758  0.1328 -0.2709
 5850SOL     OW29182   3.812   1.351   2.981  0.0952  0.6164  0.0681
 5850SOL    HW129183   3.801   1.288   2.910  1.9334 -0.0746  0.4233
 5850SOL    HW229184   3.827   1.294   3.056 -1.3398  1.3963  0.9635
 5851SOL     OW29185   0.705   0.950   3.616  0.6723  0.0062  0.3290
 5851SOL    HW129186   0.763   0.924   3.544 -0.4658 -0.5432 -0.3935
 5851SOL    HW229187   0.730   1.042   3.622 -0.9185  0.3177  2.2682
 5852SOL     OW29188   3.617   1.113   3.881  0.1270  0.8589 -0.3951
 5852SOL    HW129189   3.677   1.187   3.877  2.4171 -0.8578  1.6402
 5852SOL    HW229190   3.533   1.158   3.886 -0.6045 -1.0120  4.6053
 5853SOL     OW29191   0.373   3.030   7.916 -0.0570 -0.1660 -0.4551
 5853SOL    HW129192   0.400   2.968   7.984  2.6862  0.7201 -0.7378
 5853SOL    HW229193   0.289   2.989   7.895 -1.3787  1.5935  1.4816
 5854SOL     OW29194   0.212   1.556   3.190  0.6343  0.5144  0.2205
 5854SOL    HW129195   0.275   1.627   3.198  0.5571  0.2388  3.3913
 5854SOL    HW229196   0.156   1.574   3.265 -0.6967  0.7403 -0.8287
 5855SOL     OW29197   0.936   3.220   2.971  0.1892  0.3250 -0.1946
 5855SOL    HW129198   0.889   3.272   3.037 -1.3095 -1.4767  0.1809
 5855SOL    HW229199   0.927   3.134   3.012 -3.2898  1.5851  1.7269
 5856SOL     OW29200   3.455   0.315   2.095 -0.0178  0.5042 -0.4796
 5856SOL    HW129201   3.449   0.220   2.088 -1.2500  0.5419  0.1688
 5856SOL    HW229202   3.409   0.339   2.015  0.9325  0.3453 -1.0702
 5857SOL     OW29203   1.670   4.394   8.667  0.1357  0.0070  0.9307
 5857SOL    HW129204   1.758   4.371   8.695  1.1693 -0.0265 -2.3705
 5857SOL    HW229205   1.628   4.310   8.682 -0.4292  0.2488  0.7158
 5858SOL     OW29206   0.860   0.357   8.271 -0.3391 -0.1098  0.1215
 5858SOL    HW129207   0.937   0.311   8.239  0.0345  0.1366  0.6825
 5858SOL    HW229208   0.848   0.420   8.200 -0.6180  0.1090  0.3610
 5859SOL     OW29209   4.066   1.922   1.967 -0.0988  0.3274 -0.0803
 5859SOL    HW129210   4.051   1.940   1.874 -3.0705  1.0336  0.5343
 5859SOL    HW229211   3.976   1.931   2.000 -0.4919 -1.1583 -0.7240
 5860SOL     OW29212   3.801   4.323   4.846  0.3391 -0.1617  0.0276
 5860SOL    HW129213   3.742   4.397   4.857 -2.4392 -2.1982 -1.4693
 5860SOL    HW229214   3.790   4.307   4.753  2.8969  0.1426 -0.3516
 5861SOL     OW29215   4.005   1.944  10.495 -0.4323  0.3016 -0.0811
 5861SOL    HW129216   4.027   2.005  10.425 -0.2285 -1.3836 -1.5006
 5861SOL    HW229217   4.048   1.864  10.464 -0.9649  0.8887 -2.3421
 5862SOL     OW29218   2.114   1.375  12.235  0.4447  0.2481 -0.8147
 5862SOL    HW129219   2.207   1.358  12.216  0.4898  0.4989 -0.8120
 5862SOL    HW229220   2.112   1.465  12.203  0.6269  0.5906  0.1283
 5863SOL     OW29221   1.259   0.028  16.423 -0.3621  0.6244  0.2442
 5863SOL    HW129222   1.203   0.092  16.380 -0.2074  0.0290 -0.8410
 5863SOL    HW229223   1.262   0.051  16.516 -0.2947 -2.5626  1.0474
 5864SOL     OW29224   1.693   3.039   1.120  0.6230  0.0201 -0.3065
 5864SOL    HW129225   1.690   2.952   1.080 -1.9557 -0.1985  0.3988
 5864SOL    HW229226   1.692   3.088   1.037  2.6167  0.7266  0.0775
 5865SOL     OW29227   2.779   3.398   6.018  0.0200 -0.6839  0.5234
 5865SOL    HW129228   2.852   3.433   6.069  0.5917 -1.0530 -0.0338
 5865SOL    HW229229   2.732   3.480   6.028  2.5288  0.8530 -0.1266
 5866SOL     OW29230   2.439   0.975  13.354 -0.1440 -0.0904 -0.2038
 5866SOL    HW129231   2.399   0.936  13.276 -1.4841 -0.5287  0.6993
 5866SOL    HW229232   2.373   0.946  13.417 -1.1918  0.5202 -1.0098
 5867SOL     OW29233   2.998   3.142   9.914  0.0104  0.2117 -0.0102
 5867SOL    HW129234   3.088   3.138   9.882 -0.4232  0.9459 -1.3107
 5867SOL    HW229235   2.993   3.051   9.945  1.3813 -0.0400 -0.5360
 5868SOL     OW29236   0.431   4.246  17.291 -0.0094  0.9368 -0.5812
 5868SOL    HW129237   0.354   4.240  17.235 -1.4718 -1.4412  1.6640
 5868SOL    HW229238   0.388   4.299  17.359  0.9846 -1.0685  1.6058
 5869SOL     OW29239   0.415   1.547  15.273 -0.2384 -0.4312  0.0775
 5869SOL    HW129240   0.452   1.458  15.272  0.2333 -0.1903 -2.1930
 5869SOL    HW229241   0.328   1.540  15.234 -0.4092 -0.9852  0.5609
 5870SOL     OW29242   1.449   2.556  12.494 -0.4467 -0.2501 -0.0052
 5870SOL    HW129243   1.522   2.599  12.540 -0.2330  0.3246 -0.8922
 5870SOL    HW229244   1.466   2.575  12.402 -1.1292  1.7595  0.2753
 5871SOL     OW29245   3.076   3.518  17.685 -0.3235 -0.6133 -0.1163
 5871SOL    HW129246   2.985   3.528  17.714 -0.6576  2.7463 -2.3785
 5871SOL    HW229247   3.117   3.510   0.025  1.6119 -0.1012 -1.0105
 5872SOL     OW29248   0.999   4.193   5.507  0.0777  0.9706 -0.7783
 5872SOL    HW129249   0.961   4.232   5.429 -0.0679  1.8776 -0.2518
 5872SOL    HW229250   1.089   4.223   5.496  0.5223 -0.1328 -0.1185
 5873SOL     OW29251   1.683   3.003   4.163  0.4150 -0.2162 -0.3534
 5873SOL    HW129252   1.664   3.038   4.076  0.6306 -0.9265 -0.6780
 5873SOL    HW229253   1.614   3.037   4.221 -0.2977 -0.7606 -0.8784
 5874SOL     OW29254   1.799   3.519   6.482 -1.0757 -0.1241  0.2023
 5874SOL    HW129255   1.738   3.589   6.507 -0.4225  0.4272  0.2416
 5874SOL    HW229256   1.784   3.504   6.389 -2.0637 -1.3889  0.5670
 5875SOL     OW29257   2.993   1.974   2.568 -0.6618 -0.1170 -0.0228
 5875SOL    HW129258   2.933   1.939   2.502 -0.1197  0.1914 -0.6724
 5875SOL    HW229259   3.068   1.916   2.556 -0.0441  1.0811 -1.9335
 5876SOL     OW29260   0.924   3.841   7.459  0.2207  0.2398 -0.2179
 5876SOL    HW129261   1.020   3.836   7.464  0.1086 -3.2176 -1.1695
 5876SOL    HW229262   0.899   3.757   7.418  0.7897 -0.5987  1.1548
 5877SOL     OW29263   3.539   4.184   4.976 -0.1658 -0.1651 -0.1138
 5877SOL    HW129264   3.497   4.206   4.893 -3.2360  0.0385  1.5039
 5877SOL    HW229265   3.578   4.100   4.955  0.5280 -0.7275  3.3484
 5878SOL     OW29266   3.846   4.554   2.314  0.4009 -0.4324 -1.2580
 5878SOL    HW129267   3.920   4.494   2.312 -0.8915 -2.0610  0.4309
 5878SOL    HW229268   3.768   4.503   2.295 -1.5523  2.7530 -1.9281
 5879SOL     OW29269   4.076   4.038   4.046  0.2685 -0.3795 -0.0643
 5879SOL    HW129270   4.044   3.949   4.059  0.5944 -0.3443  0.9455
 5879SOL    HW229271   4.121   4.052   4.130 -0.1964 -1.1058  0.3071
 5880SOL     OW29272   2.362   4.190   0.916  0.1984  0.0913 -0.1953
 5880SOL    HW129273   2.376   4.204   0.822 -0.3281  1.9994  0.0108
 5880SOL    HW229274   2.346   4.278   0.950  0.7203  0.5700 -1.1839
 5881SOL     OW29275   0.950   3.085   1.277  0.5695  0.2436 -0.2239
 5881SOL    HW129276   0.860   3.108   1.302  1.4877  0.9252  2.4588
 5881SOL    HW229277   0.955   2.994   1.306 -0.0778 -0.0340 -0.9789
 5882SOL     OW29278   2.376   3.849  14.064  0.1494  0.0971  0.4590
 5882SOL    HW129279   2.298   3.882  14.019  0.9515  0.5479 -0.6206
 5882SOL    HW229280   2.355   3.756  14.065  2.1321 -0.4041 -1.7750
 5883SOL     OW29281   0.116   3.362  13.134  0.1839 -0.3800  0.0743
 5883SOL    HW129282   0.196   3.351  13.083  0.8304  2.7598  0.3985
 5883SOL    HW229283   0.068   3.289  13.098 -4.7597  2.5335  0.7758
 5884SOL     OW29284   3.718   0.294   8.051  0.3197  0.1180 -0.3227
 5884SOL    HW129285   3.690   0.299   8.143 -0.0911 -1.8619 -0.3419
 5884SOL    HW229286   3.632   0.285   8.009 -0.2819 -0.4554  1.0411
 5885SOL     OW29287   4.691   4.055   9.492 -0.4039 -0.3974  0.2083
 5885SOL    HW129288   4.604   4.067   9.531 -0.3626  0.2133  0.1087
 5885SOL    HW229289   4.695   4.142   9.451  2.9892 -0.7846 -0.2604
 5886SOL     OW29290   4.163   2.705  10.617  0.1272  0.6596  0.6707
 5886SOL    HW129291   4.169   2.701  10.713  1.5965 -0.3628  0.5443
 5886SOL    HW229292   4.072   2.689  10.596  0.0197  0.2183  1.4761
 5887SOL     OW29293   3.799   3.074  13.429 -0.3465 -0.1070 -0.3320
 5887SOL    HW129294   3.847   3.113  13.503  0.8568 -0.9933 -0.6569
 5887SOL    HW229295   3.773   3.154  13.383 -1.3340 -0.2963 -0.0975
 5888SOL     OW29296   1.396   4.697   4.107 -0.2076  0.1396 -0.0748
 5888SOL    HW129297   1.419   0.050   4.083 -0.8245  0.3360  0.0620
 5888SOL    HW229298   1.477   4.677   4.154 -0.0145  1.0592 -0.0129
 5889SOL     OW29299   0.798   1.625   2.560 -0.6234  0.2774 -0.1925
 5889SOL    HW129300   0.743   1.683   2.507 -2.8457 -0.9564  0.7552
 5889SOL    HW229301   0.778   1.660   2.647 -1.8760  0.6261 -0.6277
 5890SOL     OW29302   0.406   1.461   2.478  1.0386 -0.1539  0.1202
 5890SOL    HW129303   0.445   1.493   2.559 -0.4582  1.1723  0.3099
 5890SOL    HW229304   0.399   1.369   2.502 -3.3244 -0.3209 -1.8642
 5891SOL     OW29305   4.059   2.144   9.448 -0.2163 -0.2486  0.6352
 5891SOL    HW129306   4.014   2.186   9.522  0.3581  1.1138  0.2169
 5891SOL    HW229307   4.119   2.214   9.423 -0.9521 -0.3112 -1.3220
 5892SOL     OW29308   0.954   1.644  12.969 -0.3793  0.3918 -0.3056
 5892SOL    HW129309   0.886   1.638  13.037 -1.8382  1.9990 -1.6254
 5892SOL    HW229310   0.938   1.564  12.919 -2.4881  1.3380 -1.1671
 5893SOL     OW29311   3.145   1.426  16.882  0.9989 -0.3568  0.5004
 5893SOL    HW129312   3.079   1.487  16.915 -0.2324 -1.7278  0.5838
 5893SOL    HW229313   3.188   1.481  16.816  1.2807  2.1381  2.7637
 5894SOL     OW29314   3.169   0.014   4.233 -0.2987  0.2759  0.0582
 5894SOL    HW129315   3.188   0.071   4.159 -0.2540 -0.1573 -0.2635
 5894SOL    HW229316   3.074   0.009   4.221 -0.3308  0.2987  0.3100
 5895SOL     OW29317   1.014   1.253   7.941  0.3622  0.3452 -0.2708
 5895SOL    HW129318   1.105   1.280   7.952  0.1772  0.4669  0.9404
 5895SOL    HW229319   0.971   1.285   8.020  1.7598 -1.6389  1.2870
 5896SOL     OW29320   3.478   3.708   7.256  0.0492  0.0103 -0.7190
 5896SOL    HW129321   3.437   3.725   7.171 -0.7140  2.7706  0.2000
 5896SOL    HW229322   3.441   3.774   7.315 -2.5496 -1.6915 -0.4021
 5897SOL     OW29323   2.902   4.263   8.163 -0.2575 -0.1523 -0.5729
 5897SOL    HW129324   2.942   4.248   8.077 -0.1708  1.5155 -0.8194
 5897SOL    HW229325   2.854   4.180   8.169  1.3393 -0.8307  3.3160
 5898SOL     OW29326   0.378   1.385   9.813 -0.3409  0.0469  0.0690
 5898SOL    HW129327   0.455   1.430   9.777 -0.1266  0.7753  1.4209
 5898SOL    HW229328   0.425   1.346   9.887 -0.2958  2.6521  1.4257
 5899SOL     OW29329   3.062   2.946   3.349  0.0266 -0.8006 -0.1389
 5899SOL    HW129330   3.061   2.970   3.441  0.0442 -0.0348 -0.3382
 5899SOL    HW229331   3.154   2.918   3.353  0.2018 -0.5814 -2.5866
 5900SOL     OW29332   0.607   0.309   5.415 -0.0651  0.4039  0.0096
 5900SOL    HW129333   0.655   0.350   5.343  0.8511 -0.4712  0.1278
 5900SOL    HW229334   0.518   0.332   5.388 -0.5760 -1.5878  0.0050
 5901SOL     OW29335   3.497   1.181   2.075 -0.1592 -0.3282  0.5935
 5901SOL    HW129336   3.407   1.154   2.091  0.0646 -0.6870  1.2396
 5901SOL    HW229337   3.535   1.115   2.133  0.9650 -0.7663 -0.6254
 5902SOL     OW29338   3.620   3.956  14.666 -0.1131  0.5434  0.3111
 5902SOL    HW129339   3.560   4.019  14.628  1.0207  0.0132 -2.3528
 5902SOL    HW229340   3.676   4.021  14.709  1.3227  0.1775 -1.0206
 5903SOL     OW29341   2.039   3.329  16.616  0.3492 -0.1528 -0.0762
 5903SOL    HW129342   2.038   3.263  16.684 -1.1311 -0.4153 -0.3704
 5903SOL    HW229343   2.117   3.381  16.635  0.6448 -0.9346  0.8187
 5904SOL     OW29344   2.683   1.851   8.363 -0.2223 -0.4428 -0.2866
 5904SOL    HW129345   2.762   1.880   8.408 -0.7798  0.1227  0.3464
 5904SOL    HW229346   2.691   1.903   8.283 -1.3480  4.0042  2.4535
 5905SOL     OW29347   2.583   0.917  11.170  0.2502  0.7833 -0.3513
 5905SOL    HW129348   2.674   0.894  11.154  0.0620 -0.0546 -0.1849
 5905SOL    HW229349   2.595   0.909  11.265 -0.4022 -0.5584 -0.3767
 5906SOL     OW29350   3.361   3.828   9.775  0.1244 -0.0942  0.0046
 5906SOL    HW129351   3.429   3.887   9.806  0.4663 -0.6796  0.3817
 5906SOL    HW229352   3.303   3.854   9.845  2.4394 -0.4546  2.0681
 5907SOL     OW29353   3.865   4.621   5.183  0.2468  0.2035 -0.0705
 5907SOL    HW129354   3.851   4.537   5.228 -0.9708  0.0287 -0.7542
 5907SOL    HW229355   3.787   4.620   5.127  0.6553 -0.4588 -0.6322
 5908SOL     OW29356   0.122   1.307   7.467 -0.3765  0.0431  0.3068
 5908SOL    HW129357   0.162   1.389   7.438  2.2006 -1.3122  0.0251
 5908SOL    HW229358   0.045   1.302   7.410  0.8026  0.9974 -1.3655
 5909SOL     OW29359   0.895   0.225   7.450  0.3658 -0.7618 -0.5882
 5909SOL    HW129360   0.921   0.315   7.431 -1.4248 -0.7210 -2.9288
 5909SOL    HW229361   0.860   0.241   7.538  2.5986 -0.0723  0.1645
 5910SOL     OW29362   4.551   2.973   2.067  0.7853 -0.0488  0.2951
 5910SOL    HW129363   4.487   2.905   2.049  0.5775  0.0515  0.6606
 5910SOL    HW229364   4.628   2.926   2.100 -0.3769 -2.9351 -1.1917
 5911SOL     OW29365   4.608   3.144   5.906 -0.7813  0.4643  0.3718
 5911SOL    HW129366   4.702   3.157   5.893 -0.5411 -0.0774  1.5098
 5911SOL    HW229367   4.601   3.139   6.002 -3.2509 -0.5280  0.1409
 5912SOL     OW29368   3.608   2.422  15.742 -0.5266  0.0712  0.1333
 5912SOL    HW129369   3.526   2.457  15.776 -0.1869  2.1473 -1.1700
 5912SOL    HW229370   3.658   2.434  15.823  0.6481  0.7504 -0.6936
 5913SOL     OW29371   1.227   3.898   8.214 -0.6041 -0.3713 -0.2115
 5913SOL    HW129372   1.281   3.957   8.266  1.4770 -1.3866 -1.1843
 5913SOL    HW229373   1.219   3.824   8.273 -0.5516 -0.4694 -0.3268
 5914SOL     OW29374   2.044   2.290  15.988 -0.4354  0.1174 -0.1936
 5914SOL    HW129375   2.029   2.201  15.956 -0.1103 -0.1433  0.3945
 5914SOL    HW229376   2.011   2.292  16.077  2.8927 -0.0163  1.0373
 5915SOL     OW29377   2.473   1.947   8.044  0.7603  0.0719  0.3272
 5915SOL    HW129378   2.554   1.993   8.067  0.7777 -0.0647  0.5385
 5915SOL    HW229379   2.412   1.974   8.113 -0.4305 -1.9826  0.0661
 5916SOL     OW29380   1.564   4.658   9.033 -0.3643  0.1068 -0.0552
 5916SOL    HW129381   1.630   4.702   9.088 -0.4201 -1.2494  1.1071
 5916SOL    HW229382   1.578   4.697   8.947  0.1321  0.3415  0.1317
 5917SOL     OW29383   0.117   3.139   5.808  0.1084  0.0605 -0.5468
 5917SOL    HW129384   0.118   3.189   5.725 -1.1881  1.0107  0.0104
 5917SOL    HW229385   0.210   3.139   5.833  0.7410  0.7306 -2.8368
 5918SOL     OW29386   1.829   3.518   4.603 -0.4009 -0.2120  0.1962
 5918SOL    HW129387   1.831   3.502   4.509 -0.4072  1.4997 -0.1065
 5918SOL    HW229388   1.760   3.584   4.599  0.3767  0.6234  0.3568
 5919SOL     OW29389   1.524   2.386   2.044 -0.0277 -0.8693  0.1048
 5919SOL    HW129390   1.576   2.342   2.111 -0.7039 -0.6090  0.8094
 5919SOL    HW229391   1.599   2.420   1.994 -0.1818 -0.6638  0.0129
 5920SOL     OW29392   2.568   4.037   4.323  0.0994  0.0485  0.3934
 5920SOL    HW129393   2.522   3.971   4.376 -0.9377 -0.2589 -0.9128
 5920SOL    HW229394   2.657   4.003   4.338  0.1201  0.2035  0.6250
 5921SOL     OW29395   2.771   3.808   6.825 -0.0434 -0.0649  0.0695
 5921SOL    HW129396   2.799   3.875   6.764  0.7678 -2.2434 -1.9285
 5921SOL    HW229397   2.683   3.845   6.838 -0.6330 -1.3890 -0.1517
 5922SOL     OW29398   0.998   1.229   0.485 -0.1580 -0.2121 -0.4212
 5922SOL    HW129399   1.091   1.218   0.466  0.1739 -0.1034  1.1831
 5922SOL    HW229400   0.983   1.320   0.460  1.2025 -0.3489 -1.7383
 5923SOL     OW29401   0.902   2.886   4.978  0.0866  0.8610 -0.1191
 5923SOL    HW129402   0.981   2.843   5.010 -0.6054 -1.0866 -0.9758
 5923SOL    HW229403   0.892   2.843   4.892  0.9067 -2.8040  1.6014
 5924SOL     OW29404   0.580   4.053   5.343 -0.1802 -0.0018 -0.5291
 5924SOL    HW129405   0.617   4.033   5.429 -0.1484  0.2164 -0.4921
 5924SOL    HW229406   0.577   4.148   5.352  0.4676 -0.2050  1.7995
 5925SOL     OW29407   0.998   2.731  10.440  0.0545  0.3715 -0.6342
 5925SOL    HW129408   1.021   2.738  10.348  0.7810 -2.1709 -0.6646
 5925SOL    HW229409   0.937   2.657  10.435 -0.8928  1.1420 -0.3087
 5926SOL     OW29410   3.052   1.995  13.937 -0.0291 -0.4617  0.6702
 5926SOL    HW129411   3.000   1.994  14.017  0.6675 -2.0458  1.1024
 5926SOL    HW229412   2.993   1.968  13.867  0.1133  1.2696 -0.1282
 5927SOL     OW29413   3.510   0.354  15.996 -0.0686  0.0076 -0.4083
 5927SOL    HW129414   3.418   0.353  15.973 -0.6944 -2.1460  2.1939
 5927SOL    HW229415   3.544   0.355  15.906  1.8358  1.1871  0.3104
 5928SOL     OW29416   1.321   4.425   2.285  0.2441  0.2750 -0.3368
 5928SOL    HW129417   1.375   4.367   2.231  1.2147  0.7941  0.0759
 5928SOL    HW229418   1.265   4.361   2.330 -2.0104  1.8482 -0.9630
 5929SOL     OW29419   0.291   0.839  12.747  0.1943  0.4440 -0.0569
 5929SOL    HW129420   0.285   0.843  12.651  0.7450  1.8180 -0.0384
 5929SOL    HW229421   0.385   0.825  12.757  0.8352  3.8476 -1.1358
 5930SOL     OW29422   2.148   4.517   7.192  0.2130  0.3206 -0.8131
 5930SOL    HW129423   2.166   4.460   7.267  1.9202 -0.6727 -1.9577
 5930SOL    HW229424   2.130   4.604   7.229  1.5744 -1.5918  4.3238
 5931SOL     OW29425   2.433   1.566   8.007 -0.4428  0.6964  0.2566
 5931SOL    HW129426   2.448   1.614   8.088 -1.5285  0.5973  0.5143
 5931SOL    HW229427   2.520   1.525   8.004 -0.5340  0.4084  1.7769
 5932SOL     OW29428   2.567   2.581  13.994 -0.3012 -0.3896  0.5493
 5932SOL    HW129429   2.488   2.632  14.013  0.7097  2.5113 -3.1493
 5932SOL    HW229430   2.581   2.543  14.081  0.1690 -1.8777 -0.1791
 5933SOL     OW29431   4.144   4.633  12.298  0.1017  0.3186 -0.2050
 5933SOL    HW129432   4.130   4.659  12.207 -0.0931  1.0351  0.0257
 5933SOL    HW229433   4.087   4.557  12.310 -1.6693  1.8693  1.3711
 5934SOL     OW29434   3.852   1.321   4.563  0.5907 -0.5771 -0.4983
 5934SOL    HW129435   3.832   1.409   4.530 -2.0316 -0.9654  0.0733
 5934SOL    HW229436   3.783   1.262   4.532 -1.6052  1.2892  0.7891
 5935SOL     OW29437   2.159   3.523  14.853 -0.6777  0.7321  0.4255
 5935SOL    HW129438   2.248   3.492  14.838 -0.5639  0.5905  1.3757
 5935SOL    HW229439   2.168   3.618  14.858  1.9556  0.5173 -0.5834
 5936SOL     OW29440   0.903   1.005   5.918  0.0430 -0.1856 -0.4508
 5936SOL    HW129441   0.830   0.960   5.960 -0.0303  0.6399  0.3026
 5936SOL    HW229442   0.848   1.077   5.890 -0.2129 -0.7328 -1.3580
 5937SOL     OW29443   0.775   1.678   8.551  0.0238  0.0305 -0.0211
 5937SOL    HW129444   0.857   1.692   8.503 -0.1903  0.1354 -0.3539
 5937SOL    HW229445   0.709   1.653   8.487 -0.2396  0.2591  0.1616
 5938SOL     OW29446   0.734   4.155  14.034 -0.2134 -0.1031  0.2824
 5938SOL    HW129447   0.749   4.201  13.951 -0.8305  1.5648  1.0850
 5938SOL    HW229448   0.820   4.128  14.067 -0.2278  0.0192  0.4208
 5939SOL     OW29449   1.388   2.257   7.890 -0.2065  0.0888  0.1561
 5939SOL    HW129450   1.371   2.328   7.828  0.4352 -1.1915 -1.4885
 5939SOL    HW229451   1.394   2.173   7.844 -0.0718  0.5525 -0.6811
 5940SOL     OW29452   3.196   3.563   8.176 -0.5554  0.1995 -0.2994
 5940SOL    HW129453   3.236   3.519   8.251 -0.5607  2.9717  1.3343
 5940SOL    HW229454   3.267   3.568   8.111  0.3315  2.9074  0.8692
 5941SOL     OW29455   2.340   2.859   2.354  0.1596 -0.2084  0.0907
 5941SOL    HW129456   2.380   2.791   2.300 -0.5112  0.2229 -0.9379
 5941SOL    HW229457   2.387   2.931   2.313 -1.3832  1.2077  0.8301
 5942SOL     OW29458   1.458   4.189   2.108 -0.0319  0.1260 -0.2618
 5942SOL    HW129459   1.377   4.147   2.136  0.2348 -1.5844 -2.0155
 5942SOL    HW229460   1.491   4.133   2.038 -3.2302 -0.0943 -1.5759
 5943SOL     OW29461   0.551   2.786   8.405 -0.1500  0.2898 -0.2526
 5943SOL    HW129462   0.457   2.772   8.400  0.2544 -2.4393 -0.2806
 5943SOL    HW229463   0.576   2.706   8.451  0.9684  0.5922 -0.3322
 5944SOL     OW29464   1.309   2.092   3.096  0.4002 -0.0732  0.1448
 5944SOL    HW129465   1.266   2.105   3.011 -2.0521 -1.9676  1.0890
 5944SOL    HW229466   1.350   2.177   3.105 -0.5301  0.2098  1.6212
 5945SOL     OW29467   3.098   3.941   3.432 -0.0522 -0.2105  0.0508
 5945SOL    HW129468   3.075   3.850   3.410  1.5153 -0.3695 -0.9861
 5945SOL    HW229469   3.033   3.970   3.368 -1.6163 -1.5894  1.0239
 5946SOL     OW29470   3.752   4.450   9.020 -0.7138  0.1669 -0.3384
 5946SOL    HW129471   3.708   4.531   8.995 -0.3850  0.0201 -1.3914
 5946SOL    HW229472   3.684   4.383   9.017 -1.5435  1.0122 -0.3196
 5947SOL     OW29473   3.211   2.300  12.514 -0.3212 -0.0634  0.1153
 5947SOL    HW129474   3.209   2.293  12.419  0.7071  1.9875 -0.0567
 5947SOL    HW229475   3.301   2.331  12.520 -0.5266  0.2174  1.9173
 5948SOL     OW29476   0.581   2.061   4.776 -0.0888 -0.2052 -0.0278
 5948SOL    HW129477   0.615   1.984   4.822  0.5428  0.8134  1.2063
 5948SOL    HW229478   0.584   2.037   4.683  0.5454  0.3544 -0.1568
 5949SOL     OW29479   4.035   1.865   4.191  0.2636 -0.1108  0.2457
 5949SOL    HW129480   3.987   1.783   4.204  0.1613 -0.1333 -0.2654
 5949SOL    HW229481   4.089   1.842   4.116  1.2604  1.1221  0.5936
 5950SOL     OW29482   0.112   2.126   4.208  0.1222  0.4478 -0.0492
 5950SOL    HW129483   0.066   2.050   4.242 -3.5126  2.4096 -0.5750
 5950SOL    HW229484   0.055   2.202   4.204 -1.4818 -0.6886  1.6847
 5951SOL     OW29485   2.838   1.883  10.182 -0.6386 -0.0402 -0.1390
 5951SOL    HW129486   2.915   1.902  10.129 -0.0926 -1.1146  0.2788
 5951SOL    HW229487   2.795   1.821  10.124  0.1674  0.0669 -0.8407
 5952SOL     OW29488   3.674   1.894   3.864  0.0976  0.4036 -0.3652
 5952SOL    HW129489   3.666   1.812   3.912 -0.7509  0.4523 -0.4105
 5952SOL    HW229490   3.717   1.954   3.925  2.2317 -0.9627 -0.5589
 5953SOL     OW29491   1.572   1.144   7.246  0.8165 -0.0275  0.0288
 5953SOL    HW129492   1.658   1.105   7.233  0.9131  0.3529 -0.4379
 5953SOL    HW229493   1.539   1.178   7.163 -1.2488 -0.1006  0.8017
 5954SOL     OW29494   1.674   4.269   2.762  0.3814 -0.2018 -0.3525
 5954SOL    HW129495   1.612   4.341   2.751  1.8542  1.5861  2.8283
 5954SOL    HW229496   1.736   4.293   2.693  0.0691  0.3382 -0.4415
 5955SOL     OW29497   1.974   1.365   4.185 -0.1067  0.4376  0.3270
 5955SOL    HW129498   2.041   1.409   4.133  0.8603 -0.3071  0.9383
 5955SOL    HW229499   1.927   1.443   4.212  0.3711  0.6272  0.6163
 5956SOL     OW29500   0.291   4.375  13.245  0.1693  0.1743 -0.4804
 5956SOL    HW129501   0.242   4.312  13.192  0.7893 -1.9445  1.4546
 5956SOL    HW229502   0.322   4.330  13.323  0.8707 -0.3034 -1.0305
 5957SOL     OW29503   1.198   0.268   5.560  0.0237  0.1861 -0.2130
 5957SOL    HW129504   1.264   0.238   5.623 -0.1804  0.3759  0.0935
 5957SOL    HW229505   1.215   0.226   5.476 -0.9434  0.5389 -0.5776
 5958SOL     OW29506   1.533   2.686  11.948 -1.0718 -0.6384 -0.1548
 5958SOL    HW129507   1.454   2.634  11.962 -2.2924  0.9279 -1.2996
 5958SOL    HW229508   1.586   2.625  12.000 -0.3013 -0.0567 -0.2531
 5959SOL     OW29509   4.355   0.306   5.807 -0.0607  0.2601 -0.1626
 5959SOL    HW129510   4.357   0.326   5.714  0.5586  2.0645  0.2365
 5959SOL    HW229511   4.429   0.360   5.833 -1.3693  1.3264  1.4060
 5960SOL     OW29512   2.112   4.543   9.334  0.3985 -0.0108 -0.2831
 5960SOL    HW129513   2.187   4.486   9.353 -0.7470 -1.4149  0.0363
 5960SOL    HW229514   2.127   4.536   9.239  1.9122  0.5420 -0.0866
 5961SOL     OW29515   0.808   2.990  11.865  0.3741 -0.1486  0.2429
 5961SOL    HW129516   0.766   2.905  11.878 -0.3558 -0.2627 -2.9090
 5961SOL    HW229517   0.797   3.013  11.957  1.1283  1.3231 -0.0281
 5962SOL     OW29518   3.330   3.624  14.764 -0.4507 -0.2144 -0.0767
 5962SOL    HW129519   3.269   3.638  14.836 -0.3950  1.3290 -0.3284
 5962SOL    HW229520   3.260   3.594  14.706 -0.4025  1.8388 -1.1881
 5963SOL     OW29521   2.954   1.797  13.228  0.1329  0.4133  0.0195
 5963SOL    HW129522   2.867   1.821  13.195 -1.2816  0.5529  3.8037
 5963SOL    HW229523   2.992   1.750  13.154  2.7161  1.3840  0.7243
 5964SOL     OW29524   1.164   1.873   2.910 -0.0832  0.0304  0.0181
 5964SOL    HW129525   1.219   1.848   2.835  1.1409 -0.1090  0.9620
 5964SOL    HW229526   1.082   1.895   2.865 -1.1162 -4.6832 -0.4054
 5965SOL     OW29527   0.233   1.307  17.054 -0.1097 -0.2140  0.3340
 5965SOL    HW129528   0.325   1.333  17.046  0.4570 -2.1591  0.3790
 5965SOL    HW229529   0.228   1.253  16.975  0.5084  1.8611 -1.1000
 5966SOL     OW29530   4.413   2.568   2.527 -0.4108  0.6085  0.0321
 5966SOL    HW129531   4.406   2.518   2.607  0.7549 -0.9443 -0.8318
 5966SOL    HW229532   4.385   2.502   2.463  0.3173  0.3839 -0.0582
 5967SOL     OW29533   2.152   0.338   6.966 -0.1237  0.5155  0.6547
 5967SOL    HW129534   2.216   0.314   6.899 -3.0572  1.1065 -2.3826
 5967SOL    HW229535   2.168   0.270   7.032  1.2468 -0.5847 -0.8186
 5968SOL     OW29536   2.790   3.342   7.074 -0.1395  0.2946  0.2007
 5968SOL    HW129537   2.764   3.421   7.026 -1.0884 -0.8773 -1.2145
 5968SOL    HW229538   2.885   3.340   7.061  0.1239 -2.9146  2.5776
 5969SOL     OW29539   1.921   1.647   8.910 -0.5102 -0.0073  0.1841
 5969SOL    HW129540   1.955   1.561   8.937 -2.7104 -1.3981 -1.4942
 5969SOL    HW229541   1.890   1.629   8.821  0.8920  0.1952 -0.3466
 5970SOL     OW29542   3.109   1.774   9.884 -0.4691 -0.2098  0.1164
 5970SOL    HW129543   3.069   1.831   9.950  1.0639  0.1726  0.6988
 5970SOL    HW229544   3.083   1.812   9.800 -0.3783 -0.4994 -0.0430
 5971SOL     OW29545   2.278   1.950   3.721 -0.0877  0.5866 -0.4039
 5971SOL    HW129546   2.336   1.917   3.652  2.0503  1.7042  0.8245
 5971SOL    HW229547   2.340   1.990   3.783  0.3746  0.3339 -0.7003
 5972SOL     OW29548   0.709   1.465  11.861  0.4472 -0.2400 -0.0020
 5972SOL    HW129549   0.684   1.466  11.768  1.1985  1.2086 -0.1772
 5972SOL    HW229550   0.765   1.387  11.862 -0.1745 -0.7225 -2.0339
 5973SOL     OW29551   4.118   3.121   8.716 -0.3396  0.1408  0.3996
 5973SOL    HW129552   4.199   3.070   8.716 -1.7365 -2.0912 -0.3335
 5973SOL    HW229553   4.134   3.196   8.659  1.7131 -0.8762 -0.3701
 5974SOL     OW29554   3.132   3.942   1.708 -0.4478  0.0297 -0.1988
 5974SOL    HW129555   3.217   3.959   1.750 -0.0822  0.2096 -1.0040
 5974SOL    HW229556   3.125   4.008   1.639  2.5656  1.3065  0.6958
 5975SOL     OW29557   0.535   0.352  12.337 -0.0016  0.1088  0.3062
 5975SOL    HW129558   0.441   0.332  12.342 -0.0421  0.2275  0.0067
 5975SOL    HW229559   0.522   0.443  12.364  1.4292  0.6485 -0.8536
 5976SOL     OW29560   4.707   2.841  16.817 -0.5802  0.5401 -0.5093
 5976SOL    HW129561   0.052   2.875  16.854  0.7643 -1.3188 -1.7632
 5976SOL    HW229562   0.005   2.802  16.736  2.4444  4.4215 -1.1027
 5977SOL     OW29563   0.216   0.131   5.871  0.5038 -0.4100  0.3912
 5977SOL    HW129564   0.138   0.090   5.908  0.0232 -0.0316 -0.2087
 5977SOL    HW229565   0.184   0.185   5.799 -2.8082 -0.6528  1.6826
 5978SOL     OW29566   4.335   1.779   7.874  0.0237 -0.1471  0.2000
 5978SOL    HW129567   4.290   1.854   7.915 -0.7996  0.3606 -1.6503
 5978SOL    HW229568   4.411   1.831   7.847 -0.8255  1.9200  1.7746
 5979SOL     OW29569   1.947   4.203   0.301  0.8085  0.1008 -0.4328
 5979SOL    HW129570   1.967   4.285   0.346 -1.3366  0.1300  0.4801
 5979SOL    HW229571   1.967   4.238   0.214  0.0554 -2.1953 -1.5102
 5980SOL     OW29572   3.366   3.707   4.823  0.1272  0.1194 -0.5067
 5980SOL    HW129573   3.456   3.735   4.807  0.0405  0.3538 -0.5836
 5980SOL    HW229574   3.322   3.790   4.838 -2.8914 -1.0601 -2.7378
 5981SOL     OW29575   3.549   3.646  16.876 -0.4352  0.1259  0.5448
 5981SOL    HW129576   3.531   3.592  16.953  2.8264 -4.1227 -1.6303
 5981SOL    HW229577   3.634   3.607  16.856 -2.9241 -3.6928 -2.5482
 5982SOL     OW29578   1.124   0.086   8.951 -0.4858 -0.1266 -0.4093
 5982SOL    HW129579   1.156   0.091   8.861  0.1602  0.5957 -0.1354
 5982SOL    HW229580   1.156   0.169   8.985  0.2255 -0.4510 -0.2885
 5983SOL     OW29581   1.788   0.150   7.921 -0.0007  0.6471  0.1892
 5983SOL    HW129582   1.858   0.198   7.964  0.5276  0.4552 -0.4655
 5983SOL    HW229583   1.827   0.118   7.840  0.5192  0.3870  0.5473
 5984SOL     OW29584   4.263   2.155   3.801 -0.0360  0.3735 -0.1703
 5984SOL    HW129585   4.303   2.104   3.729 -1.7611  1.3431 -1.8162
 5984SOL    HW229586   4.321   2.118   3.867  0.6248  0.0960 -0.8935
 5985SOL     OW29587   2.916   2.237   4.758 -0.2601  0.5467  0.2329
 5985SOL    HW129588   2.942   2.280   4.677 -1.3737  1.4501  0.3487
 5985SOL    HW229589   2.885   2.151   4.731 -0.6480  0.9365 -0.5496
 5986SOL     OW29590   1.377   2.947   7.819  0.0927 -0.0400  0.0799
 5986SOL    HW129591   1.440   2.878   7.841 -0.7005 -0.7013  0.2965
 5986SOL    HW229592   1.375   2.965   7.725 -0.9349 -1.9859 -0.2748
 5987SOL     OW29593   3.715   0.408   4.569  0.2216  0.6371 -0.2835
 5987SOL    HW129594   3.672   0.384   4.487 -1.8737  1.2911  0.6176
 5987SOL    HW229595   3.729   0.503   4.568  1.0699  0.5002 -1.3346
 5988SOL     OW29596   4.659   1.437   4.075  0.4967  0.0905  0.3205
 5988SOL    HW129597   4.685   1.404   4.161 -0.0880 -0.6002  0.2371
 5988SOL    HW229598   0.004   1.465   4.036  0.6093  0.1675  0.6154
 5989SOL     OW29599   1.524   4.631  12.105 -0.1300 -0.1711  0.4809
 5989SOL    HW129600   1.581   4.628  12.028  1.2616 -0.2446  1.4982
 5989SOL    HW229601   1.555   4.550  12.147  0.0874  0.0975  0.8443
 5990SOL     OW29602   1.503   4.452  17.169 -0.4947 -0.2894 -0.2878
 5990SOL    HW129603   1.587   4.406  17.161  0.6099  1.8878 -1.5763
 5990SOL    HW229604   1.460   4.405  17.098  1.2211  0.3890 -1.8028
 5991SOL     OW29605   1.229   4.501   2.032  0.8021 -0.0021 -0.4312
 5991SOL    HW129606   1.205   4.591   2.052 -1.8363 -0.7103 -0.3232
 5991SOL    HW229607   1.281   4.476   2.108  0.5479  1.3355  0.1846
 5992SOL     OW29608   3.279   3.657  17.574  0.1812 -0.3543  0.1441
 5992SOL    HW129609   3.242   3.742  17.598 -0.5853 -0.3679 -1.0174
 5992SOL    HW229610   3.213   3.610  17.625 -0.7329 -0.7139 -1.3854
 5993SOL     OW29611   3.669   2.330   1.620 -0.1625  0.2811 -0.9287
 5993SOL    HW129612   3.653   2.347   1.713 -0.2818 -2.5598 -0.4449
 5993SOL    HW229613   3.669   2.419   1.583 -2.0626  0.3141 -0.8517
 5994SOL     OW29614   1.720   2.703   2.504 -0.0459 -0.3817 -0.0340
 5994SOL    HW129615   1.800   2.651   2.494 -0.4455 -1.2167  1.0518
 5994SOL    HW229616   1.752   2.788   2.535 -1.8602  0.0323  0.7157
 5995SOL     OW29617   0.390   0.658  12.296  0.9262 -0.5063 -0.5038
 5995SOL    HW129618   0.453   0.727  12.275 -0.3415  1.2052  1.4378
 5995SOL    HW229619   0.367   0.619  12.211 -3.1425 -0.8689  0.7766
 5996SOL     OW29620   2.551   4.642   2.261  0.3379 -1.1709  0.2148
 5996SOL    HW129621   2.617   4.703   2.294 -1.0396  0.8461 -0.7455
 5996SOL    HW229622   2.511   4.705   2.200 -0.8100 -0.1242  2.0391
 5997SOL     OW29623   1.982   1.574   2.072  0.4184 -0.1971 -0.4638
 5997SOL    HW129624   1.992   1.650   2.130  0.2784  1.2278 -2.3100
 5997SOL    HW229625   2.009   1.606   1.986  2.1695  1.1883  0.5926
 5998SOL     OW29626   1.801   3.978  14.927 -0.3913  0.0441 -0.4483
 5998SOL    HW129627   1.749   4.057  14.940  1.0550  0.8229  0.5399
 5998SOL    HW229628   1.888   4.017  14.924 -0.4772  0.3341  1.1607
 5999SOL     OW29629   1.978   3.363   5.645  0.2574 -0.5818  0.1570
 5999SOL    HW129630   2.008   3.445   5.605 -1.6143 -0.1026 -0.2579
 5999SOL    HW229631   1.884   3.372   5.634  0.3409 -0.0781 -0.1593
 6000SOL     OW29632   0.112   3.403   8.094 -0.5843 -0.2630  0.1776
 6000SOL    HW129633   0.062   3.484   8.081 -0.9022 -0.5781 -0.5903
 6000SOL    HW229634   0.169   3.433   8.165 -0.0470  0.0829 -0.4046
 6001SOL     OW29635   0.493   4.407   1.684  0.1758 -0.1234 -0.5723
 6001SOL    HW129636   0.532   4.486   1.721  1.0072 -1.1750  0.8269
 6001SOL    HW229637   0.507   4.353   1.762  3.0768 -0.3786 -1.2534
 6002SOL     OW29638   1.754   1.961   1.592  0.0154  0.0333 -0.3946
 6002SOL    HW129639   1.794   1.930   1.673  0.0019  0.5810 -0.1790
 6002SOL    HW229640   1.663   1.975   1.616  1.1160  0.6640  3.3532
 6003SOL     OW29641   0.367   4.052   6.853 -0.3927  0.1404  0.1022
 6003SOL    HW129642   0.374   3.975   6.910 -0.4578 -1.2929 -1.8375
 6003SOL    HW229643   0.332   4.122   6.907  0.0476  0.2217  0.2770
 6004SOL     OW29644   2.274   3.396   3.685 -0.4177  0.3616 -0.2548
 6004SOL    HW129645   2.296   3.468   3.744  0.1489  0.5432 -0.6901
 6004SOL    HW229646   2.192   3.435   3.656 -0.3063  1.6715  1.2396
 6005SOL     OW29647   3.909   1.806   7.286 -0.5463 -0.2101  0.4640
 6005SOL    HW129648   3.881   1.896   7.271  0.1574 -0.2650 -1.2060
 6005SOL    HW229649   3.854   1.754   7.227 -1.3758 -1.3131  2.2053
 6006SOL     OW29650   0.004   1.317   4.318  0.2143 -0.4362  0.6746
 6006SOL    HW129651   0.031   1.226   4.315 -0.8081 -0.6923 -0.4071
 6006SOL    HW229652   4.668   1.309   4.381 -0.1023 -2.6295  0.0142
 6007SOL     OW29653   2.958   4.409   5.330 -0.1359 -0.0790 -0.1830
 6007SOL    HW129654   2.938   4.317   5.348  0.3636 -0.1452  0.0381
 6007SOL    HW229655   3.022   4.401   5.259 -0.2675  3.3347 -0.6925
 6008SOL     OW29656   0.116   3.212   6.452  0.5313 -0.1755 -0.1878
 6008SOL    HW129657   0.173   3.172   6.517  0.4586  0.1634  0.0801
 6008SOL    HW229658   0.113   3.140   6.389 -2.6630 -0.5492  0.3662
 6009SOL     OW29659   1.572   3.828   8.486  0.0083 -0.3223  0.6324
 6009SOL    HW129660   1.508   3.891   8.452  1.0050  0.6961  0.6228
 6009SOL    HW229661   1.643   3.887   8.512  0.2941 -0.1282 -0.5808
 6010SOL     OW29662   2.591   1.085   4.810 -0.5371  0.1855  0.3924
 6010SOL    HW129663   2.513   1.138   4.799  0.1250  0.7908 -1.3851
 6010SOL    HW229664   2.574   1.062   4.901  0.8912  1.2604  0.9408
 6011SOL     OW29665   2.470   1.903   8.582  0.4055  0.0096 -0.0809
 6011SOL    HW129666   2.543   1.871   8.528  1.7287  1.6157  0.7220
 6011SOL    HW229667   2.441   1.816   8.606 -0.9218 -0.0241 -1.8410
 6012SOL     OW29668   0.874   3.823   3.119  0.2658 -0.6121  0.3152
 6012SOL    HW129669   0.790   3.818   3.164  0.8193  0.6796  1.4968
 6012SOL    HW229670   0.860   3.770   3.041 -3.2780  1.2380 -0.3340
 6013SOL     OW29671   4.339   3.736  13.544 -0.0145 -0.2402  0.0670
 6013SOL    HW129672   4.380   3.770  13.623  0.4281 -0.5754 -0.0205
 6013SOL    HW229673   4.337   3.814  13.489  1.7904  0.3826  0.8870
 6014SOL     OW29674   0.476   4.636   8.423  0.4762 -0.0578 -0.4784
 6014SOL    HW129675   0.549   4.682   8.464 -0.8425  1.1193  0.5429
 6014SOL    HW229676   0.462   4.683   8.341 -1.8809 -0.6283 -0.4158
 6015SOL     OW29677   2.270   2.987   4.292  0.3215  0.7213  0.1454
 6015SOL    HW129678   2.345   3.045   4.310  2.2577 -1.7612  0.1022
 6015SOL    HW229679   2.275   2.986   4.197 -1.1014  0.2721  0.0774
 6016SOL     OW29680   2.629   3.102   8.348 -0.1590  0.5876 -0.1520
 6016SOL    HW129681   2.599   3.114   8.438 -0.2539  1.2991 -0.2753
 6016SOL    HW229682   2.718   3.138   8.348 -0.3738  1.1210 -1.1308
 6017SOL     OW29683   1.741   4.475   8.072  0.3509  0.2069  0.5919
 6017SOL    HW129684   1.731   4.386   8.107  1.6455 -0.2299 -0.1825
 6017SOL    HW229685   1.656   4.484   8.029  0.1770  4.2079  1.7384
 6018SOL     OW29686   1.787   3.233  12.967 -0.2643  0.1231  0.5932
 6018SOL    HW129687   1.824   3.145  12.967 -0.7823 -0.1105 -2.0239
 6018SOL    HW229688   1.708   3.207  12.919 -0.6333  1.0567  0.7002
 6019SOL     OW29689   0.114   2.416   9.029 -0.7959  0.4401  0.3755
 6019SOL    HW129690   0.029   2.376   9.047 -1.7586  3.7068  3.1077
 6019SOL    HW229691   0.162   2.343   8.990  0.0821 -0.0256  2.3646
 6020SOL     OW29692   0.055   1.196   0.405  0.5442 -0.1625  0.9376
 6020SOL    HW129693   0.066   1.222   0.496  1.8527  1.7747  0.2432
 6020SOL    HW229694   0.124   1.243   0.357 -0.8736  0.5276 -0.4164
 6021SOL     OW29695   4.618   3.523   4.990 -0.2950  0.2978 -0.8011
 6021SOL    HW129696   4.606   3.448   4.932  1.0904 -0.4236 -0.1488
 6021SOL    HW229697   4.539   3.575   4.977 -1.9231 -1.6577  1.4717
 6022SOL     OW29698   1.537   2.808   1.862 -0.2142 -0.2989 -0.2382
 6022SOL    HW129699   1.446   2.832   1.848  0.0647  0.1587 -1.3170
 6022SOL    HW229700   1.575   2.878   1.914 -1.2354  0.3942 -0.4453
 6023SOL     OW29701   0.147   2.149   3.447  0.0518 -0.0011 -0.6175
 6023SOL    HW129702   0.182   2.066   3.481  1.4830  0.1533 -1.6992
 6023SOL    HW229703   0.222   2.206   3.467  0.1006 -0.8354  1.5978
 6024SOL     OW29704   1.144   3.274   6.015 -0.1924 -0.0060  0.0865
 6024SOL    HW129705   1.191   3.207   6.065  0.7525 -1.3481 -2.6442
 6024SOL    HW229706   1.062   3.266   6.064  0.9565 -1.4697  1.7918
 6025SOL     OW29707   2.089   4.076   2.196 -0.2887 -0.0120 -0.0945
 6025SOL    HW129708   1.994   4.069   2.188  0.0339 -2.5993 -1.7508
 6025SOL    HW229709   2.099   4.035   2.281  0.7270  0.8232  0.1991
 6026SOL     OW29710   0.922   0.004  16.350  0.1162 -0.6207 -0.6308
 6026SOL    HW129711   0.971   0.086  16.349  0.1015 -0.6242 -1.2971
 6026SOL    HW229712   0.922   4.716  16.443  0.9908  2.4444  0.1689
 6027SOL     OW29713   1.319   3.044   7.460  0.4267  0.1132  0.1078
 6027SOL    HW129714   1.412   3.039   7.437  0.8695 -0.5050  2.0180
 6027SOL    HW229715   1.314   2.966   7.514 -1.2580 -1.7073 -2.6529
 6028SOL     OW29716   0.499   4.617   6.416  0.1104  0.4044 -0.0432
 6028SOL    HW129717   0.541   4.649   6.335  2.1863  0.6897  1.1454
 6028SOL    HW229718   0.413   4.582   6.393 -0.4507  2.0988 -0.5194
 6029SOL     OW29719   2.356   4.541   2.464  0.1291  0.0375 -0.0493
 6029SOL    HW129720   2.438   4.523   2.511  0.0682  1.3104  0.5531
 6029SOL    HW229721   2.399   4.582   2.388  0.3166 -1.7977 -0.9206
 6030SOL     OW29722   2.527   3.386   2.920 -0.1080  0.0138  0.1206
 6030SOL    HW129723   2.439   3.348   2.926 -0.2958  0.5781  0.8997
 6030SOL    HW229724   2.584   3.313   2.947  0.4344  0.1103 -0.7245
 6031SOL     OW29725   3.591   0.011   4.656 -0.0765 -0.4989  0.3638
 6031SOL    HW129726   3.593   4.684   4.584  0.4983 -0.9047  0.7362
 6031SOL    HW229727   3.655   0.076   4.627 -0.0501 -0.6421  0.1024
 6032SOL     OW29728   0.049   3.552   3.830  0.5946 -0.2036 -0.0726
 6032SOL    HW129729   0.027   3.636   3.871 -0.8549 -0.1198 -1.0366
 6032SOL    HW229730   4.698   3.521   3.808  0.1368  2.8377 -2.5168
 6033SOL     OW29731   1.349   2.522   1.462  0.0686 -0.1208 -0.1530
 6033SOL    HW129732   1.433   2.563   1.441 -1.4857  2.3691 -1.4752
 6033SOL    HW229733   1.314   2.583   1.527  1.0504  0.6142 -0.3216
 6034SOL     OW29734   0.653   0.324   6.260  0.2087 -0.4130  0.2174
 6034SOL    HW129735   0.571   0.372   6.271 -0.8664 -2.0080 -0.9588
 6034SOL    HW229736   0.616   0.236   6.254  0.0765 -0.3404 -0.0260
 6035SOL     OW29737   1.088   3.183   5.520  0.0858  0.9581 -0.0122
 6035SOL    HW129738   1.132   3.187   5.605  1.2955 -1.4201 -0.5178
 6035SOL    HW229739   1.062   3.092   5.506 -0.3592  1.2131 -0.8677
 6036SOL     OW29740   4.489   2.974   9.469  0.4760 -0.1488 -0.2503
 6036SOL    HW129741   4.478   3.051   9.413 -0.8844  1.2783  1.9960
 6036SOL    HW229742   4.411   2.990   9.522  0.2951  0.5930 -0.7364
 6037SOL     OW29743   0.250   0.430  15.318 -0.7021 -0.0498  0.5001
 6037SOL    HW129744   0.195   0.381  15.380 -1.0042 -1.2956 -0.7420
 6037SOL    HW229745   0.326   0.372  15.314 -0.7994 -0.2760  1.6990
 6038SOL     OW29746   1.230   3.882   5.008  0.0212 -0.2743 -0.4500
 6038SOL    HW129747   1.187   3.929   5.081  1.7596  1.4716 -0.5384
 6038SOL    HW229748   1.153   3.843   4.967 -0.9200  1.6052 -0.4864
 6039SOL     OW29749   2.391   1.028   8.094  0.0135  0.3130 -0.0590
 6039SOL    HW129750   2.438   1.043   8.012 -1.6516  0.6167 -0.9383
 6039SOL    HW229751   2.462   0.984   8.141  1.1380 -0.6336 -2.6264
 6040SOL     OW29752   3.255   1.840  12.995  0.0439  0.1957  0.2306
 6040SOL    HW129753   3.332   1.863  12.942  0.8120  1.2180  1.7921
 6040SOL    HW229754   3.205   1.778  12.942  2.0988 -1.2897  0.0437
 6041SOL     OW29755   4.675   0.256  11.048 -0.5684  0.2085 -0.0001
 6041SOL    HW129756   4.604   0.246  11.112 -0.4071 -0.2894  0.1032
 6041SOL    HW229757   4.632   0.297  10.973 -3.2547 -4.6599 -1.0639
 6042SOL     OW29758   4.141   1.140   9.968 -0.1704 -0.1389  0.3204
 6042SOL    HW129759   4.170   1.091   9.892  1.4985  0.6518  0.4623
 6042SOL    HW229760   4.046   1.132   9.953 -0.1605  1.0459 -0.4095
 6043SOL     OW29761   4.099   0.283   3.410  0.9345 -0.4633  0.0035
 6043SOL    HW129762   4.121   0.332   3.332  1.2689  1.2103  1.1566
 6043SOL    HW229763   4.059   0.347   3.469  2.9221 -1.2591  2.2086
 6044SOL     OW29764   2.914   2.559   3.396 -0.0211  0.4132  0.2200
 6044SOL    HW129765   2.839   2.619   3.396 -1.9979 -2.0714 -1.3634
 6044SOL    HW229766   2.969   2.576   3.319 -0.9293 -0.0384 -0.5296
 6045SOL     OW29767   3.176   0.435   4.215 -0.3470 -0.2401  0.2394
 6045SOL    HW129768   3.225   0.413   4.294 -1.1992 -1.8782  0.3147
 6045SOL    HW229769   3.249   0.439   4.153 -0.6293  2.9307  0.1037
 6046SOL     OW29770   3.616   4.504   6.928 -0.1969 -0.1112 -0.2960
 6046SOL    HW129771   3.601   4.431   6.988 -0.5044 -0.1831 -0.4650
 6046SOL    HW229772   3.530   4.515   6.889 -1.0700  0.9427  1.9514
 6047SOL     OW29773   1.886   3.498   4.064  0.1726 -0.0875 -0.1803
 6047SOL    HW129774   1.928   3.578   4.097  2.4203 -1.1025 -0.6171
 6047SOL    HW229775   1.832   3.538   3.995 -0.5380 -0.3373  0.2331
 6048SOL     OW29776   0.872   3.561   7.362  0.2456 -0.0374  0.7456
 6048SOL    HW129777   0.863   3.476   7.404  2.0445 -1.1394 -1.0667
 6048SOL    HW229778   0.782   3.591   7.362  1.1752  2.7703  2.7483
 6049SOL     OW29779   4.533   4.201   3.843  0.1492  0.2483  0.1295
 6049SOL    HW129780   4.470   4.273   3.844  0.5650  0.6121  0.1824
 6049SOL    HW229781   4.581   4.211   3.760 -0.8815 -0.8355 -0.5916
 6050SOL     OW29782   3.589   1.905   6.320  0.5701  0.3830  0.0055
 6050SOL    HW129783   3.515   1.867   6.274  0.2448 -0.8257  1.5066
 6050SOL    HW229784   3.539   1.958   6.382  0.4546  2.7612 -2.1353
 6051SOL     OW29785   0.354   2.286   8.451  0.4538  0.5870 -0.1486
 6051SOL    HW129786   0.297   2.241   8.513 -0.5673 -1.1780 -2.3710
 6051SOL    HW229787   0.413   2.330   8.512  0.4227 -0.2610  0.4815
 6052SOL     OW29788   4.200   4.156   6.036 -0.0758 -0.2420  0.0979
 6052SOL    HW129789   4.185   4.250   6.044 -0.8677 -0.2961 -0.7363
 6052SOL    HW229790   4.269   4.160   6.102  0.8861  1.6287 -1.0207
 6053SOL     OW29791   0.272   2.572   0.368  0.0413 -0.2229  0.5647
 6053SOL    HW129792   0.293   2.578   0.274  3.2079  0.7733  1.3298
 6053SOL    HW229793   0.342   2.628   0.403  1.0980 -0.9304 -0.4095
 6054SOL     OW29794   3.172   2.085   6.708 -0.3954 -0.1962 -0.1143
 6054SOL    HW129795   3.084   2.088   6.671 -1.0378 -1.2094  1.3378
 6054SOL    HW229796   3.147   2.089   6.800  2.0098 -1.3827  0.5886
 6055SOL     OW29797   1.751   2.209   4.177 -0.1733  0.0048 -0.7622
 6055SOL    HW129798   1.804   2.288   4.174  2.4833 -1.6767  2.1304
 6055SOL    HW229799   1.802   2.160   4.241 -2.0777 -0.4952  0.3876
 6056SOL     OW29800   4.019   0.042   3.960  0.1723  0.0051  0.2799
 6056SOL    HW129801   4.023   0.043   3.865  1.6178  2.9861  0.3654
 6056SOL    HW229802   4.016   0.136   3.976  1.3922  0.2637 -1.0355
 6057SOL     OW29803   4.727   1.663   5.394  0.6839 -0.2590 -0.4479
 6057SOL    HW129804   4.636   1.656   5.364  1.3094  0.5418 -2.5570
 6057SOL    HW229805   0.010   1.570   5.387 -0.9104 -0.4580 -2.6479
 6058SOL     OW29806   0.783   0.416   3.353 -0.0070 -0.3255 -0.1642
 6058SOL    HW129807   0.791   0.337   3.407 -0.1378  0.4304  0.9389
 6058SOL    HW229808   0.689   0.434   3.357  0.2608  1.6083 -2.6501
 6059SOL     OW29809   0.678   3.008   6.483  0.2411  0.1858  0.0698
 6059SOL    HW129810   0.722   3.019   6.567  1.1375 -1.2316 -0.2155
 6059SOL    HW229811   0.672   3.096   6.446 -1.7169  0.8313  1.8838
 6060SOL     OW29812   0.636   1.575  12.087 -0.3253 -0.0915 -0.6338
 6060SOL    HW129813   0.714   1.632  12.091  1.0674 -2.1923  1.8968
 6060SOL    HW229814   0.665   1.521  12.013  1.8048 -0.3197  0.3770
 6061SOL     OW29815   0.983   0.927   7.337  0.6131 -0.1397 -0.1326
 6061SOL    HW129816   0.966   1.000   7.397 -1.0565  0.7631 -1.7109
 6061SOL    HW229817   0.916   0.868   7.372  1.1586 -0.7529 -0.1181
 6062SOL     OW29818   3.185   2.969   3.665 -0.3089 -0.0197 -0.4433
 6062SOL    HW129819   3.186   2.896   3.603  0.9513  0.0827 -0.5446
 6062SOL    HW229820   3.132   2.925   3.731  1.3900 -1.4470 -0.0117
 6063SOL     OW29821   2.062   1.029  11.840 -0.3217  0.5379  0.5956
 6063SOL    HW129822   2.084   1.121  11.826  0.7976  0.1564 -0.1400
 6063SOL    HW229823   2.003   1.008  11.767 -0.3388  3.1347 -0.1716
 6064SOL     OW29824   1.352   1.100  13.214 -0.0208 -0.3622  0.5070
 6064SOL    HW129825   1.285   1.062  13.270 -0.1594  0.7143  1.0711
 6064SOL    HW229826   1.423   1.036  13.221 -1.2311 -1.6409  1.0862
 6065SOL     OW29827   0.941   2.848   7.443 -0.7778  0.2086  0.2714
 6065SOL    HW129828   0.981   2.902   7.374  0.5150  2.2335  2.5780
 6065SOL    HW229829   1.016   2.797   7.472 -1.4799 -0.5441  0.7679
 6066SOL     OW29830   2.399   0.430  14.358  0.0295  0.5874  0.1991
 6066SOL    HW129831   2.477   0.375  14.361 -1.0975 -1.1747 -2.7101
 6066SOL    HW229832   2.382   0.419  14.265 -3.0402  1.2781  0.6633
 6067SOL     OW29833   1.238   3.452   7.485  0.4067 -0.0130  0.6636
 6067SOL    HW129834   1.229   3.510   7.409  0.2452  2.1506  2.3139
 6067SOL    HW229835   1.297   3.384   7.454  0.4256 -0.4187  1.5828
 6068SOL     OW29836   4.598   0.334  12.437  0.1647 -0.0277 -0.1970
 6068SOL    HW129837   4.521   0.388  12.453  1.3154  1.3934  0.4933
 6068SOL    HW229838   4.557   0.249  12.455 -0.7133  1.0784  2.9635
 6069SOL     OW29839   4.074   3.847   8.471 -0.0049  0.5305  0.4906
 6069SOL    HW129840   4.155   3.871   8.514 -0.8188 -0.0602  2.3395
 6069SOL    HW229841   4.038   3.788   8.537 -0.6706 -2.8714 -2.9029
 6070SOL     OW29842   4.075   2.768   3.977 -0.1794 -0.4603 -0.0804
 6070SOL    HW129843   4.031   2.794   4.058  0.0104 -1.5496  0.3730
 6070SOL    HW229844   4.153   2.825   3.973  0.5322 -1.5308 -1.7832
 6071SOL     OW29845   0.057   3.807   3.898  0.2813 -0.4226  1.0395
 6071SOL    HW129846   4.718   3.854   3.932  0.9281 -0.6618  2.7790
 6071SOL    HW229847   0.078   3.865   3.824  0.8297 -0.3911  1.2160
 6072SOL     OW29848   1.700   1.966  15.147 -0.7077  0.0357  0.5650
 6072SOL    HW129849   1.651   1.883  15.152 -2.2809  0.9389  0.1522
 6072SOL    HW229850   1.666   1.998  15.063 -2.4475 -0.7207  0.9824
 6073SOL     OW29851   4.009   2.603   1.405  0.0928 -0.0493  0.4712
 6073SOL    HW129852   4.022   2.566   1.492  3.7695  2.1695  0.8466
 6073SOL    HW229853   4.070   2.549   1.354  0.8287  0.1207  1.1789
 6074SOL     OW29854   1.901   4.204  10.514  0.0844 -0.0950  0.2335
 6074SOL    HW129855   1.823   4.257  10.502 -0.6825 -1.2452  0.1219
 6074SOL    HW229856   1.899   4.185  10.608 -1.2979  1.1816  0.4579
 6075SOL     OW29857   0.667   0.760   3.156  0.1182 -0.4681  0.1446
 6075SOL    HW129858   0.723   0.837   3.152 -0.0439 -0.5156 -2.8518
 6075SOL    HW229859   0.588   0.814   3.158  0.9552  0.7687 -0.2525
 6076SOL     OW29860   2.147   3.060   9.146  0.0589 -0.7181 -0.0718
 6076SOL    HW129861   2.135   3.145   9.103 -0.5365 -0.9071 -0.2747
 6076SOL    HW229862   2.058   3.028   9.157 -0.5589  1.2401  0.7463
 6077SOL     OW29863   1.747   1.164   5.575 -0.1813 -0.3941  0.7476
 6077SOL    HW129864   1.825   1.112   5.595  2.0256  2.3933 -0.6629
 6077SOL    HW229865   1.788   1.247   5.554  1.5884 -1.5995 -0.5281
 6078SOL     OW29866   1.046   3.596   9.130 -0.2975  0.0973  0.0130
 6078SOL    HW129867   0.954   3.601   9.107 -0.8505 -0.1103  2.2122
 6078SOL    HW229868   1.067   3.682   9.094 -1.2099  1.1511  1.9926
 6079SOL     OW29869   2.044   1.379   5.771  0.2489 -0.5272 -0.0394
 6079SOL    HW129870   2.068   1.340   5.687 -0.8768  0.5941 -0.8856
 6079SOL    HW229871   1.959   1.421   5.761 -0.2538 -1.2323  1.3270
 6080SOL     OW29872   1.370   0.622  15.240  0.3500  0.0334 -0.1633
 6080SOL    HW129873   1.289   0.583  15.272  1.0665 -0.7491  0.7187
 6080SOL    HW229874   1.378   0.588  15.151 -1.1220  0.9717 -0.6453
 6081SOL     OW29875   0.539   2.541   3.847  0.1682  0.4109 -0.2943
 6081SOL    HW129876   0.560   2.448   3.836 -1.1289 -0.0320  0.9472
 6081SOL    HW229877   0.447   2.534   3.871  0.4503  0.8940  0.9270
 6082SOL     OW29878   2.906   1.309   4.973 -0.1710  0.2964  0.0938
 6082SOL    HW129879   2.934   1.219   4.992  0.4383  0.6398  0.8334
 6082SOL    HW229880   2.892   1.334   5.064  0.2219 -1.6232  0.6724
 6083SOL     OW29881   4.641   1.874   9.158  0.0851  0.2344 -0.4915
 6083SOL    HW129882   4.728   1.842   9.135 -0.4966 -1.3201 -0.4871
 6083SOL    HW229883   4.603   1.792   9.189  1.2141 -0.0255  0.1702
 6084SOL     OW29884   3.203   2.584  13.544  0.0463  0.4252 -0.4080
 6084SOL    HW129885   3.238   2.500  13.514  0.4836  0.8304 -1.0606
 6084SOL    HW229886   3.276   2.618  13.595  1.1042 -2.6088  0.1011
 6085SOL     OW29887   1.779   2.633  16.955 -0.4071 -0.1855  0.2861
 6085SOL    HW129888   1.852   2.695  16.962  0.2597 -0.8673 -0.6096
 6085SOL    HW229889   1.722   2.673  17.020 -0.9154 -0.0550 -0.2369
 6086SOL     OW29890   2.098   3.848   0.880  0.3156  0.1353 -0.0144
 6086SOL    HW129891   2.037   3.774   0.871  0.6438 -0.1411  0.0253
 6086SOL    HW229892   2.064   3.912   0.817  3.1161 -0.2496 -1.9359
 6087SOL     OW29893   3.721   0.638   4.043  0.2133  0.4447  0.0525
 6087SOL    HW129894   3.723   0.725   4.001 -0.0576  0.6228  0.4113
 6087SOL    HW229895   3.724   0.664   4.135 -2.1839  3.4611 -0.7162
 6088SOL     OW29896   3.709   4.344   2.068  0.2984  0.0504 -0.2294
 6088SOL    HW129897   3.665   4.419   2.110 -1.2226  0.6016 -2.8224
 6088SOL    HW229898   3.725   4.282   2.139  2.5877  0.4751 -0.3511
 6089SOL     OW29899   3.592   1.106  10.878  0.2128 -0.4948  0.2072
 6089SOL    HW129900   3.610   1.058  10.797 -0.7872 -1.8128  0.7548
 6089SOL    HW229901   3.511   1.059  10.901  0.3782 -0.7277  0.3114
 6090SOL     OW29902   2.451   0.143   2.138  0.0374 -0.1909 -0.3411
 6090SOL    HW129903   2.440   0.231   2.172  0.0257 -0.9899  1.7290
 6090SOL    HW229904   2.373   0.141   2.083  1.4898  1.5673 -2.4737
 6091SOL     OW29905   2.589   0.553   0.221  0.4175 -0.6680  0.1659
 6091SOL    HW129906   2.514   0.519   0.269  0.1019  2.8367  2.1788
 6091SOL    HW229907   2.652   0.565   0.291 -1.2700  0.4137  1.5060
 6092SOL     OW29908   4.213   4.141   3.761 -0.1435  0.1184  0.4725
 6092SOL    HW129909   4.234   4.222   3.808  1.9394 -0.4483  0.5119
 6092SOL    HW229910   4.195   4.082   3.834  3.4839 -0.8316  0.6025
 6093SOL     OW29911   2.884   0.394   4.899 -0.2218  0.7223  0.2051
 6093SOL    HW129912   2.880   0.488   4.915  0.7551  1.3954 -3.3639
 6093SOL    HW229913   2.936   0.361   4.972  2.2875  0.8004 -1.5455
 6094SOL     OW29914   2.712   3.786  12.082 -0.5960  0.5043  0.2323
 6094SOL    HW129915   2.722   3.874  12.045 -0.1683 -0.9173 -3.0254
 6094SOL    HW229916   2.621   3.764  12.064 -0.1240  0.2421 -1.8646
 6095SOL     OW29917   1.225   2.128  13.300 -0.6516 -0.4886  0.3143
 6095SOL    HW129918   1.285   2.104  13.370 -0.2810 -0.1043  0.1258
 6095SOL    HW229919   1.266   2.092  13.221 -0.8242 -0.2510  0.1146
 6096SOL     OW29920   2.292   3.893   4.876  0.4659 -0.2552 -0.3999
 6096SOL    HW129921   2.228   3.875   4.945 -1.0473 -0.9541 -1.9726
 6096SOL    HW229922   2.292   3.813   4.824  0.3854 -1.0205  0.7706
 6097SOL     OW29923   1.161   2.246   9.127  0.0080 -0.3624  0.3395
 6097SOL    HW129924   1.117   2.331   9.136 -0.2078 -0.5139  0.7204
 6097SOL    HW229925   1.096   2.180   9.102  0.3436  0.2906 -2.2878
 6098SOL     OW29926   3.986   1.793  15.446 -0.2682  0.4603 -0.8194
 6098SOL    HW129927   3.980   1.889  15.448  0.5961  0.4902  0.4530
 6098SOL    HW229928   3.977   1.781  15.351  2.7174 -0.6373 -0.9620
 6099SOL     OW29929   3.591   2.989  14.037  0.0324  0.0399  0.1462
 6099SOL    HW129930   3.546   2.914  14.000  0.0771 -0.7199  1.6090
 6099SOL    HW229931   3.566   2.980  14.129 -1.2853  2.8022  0.0597
 6100SOL     OW29932   3.972   3.733   8.671  0.3977  0.4608 -0.7392
 6100SOL    HW129933   3.924   3.805   8.712  0.4852 -0.4517  0.9783
 6100SOL    HW229934   4.035   3.715   8.741 -1.0503  0.2009  0.5299
 6101SOL     OW29935   2.252   4.062   3.422 -0.6360  0.3990 -0.0456
 6101SOL    HW129936   2.205   3.982   3.396 -0.6798  0.5794 -0.5238
 6101SOL    HW229937   2.259   4.109   3.339  1.9238  0.8694  0.4268
 6102SOL     OW29938   4.557   1.681   2.523 -0.2585  0.7044 -0.3478
 6102SOL    HW129939   4.588   1.591   2.526  0.0258  0.8205  0.2561
 6102SOL    HW229940   4.499   1.668   2.448  0.5189  1.0867 -1.0208
 6103SOL     OW29941   1.037   1.151   9.763 -0.3224 -0.0329  0.1798
 6103SOL    HW129942   0.994   1.120   9.843  1.0220  0.2604  1.0044
 6103SOL    HW229943   1.012   1.243   9.753 -0.8409 -0.4974 -2.8726
 6104SOL     OW29944   0.544   1.262   9.983 -0.4139 -0.6782  0.1862
 6104SOL    HW129945   0.636   1.282   9.967 -0.0121 -0.6451  2.4332
 6104SOL    HW229946   0.542   1.296  10.073 -0.3681 -0.7526  0.2152
 6105SOL     OW29947   2.825   0.979   0.750 -0.0836  0.2933 -0.2916
 6105SOL    HW129948   2.905   1.029   0.732  0.1857  0.1522  0.5360
 6105SOL    HW229949   2.838   0.897   0.702 -1.2305 -0.1150  0.1086
 6106SOL     OW29950   0.774   2.138   5.296 -0.1312  0.4905 -0.6936
 6106SOL    HW129951   0.727   2.056   5.283 -0.2329  0.3057  0.7828
 6106SOL    HW229952   0.701   2.190   5.329 -0.2287  0.6222 -1.1253
 6107SOL     OW29953   1.398   3.121   9.416 -0.1348 -0.0540  0.5518
 6107SOL    HW129954   1.429   3.096   9.503  3.2950 -0.3322 -0.7550
 6107SOL    HW229955   1.395   3.041   9.365 -2.3202 -0.4449  1.2979
 6108SOL     OW29956   3.623   0.142   8.852 -0.2104 -0.0943 -0.1239
 6108SOL    HW129957   3.593   0.154   8.942 -2.5704 -3.0874 -0.5247
 6108SOL    HW229958   3.694   0.081   8.873  1.5660  2.2133  0.5152
 6109SOL     OW29959   3.644   2.280   8.106 -0.1593 -0.2589 -0.0614
 6109SOL    HW129960   3.709   2.210   8.117 -0.4704 -0.7974 -1.7305
 6109SOL    HW229961   3.567   2.227   8.127  0.1063 -1.8580 -3.0880
 6110SOL     OW29962   3.437   0.221   3.899  0.3877 -0.3630  0.1144
 6110SOL    HW129963   3.360   0.193   3.949  0.2311 -1.1993 -0.5808
 6110SOL    HW229964   3.485   0.145   3.932  2.1492  0.2882 -0.9353
 6111SOL     OW29965   0.782   1.739   1.433  0.2099 -0.7149 -0.2473
 6111SOL    HW129966   0.838   1.661   1.429  1.1568  0.0182 -1.2534
 6111SOL    HW229967   0.695   1.700   1.433  1.2665 -3.1195 -1.2848
 6112SOL     OW29968   3.037   2.804   9.452  0.0180 -0.2270  0.6121
 6112SOL    HW129969   3.069   2.716   9.469 -0.8315 -0.0614  2.9825
 6112SOL    HW229970   3.107   2.857   9.488  1.3377  0.1593 -2.5328
 6113SOL     OW29971   3.374   3.049   8.318 -0.5313 -0.1031  0.3178
 6113SOL    HW129972   3.444   3.074   8.379  1.2877 -0.5814 -1.5497
 6113SOL    HW229973   3.316   2.993   8.369  0.5318 -0.6654  0.9153
 6114SOL     OW29974   2.042   0.868   7.004  0.4308 -0.0491 -0.2012
 6114SOL    HW129975   2.103   0.941   7.012 -1.8854  1.5925  2.3255
 6114SOL    HW229976   1.992   0.865   7.085 -0.2281 -0.5800 -0.6208
 6115SOL     OW29977   2.553   3.699   4.400 -0.4776  0.4814  0.6683
 6115SOL    HW129978   2.642   3.732   4.387 -0.9413  1.4354 -0.0168
 6115SOL    HW229979   2.557   3.624   4.341  0.9719  1.3161 -0.2913
 6116SOL     OW29980   1.755   3.781   5.437 -0.2667 -0.3251  0.3141
 6116SOL    HW129981   1.777   3.755   5.348 -0.9450  2.0301 -0.5378
 6116SOL    HW229982   1.830   3.840   5.451 -2.4892  2.2802  1.2306
 6117SOL     OW29983   2.102   0.429   9.505  0.1675  0.6387 -0.0869
 6117SOL    HW129984   2.140   0.505   9.462  1.3098  0.2644  0.2670
 6117SOL    HW229985   2.122   0.434   9.599  0.5922  1.8810 -0.2472
 6118SOL     OW29986   3.965   1.637   7.524  0.5858  0.5257 -0.1658
 6118SOL    HW129987   4.037   1.697   7.542  0.4851  0.9333 -1.1434
 6118SOL    HW229988   3.941   1.672   7.438 -0.3117 -0.3783 -0.2882
 6119SOL     OW29989   3.225   4.176   8.854 -0.5626  0.3739 -0.0938
 6119SOL    HW129990   3.132   4.173   8.873 -0.4784 -0.3641  0.1807
 6119SOL    HW229991   3.251   4.142   8.940 -2.7940  0.5286  0.6354
 6120SOL     OW29992   0.478   3.343   4.895 -0.1070 -0.3034  0.3011
 6120SOL    HW129993   0.568   3.342   4.863  0.3156  0.8876  1.4264
 6120SOL    HW229994   0.439   3.265   4.856 -0.1323 -0.9728  1.6593
 6121SOL     OW29995   0.308   4.640   0.969 -0.8528 -0.1516 -0.6527
 6121SOL    HW129996   0.322   4.733   0.950 -1.6320 -0.3218 -2.0287
 6121SOL    HW229997   0.318   4.638   1.064  2.5488  1.2842 -0.9799
 6122SOL     OW29998   0.114   3.796   8.786 -0.4166  0.1145 -0.5425
 6122SOL    HW129999   0.078   3.710   8.808  2.4896 -0.8702  0.3370
 6122SOL    HW230000   0.178   3.765   8.722  0.4189  0.7773 -0.0359
 6123SOL     OW30001   0.431   2.007  13.426 -0.4887 -0.1636 -1.0034
 6123SOL    HW130002   0.342   2.026  13.454 -0.7340 -0.3581 -1.6701
 6123SOL    HW230003   0.421   1.968  13.340 -0.7994 -2.3331  0.0154
 6124SOL     OW30004   2.613   2.601   2.585  0.2684 -0.8298 -0.4615
 6124SOL    HW130005   2.673   2.539   2.627  0.1283 -0.2105  0.6529
 6124SOL    HW230006   2.535   2.548   2.603 -0.7191  0.7829  0.0482
 6125SOL     OW30007   3.070   1.593  10.100  0.0757  0.0013 -0.1237
 6125SOL    HW130008   2.978   1.581  10.078 -0.4984  0.2627  2.1366
 6125SOL    HW230009   3.100   1.658  10.036 -0.2891  0.6076  0.3168
 6126SOL     OW30010   3.235   2.365  14.276 -0.1612  0.4965  0.1797
 6126SOL    HW130011   3.152   2.394  14.237 -1.1105  0.3983  2.1419
 6126SOL    HW230012   3.268   2.308  14.206 -1.2093  0.6001 -0.4045
 6127SOL     OW30013   4.440   3.306   7.849 -0.2090 -0.2154  0.3001
 6127SOL    HW130014   4.354   3.296   7.808 -0.2178  2.1287 -0.2618
 6127SOL    HW230015   4.411   3.324   7.939 -0.2769  2.1530 -0.2039
 6128SOL     OW30016   3.493   3.506  17.489 -0.8765  0.4057 -0.5768
 6128SOL    HW130017   3.410   3.549  17.510 -0.9362 -0.4529  0.9439
 6128SOL    HW230018   3.539   3.590  17.482 -0.0449  0.1154  1.4440
 6129SOL     OW30019   2.636   2.983   4.128 -0.0582 -0.0076  0.5030
 6129SOL    HW130020   2.682   3.067   4.128 -0.9504  0.4817  0.9257
 6129SOL    HW230021   2.583   2.996   4.049  0.8175 -0.5915 -0.1772
 6130SOL     OW30022   1.220   4.375   2.865  0.2693  0.0903 -0.3749
 6130SOL    HW130023   1.285   4.407   2.803 -0.2542 -0.7433 -1.3478
 6130SOL    HW230024   1.279   4.338   2.931 -2.5657 -1.4185  1.3353
 6131SOL     OW30025   4.529   4.594  10.394  0.0281 -0.0069  0.0532
 6131SOL    HW130026   4.600   4.589  10.330  0.7951  0.9599  0.8299
 6131SOL    HW230027   4.470   4.525  10.365 -0.8364  0.2254  1.2746
 6132SOL     OW30028   0.049   3.360   1.205 -0.0016  0.6867 -0.2357
 6132SOL    HW130029   0.116   3.302   1.241 -0.3580 -0.2276 -1.0633
 6132SOL    HW230030   0.103   3.437   1.188  0.0254 -0.0905 -3.5692
 6133SOL     OW30031   3.059   0.950  17.162  0.0299 -0.0824  0.5933
 6133SOL    HW130032   3.070   0.868  17.209 -3.4073  0.2245  1.9472
 6133SOL    HW230033   3.099   1.004  17.229 -0.0538 -1.5252  1.7934
 6134SOL     OW30034   4.583   3.720   2.416 -0.2101  0.0883  0.0014
 6134SOL    HW130035   4.514   3.694   2.354 -0.4225 -0.6702  0.5501
 6134SOL    HW230036   4.596   3.815   2.412  0.6484  0.0420  1.6745
 6135SOL     OW30037   4.210   0.978   6.622  0.6268 -0.1948  0.3391
 6135SOL    HW130038   4.281   1.039   6.641  0.3465  0.4594 -0.7492
 6135SOL    HW230039   4.259   0.903   6.657  0.4370 -0.4618  0.0351
 6136SOL     OW30040   2.917   4.289   8.587 -0.4553 -0.1542  0.3824
 6136SOL    HW130041   2.862   4.258   8.514 -1.9582  2.1300  0.5389
 6136SOL    HW230042   2.986   4.223   8.588 -0.2543  0.0317 -0.5600
 6137SOL     OW30043   4.357   1.887   5.528  0.0954  0.9540  0.3545
 6137SOL    HW130044   4.397   1.940   5.459  1.1926 -0.6638 -0.2628
 6137SOL    HW230045   4.269   1.925   5.527  0.6704  2.2618 -1.0972
 6138SOL     OW30046   3.483   2.428   4.757 -0.5594 -0.2158 -0.0322
 6138SOL    HW130047   3.421   2.364   4.793  0.0790 -0.8417 -0.0459
 6138SOL    HW230048   3.543   2.430   4.831  0.1639  3.3106 -0.7290
 6139SOL     OW30049   2.002   0.641  10.201  0.3194 -0.1804 -0.0348
 6139SOL    HW130050   1.917   0.684  10.200  0.6307  0.4164 -1.5687
 6139SOL    HW230051   2.030   0.663  10.290 -1.6645  0.0292  0.5364
 6140SOL     OW30052   1.680   2.055   2.380  0.4102  0.4216 -0.5349
 6140SOL    HW130053   1.605   2.019   2.333 -0.4071 -0.6952  1.6127
 6140SOL    HW230054   1.647   2.129   2.431 -0.4497  0.2411 -0.8318
 6141SOL     OW30055   0.336   2.193   3.899  0.8002 -0.0551 -0.5737
 6141SOL    HW130056   0.349   2.206   3.993 -0.4334  2.5229 -0.7684
 6141SOL    HW230057   0.413   2.140   3.878 -0.4916 -1.2154 -2.3737
 6142SOL     OW30058   4.379   0.660   4.146  0.7715 -0.0284 -0.0290
 6142SOL    HW130059   4.463   0.677   4.102  0.7304 -2.3839 -1.0512
 6142SOL    HW230060   4.403   0.661   4.239  2.9503 -3.2575 -0.5433
 6143SOL     OW30061   1.589   3.453   1.177  0.3927  0.2195  0.0648
 6143SOL    HW130062   1.544   3.425   1.097  0.4163  1.3141 -0.3306
 6143SOL    HW230063   1.516   3.485   1.229  0.4962 -0.1535  0.4405
 6144SOL     OW30064   0.234   1.852   9.976 -0.0695 -0.7411  1.0130
 6144SOL    HW130065   0.182   1.836   9.897 -2.2725 -0.7587  2.4582
 6144SOL    HW230066   0.205   1.935  10.014 -0.2729  0.1607 -1.1495
 6145SOL     OW30067   0.796   0.235  14.285  0.0855  0.2465  0.8430
 6145SOL    HW130068   0.751   0.227  14.369  2.6599  0.7795  2.2920
 6145SOL    HW230069   0.767   0.162  14.230  0.6228  0.8334 -0.2176
 6146SOL     OW30070   3.839   0.179  15.900 -0.2188 -0.6204  0.6886
 6146SOL    HW130071   3.811   0.237  15.970 -1.0054  0.3518 -0.4326
 6146SOL    HW230072   3.807   0.093  15.930  0.9711 -1.6633 -1.0205
 6147SOL     OW30073   1.400   4.185  12.687 -0.2633  0.0909  0.2798
 6147SOL    HW130074   1.331   4.250  12.694 -1.5186 -1.0345 -1.7228
 6147SOL    HW230075   1.474   4.245  12.699 -1.9810  1.9587  1.5230
 6148SOL     OW30076   1.660   2.343   8.731  0.3649 -0.1689 -0.1632
 6148SOL    HW130077   1.583   2.397   8.750 -0.3430 -1.2503  0.0371
 6148SOL    HW230078   1.685   2.318   8.820 -0.7349 -1.3683 -0.1874
 6149SOL     OW30079   3.911   4.538   9.247  0.1638  0.1933  0.2768
 6149SOL    HW130080   3.860   4.529   9.167 -1.4384  1.6593  1.1418
 6149SOL    HW230081   3.931   4.631   9.260  2.7920 -0.4782  1.0646
 6150SOL     OW30082   0.738   2.444   1.159 -0.0264 -0.2183 -0.2162
 6150SOL    HW130083   0.808   2.418   1.100 -0.1707 -0.2949 -0.3566
 6150SOL    HW230084   0.753   2.374   1.223 -1.0710  0.0312  0.3039
 6151SOL     OW30085   2.030   1.744   9.641 -0.0446 -0.0017  0.3064
 6151SOL    HW130086   1.990   1.809   9.698  0.3505  0.3937  0.1331
 6151SOL    HW230087   2.045   1.796   9.563 -3.9736  0.7082  0.0477
 6152SOL     OW30088   2.615   3.418  15.779  0.0258 -0.0334 -0.4232
 6152SOL    HW130089   2.585   3.496  15.733 -0.6446  0.9556  1.6832
 6152SOL    HW230090   2.581   3.357  15.713  0.1082  0.1274 -0.6135
 6153SOL     OW30091   1.330   1.022   5.232  0.6870  0.2570 -0.0427
 6153SOL    HW130092   1.238   1.039   5.210  0.7279 -0.8776 -1.0814
 6153SOL    HW230093   1.326   0.933   5.267 -1.6422  0.7463  0.9369
 6154SOL     OW30094   2.743   2.016   8.151 -0.0207 -0.1541 -0.1640
 6154SOL    HW130095   2.771   2.054   8.068 -1.6872 -0.5949 -0.9380
 6154SOL    HW230096   2.805   2.055   8.212 -0.5141 -0.3110  0.4406
 6155SOL     OW30097   2.983   2.436  14.151 -0.7895  0.5506 -0.2379
 6155SOL    HW130098   2.939   2.509  14.195  0.8658 -0.1005  2.4824
 6155SOL    HW230099   2.912   2.385  14.112 -1.8176  1.9952 -0.2616
 6156SOL     OW30100   2.059   2.834  17.143  0.1645 -0.0571  0.0070
 6156SOL    HW130101   2.057   2.920  17.186 -1.0160  1.0761 -2.3476
 6156SOL    HW230102   2.002   2.853  17.069  0.8100 -1.0645 -0.7447
 6157SOL     OW30103   3.006   4.307   7.295 -0.0160 -0.1329  0.2202
 6157SOL    HW130104   3.054   4.384   7.266  0.7729 -0.8696 -0.4056
 6157SOL    HW230105   2.967   4.291   7.210 -1.4999 -0.1023  0.8914
 6158SOL     OW30106   4.081   2.878   3.410 -0.5249 -0.2930 -0.1766
 6158SOL    HW130107   4.035   2.915   3.335  0.0461 -1.6809 -1.2071
 6158SOL    HW230108   4.096   2.961   3.455  3.0280 -0.7347 -0.5367
 6159SOL     OW30109   2.367   3.559   3.911  0.2385  0.0437  0.2969
 6159SOL    HW130110   2.377   3.614   3.988  3.8045  0.5353 -0.5145
 6159SOL    HW230111   2.453   3.518   3.904  0.5017  0.6302  0.1109
 6160SOL     OW30112   3.812   1.677   6.096  0.3392 -0.3192 -0.0847
 6160SOL    HW130113   3.718   1.677   6.077  0.3762 -0.8222 -0.2515
 6160SOL    HW230114   3.848   1.682   6.007 -0.8761 -2.0859 -0.6836
 6161SOL     OW30115   2.267   3.916   6.778 -0.3766  0.2385 -0.7360
 6161SOL    HW130116   2.251   3.824   6.795 -0.8078  0.6163  0.8861
 6161SOL    HW230117   2.189   3.961   6.812 -0.2399 -0.7053  0.8011
 6162SOL     OW30118   0.629   2.515   8.164 -0.1041  0.1871 -0.0469
 6162SOL    HW130119   0.661   2.531   8.253 -1.2985 -0.6186  0.5277
 6162SOL    HW230120   0.540   2.486   8.184 -0.3991  0.0903 -1.5395
 6163SOL     OW30121   1.235   0.354   8.685 -0.6737 -0.2684 -0.0304
 6163SOL    HW130122   1.271   0.442   8.701  1.2169 -0.8944 -0.7760
 6163SOL    HW230123   1.308   0.303   8.721 -0.0479  2.7063  2.9523
 6164SOL     OW30124   0.878   3.330   8.070  0.0542  0.1261  0.0325
 6164SOL    HW130125   0.908   3.338   8.160 -0.5972  1.9682  0.0875
 6164SOL    HW230126   0.955   3.352   8.018  0.2535  0.4313  0.4587
 6165SOL     OW30127   1.122   2.303   2.955  0.4833  0.2027 -0.1196
 6165SOL    HW130128   1.168   2.330   2.875 -0.1637  0.8966 -0.2581
 6165SOL    HW230129   1.172   2.352   3.020  1.0868  0.4655 -0.7835
 6166SOL     OW30130   3.622   2.527  16.026  0.8144  0.2792  0.9496
 6166SOL    HW130131   3.612   2.551  16.118 -3.1656  0.7698  0.4173
 6166SOL    HW230132   3.677   2.602  16.004  0.2324  0.3525 -0.2519
 6167SOL     OW30133   3.043   2.602   7.845 -0.4159 -0.3411  0.6077
 6167SOL    HW130134   3.129   2.610   7.886  0.8490  0.0825 -2.1693
 6167SOL    HW230135   3.005   2.521   7.881  2.2257 -2.7038 -1.9530
 6168SOL     OW30136   4.711   2.204  14.086 -0.1156 -0.1087  0.5087
 6168SOL    HW130137   0.044   2.171  14.144  0.5759 -2.4145 -1.6056
 6168SOL    HW230138   0.028   2.211  14.008  1.2136  1.5119  1.5835
 6169SOL     OW30139   4.409   4.284   7.715  0.0564  0.1723  0.0793
 6169SOL    HW130140   4.411   4.313   7.623  3.4061 -0.7566 -0.1465
 6169SOL    HW230141   4.316   4.296   7.732  0.6053  3.2066  1.0190
 6170SOL     OW30142   1.553   2.472   4.269  0.0846  0.1654 -0.3884
 6170SOL    HW130143   1.622   2.475   4.335 -1.3482  1.2486  1.0430
 6170SOL    HW230144   1.601   2.460   4.187  0.8898  2.4709 -0.2480
 6171SOL     OW30145   0.301   1.306  10.855 -0.1583 -0.2542 -0.3097
 6171SOL    HW130146   0.319   1.254  10.933  2.8280 -0.2131 -0.9656
 6171SOL    HW230147   0.375   1.366  10.840 -0.5185  0.4998  0.9451
 6172SOL     OW30148   0.639   4.704   4.689  0.4806  0.3988  0.3438
 6172SOL    HW130149   0.668   4.614   4.681 -0.9637  0.0099 -0.4767
 6172SOL    HW230150   0.557   4.691   4.642  1.0449 -1.3646 -0.1449
 6173SOL     OW30151   3.874   4.623   4.725  0.2025 -0.9342 -0.5136
 6173SOL    HW130152   3.928   4.635   4.803 -0.5507  1.3378 -0.3330
 6173SOL    HW230153   3.787   4.661   4.738  0.3153 -0.4041 -1.2609
 6174SOL     OW30154   3.879   2.561   5.856  0.4320 -0.1817  0.0912
 6174SOL    HW130155   3.946   2.548   5.789 -0.3826 -0.7300 -0.6184
 6174SOL    HW230156   3.892   2.655   5.869  0.2821 -0.2054  0.4204
 6175SOL     OW30157   1.097   0.035   4.608 -0.3185  0.7233 -0.1758
 6175SOL    HW130158   1.097   0.058   4.701  0.7073 -0.2999  0.0738
 6175SOL    HW230159   1.017   4.719   4.609  2.4342 -3.4093  2.7417
 6176SOL     OW30160   1.103   0.246  16.373 -0.3296  0.6967 -0.0302
 6176SOL    HW130161   1.080   0.277  16.460 -2.4015 -0.0273 -0.3214
 6176SOL    HW230162   1.063   0.301  16.306 -1.8182  1.0050  1.1137
 6177SOL     OW30163   1.761   2.321   4.641  0.0294 -0.0320 -0.0061
 6177SOL    HW130164   1.773   2.377   4.565 -0.0840 -1.2194 -0.9002
 6177SOL    HW230165   1.674   2.351   4.666  0.4426  1.8052 -0.7592
 6178SOL     OW30166   2.770   4.381   2.678  0.2075  0.7470 -0.0239
 6178SOL    HW130167   2.855   4.351   2.710 -0.5729  0.6089  1.9532
 6178SOL    HW230168   2.767   4.322   2.603 -2.7761 -0.0748  0.7332
 6179SOL     OW30169   0.112   2.713   7.702 -0.0502 -0.7090  0.0844
 6179SOL    HW130170   0.158   2.796   7.712 -0.7907 -0.4053  0.9802
 6179SOL    HW230171   0.107   2.726   7.607 -0.0845  0.6445  0.2729
 6180SOL     OW30172   3.838   4.181   5.708 -0.0118  0.0751 -0.2261
 6180SOL    HW130173   3.825   4.228   5.790 -1.2830  0.4272 -0.6251
 6180SOL    HW230174   3.885   4.245   5.655 -0.5922  0.3454 -0.4188
 6181SOL     OW30175   4.613   4.365   9.086  0.4634 -0.5593  0.2826
 6181SOL    HW130176   4.537   4.389   9.139  0.1951  0.7019 -0.6782
 6181SOL    HW230177   4.624   4.450   9.044 -0.0733 -0.3647  0.5424
 6182SOL     OW30178   1.874   2.504   5.140 -0.0138 -0.3099  0.3662
 6182SOL    HW130179   1.947   2.564   5.123  0.6645 -2.0188 -2.8343
 6182SOL    HW230180   1.898   2.429   5.086  0.9981  1.1623 -1.2753
 6183SOL     OW30181   1.016   4.534   0.449 -0.0450  0.2716 -0.4267
 6183SOL    HW130182   1.050   4.500   0.367 -1.3322 -0.4190 -0.6777
 6183SOL    HW230183   1.015   4.453   0.499  2.3467 -0.0042 -0.8447
 6184SOL     OW30184   1.708   2.900   6.053  0.2096 -0.6219 -0.1269
 6184SOL    HW130185   1.758   2.850   6.118  0.9995 -0.5175 -0.6532
 6184SOL    HW230186   1.630   2.845   6.047  1.0685 -1.6447 -1.7680
 6185SOL     OW30187   4.681   1.298   8.009  0.1562  0.9634 -0.2635
 6185SOL    HW130188   4.661   1.279   7.917  0.3977  0.4100 -0.2019
 6185SOL    HW230189   0.007   1.231   8.035  1.2516  2.3147  0.5802
 6186SOL     OW30190   3.994   0.759  17.023  0.0243 -0.4391 -0.5385
 6186SOL    HW130191   3.999   0.674  17.067  0.9052 -0.1810 -0.1345
 6186SOL    HW230192   3.915   0.738  16.974 -0.8263 -1.4314  1.2610
 6187SOL     OW30193   2.955   2.140   7.419  0.2694 -0.2087  0.6132
 6187SOL    HW130194   2.994   2.131   7.332 -0.5210  0.4238  0.1922
 6187SOL    HW230195   2.862   2.157   7.403  0.4144  0.3707  0.4064
 6188SOL     OW30196   3.508   4.011   1.236 -0.3660  0.5801 -0.3848
 6188SOL    HW130197   3.457   4.035   1.158  1.1022  2.2460 -0.8408
 6188SOL    HW230198   3.510   4.099   1.275  1.0569 -0.0235  0.8909
 6189SOL     OW30199   2.672   2.621  13.250  0.1791 -0.1735  0.9019
 6189SOL    HW130200   2.735   2.550  13.263 -0.7960 -0.9071  1.6162
 6189SOL    HW230201   2.630   2.593  13.168 -0.4207 -0.2979  1.2561
 6190SOL     OW30202   2.014   0.682   3.908 -0.5153  0.6071 -0.6043
 6190SOL    HW130203   2.105   0.681   3.881  0.2368  0.0135  2.0015
 6190SOL    HW230204   1.998   0.588   3.898  1.3000  0.3075 -0.6762
 6191SOL     OW30205   1.309   0.717  13.907  0.5150  0.9665 -0.1024
 6191SOL    HW130206   1.325   0.763  13.824 -0.4958 -1.4122 -1.6242
 6191SOL    HW230207   1.268   0.793  13.947  0.5651  0.4014  1.0166
 6192SOL     OW30208   1.577   2.652   4.007  0.1211  0.1738  0.4994
 6192SOL    HW130209   1.497   2.601   4.014  0.1833  0.1711  1.2486
 6192SOL    HW230210   1.555   2.714   3.938  1.5227 -0.5951 -0.6355
 6193SOL     OW30211   2.918   3.584   7.444  0.8857 -0.4813  0.7465
 6193SOL    HW130212   2.832   3.574   7.484  1.0390 -4.0051  0.2453
 6193SOL    HW230213   2.964   3.508   7.481  1.8305 -0.2460  0.0510
 6194SOL     OW30214   4.714   1.009   5.959 -0.8729 -0.2092  0.1654
 6194SOL    HW130215   4.684   1.089   6.001  1.1028  1.6225 -1.9263
 6194SOL    HW230216   4.632   0.960   5.971 -1.6273  1.0651  0.2181
 6195SOL     OW30217   3.036   3.220  15.100 -0.0004 -0.3418  0.2296
 6195SOL    HW130218   3.039   3.296  15.042  3.3737 -0.6033  0.0896
 6195SOL    HW230219   3.011   3.269  15.178  3.3715  0.8545  0.5429
 6196SOL     OW30220   0.497   2.369   2.602 -0.2322  0.3935  0.4320
 6196SOL    HW130221   0.577   2.345   2.649  0.7275 -0.4814 -1.6929
 6196SOL    HW230222   0.434   2.344   2.670  1.4638 -0.0319  1.8206
 6197SOL     OW30223   4.118   1.214   5.049 -0.4453 -0.5484  0.5270
 6197SOL    HW130224   4.188   1.212   4.984 -1.1866 -0.9722 -0.2600
 6197SOL    HW230225   4.045   1.198   4.989  0.0338  0.5998 -0.3559
 6198SOL     OW30226   1.075   4.398  14.855  0.0903  0.0270  0.9902
 6198SOL    HW130227   1.108   4.358  14.936  0.0802  1.5112  1.7298
 6198SOL    HW230228   1.005   4.453  14.889 -1.1238 -0.8228 -0.1215
 6199SOL     OW30229   1.459   1.500  12.438 -0.0235  0.1209 -0.1813
 6199SOL    HW130230   1.496   1.531  12.520 -2.5959  0.9532  0.6804
 6199SOL    HW230231   1.438   1.412  12.468  0.2781 -0.8806 -2.8751
 6200SOL     OW30232   1.803   2.666   4.732  0.6617  1.2352  0.0082
 6200SOL    HW130233   1.865   2.602   4.765 -0.2024  0.5387  0.2828
 6200SOL    HW230234   1.823   2.735   4.795  1.6183  0.8047  0.1711
 6201SOL     OW30235   3.652   1.359  10.698  0.2209  0.3493 -0.1824
 6201SOL    HW130236   3.701   1.341  10.777 -0.2022  1.2724  0.2876
 6201SOL    HW230237   3.561   1.375  10.725  0.0636  0.8555 -0.9968
 6202SOL     OW30238   4.645   4.405   4.651  0.0642  0.8074  0.2366
 6202SOL    HW130239   4.607   4.318   4.635  0.8123  0.5692 -0.2788
 6202SOL    HW230240   0.000   4.384   4.667  0.1377 -0.6903 -2.1116
 6203SOL     OW30241   4.248   1.144   8.016  0.0506 -0.1381  0.8198
 6203SOL    HW130242   4.250   1.049   8.019 -1.5175 -0.2838 -2.8067
 6203SOL    HW230243   4.228   1.166   8.107  1.5419 -0.0333  1.1196
 6204SOL     OW30244   0.546   2.766   4.751  0.0906 -0.4651  0.0840
 6204SOL    HW130245   0.601   2.729   4.682  1.9097 -0.8249  1.7294
 6204SOL    HW230246   0.561   2.709   4.826  2.8278 -0.3821 -0.4093
 6205SOL     OW30247   3.929   1.332   7.994  0.0778 -0.1849 -0.3320
 6205SOL    HW130248   3.986   1.403   8.023 -0.9911  0.5815 -0.0695
 6205SOL    HW230249   3.908   1.356   7.903 -0.1155  1.6023  0.1833
 6206SOL     OW30250   2.922   2.787   3.698 -0.2627  0.6606 -0.0382
 6206SOL    HW130251   2.867   2.865   3.687  0.4018  1.3210  1.3881
 6206SOL    HW230252   2.893   2.758   3.785  1.0956 -1.6521 -0.3699
 6207SOL     OW30253   2.600   4.540   1.604  0.0494  0.1752  0.8507
 6207SOL    HW130254   2.675   4.482   1.612  0.1193  0.0820 -0.6345
 6207SOL    HW230255   2.615   4.586   1.687  0.5468  1.2125  0.1739
 6208SOL     OW30256   3.089   1.942   4.784  0.5825  0.1469  0.3212
 6208SOL    HW130257   3.143   1.889   4.725 -0.3060 -0.1705 -0.2142
 6208SOL    HW230258   3.151   2.003   4.822  1.2836 -0.9290  0.9149
 6209SOL     OW30259   1.100   4.173   6.507  0.0082 -0.0921  0.3565
 6209SOL    HW130260   1.149   4.189   6.588  1.2452 -2.4155  0.0734
 6209SOL    HW230261   1.119   4.080   6.496 -3.4319 -0.5216 -1.8584
 6210SOL     OW30262   4.193   2.919   7.081  0.2727  0.3476  0.2672
 6210SOL    HW130263   4.264   2.854   7.085 -1.1814 -1.1288  2.2177
 6210SOL    HW230264   4.223   2.992   7.136 -2.8374  1.9170 -0.1344
 6211SOL     OW30265   3.433   0.548  15.157  0.2478  0.4611  0.3512
 6211SOL    HW130266   3.482   0.516  15.081  1.0222  0.8719  0.6717
 6211SOL    HW230267   3.359   0.488  15.163  1.5236 -0.9518  1.7686
 6212SOL     OW30268   0.173   1.886  10.872 -0.3569  0.2627  0.5266
 6212SOL    HW130269   0.180   1.942  10.950  0.9126 -1.2300  1.4801
 6212SOL    HW230270   0.144   1.809  10.921  0.3047 -0.4170 -0.1356
 6213SOL     OW30271   3.245   1.327  10.495  0.2813 -0.3232 -0.0145
 6213SOL    HW130272   3.228   1.349  10.404  0.2889 -1.7753 -0.3629
 6213SOL    HW230273   3.157   1.304  10.523  0.6274  1.8141  2.9406
 6214SOL     OW30274   1.384   4.206   9.981 -0.1347  0.0351 -0.2930
 6214SOL    HW130275   1.368   4.112   9.978 -0.2270  0.0732 -0.9313
 6214SOL    HW230276   1.303   4.245   9.948  0.3672  0.5719 -0.9055
 6215SOL     OW30277   4.356   0.815   2.926 -0.1774  0.1580  0.4243
 6215SOL    HW130278   4.315   0.799   2.841  0.3341  2.3090 -0.2342
 6215SOL    HW230279   4.448   0.835   2.909 -0.2065 -0.2881 -0.2650
 6216SOL     OW30280   1.808   1.266  12.521 -0.5956 -0.5918 -0.1871
 6216SOL    HW130281   1.836   1.202  12.587  0.2938  0.5247  0.5046
 6216SOL    HW230282   1.823   1.215  12.442 -2.0412  0.3155 -1.0499
 6217SOL     OW30283   2.649   0.662  13.739  0.2024 -0.1608 -0.2170
 6217SOL    HW130284   2.607   0.731  13.688  2.0916  2.5576  1.8654
 6217SOL    HW230285   2.682   0.726  13.803 -1.4761  1.2532 -0.7656
 6218SOL     OW30286   2.906   0.205  11.295  0.0896 -0.2711  0.5042
 6218SOL    HW130287   2.902   0.284  11.348 -2.0545  1.6423 -2.5449
 6218SOL    HW230288   2.840   0.145  11.330  0.4120 -1.4759 -0.9333
 6219SOL     OW30289   1.863   2.433   6.829 -0.0422  0.1440 -0.0496
 6219SOL    HW130290   1.946   2.481   6.828  0.2442 -0.3065  1.8086
 6219SOL    HW230291   1.891   2.348   6.863 -0.7610 -0.7174 -1.6388
 6220SOL     OW30292   0.021   3.104   8.792  0.2859  1.0540 -0.1495
 6220SOL    HW130293   4.716   3.078   8.873 -3.5850  2.7569 -1.6206
 6220SOL    HW230294   4.695   3.170   8.763 -0.0774  1.2755  1.1602
 6221SOL     OW30295   3.656   2.350   3.647  0.4121  0.3642 -0.3659
 6221SOL    HW130296   3.696   2.268   3.676 -0.1005  0.6833  1.2384
 6221SOL    HW230297   3.659   2.397   3.730 -4.3119  0.9356 -0.5337
 6222SOL     OW30298   0.934   1.515   8.877  0.5684 -0.6210 -0.4492
 6222SOL    HW130299   1.022   1.540   8.851  0.8031 -0.0481  0.9464
 6222SOL    HW230300   0.904   1.459   8.805 -2.3686  0.6298 -0.2011
 6223SOL     OW30301   0.426   2.840   5.718 -0.0301 -0.4709 -0.1487
 6223SOL    HW130302   0.415   2.884   5.633 -1.1130  0.3867  0.4280
 6223SOL    HW230303   0.521   2.844   5.720 -0.0806  0.1318  0.9570
 6224SOL     OW30304   1.281   3.015  15.259 -0.1685  0.1634  0.1434
 6224SOL    HW130305   1.233   3.075  15.316 -0.9039 -1.0541  0.7997
 6224SOL    HW230306   1.333   2.955  15.312  2.6588  2.1147 -0.4044
 6225SOL     OW30307   4.298   3.125   7.215 -0.1333 -0.2279  0.0184
 6225SOL    HW130308   4.331   3.206   7.177  0.5951 -0.1024  0.9107
 6225SOL    HW230309   4.213   3.154   7.250 -0.5400 -0.9147 -0.4031
 6226SOL     OW30310   2.456   1.928   6.835  0.1693  0.4858  0.2876
 6226SOL    HW130311   2.419   1.915   6.747 -0.5234 -0.5086  0.7291
 6226SOL    HW230312   2.421   2.014   6.857  0.1441  0.1117  1.6621
 6227SOL     OW30313   4.443   4.043   7.340  0.3004 -0.4821 -0.1355
 6227SOL    HW130314   4.487   4.128   7.334  1.9438 -1.0532  3.6829
 6227SOL    HW230315   4.520   3.988   7.326  2.3417  2.1541  0.7892
 6228SOL     OW30316   0.342   4.727   0.156  0.0034 -0.3822  0.3747
 6228SOL    HW130317   0.327   0.013   0.248 -1.6577 -0.1953  0.0642
 6228SOL    HW230318   0.403   0.053   0.117 -1.1865  0.5812  0.0381
 6229SOL     OW30319   0.483   3.852  10.369  0.1369 -0.0485 -0.0451
 6229SOL    HW130320   0.437   3.915  10.425 -2.2454 -1.2653 -0.6207
 6229SOL    HW230321   0.573   3.869  10.395 -0.2579 -1.1978  2.1146
 6230SOL     OW30322   1.985   0.727  13.440  0.2469  0.0431  0.1378
 6230SOL    HW130323   2.005   0.820  13.451 -0.1967  0.0918  0.5433
 6230SOL    HW230324   1.921   0.723  13.511 -0.0575 -0.8939 -0.1932
 6231SOL     OW30325   2.690   2.791  15.950  0.2492 -0.3285  0.2861
 6231SOL    HW130326   2.642   2.848  16.010  1.5800  0.3681  0.6823
 6231SOL    HW230327   2.694   2.852  15.877 -0.0947 -1.1878 -0.4446
 6232SOL     OW30328   0.047   0.057   4.509 -0.6538  0.2518 -0.4643
 6232SOL    HW130329   4.707   4.736   4.501 -0.0449 -0.4569 -1.2728
 6232SOL    HW230330   0.083   0.013   4.586  0.3133  2.6244  0.4207
 6233SOL     OW30331   0.801   0.200  13.459 -0.0135 -0.5522 -0.7752
 6233SOL    HW130332   0.811   0.246  13.542 -0.6134  0.0017 -1.0085
 6233SOL    HW230333   0.831   0.264  13.394 -2.0707 -0.2967 -1.4453
 6234SOL     OW30334   4.272   1.541  17.006  0.0980 -0.2008  0.0679
 6234SOL    HW130335   4.314   1.580  16.929  1.0868  0.6007  1.0113
 6234SOL    HW230336   4.277   1.612  17.070  1.2170  0.2056 -0.4649
 6235SOL     OW30337   2.621   2.238  10.524  0.3955  0.2309 -0.2974
 6235SOL    HW130338   2.619   2.329  10.553 -2.4072  0.7648 -2.0606
 6235SOL    HW230339   2.713   2.218  10.508  0.7098  1.0729  0.4985
 6236SOL     OW30340   2.782   0.037   2.340 -0.3904  0.5980  0.2037
 6236SOL    HW130341   2.797   0.122   2.382 -0.8491  0.8353 -0.1086
 6236SOL    HW230342   2.815   4.711   2.404  0.5209  0.5634 -0.2863
 6237SOL     OW30343   1.727   2.140   6.284  0.0386 -0.5513  0.2964
 6237SOL    HW130344   1.707   2.137   6.191 -1.5461  0.5952  0.5942
 6237SOL    HW230345   1.815   2.104   6.285 -0.0895 -0.8928 -2.4961
 6238SOL     OW30346   1.860   1.692  16.658  0.0525  0.1150  0.0272
 6238SOL    HW130347   1.888   1.783  16.670 -2.0717  1.1181 -2.5653
 6238SOL    HW230348   1.767   1.705  16.641  0.0890 -0.2981 -0.4803
 6239SOL     OW30349   0.399   1.979   4.124  0.1748 -0.1398 -0.1578
 6239SOL    HW130350   0.327   1.927   4.161 -1.5154  1.1128 -1.6835
 6239SOL    HW230351   0.448   1.994   4.205  0.7806 -0.4282 -0.4744
 6240SOL     OW30352   1.754   1.589   1.619 -0.0603 -0.2885 -0.7881
 6240SOL    HW130353   1.671   1.560   1.582 -1.9782 -0.8405  3.9104
 6240SOL    HW230354   1.770   1.674   1.579 -0.1706  0.6831  1.2105
 6241SOL     OW30355   3.943   2.254   8.689 -0.3940 -0.1177  0.3597
 6241SOL    HW130356   4.022   2.265   8.742  0.4297 -0.0174 -0.8842
 6241SOL    HW230357   3.904   2.340   8.695 -1.0319 -0.4682  1.2896
 6242SOL     OW30358   2.525   4.651   9.680 -0.4269  0.4752 -0.2199
 6242SOL    HW130359   2.577   4.583   9.636  0.1004  0.9017 -0.2636
 6242SOL    HW230360   2.437   4.649   9.642 -0.5381  1.1413  0.0081
 6243SOL     OW30361   3.804   4.593   8.634  0.3860  0.2301  0.9055
 6243SOL    HW130362   3.741   4.584   8.704 -2.5876  0.1047 -1.7826
 6243SOL    HW230363   3.772   4.526   8.574 -0.5561  0.7895  0.7844
 6244SOL     OW30364   1.148   3.828  15.406 -0.0016  0.5767  0.5748
 6244SOL    HW130365   1.139   3.847  15.499 -1.2455 -1.2409  0.8284
 6244SOL    HW230366   1.192   3.908  15.378 -0.2835  1.0604  1.5226
 6245SOL     OW30367   0.638   3.829   9.314  0.1366  0.7112 -0.7447
 6245SOL    HW130368   0.593   3.746   9.301  1.0458 -0.0429  0.8519
 6245SOL    HW230369   0.599   3.863   9.394  1.4643 -1.7305  0.9333
 6246SOL     OW30370   1.880   4.558   1.432  0.3166  0.0398 -0.8808
 6246SOL    HW130371   1.889   4.586   1.341 -0.5084 -1.6573 -1.4945
 6246SOL    HW230372   1.787   4.576   1.445 -0.0277 -1.5995 -1.1154
 6247SOL     OW30373   1.404   0.379  14.981  0.3540 -0.5282  0.1824
 6247SOL    HW130374   1.369   0.461  14.949 -1.7654 -1.0148  1.2924
 6247SOL    HW230375   1.498   0.376  14.964  0.5974  0.9551  1.2465
 6248SOL     OW30376   4.509   4.246   0.358 -0.0745  0.2495  0.3826
 6248SOL    HW130377   4.427   4.207   0.390  0.6342 -1.0782  0.5537
 6248SOL    HW230378   4.510   4.317   0.422  0.2977  0.8995 -0.3465
 6249SOL     OW30379   3.776   1.915   1.991 -0.2616 -0.4477  0.6988
 6249SOL    HW130380   3.729   1.949   1.916  0.1054 -0.9897  0.2210
 6249SOL    HW230381   3.783   1.823   1.966 -0.5143 -0.2146 -0.2204
 6250SOL     OW30382   1.050   4.106   8.417  0.7130 -0.0922 -0.3729
 6250SOL    HW130383   1.098   4.161   8.480 -0.9125  0.5154  0.3399
 6250SOL    HW230384   1.045   4.162   8.340  0.4948  1.0345  0.4589
 6251SOL     OW30385   2.876   0.908   4.371  0.0507  0.7103  0.7272
 6251SOL    HW130386   2.890   0.865   4.455  1.2125  1.0475  0.7042
 6251SOL    HW230387   2.810   0.969   4.404 -1.7500 -1.7170  1.6061
 6252SOL     OW30388   2.494   3.349   2.304 -0.0462  0.1743  0.6193
 6252SOL    HW130389   2.568   3.402   2.336 -1.0978  1.2919  1.1997
 6252SOL    HW230390   2.438   3.426   2.298 -1.3069 -0.7710  0.3017
 6253SOL     OW30391   2.809   1.763   4.573 -0.0302 -0.0986 -0.4151
 6253SOL    HW130392   2.714   1.756   4.570 -0.0233 -0.4426  0.1237
 6253SOL    HW230393   2.837   1.671   4.565 -0.5700 -0.3218  0.2315
 6254SOL     OW30394   3.633   2.514  17.153  0.1548 -0.1459  0.1253
 6254SOL    HW130395   3.723   2.488  17.132  0.0915 -2.1589  2.3612
 6254SOL    HW230396   3.613   2.451  17.222 -0.0522 -0.0347  0.1688
 6255SOL     OW30397   3.835   3.655   4.639  0.3916 -0.3835  0.3239
 6255SOL    HW130398   3.923   3.621   4.655 -1.0595 -4.7246 -0.8259
 6255SOL    HW230399   3.856   3.727   4.581 -2.6218  0.8218  0.7427
 6256SOL     OW30400   1.401   1.206  11.432 -0.0572  0.5185  0.0221
 6256SOL    HW130401   1.375   1.157  11.354 -0.2986  0.0842  0.3740
 6256SOL    HW230402   1.319   1.252  11.451  0.0740  0.0471  1.7929
 6257SOL     OW30403   4.344   3.624   2.315 -0.0797  0.4150  0.3479
 6257SOL    HW130404   4.339   3.579   2.231 -0.1036 -0.1579  0.6597
 6257SOL    HW230405   4.284   3.697   2.301 -0.1496  0.7900  2.5955
 6258SOL     OW30406   3.507   1.445   7.083 -0.3021  0.5479 -0.0556
 6258SOL    HW130407   3.442   1.385   7.118  0.2298  0.1744  0.2808
 6258SOL    HW230408   3.444   1.514   7.062  0.0397  1.0850  0.6790
 6259SOL     OW30409   0.721   2.996   0.612 -0.3975 -0.3148 -0.4014
 6259SOL    HW130410   0.684   2.917   0.574  0.5918 -0.9257 -0.0789
 6259SOL    HW230411   0.698   2.975   0.703  2.1187 -2.6493 -0.3179
 6260SOL     OW30412   3.736   3.588   9.947 -0.4372 -0.5099  0.5382
 6260SOL    HW130413   3.710   3.642  10.021  1.8337  1.4705 -0.0959
 6260SOL    HW230414   3.714   3.503   9.986 -1.4653  0.1660  1.4316
 6261SOL     OW30415   4.530   1.589   4.752  0.1406 -0.6385  0.2673
 6261SOL    HW130416   4.580   1.588   4.833  0.8738 -0.7201 -0.1837
 6261SOL    HW230417   4.548   1.682   4.735 -2.1335 -0.2965 -0.3454
 6262SOL     OW30418   4.641   0.131   3.223 -0.4355 -0.1493  0.1334
 6262SOL    HW130419   4.597   0.135   3.138 -1.5568  0.6077  0.7415
 6262SOL    HW230420   4.720   0.180   3.202  0.6842 -1.2193  1.9108
 6263SOL     OW30421   2.880   2.341  11.082  0.6794  0.5541 -0.2185
 6263SOL    HW130422   2.957   2.388  11.111  0.2649  0.6974  0.6547
 6263SOL    HW230423   2.866   2.293  11.164  0.6920 -0.1117 -0.6065
 6264SOL     OW30424   3.875   3.047   1.330  0.2045 -0.4356 -0.7016
 6264SOL    HW130425   3.930   2.997   1.391 -0.5928 -0.7927 -0.2743
 6264SOL    HW230426   3.839   3.111   1.391  0.9442 -0.3553 -0.3455
 6265SOL     OW30427   2.399   1.921   2.067  0.1125  0.0191 -0.1261
 6265SOL    HW130428   2.414   1.850   2.005 -0.2947 -0.5616  0.4391
 6265SOL    HW230429   2.468   1.913   2.133 -0.9632 -2.1846  0.7159
 6266SOL     OW30430   2.869   4.256   5.998  0.2692 -0.0980  0.2275
 6266SOL    HW130431   2.797   4.233   6.057  1.6448  0.6385  2.2185
 6266SOL    HW230432   2.917   4.176   5.978  0.4447 -0.0481  0.4370
 6267SOL     OW30433   4.290   0.953  16.948 -0.2841 -0.4052  0.0483
 6267SOL    HW130434   4.304   1.010  16.873  0.2743  0.0159  0.4830
 6267SOL    HW230435   4.366   0.984  16.997 -0.0166  1.9052 -1.8468
 6268SOL     OW30436   4.409   4.347   1.275  0.2121  0.1375  0.2861
 6268SOL    HW130437   4.443   4.389   1.354  1.6348 -2.0934  0.8835
 6268SOL    HW230438   4.493   4.336   1.231 -0.2898  1.7242 -1.0568
 6269SOL     OW30439   2.269   2.358   5.647 -0.4431 -0.3313 -0.1294
 6269SOL    HW130440   2.300   2.445   5.675  0.8626 -0.8907  0.1587
 6269SOL    HW230441   2.307   2.305   5.718  1.4124  2.7081  1.1793
 6270SOL     OW30442   4.567   0.692  12.247 -0.7389 -0.1455  0.5051
 6270SOL    HW130443   4.474   0.709  12.265 -1.0664  0.2489 -1.5347
 6270SOL    HW230444   4.594   0.772  12.293 -1.8791 -0.9397  2.5471
 6271SOL     OW30445   3.624   0.190   0.072 -0.0664  0.4179  0.2355
 6271SOL    HW130446   3.695   0.254   0.073 -0.6442  1.0510  0.4699
 6271SOL    HW230447   3.590   0.187  17.728 -0.2043 -3.0539  0.4221
 6272SOL     OW30448   3.892   4.117   4.307 -0.0979 -0.2215  0.1849
 6272SOL    HW130449   3.964   4.166   4.347 -0.5303  0.9836 -0.5295
 6272SOL    HW230450   3.910   4.131   4.214  1.8119 -0.4831  0.5065
 6273SOL     OW30451   0.742   2.088   6.240  0.1722 -0.3948 -0.4636
 6273SOL    HW130452   0.664   2.138   6.220  0.0617 -0.0268  0.8500
 6273SOL    HW230453   0.737   2.089   6.336  1.3702  0.2044 -0.4016
 6274SOL     OW30454   0.219   0.151   8.817 -0.0517  0.0845 -0.2963
 6274SOL    HW130455   0.205   0.059   8.838  1.3329 -0.1972 -0.6356
 6274SOL    HW230456   0.170   0.190   8.890  2.7128 -2.7200  3.0200
 6275SOL     OW30457   3.062   3.667  16.641 -0.6546  0.4636  0.2579
 6275SOL    HW130458   3.033   3.757  16.631  0.0484  0.6088 -0.4729
 6275SOL    HW230459   3.086   3.675  16.734  1.0627 -1.1398 -0.0400
 6276SOL     OW30460   2.459   2.496   4.500 -0.3940  0.0506  0.0590
 6276SOL    HW130461   2.411   2.440   4.440  0.0366  0.0656 -0.2993
 6276SOL    HW230462   2.547   2.482   4.467 -0.5136  2.0035 -1.1196
 6277SOL     OW30463   4.163   1.370  14.908  0.3196  0.5053  0.5430
 6277SOL    HW130464   4.070   1.351  14.893  0.7288  0.2237 -1.5911
 6277SOL    HW230465   4.194   1.281  14.896  1.9064  1.0239  0.8244
 6278SOL     OW30466   0.703   1.228   5.246 -0.2182  0.2002  0.2177
 6278SOL    HW130467   0.670   1.303   5.295  1.0504  0.2618  0.9793
 6278SOL    HW230468   0.671   1.152   5.294  1.5479 -0.6938 -0.0110
 6279SOL     OW30469   0.676   4.117  15.906  0.0776  0.1119 -0.6821
 6279SOL    HW130470   0.709   4.177  15.974  0.7998 -2.1678  0.9642
 6279SOL    HW230471   0.626   4.051  15.954  0.0502 -1.5404 -3.0444
 6280SOL     OW30472   1.692   3.713   9.653 -0.6422  0.0923 -0.6755
 6280SOL    HW130473   1.689   3.743   9.743 -0.4422  0.8910 -0.9319
 6280SOL    HW230474   1.707   3.798   9.612  0.4770  0.0189 -0.4139
 6281SOL     OW30475   3.420   3.124   6.573 -0.0765 -0.1695 -0.3947
 6281SOL    HW130476   3.512   3.105   6.556 -0.0813  0.6685 -1.3298
 6281SOL    HW230477   3.427   3.124   6.668  1.6721 -3.0774 -0.5313
 6282SOL     OW30478   1.241   2.184   2.229  0.0436 -0.0762 -0.9886
 6282SOL    HW130479   1.231   2.216   2.140  3.7963  2.6144 -0.4312
 6282SOL    HW230480   1.334   2.161   2.227 -0.7164 -3.3492  1.0096
 6283SOL     OW30481   2.403   3.591   1.795 -0.2603  0.2976  0.0951
 6283SOL    HW130482   2.346   3.658   1.757 -0.0684  0.3623 -0.0768
 6283SOL    HW230483   2.407   3.519   1.732  3.8154 -1.2799  2.1803
 6284SOL     OW30484   3.402   2.474   7.046  0.4734  0.3247 -0.3714
 6284SOL    HW130485   3.433   2.454   7.135  3.4842  2.6386 -0.8795
 6284SOL    HW230486   3.416   2.569   7.049 -1.7874  0.5756  2.6495
 6285SOL     OW30487   1.881   3.043   9.166  0.2174 -0.4892  0.1735
 6285SOL    HW130488   1.867   3.126   9.120  0.6444  1.3722  3.3775
 6285SOL    HW230489   1.802   3.029   9.218 -0.2137 -0.6125 -0.5188
 6286SOL     OW30490   1.763   4.565  11.436  0.0728 -0.1725 -0.1507
 6286SOL    HW130491   1.768   4.608  11.521  0.6835  0.2480 -0.3992
 6286SOL    HW230492   1.774   4.641  11.378 -1.7179  0.3237  0.1449
 6287SOL     OW30493   2.174   1.138   5.333  0.1468  0.3511  0.5011
 6287SOL    HW130494   2.129   1.172   5.255  1.9437  0.2134 -0.5894
 6287SOL    HW230495   2.254   1.096   5.301 -0.6267  0.2641 -1.3541
 6288SOL     OW30496   2.029   3.124  16.812 -0.3307  0.0457 -0.5401
 6288SOL    HW130497   1.955   3.070  16.786  0.9547 -1.7737 -0.3802
 6288SOL    HW230498   2.022   3.126  16.908  1.2793  0.7116 -0.4428
 6289SOL     OW30499   0.808   0.943   5.204  0.6781 -0.5317 -0.2531
 6289SOL    HW130500   0.750   0.916   5.132 -0.0100 -0.7312  0.3703
 6289SOL    HW230501   0.766   0.898   5.277 -0.1234  1.0061  0.2313
 6290SOL     OW30502   3.619   0.402   4.278 -0.5826  0.3579  0.1221
 6290SOL    HW130503   3.705   0.380   4.243 -0.5377  0.3661  0.2279
 6290SOL    HW230504   3.587   0.316   4.303  0.4447  0.2475  1.0649
 6291SOL     OW30505   2.131   3.931   1.538  0.0139 -0.3379  0.0263
 6291SOL    HW130506   2.154   3.909   1.448  2.1206  1.6437  0.0680
 6291SOL    HW230507   2.145   4.026   1.545 -2.1125  0.0063 -0.3072
 6292SOL     OW30508   0.487   2.881   9.653  0.2594 -0.1741  0.5557
 6292SOL    HW130509   0.424   2.815   9.624  2.0380 -1.3650 -0.6437
 6292SOL    HW230510   0.572   2.843   9.627  0.0807 -0.5397  0.5065
 6293SOL     OW30511   4.308   2.371   5.373 -0.5662 -0.8361  0.1635
 6293SOL    HW130512   4.328   2.341   5.462  3.2284 -0.5866 -0.6234
 6293SOL    HW230513   4.397   2.378   5.340  0.2190 -0.2660  2.4158
 6294SOL     OW30514   3.583   2.371   6.770  0.4014 -0.1272 -0.8130
 6294SOL    HW130515   3.657   2.325   6.729  2.1502  0.6888  1.4204
 6294SOL    HW230516   3.584   2.348   6.863 -1.6772  0.7320 -0.5903
 6295SOL     OW30517   1.594   1.001   5.438  0.4950 -0.8218  0.0212
 6295SOL    HW130518   1.649   1.050   5.498 -1.9571  0.5845  1.1231
 6295SOL    HW230519   1.647   0.926   5.408 -1.4239 -1.3052 -2.1973
 6296SOL     OW30520   3.927   2.277   9.622 -0.1781  0.0745 -0.2295
 6296SOL    HW130521   3.836   2.248   9.624  0.1411 -0.7886  1.5248
 6296SOL    HW230522   3.950   2.248   9.710 -0.7707  1.8317  0.4965
 6297SOL     OW30523   1.735   0.206   3.649  0.1676  0.5768 -0.7274
 6297SOL    HW130524   1.701   0.294   3.638  0.2436  0.6104 -0.6957
 6297SOL    HW230525   1.683   0.182   3.726 -0.2823  1.2893 -0.8075
 6298SOL     OW30526   3.545   4.293  10.636 -0.2821  0.1226  0.4326
 6298SOL    HW130527   3.545   4.220  10.698  0.1644 -0.6588 -0.4950
 6298SOL    HW230528   3.573   4.361  10.697  0.2815  1.9251 -1.8452
 6299SOL     OW30529   2.512   3.945  16.918 -0.7993 -0.2315  0.3029
 6299SOL    HW130530   2.519   3.859  16.959  0.3406 -0.5320 -0.4958
 6299SOL    HW230531   2.420   3.955  16.941 -0.7950  0.0667  0.1875
 6300SOL     OW30532   4.352   0.628  14.794 -0.3121  0.2973  0.4114
 6300SOL    HW130533   4.343   0.702  14.854 -1.1284 -0.1964  0.9052
 6300SOL    HW230534   4.301   0.662  14.720  1.1319  0.8844 -0.3024
 6301SOL     OW30535   0.909   3.581   5.185  0.0469 -0.2082  0.2437
 6301SOL    HW130536   0.828   3.628   5.203 -0.0671 -0.2796 -0.0899
 6301SOL    HW230537   0.879   3.506   5.135  3.5430 -0.9846 -0.6897
 6302SOL     OW30538   4.068   3.255   6.283 -0.1701  0.0961 -0.2497
 6302SOL    HW130539   4.048   3.348   6.280 -0.1502  0.1256  0.6061
 6302SOL    HW230540   4.000   3.224   6.343 -0.8841  0.8190 -0.6920
 6303SOL     OW30541   1.938   4.107  12.330 -0.5818  0.3963 -0.0286
 6303SOL    HW130542   1.918   4.015  12.315 -0.3607  0.3157  0.1712
 6303SOL    HW230543   1.999   4.111  12.404  1.4260  0.4897 -1.7010
 6304SOL     OW30544   1.216   3.428   7.112 -0.3952 -0.2420  0.2623
 6304SOL    HW130545   1.206   3.384   7.028  1.3144 -0.5713  0.2388
 6304SOL    HW230546   1.221   3.519   7.084  0.0500  0.0692  1.3183
 6305SOL     OW30547   2.583   0.903   2.256  0.5553 -0.1943  0.0509
 6305SOL    HW130548   2.603   0.903   2.349 -1.5691 -0.8323  0.5087
 6305SOL    HW230549   2.553   0.814   2.238  1.7286 -0.3861 -1.0068
 6306SOL     OW30550   0.196   2.227   9.383 -0.1794 -0.8248  0.0542
 6306SOL    HW130551   0.207   2.148   9.329 -1.8525 -1.4082  0.5584
 6306SOL    HW230552   0.137   2.207   9.456  0.9921 -0.1175  1.2022
 6307SOL     OW30553   1.363   3.777   2.599 -0.1446  0.1960  0.0059
 6307SOL    HW130554   1.376   3.684   2.619 -0.4755 -0.1049 -1.1915
 6307SOL    HW230555   1.451   3.812   2.589 -0.2772  0.7520  0.7478
 6308SOL     OW30556   3.952   1.310   4.809  0.2968  0.3240  0.9320
 6308SOL    HW130557   3.899   1.231   4.800 -0.2199  0.9993 -1.9877
 6308SOL    HW230558   3.943   1.339   4.718  0.4132 -0.1197  0.7744
 6309SOL     OW30559   1.321   0.667   8.056  0.3875  0.8225 -0.4855
 6309SOL    HW130560   1.387   0.671   8.126  0.6683 -2.0182 -0.6061
 6309SOL    HW230561   1.242   0.634   8.098 -0.0392  1.4840 -0.7762
 6310SOL     OW30562   0.750   4.654   0.140 -0.1555 -0.1636  0.1468
 6310SOL    HW130563   0.698   4.731   0.160 -1.9182 -1.4169  0.3566
 6310SOL    HW230564   0.840   4.684   0.125 -0.6733  1.9910  1.3891
 6311SOL     OW30565   0.375   4.297   6.429 -0.1867  0.2127 -0.7728
 6311SOL    HW130566   0.288   4.311   6.466  0.1059 -0.1323  0.0434
 6311SOL    HW230567   0.383   4.353   6.352  2.3017  1.8043  0.6439
 6312SOL     OW30568   3.869   4.435  15.465 -0.3948  1.1976  0.3152
 6312SOL    HW130569   3.841   4.520  15.499 -0.7088  0.8186  1.0033
 6312SOL    HW230570   3.924   4.404  15.537 -1.9505 -2.0414  0.0771
 6313SOL     OW30571   2.699   1.466   3.155  0.0559  0.2193  0.2886
 6313SOL    HW130572   2.793   1.486   3.158  0.0508  0.3231 -0.2795
 6313SOL    HW230573   2.672   1.460   3.247 -3.2702 -0.7342 -0.7616
 6314SOL     OW30574   1.849   1.432   5.528 -0.4469  0.0322 -0.2234
 6314SOL    HW130575   1.941   1.411   5.514  0.0169  1.7874  0.1401
 6314SOL    HW230576   1.828   1.468   5.442 -0.0756  0.1887 -0.2471
 6315SOL     OW30577   1.359   2.848   4.791 -0.5433  0.0499  0.4829
 6315SOL    HW130578   1.438   2.880   4.746 -0.3752  0.2608  0.9295
 6315SOL    HW230579   1.292   2.880   4.730  0.3475 -0.0884 -0.5661
 6316SOL     OW30580   3.653   3.516   6.800 -0.2293 -0.4016  0.3236
 6316SOL    HW130581   3.566   3.550   6.776 -0.8016 -2.5472 -0.6190
 6316SOL    HW230582   3.697   3.517   6.715 -0.1063 -0.5442  0.3882
 6317SOL     OW30583   3.620   1.291   9.908  0.8747  0.5414 -0.1406
 6317SOL    HW130584   3.664   1.372   9.882  0.9687  0.9232  1.2470
 6317SOL    HW230585   3.686   1.232   9.944  0.0831  1.4676  2.7679
 6318SOL     OW30586   3.697   4.423   8.452  0.4645  0.3006 -0.6471
 6318SOL    HW130587   3.648   4.345   8.477 -1.4118  1.4103 -0.8553
 6318SOL    HW230588   3.621   4.482   8.449  1.9310  2.1565 -1.2079
 6319SOL     OW30589   2.297   3.692   2.502 -0.0938  0.1501  0.2259
 6319SOL    HW130590   2.274   3.646   2.422  0.6570  2.7970 -1.5137
 6319SOL    HW230591   2.391   3.698   2.485 -0.2100 -1.4781 -0.9974
 6320SOL     OW30592   2.643   0.295   1.917  0.1352 -0.1729 -0.0622
 6320SOL    HW130593   2.590   0.290   1.838 -0.3062  0.7228  0.1669
 6320SOL    HW230594   2.606   0.228   1.975 -0.4301 -0.6058 -0.9303
 6321SOL     OW30595   0.614   1.526   5.124 -0.3242  0.1311 -0.2452
 6321SOL    HW130596   0.686   1.554   5.180 -1.5077  3.3772 -0.3795
 6321SOL    HW230597   0.616   1.584   5.048  0.9486 -1.8000 -1.6932
 6322SOL     OW30598   4.708   4.316   6.393  0.2044  0.5255  0.3234
 6322SOL    HW130599   4.657   4.236   6.408  0.9105 -0.4752 -2.6398
 6322SOL    HW230600   0.028   4.309   6.470  0.7272  0.4511 -0.0708
 6323SOL     OW30601   1.403   3.300  10.541  0.1606  0.5097  0.6291
 6323SOL    HW130602   1.344   3.225  10.546  0.5217  0.2445  0.9018
 6323SOL    HW230603   1.487   3.255  10.544  0.1165  0.2386 -2.0117
 6324SOL     OW30604   2.551   2.627   8.168 -0.9303 -0.6381 -0.4723
 6324SOL    HW130605   2.544   2.695   8.235  2.2216 -1.7212  0.9698
 6324SOL    HW230606   2.461   2.619   8.138 -1.7979  2.2122  1.4111
 6325SOL     OW30607   2.462   2.360   2.971 -0.3626  0.6144 -0.1613
 6325SOL    HW130608   2.389   2.323   3.021 -1.6143 -1.1054 -3.2318
 6325SOL    HW230609   2.517   2.409   3.031 -0.9512 -0.4272  1.2169
 6326SOL     OW30610   2.242   1.811  17.268 -0.4964 -0.3974 -0.0609
 6326SOL    HW130611   2.323   1.766  17.246  0.8851  0.9208  2.3775
 6326SOL    HW230612   2.280   1.886  17.313 -1.4940  1.2143 -1.9075
 6327SOL     OW30613   3.664   0.740   2.268  0.8745  0.3160 -0.0310
 6327SOL    HW130614   3.623   0.666   2.312  1.2979  2.0875  3.2768
 6327SOL    HW230615   3.758   0.724   2.281  0.6550 -1.6964 -0.9059
 6328SOL     OW30616   3.367   0.034   6.160 -0.3926 -0.1130 -0.6012
 6328SOL    HW130617   3.381   0.127   6.141  0.8986 -0.0690  0.5761
 6328SOL    HW230618   3.288   0.005   6.115 -1.1233 -0.5187  0.9399
 6329SOL     OW30619   2.833   4.562   8.061 -0.6507  0.3306 -0.0536
 6329SOL    HW130620   2.837   4.468   8.043 -0.2791  0.5918 -1.3614
 6329SOL    HW230621   2.815   4.594   7.972  3.9348  2.4506 -0.1740
 6330SOL     OW30622   1.546   1.761   8.603  0.3176 -0.0790  0.4502
 6330SOL    HW130623   1.524   1.726   8.689 -0.6521  1.9625  1.0162
 6330SOL    HW230624   1.549   1.855   8.618 -1.6853 -0.2294  1.6573
 6331SOL     OW30625   2.206   2.689   6.375  0.0681 -0.7381  0.2653
 6331SOL    HW130626   2.140   2.643   6.426 -0.1804 -0.7544 -0.0703
 6331SOL    HW230627   2.173   2.778   6.370  0.8890 -0.4028  0.8476
 6332SOL     OW30628   0.999   2.463   1.448  0.2426  0.3828 -0.3895
 6332SOL    HW130629   1.047   2.380   1.453 -2.7146 -1.1440  2.3120
 6332SOL    HW230630   0.913   2.447   1.486  0.4336 -3.8799 -1.7377
 6333SOL     OW30631   2.938   0.904   5.950  0.0972 -0.1061  0.3488
 6333SOL    HW130632   3.019   0.948   5.923  0.2644 -0.2517  0.6184
 6333SOL    HW230633   2.877   0.946   5.889  0.7382  1.0402  0.4884
 6334SOL     OW30634   2.288   0.641   6.050  0.6482  0.0470 -0.0862
 6334SOL    HW130635   2.240   0.560   6.066  1.8058 -0.0717  2.7935
 6334SOL    HW230636   2.224   0.705   6.080 -1.2041 -1.1572 -1.4354
 6335SOL     OW30637   0.634   3.912   4.674  0.1278  0.9064  0.3788
 6335SOL    HW130638   0.730   3.914   4.677  0.0857 -2.3406  4.3734
 6335SOL    HW230639   0.617   3.882   4.585  2.9367 -0.7020  0.3725
 6336SOL     OW30640   4.361   2.780   1.971  0.1586 -0.0810  0.0522
 6336SOL    HW130641   4.334   2.752   1.883  1.6742 -1.9670  0.1815
 6336SOL    HW230642   4.421   2.712   2.002 -0.6169 -0.3930  0.8588
 6337SOL     OW30643   4.318   2.673   5.544  0.4030 -0.2576 -0.0904
 6337SOL    HW130644   4.392   2.613   5.536  1.9217  1.7416 -1.3432
 6337SOL    HW230645   4.349   2.713   5.626  0.2912 -0.4715  0.0559
 6338SOL     OW30646   1.328   3.905   7.956  0.3480 -0.1779  0.2035
 6338SOL    HW130647   1.301   3.879   8.044 -3.5454  0.1206 -0.9026
 6338SOL    HW230648   1.326   3.821   7.910  0.8325 -0.8978  1.4883
 6339SOL     OW30649   4.123   2.191   4.603  0.1168  0.5349  0.4697
 6339SOL    HW130650   4.078   2.137   4.539 -1.5387  1.3042  1.0035
 6339SOL    HW230651   4.095   2.275   4.567 -0.0989 -0.0675 -0.7546
 6340SOL     OW30652   3.053   1.148   1.364  0.4177  0.6447 -0.2854
 6340SOL    HW130653   3.026   1.056   1.372 -0.5713  0.5200 -4.6309
 6340SOL    HW230654   3.000   1.182   1.436  0.5070  0.0057  0.0853
 6341SOL     OW30655   1.537   0.573   5.426  0.6653 -0.3753  0.4906
 6341SOL    HW130656   1.446   0.555   5.450  1.0395 -0.9955  1.4030
 6341SOL    HW230657   1.535   0.667   5.404 -1.0020 -0.4603  0.2625
 6342SOL     OW30658   0.751   3.112  12.141 -0.0106  0.2503 -0.1756
 6342SOL    HW130659   0.804   3.161  12.204  1.9184 -1.2480 -0.6208
 6342SOL    HW230660   0.674   3.099  12.196  1.4215  0.7510  1.9342
 6343SOL     OW30661   3.907   2.231   8.412 -0.3649  0.0914  0.0836
 6343SOL    HW130662   3.859   2.240   8.494  0.2627  0.0688  0.4516
 6343SOL    HW230663   3.955   2.311   8.433  2.2282 -1.1112 -1.1913
 6344SOL     OW30664   1.573   2.509   2.616 -0.1026 -0.4750 -0.6698
 6344SOL    HW130665   1.622   2.585   2.584  1.5950 -1.3529 -0.1772
 6344SOL    HW230666   1.482   2.538   2.618  0.5379  1.4659 -0.0424
 6345SOL     OW30667   4.433   2.006   3.949 -0.0195 -0.5012 -0.1453
 6345SOL    HW130668   4.439   2.054   4.031  3.3330 -0.2348 -0.5275
 6345SOL    HW230669   4.506   1.945   3.955  0.7967  0.3756 -1.1446
 6346SOL     OW30670   3.207   3.482   1.750  0.3127  0.4268  0.4746
 6346SOL    HW130671   3.146   3.552   1.727 -0.7383 -0.8985 -0.7957
 6346SOL    HW230672   3.137   3.421   1.775 -1.8672  2.1093 -1.6271
 6347SOL     OW30673   3.245   2.308   1.834  0.2690  0.2591 -0.0901
 6347SOL    HW130674   3.283   2.377   1.779  0.6154 -1.1521 -1.6396
 6347SOL    HW230675   3.227   2.239   1.770  1.6158 -0.5380  0.4073
 6348SOL     OW30676   0.131   0.231   3.059 -0.1164 -0.1894 -0.9107
 6348SOL    HW130677   0.192   0.164   3.088  1.1721  2.3617  2.3619
 6348SOL    HW230678   0.179   0.307   3.093 -1.2737  0.0408  0.2034
 6349SOL     OW30679   4.692   1.011   9.844 -0.5782  0.1321  0.3546
 6349SOL    HW130680   4.681   0.917   9.838 -0.7247  0.0716  1.5573
 6349SOL    HW230681   0.034   1.025   9.791 -0.4176 -1.2438  0.2440
 6350SOL     OW30682   0.989   3.183   3.487  0.1142  0.4103  0.1924
 6350SOL    HW130683   1.039   3.263   3.503 -2.4766  2.2896 -1.1152
 6350SOL    HW230684   0.911   3.200   3.540  0.3285 -0.8739  0.9371
 6351SOL     OW30685   1.147   4.629   4.254  0.7917  0.7061  0.2405
 6351SOL    HW130686   1.163   4.669   4.169  1.3147 -3.9517 -1.8999
 6351SOL    HW230687   1.055   4.653   4.253  0.7669  0.5866 -1.0818
 6352SOL     OW30688   0.673   2.073   9.696 -0.6408  0.3185  0.6663
 6352SOL    HW130689   0.595   2.044   9.744 -2.1680  3.3118  0.0161
 6352SOL    HW230690   0.648   2.076   9.604 -0.6577 -0.8036  0.6332
 6353SOL     OW30691   1.292   1.028   3.162 -0.5947  0.0151  0.2013
 6353SOL    HW130692   1.361   1.040   3.097 -0.9120  0.3103 -0.0808
 6353SOL    HW230693   1.255   1.117   3.168  2.6144  1.7489 -5.6445
 6354SOL     OW30694   4.631   3.214   3.544 -0.3207 -0.3992 -0.6063
 6354SOL    HW130695   4.593   3.149   3.485 -0.4650 -0.5339 -0.3620
 6354SOL    HW230696   4.670   3.278   3.484 -1.8904  1.5967  0.5036
 6355SOL     OW30697   0.848   1.696  15.941 -0.4944  0.2043 -0.1163
 6355SOL    HW130698   0.848   1.664  15.851  0.0185  0.0950 -0.0764
 6355SOL    HW230699   0.791   1.773  15.945 -0.9545 -0.1344 -0.2240
 6356SOL     OW30700   0.929   3.880  14.942 -0.4214  0.1553 -0.7659
 6356SOL    HW130701   0.986   3.808  14.970 -0.2617  1.0481  1.2310
 6356SOL    HW230702   0.939   3.950  15.007  0.2673 -0.8285  0.1996
 6357SOL     OW30703   4.734   4.736   2.870 -0.2215 -0.0320 -0.1733
 6357SOL    HW130704   0.030   4.665   2.816 -1.3257 -0.8645  0.2447
 6357SOL    HW230705   0.082   0.033   2.898 -0.4851 -0.0476  0.6456
 6358SOL     OW30706   3.933   3.709   6.494 -0.0328 -0.1783  0.3572
 6358SOL    HW130707   3.953   3.622   6.528  1.8576 -0.6875 -2.0267
 6358SOL    HW230708   3.838   3.705   6.502  0.0320  0.2799  1.2875
 6359SOL     OW30709   1.717   2.478  15.570  0.4089  0.0385  0.1470
 6359SOL    HW130710   1.762   2.403  15.611  1.0307 -0.2259 -1.0265
 6359SOL    HW230711   1.767   2.548  15.612 -2.3713  1.8190  0.4121
 6360SOL     OW30712   2.626   3.625   6.017  0.5490  0.1353 -0.2540
 6360SOL    HW130713   2.594   3.671   5.939 -0.2638 -2.1196 -1.2567
 6360SOL    HW230714   2.541   3.617   6.061  0.4195 -1.2784 -0.7595
 6361SOL     OW30715   2.758   0.203   0.511  0.5061  0.0165 -0.1212
 6361SOL    HW130716   2.746   0.293   0.480  2.7483  1.1602  2.2734
 6361SOL    HW230717   2.687   0.203   0.576  1.1915 -0.6730  0.6254
 6362SOL     OW30718   0.715   1.250   3.052  0.1173  0.0581 -0.0085
 6362SOL    HW130719   0.646   1.283   3.109  0.0308  1.7599 -1.1056
 6362SOL    HW230720   0.778   1.221   3.119  1.2867 -1.2661 -1.6779
 6363SOL     OW30721   4.462   2.106   2.753 -0.0772 -0.5819  0.2877
 6363SOL    HW130722   4.496   2.151   2.830  1.5400 -1.0754 -0.1314
 6363SOL    HW230723   4.488   2.015   2.765 -0.0012 -0.7791 -1.3414
 6364SOL     OW30724   0.090   0.749  17.012 -0.2024  0.2639 -0.2927
 6364SOL    HW130725   0.093   0.832  17.058 -3.2217 -1.1375  2.4314
 6364SOL    HW230726   0.063   0.694  17.086 -0.6489  0.9148  0.0311
 6365SOL     OW30727   0.682   1.792   5.621 -0.6745  0.1369  0.4457
 6365SOL    HW130728   0.761   1.846   5.620 -0.1576 -0.6318 -0.1124
 6365SOL    HW230729   0.617   1.858   5.644  0.3671  0.9716  0.9754
 6366SOL     OW30730   1.726   1.127   2.802 -0.0302 -0.6618 -0.3091
 6366SOL    HW130731   1.737   1.112   2.708 -2.1541  0.3041 -0.6993
 6366SOL    HW230732   1.819   1.121   2.825  0.2907  0.5126 -1.3124
 6367SOL     OW30733   0.403   4.633   6.726 -0.0589  0.2558  0.0376
 6367SOL    HW130734   0.357   4.666   6.649  1.5852 -0.4127 -1.2451
 6367SOL    HW230735   0.492   4.617   6.696  0.2764  0.5863  0.8619
 6368SOL     OW30736   1.787   3.627  16.882 -0.2751  0.0422  0.5724
 6368SOL    HW130737   1.692   3.622  16.886 -0.2672 -1.3014 -1.0470
 6368SOL    HW230738   1.803   3.561  16.814 -0.0843  0.8184 -0.1472
 6369SOL     OW30739   0.455   3.211   1.115  0.1661  0.0774 -0.7369
 6369SOL    HW130740   0.375   3.223   1.166  0.1199  0.5703 -0.9328
 6369SOL    HW230741   0.448   3.285   1.055 -2.6262  1.9785  1.9343
 6370SOL     OW30742   4.636   2.397   4.710  0.1156  0.0293 -0.8009
 6370SOL    HW130743   4.711   2.415   4.654 -0.8332  0.9255 -1.8096
 6370SOL    HW230744   4.668   2.436   4.791  0.4604 -2.0526  0.0642
 6371SOL     OW30745   2.106   4.444   5.937  0.3304 -0.0941  0.3568
 6371SOL    HW130746   2.175   4.390   5.899  0.7924 -0.7996  2.2129
 6371SOL    HW230747   2.030   4.386   5.937  3.2958 -3.9773 -0.0158
 6372SOL     OW30748   2.375   2.948   9.428  0.3684  0.3475 -0.1744
 6372SOL    HW130749   2.459   2.945   9.473 -0.1544  3.2949  0.9849
 6372SOL    HW230750   2.402   2.939   9.336 -1.3588  1.5536 -0.8030
 6373SOL     OW30751   2.828   3.588   2.780 -0.5719  0.1164 -0.3888
 6373SOL    HW130752   2.743   3.598   2.737  0.2855  1.0210 -1.8961
 6373SOL    HW230753   2.855   3.497   2.770  1.0547  0.3811  1.7050
 6374SOL     OW30754   4.307   1.020   8.860 -0.4850  0.1576 -0.2538
 6374SOL    HW130755   4.279   0.929   8.858  0.5581 -0.1838  0.5393
 6374SOL    HW230756   4.304   1.048   8.769  1.0359 -0.1234 -0.3774
 6375SOL     OW30757   1.627   4.700   8.778  0.1203 -0.5189 -0.0940
 6375SOL    HW130758   1.636   4.608   8.753 -1.2233  0.0004 -2.4919
 6375SOL    HW230759   1.718   4.727   8.788  0.0645 -0.8498  1.2646
 6376SOL     OW30760   3.585   0.460  17.524  0.5897 -0.6686 -1.0325
 6376SOL    HW130761   3.607   0.535  17.469 -1.8596  1.1173  0.4140
 6376SOL    HW230762   3.617   0.484  17.611  0.8848 -0.0641 -1.3096
 6377SOL     OW30763   2.075   2.856   8.365  0.1057 -0.1828 -0.2680
 6377SOL    HW130764   2.056   2.943   8.401  1.5638  0.7580 -1.7709
 6377SOL    HW230765   2.095   2.807   8.446 -2.3676  0.3835  0.6645
 6378SOL     OW30766   3.131   2.531  12.882  0.1648  1.1070 -1.1594
 6378SOL    HW130767   3.220   2.517  12.849 -0.3278  1.1508 -2.5290
 6378SOL    HW230768   3.125   2.457  12.942  0.2772  0.3373 -2.0984
 6379SOL     OW30769   2.052   1.808   8.570 -0.4316  0.0953 -0.4543
 6379SOL    HW130770   2.015   1.896   8.576  0.6598  0.4026  1.8060
 6379SOL    HW230771   1.974   1.764   8.537 -0.4010 -1.5287  1.6127
 6380SOL     OW30772   1.327   2.203   1.021 -0.1056  0.4957 -0.4152
 6380SOL    HW130773   1.269   2.139   1.062  0.6391  0.9038  1.2951
 6380SOL    HW230774   1.351   2.258   1.096 -0.7986  2.0005 -1.2920
 6381SOL     OW30775   0.559   3.923  16.079  0.5615  0.1928 -0.5687
 6381SOL    HW130776   0.541   3.964  16.163 -2.2425 -1.5436 -0.3176
 6381SOL    HW230777   0.642   3.882  16.105  0.1210 -0.1876  0.2406
 6382SOL     OW30778   2.660   0.753   3.123 -0.0345 -0.4893  0.0278
 6382SOL    HW130779   2.726   0.743   3.054  1.5398  2.4340  1.1521
 6382SOL    HW230780   2.614   0.832   3.094  2.4970  0.1417 -2.2682
 6383SOL     OW30781   1.816   0.629   2.124  0.1481 -0.3243 -0.2707
 6383SOL    HW130782   1.794   0.538   2.107 -0.0785 -0.6456  1.6639
 6383SOL    HW230783   1.742   0.674   2.084 -0.2118 -0.6665  0.0137
 6384SOL     OW30784   1.842   4.319   2.328  0.7777 -0.0860 -0.2829
 6384SOL    HW130785   1.938   4.321   2.334  0.5386  0.2529  3.4757
 6384SOL    HW230786   1.813   4.390   2.271 -0.1616 -0.0803  0.2028
 6385SOL     OW30787   1.044   4.627   0.790  0.1481 -0.3119 -0.0553
 6385SOL    HW130788   1.096   4.660   0.717 -1.9796  1.5173 -0.7361
 6385SOL    HW230789   1.096   4.550   0.814 -0.4434 -1.0877 -1.2633
 6386SOL     OW30790   0.249   4.699   8.069 -0.0478 -0.6401  0.2691
 6386SOL    HW130791   0.221   0.033   8.128  1.0209  0.7098 -0.8497
 6386SOL    HW230792   0.167   4.660   8.039  0.7657 -0.6582 -1.8762
 6387SOL     OW30793   2.320   0.292   6.764  0.0023  0.2997 -0.1356
 6387SOL    HW130794   2.286   0.287   6.674  0.5369 -0.8124 -0.2775
 6387SOL    HW230795   2.403   0.244   6.753 -0.3144  0.1380 -1.9232
 6388SOL     OW30796   0.977   1.836   8.038  0.5517  0.7869  0.2570
 6388SOL    HW130797   0.943   1.856   7.951  0.5518  0.5015  0.1912
 6388SOL    HW230798   0.937   1.750   8.046 -1.6851  1.8345  0.2035
 6389SOL     OW30799   2.509   1.520  13.162  0.2024 -0.8686  0.3433
 6389SOL    HW130800   2.521   1.429  13.189 -0.7346 -0.8728  0.7364
 6389SOL    HW230801   2.419   1.508  13.132  0.5323  0.1002 -1.0560
 6390SOL     OW30802   4.319   4.382   9.872  0.1689 -0.5404  0.3905
 6390SOL    HW130803   4.261   4.457   9.867 -0.6378 -1.1714  0.3134
 6390SOL    HW230804   4.373   4.390   9.793 -0.3797 -1.2982 -0.0596
 6391SOL     OW30805   1.903   2.812   0.511 -0.1363  0.4426 -0.0119
 6391SOL    HW130806   1.878   2.720   0.517  2.4442 -0.2287  0.2840
 6391SOL    HW230807   1.890   2.836   0.419  0.3080 -0.9289 -0.4331
 6392SOL     OW30808   2.244   0.325   7.844  0.3814  0.0152  0.2463
 6392SOL    HW130809   2.239   0.232   7.864 -0.1902 -0.4226 -2.0265
 6392SOL    HW230810   2.339   0.339   7.845  0.4510 -0.5199  1.2047
 6393SOL     OW30811   3.621   3.016   1.589 -0.0381  0.4661  0.3422
 6393SOL    HW130812   3.566   3.090   1.615 -0.5797 -0.0574  0.6812
 6393SOL    HW230813   3.702   3.035   1.635  0.1572  0.9308 -0.1901
 6394SOL     OW30814   1.799   2.411   1.997  0.1437 -0.4757 -0.2829
 6394SOL    HW130815   1.892   2.404   2.017  0.4156  1.2516 -0.9310
 6394SOL    HW230816   1.780   2.501   2.025  0.5108 -0.2786 -0.6759
 6395SOL     OW30817   2.554   2.382  11.300  0.1161 -0.0396 -0.4202
 6395SOL    HW130818   2.561   2.475  11.281  1.5420 -0.1619 -0.5057
 6395SOL    HW230819   2.460   2.365  11.296 -0.1270  0.9203  1.6213
 6396SOL     OW30820   2.830   4.179   3.690 -0.2845 -0.0704 -0.0254
 6396SOL    HW130821   2.761   4.233   3.728  0.5803  0.3755  0.9484
 6396SOL    HW230822   2.787   4.105   3.647 -3.3983  2.6380 -1.5247
 6397SOL     OW30823   2.630   3.673   3.336 -0.2641 -0.2418  0.7754
 6397SOL    HW130824   2.668   3.586   3.336 -0.3647 -0.2817 -0.4710
 6397SOL    HW230825   2.620   3.666   3.241  2.1263 -0.6237  0.5624
 6398SOL     OW30826   3.826   0.960   5.526 -0.2660  0.0283 -0.4769
 6398SOL    HW130827   3.825   1.012   5.606  0.4692 -1.0403  0.2136
 6398SOL    HW230828   3.899   1.003   5.482  1.7429 -3.3152 -0.4376
 6399SOL     OW30829   4.507   3.780   8.740 -0.5143 -0.2394  0.0124
 6399SOL    HW130830   4.517   3.828   8.822 -0.7223  0.2819 -0.2661
 6399SOL    HW230831   4.584   3.811   8.693  0.6046 -0.6558  1.5677
 6400SOL     OW30832   1.762   1.716  12.055 -0.0200 -0.3339 -0.0067
 6400SOL    HW130833   1.800   1.631  12.031  0.8107  0.8526 -2.8937
 6400SOL    HW230834   1.693   1.671  12.105 -0.7112 -0.4178 -1.0365
 6401SOL     OW30835   1.451   2.394   9.628 -0.1821 -0.3624 -0.3471
 6401SOL    HW130836   1.542   2.400   9.600 -0.6955  2.4427 -1.4263
 6401SOL    HW230837   1.417   2.323   9.575  1.0115  0.2619 -1.9301
 6402SOL     OW30838   1.376   1.306   5.510  0.2345 -0.1219  0.0228
 6402SOL    HW130839   1.359   1.371   5.579  0.1601 -2.8355  2.5629
 6402SOL    HW230840   1.358   1.223   5.556 -2.0683  0.2582 -0.1648
 6403SOL     OW30841   1.625   4.245   1.647  0.5655 -0.2221 -0.2115
 6403SOL    HW130842   1.630   4.150   1.658 -1.8562 -0.2584  0.7049
 6403SOL    HW230843   1.686   4.257   1.575 -1.2286  2.2619 -1.3320
 6404SOL     OW30844   1.668   2.258   8.486 -0.4488 -0.2223  0.0081
 6404SOL    HW130845   1.760   2.267   8.462 -0.8546 -2.0499 -2.2131
 6404SOL    HW230846   1.672   2.309   8.567  2.9670 -0.4277 -0.0513
 6405SOL     OW30847   2.558   2.779   3.750  0.5752 -0.1062 -0.3372
 6405SOL    HW130848   2.476   2.768   3.702  1.4233 -1.9782 -1.3378
 6405SOL    HW230849   2.607   2.835   3.690  0.2694  1.6649  1.0715
 6406SOL     OW30850   2.026   1.903   9.431  0.1395 -0.2808  0.5607
 6406SOL    HW130851   2.069   1.968   9.376 -3.1207  0.8628 -0.6450
 6406SOL    HW230852   1.949   1.884   9.377 -0.3716 -0.7031  1.4478
 6407SOL     OW30853   2.923   3.973   5.933  0.4212 -0.0366  0.1031
 6407SOL    HW130854   2.887   3.913   5.868 -0.6206  1.5599 -0.7995
 6407SOL    HW230855   2.922   3.921   6.013 -1.2212 -0.4950 -0.2079
 6408SOL     OW30856   3.448   0.353   2.683 -0.1107  0.2536 -0.2335
 6408SOL    HW130857   3.477   0.396   2.763 -2.3161  1.8014 -0.2543
 6408SOL    HW230858   3.519   0.292   2.661  1.2691  1.0239  2.0705
 6409SOL     OW30859   3.589   2.345   1.902  0.2206 -0.2658  0.2655
 6409SOL    HW130860   3.621   2.417   1.957  0.5129 -0.7844  0.7767
 6409SOL    HW230861   3.518   2.309   1.955 -0.4640 -0.3371 -0.6861
 6410SOL     OW30862   1.732   3.734   3.919  0.4975 -0.3025  0.0154
 6410SOL    HW130863   1.671   3.799   3.885  2.0086  0.9114 -0.4009
 6410SOL    HW230864   1.685   3.658   3.885 -0.6237  0.4564 -0.1105
 6411SOL     OW30865   2.647   1.248   1.162  0.2786  0.6104 -0.4520
 6411SOL    HW130866   2.699   1.326   1.143  0.2191  0.8333  0.2811
 6411SOL    HW230867   2.687   1.187   1.099  0.5910  1.1615 -0.7878
 6412SOL     OW30868   0.766   2.466  14.488  0.7041  0.1047 -0.3589
 6412SOL    HW130869   0.769   2.425  14.401 -1.1517 -3.7203  1.4075
 6412SOL    HW230870   0.827   2.541  14.487 -0.5758  1.1503 -0.1896
 6413SOL     OW30871   1.805   2.972  12.820  0.0969  0.1757  0.1192
 6413SOL    HW130872   1.858   2.893  12.827  1.4904  1.2108  1.1804
 6413SOL    HW230873   1.806   2.987  12.725 -0.3328 -2.7255 -0.3480
 6414SOL     OW30874   4.515   1.968   9.734 -0.1171  0.1018  0.2092
 6414SOL    HW130875   4.428   1.982   9.697 -1.3102 -1.5414  2.3931
 6414SOL    HW230876   4.506   1.874   9.744  1.7500 -0.1604 -0.4235
 6415SOL     OW30877   3.975   1.994   3.306 -0.5519  0.2364 -0.4002
 6415SOL    HW130878   3.967   1.970   3.214 -0.3468 -1.5101  0.0398
 6415SOL    HW230879   4.063   2.032   3.306 -1.2836  1.9211 -1.4631
 6416SOL     OW30880   1.030   3.153  14.576 -0.0368 -0.3838  0.6154
 6416SOL    HW130881   1.070   3.226  14.529 -1.0883 -0.3778 -0.2964
 6416SOL    HW230882   0.970   3.201  14.633  0.7725  0.0027  1.1375
 6417SOL     OW30883   1.996   0.739   4.223  0.1423 -0.4377 -0.3774
 6417SOL    HW130884   1.980   0.823   4.267  0.7090 -0.5135 -0.0265
 6417SOL    HW230885   1.971   0.753   4.132 -1.4682  0.6800  0.2307
 6418SOL     OW30886   2.406   0.453   8.152 -0.8043 -0.0137 -0.1467
 6418SOL    HW130887   2.490   0.411   8.171 -0.2307  1.9489  1.5781
 6418SOL    HW230888   2.343   0.381   8.157  0.6437 -1.0495  2.6704
 6419SOL     OW30889   3.683   1.933   9.401 -0.2405 -0.1766 -0.1599
 6419SOL    HW130890   3.604   1.983   9.417 -0.4785 -0.3735 -0.7113
 6419SOL    HW230891   3.647   1.848   9.374 -0.1221 -0.4129  0.4229
 6420SOL     OW30892   2.058   1.082  16.910  0.1422 -0.3826 -0.3645
 6420SOL    HW130893   2.137   1.048  16.868 -0.3639 -1.4118 -0.4865
 6420SOL    HW230894   2.008   1.116  16.835 -0.0244 -0.5995 -0.3503
 6421SOL     OW30895   2.318   4.710   5.451  0.7526 -0.3627  0.3207
 6421SOL    HW130896   2.336   4.637   5.510 -0.2287  1.2497  2.6236
 6421SOL    HW230897   2.317   0.048   5.510 -1.0680 -1.0718  1.1848
 6422SOL     OW30898   1.764   4.319   2.049  0.2238  0.0720 -0.1059
 6422SOL    HW130899   1.767   4.224   2.060 -0.3142 -0.0249 -0.8091
 6422SOL    HW230900   1.682   4.344   2.093 -0.0089 -0.4698 -0.2375
 6423SOL     OW30901   3.929   3.474  12.023 -0.3167  0.0270  0.4141
 6423SOL    HW130902   3.902   3.432  12.105 -1.7636 -1.6863 -0.9248
 6423SOL    HW230903   3.980   3.549  12.052  0.3097  0.1629 -1.0900
 6424SOL     OW30904   0.854   1.307   8.176  0.4675  0.7323 -0.0080
 6424SOL    HW130905   0.783   1.326   8.237  0.6395  1.3454 -0.0025
 6424SOL    HW230906   0.880   1.222   8.212 -0.5160 -0.9013 -3.2176
 6425SOL     OW30907   3.440   3.872   7.491 -0.2514 -0.6342 -0.3363
 6425SOL    HW130908   3.392   3.954   7.505 -1.5191 -1.5041  0.3653
 6425SOL    HW230909   3.385   3.802   7.526 -2.1009  0.4337 -1.0921
 6426SOL     OW30910   2.523   3.439  17.088  0.3402 -0.4320  0.2123
 6426SOL    HW130911   2.464   3.424  17.161 -1.6686 -0.7679 -1.4723
 6426SOL    HW230912   2.495   3.363  17.037  0.3052 -0.0313 -0.3646
 6427SOL     OW30913   4.062   2.873   1.418  0.4816  0.5504 -0.3177
 6427SOL    HW130914   4.151   2.881   1.384 -0.3011  1.1333 -2.2417
 6427SOL    HW230915   4.050   2.778   1.416  2.6062  0.3060 -1.6367
 6428SOL     OW30916   0.587   2.212   3.099  0.0377  0.0425 -0.1146
 6428SOL    HW130917   0.532   2.290   3.091  0.0440  0.0803  0.2285
 6428SOL    HW230918   0.628   2.226   3.014  2.2611 -2.0265  0.6276
 6429SOL     OW30919   2.483   3.464   9.476  0.0030 -0.7499 -0.1059
 6429SOL    HW130920   2.458   3.555   9.494 -0.2215 -1.4459  3.0626
 6429SOL    HW230921   2.578   3.476   9.477 -0.2134  0.9627  0.3684
 6430SOL     OW30922   2.246   0.161   1.981  0.3021  0.5440  0.3185
 6430SOL    HW130923   2.226   0.202   1.897 -2.4737  0.0273  0.7060
 6430SOL    HW230924   2.195   0.224   2.033 -1.4487 -0.3397 -0.3235
 6431SOL     OW30925   0.312   3.865   5.682 -0.7424  0.5095  0.1017
 6431SOL    HW130926   0.287   3.850   5.773 -2.2340  0.1689 -0.3563
 6431SOL    HW230927   0.404   3.887   5.698 -1.0412 -0.1890  2.7947
 6432SOL     OW30928   3.268   2.623   2.522  0.5583 -0.3900 -0.2066
 6432SOL    HW130929   3.174   2.609   2.518  0.6393 -0.6871 -1.1375
 6432SOL    HW230930   3.280   2.694   2.585 -0.7224 -0.0471 -0.3463
 6433SOL     OW30931   2.691   4.104   1.518 -0.2135  0.0174 -0.2868
 6433SOL    HW130932   2.724   4.034   1.573  1.3609 -0.5829 -2.0082
 6433SOL    HW230933   2.748   4.100   1.441  1.7058 -0.0055  1.1386
 6434SOL     OW30934   3.002   2.464  15.874  0.1595 -0.3068  0.2002
 6434SOL    HW130935   3.050   2.393  15.831  0.8289 -1.7259  3.2475
 6434SOL    HW230936   3.067   2.523  15.914  2.6864 -0.1909 -4.0569
 6435SOL     OW30937   3.438   4.224   4.731 -0.2658  0.2938  0.0663
 6435SOL    HW130938   3.391   4.304   4.706  1.1301  1.0400 -0.1466
 6435SOL    HW230939   3.491   4.207   4.653  1.1315  0.2350  1.0423
 6436SOL     OW30940   3.844   3.258   2.671  0.1749 -0.5853 -0.0956
 6436SOL    HW130941   3.842   3.188   2.606 -0.9946 -0.7622  0.1286
 6436SOL    HW230942   3.926   3.296   2.640 -0.2877  0.4169 -0.0807
 6437SOL     OW30943   2.431   1.110  15.679 -0.0325 -0.3865  0.3163
 6437SOL    HW130944   2.488   1.176  15.640 -0.2518 -0.2851  0.1674
 6437SOL    HW230945   2.491   1.077  15.746  1.3977 -0.1884 -0.8984
 6438SOL     OW30946   4.007   0.484  17.116 -0.1522 -0.2497  1.1504
 6438SOL    HW130947   4.041   0.445  17.035  0.8396  2.9949  0.0082
 6438SOL    HW230948   3.928   0.434  17.135  0.0560 -1.1345 -0.2684
 6439SOL     OW30949   0.983   2.852   1.412  0.2115  0.5685  0.3872
 6439SOL    HW130950   1.011   2.781   1.355  0.7011  1.0493  0.0374
 6439SOL    HW230951   0.925   2.808   1.475  1.1209 -3.5724 -1.7273
 6440SOL     OW30952   4.733   0.554   2.590 -0.1361  0.3654  0.4652
 6440SOL    HW130953   4.658   0.520   2.541  1.2242 -0.3411 -1.1593
 6440SOL    HW230954   0.056   0.479   2.585 -0.8046 -0.1513  0.2617
 6441SOL     OW30955   0.395   2.429  17.604  0.0501  0.3291  0.3577
 6441SOL    HW130956   0.436   2.516  17.603  1.1381 -0.1887 -0.1754
 6441SOL    HW230957   0.456   2.378  17.550  1.3210 -0.2900  2.3782
 6442SOL     OW30958   1.662   0.463   5.691  0.2000  0.2609 -0.0080
 6442SOL    HW130959   1.608   0.494   5.764  1.8263  2.0180  0.4760
 6442SOL    HW230960   1.604   0.487   5.619  0.0751  0.7462  0.2556
 6443SOL     OW30961   0.244   4.018   5.472 -0.7792  0.1962  0.2613
 6443SOL    HW130962   0.156   3.981   5.481 -0.4233 -1.1060 -1.6315
 6443SOL    HW230963   0.290   3.962   5.534 -1.2451 -0.5971 -0.1016
 6444SOL     OW30964   3.208   2.136   4.556 -0.3673 -0.3782  1.3561
 6444SOL    HW130965   3.186   2.043   4.550 -1.3635 -0.0262 -0.6226
 6444SOL    HW230966   3.303   2.136   4.541 -0.7613 -0.2428 -1.2948
 6445SOL     OW30967   4.154   3.703  10.873  0.7483 -0.1877 -0.0042
 6445SOL    HW130968   4.173   3.796  10.863 -0.4901  0.0858  0.1911
 6445SOL    HW230969   4.174   3.674  10.783  0.1376  0.2641 -0.2856
 6446SOL     OW30970   4.368   1.704   5.966 -0.5823  0.1092  0.5177
 6446SOL    HW130971   4.389   1.780   5.912  1.4106  0.7953  2.2365
 6446SOL    HW230972   4.287   1.728   6.012 -1.4405 -1.6557 -0.0638
 6447SOL     OW30973   2.086   0.806   6.156  0.3791  0.0601  0.6860
 6447SOL    HW130974   2.139   0.757   6.219  2.9367 -0.5766 -1.9920
 6447SOL    HW230975   2.086   0.888   6.206 -0.3244 -0.0941  0.9452
 6448SOL     OW30976   3.704   0.138   4.948 -0.1260  0.1703  0.1838
 6448SOL    HW130977   3.708   0.158   5.041  1.0860 -2.1089  0.6151
 6448SOL    HW230978   3.753   0.204   4.899  2.2528 -1.6820  0.0996
 6449SOL     OW30979   1.472   1.905  15.935  0.8156  0.0768 -0.0190
 6449SOL    HW130980   1.391   1.919  15.886  1.1922 -0.7002 -0.8739
 6449SOL    HW230981   1.541   1.965  15.904 -0.1032  0.3690 -1.5283
 6450SOL     OW30982   0.314   0.026  12.389 -0.1022 -0.0081 -0.7864
 6450SOL    HW130983   0.396   4.713  12.388 -1.8395 -2.8635 -1.0994
 6450SOL    HW230984   0.253   4.725  12.326 -2.4376 -0.0553  1.4661
 6451SOL     OW30985   3.054   3.544   4.020  0.3962  0.4038 -0.1081
 6451SOL    HW130986   2.979   3.599   4.043  0.4115  0.2715  0.2447
 6451SOL    HW230987   3.097   3.565   4.103  0.4351  1.4368 -0.3819
 6452SOL     OW30988   3.042   3.629  16.132 -0.0074 -0.4383  0.4346
 6452SOL    HW130989   2.956   3.671  16.138  0.4163  0.0463  3.0336
 6452SOL    HW230990   3.087   3.707  16.164  2.1829 -1.8880  0.8936
 6453SOL     OW30991   2.249   4.330  12.861 -0.6048  0.0847  0.1416
 6453SOL    HW130992   2.178   4.386  12.827 -0.5150 -0.3806 -0.8038
 6453SOL    HW230993   2.288   4.294  12.782  1.1218 -2.0997  1.9758
 6454SOL     OW30994   3.307   4.437   4.600  0.0021 -0.0978  0.0009
 6454SOL    HW130995   3.365   4.475   4.533  0.1701 -0.1421  0.1221
 6454SOL    HW230996   3.220   4.447   4.560 -0.3147 -1.3427  0.3956
 6455SOL     OW30997   0.366   4.712   1.240 -0.0832 -0.0970 -0.2367
 6455SOL    HW130998   0.367   4.647   1.310 -1.6182 -0.6268 -0.7041
 6455SOL    HW230999   0.450   0.017   1.258 -0.1521  2.2845 -5.2828
 6456SOL     OW31000   1.541   4.416   2.562 -0.8521 -0.2597 -0.0075
 6456SOL    HW131001   1.448   4.394   2.554 -0.7524 -0.1163 -1.3919
 6456SOL    HW231002   1.561   4.396   2.471  1.3111 -1.3210  0.7076
 6457SOL     OW31003   2.032   0.193   3.658 -0.2298 -0.0085  0.6512
 6457SOL    HW131004   2.055   0.286   3.659  0.5433 -0.1744 -0.7861
 6457SOL    HW231005   1.938   0.202   3.646 -0.0262 -0.3875 -1.3254
 6458SOL     OW31006   2.966   2.343   3.814 -0.0546 -0.3968 -0.2109
 6458SOL    HW131007   3.044   2.371   3.767  0.0074 -1.4844 -0.7507
 6458SOL    HW231008   2.912   2.346   3.735  0.6811 -0.1128 -0.7036
 6459SOL     OW31009   0.736   2.167   7.122 -0.0777  0.1170  0.1782
 6459SOL    HW131010   0.735   2.256   7.155  2.3348  0.1609  0.1003
 6459SOL    HW231011   0.824   2.179   7.086 -0.5131  0.7183 -0.6960
 6460SOL     OW31012   2.100   1.963  15.797 -0.4522 -0.5646  0.2935
 6460SOL    HW131013   2.050   1.891  15.758  0.7818 -0.4741 -1.4612
 6460SOL    HW231014   2.139   1.928  15.877  0.9971  0.1804 -0.0931
 6461SOL     OW31015   4.226   2.540   9.911 -0.2678 -0.6604 -0.1700
 6461SOL    HW131016   4.171   2.614   9.935 -0.5278 -0.4972 -1.2902
 6461SOL    HW231017   4.287   2.583   9.850 -0.0144 -1.3835 -0.4305
 6462SOL     OW31018   0.312   3.333   6.795  0.4264 -0.0991  0.5295
 6462SOL    HW131019   0.297   3.268   6.726  0.1442  0.6710 -0.1410
 6462SOL    HW231020   0.298   3.278   6.872  1.3368  0.7224  1.2784
 6463SOL     OW31021   0.605   3.705   2.964 -0.7871  0.3526  0.2397
 6463SOL    HW131022   0.537   3.640   2.977  0.5865 -1.4331 -1.4176
 6463SOL    HW231023   0.612   3.745   3.051  1.1644 -0.6966  0.5679
 6464SOL     OW31024   3.099   3.366  17.468 -0.1114  0.0219 -0.1734
 6464SOL    HW131025   3.100   3.446  17.521 -0.1004  0.6140 -1.0760
 6464SOL    HW231026   3.021   3.332  17.513  0.7464 -0.1217  1.1851
 6465SOL     OW31027   2.474   3.169  15.897  0.4596 -0.4590  0.1137
 6465SOL    HW131028   2.511   3.255  15.914 -0.3760 -0.4018  1.6604
 6465SOL    HW231029   2.509   3.152  15.809  0.9107  1.4312 -0.0749
 6466SOL     OW31030   4.071   3.824  14.660  0.0923 -0.1722 -0.0283
 6466SOL    HW131031   4.023   3.907  14.661 -0.3422 -0.4423  1.3312
 6466SOL    HW231032   4.052   3.796  14.570  1.7394  0.9802 -0.7156
 6467SOL     OW31033   2.228   0.868   3.684 -0.1535 -0.4745  0.1306
 6467SOL    HW131034   2.286   0.823   3.622  0.4621  1.5855 -0.7791
 6467SOL    HW231035   2.212   0.798   3.748  2.9644 -0.5174  0.8891
 6468SOL     OW31036   3.434   0.125   1.660  0.0186  0.8328  0.7202
 6468SOL    HW131037   3.373   0.183   1.613  1.1732  0.7217 -0.9113
 6468SOL    HW231038   3.472   0.198   1.710  0.0768 -0.1499  2.1098
 6469SOL     OW31039   3.679   3.515   3.057  0.5730  0.3436  0.2855
 6469SOL    HW131040   3.717   3.544   2.974  0.2481  2.1391  0.7612
 6469SOL    HW231041   3.756   3.524   3.113 -1.1946  1.9953  2.4492
 6470SOL     OW31042   3.573   0.337   5.638  0.0045  0.0130 -0.7158
 6470SOL    HW131043   3.600   0.381   5.718  1.3258 -0.3183 -0.9889
 6470SOL    HW231044   3.576   0.247   5.671  2.6957 -0.0835 -1.2934
 6471SOL     OW31045   2.865   2.546   4.966  0.3882  0.3545  0.0302
 6471SOL    HW131046   2.954   2.526   4.937  0.9692  1.0432  1.3647
 6471SOL    HW231047   2.878   2.596   5.046  0.9332  1.5966 -0.8470
 6472SOL     OW31048   3.933   2.654   7.481 -0.5325  0.3782  0.9741
 6472SOL    HW131049   3.839   2.667   7.471 -0.7411 -1.7596  0.1031
 6472SOL    HW231050   3.942   2.559   7.476 -0.5324  0.5407 -2.2429
 6473SOL     OW31051   0.996   4.301   8.213  0.4277 -0.2792 -0.0885
 6473SOL    HW131052   1.090   4.319   8.208  0.9528 -2.4601  1.7336
 6473SOL    HW231053   0.974   4.374   8.154 -1.3507 -0.5260  0.2655
 6474SOL     OW31054   4.360   4.658   8.998 -0.5024  0.0303  0.0549
 6474SOL    HW131055   4.366   0.015   8.980  0.1429  0.0013  0.1240
 6474SOL    HW231056   4.268   4.637   8.985  0.3469 -3.2513 -0.6950
 6475SOL     OW31057   4.691   2.623  14.390  0.5574  0.6126  0.4436
 6475SOL    HW131058   0.039   2.629  14.348  0.2054  0.3992 -0.2954
 6475SOL    HW231059   4.674   2.713  14.418  1.4636  0.6524  0.8510
 6476SOL     OW31060   3.011   2.363   6.200 -0.1540  0.2079  0.2878
 6476SOL    HW131061   2.945   2.294   6.198  1.2703 -1.0632 -2.4563
 6476SOL    HW231062   2.962   2.446   6.203 -0.8547 -0.2055  0.4357
 6477SOL     OW31063   3.176   4.063   9.138  0.0959  0.0228 -0.1824
 6477SOL    HW131064   3.123   4.142   9.125  1.7568  1.1121 -0.3186
 6477SOL    HW231065   3.191   4.069   9.233 -0.2131 -0.0413 -0.1303
 6478SOL     OW31066   2.438   0.773   8.539 -0.3349  0.0328  0.0837
 6478SOL    HW131067   2.500   0.844   8.558 -0.5192  0.6947 -1.7705
 6478SOL    HW231068   2.468   0.697   8.588  0.5750 -0.3903 -1.1161
 6479SOL     OW31069   1.136   1.493   6.645  0.8463  0.2550 -0.0315
 6479SOL    HW131070   1.114   1.550   6.571 -0.4018  0.1461  0.2568
 6479SOL    HW231071   1.227   1.509   6.670  0.9447 -0.3472  0.0029
 6480SOL     OW31072   1.066   3.756  12.644 -0.2250  0.5736 -0.1120
 6480SOL    HW131073   1.139   3.813  12.669  0.8618 -1.1434  0.5989
 6480SOL    HW231074   1.079   3.686  12.708 -0.2311 -0.4164 -1.2125
 6481SOL     OW31075   1.054   0.135  14.393  0.3248 -0.6571  0.6308
 6481SOL    HW131076   0.976   0.181  14.362 -0.1845 -2.1641 -0.3256
 6481SOL    HW231077   1.006   0.066  14.439 -0.8274 -0.8436 -0.8395
 6482SOL     OW31078   4.279   4.478   2.961  0.4662 -0.6295  0.1959
 6482SOL    HW131079   4.236   4.495   3.044 -0.5752 -0.6577 -0.3334
 6482SOL    HW231080   4.218   4.440   2.898 -2.4132  1.2684  1.8564
 6483SOL     OW31081   1.844   2.921   5.814  0.0938 -0.5758  0.4653
 6483SOL    HW131082   1.873   3.011   5.826 -0.2760 -0.2527 -1.0546
 6483SOL    HW231083   1.800   2.904   5.897 -0.5008 -0.2475  0.2192
 6484SOL     OW31084   1.766   3.057   8.407 -0.0725  0.0283 -0.1731
 6484SOL    HW131085   1.774   3.072   8.313  1.0437 -2.0481 -0.3945
 6484SOL    HW231086   1.858   3.048   8.431  0.2205  0.7564 -1.0233
 6485SOL     OW31087   0.362   1.638   8.326  0.9229  0.4087 -0.0951
 6485SOL    HW131088   0.305   1.576   8.371  0.3911  0.5183 -0.6122
 6485SOL    HW231089   0.367   1.594   8.241 -3.1700  3.3958 -1.8892
 6486SOL     OW31090   2.618   2.755   8.740 -0.1263  0.1194  0.1875
 6486SOL    HW131091   2.668   2.829   8.775  1.1695 -1.2844  1.3120
 6486SOL    HW231092   2.545   2.790   8.690 -0.2832 -0.6623 -0.1435
 6487SOL     OW31093   2.930   1.942   2.113  0.2103  0.2162  0.2965
 6487SOL    HW131094   2.880   1.918   2.035  0.9431  0.5520 -0.2795
 6487SOL    HW231095   3.017   1.925   2.077  1.3138  2.6653  1.7535
 6488SOL     OW31096   1.303   0.720   4.733 -0.1837  0.7774  0.6819
 6488SOL    HW131097   1.347   0.723   4.818  1.5426 -1.2509 -0.1429
 6488SOL    HW231098   1.216   0.751   4.759 -0.5381  1.5706 -1.4946
 6489SOL     OW31099   1.059   4.442   0.008  0.0577  0.2958 -0.1181
 6489SOL    HW131100   0.993   4.433  17.685  1.2435 -3.2979 -0.8184
 6489SOL    HW231101   1.058   4.537   0.017  0.7918  0.2515  0.4513
 6490SOL     OW31102   0.035   1.703   3.471 -0.5846 -0.2699  0.6848
 6490SOL    HW131103   4.701   1.757   3.433 -0.5641 -1.5385 -1.1590
 6490SOL    HW231104   4.716   1.651   3.529  1.0794 -1.1014  1.5011
 6491SOL     OW31105   2.210   2.104   7.787  0.1946 -0.4325 -0.0860
 6491SOL    HW131106   2.235   2.016   7.758  0.2950 -0.5344  0.3023
 6491SOL    HW231107   2.236   2.157   7.713 -1.3600 -0.1230 -0.3929
 6492SOL     OW31108   3.153   3.430   7.391 -0.2500 -0.3422 -0.0785
 6492SOL    HW131109   3.223   3.366   7.378 -0.2882 -0.1368 -1.2924
 6492SOL    HW231110   3.102   3.416   7.312 -1.0254 -0.9973  0.5400
 6493SOL     OW31111   2.179   0.325   2.435 -0.1877 -0.0219 -1.0550
 6493SOL    HW131112   2.175   0.229   2.437 -2.5486  0.1735  2.9321
 6493SOL    HW231113   2.085   0.339   2.440 -0.2321 -0.4834 -0.5792
 6494SOL     OW31114   2.700   4.162   0.790 -0.2094 -0.1158 -0.2237
 6494SOL    HW131115   2.669   4.229   0.730 -1.6121  1.1844  1.9299
 6494SOL    HW231116   2.789   4.193   0.811  0.3792 -1.8696 -0.1373
 6495SOL     OW31117   2.644   0.910   5.691 -0.1547 -0.2095 -1.0509
 6495SOL    HW131118   2.557   0.881   5.718  0.6498 -0.5041  1.2937
 6495SOL    HW231119   2.615   0.986   5.641  3.1224  0.5498 -1.8134
 6496SOL     OW31120   2.514   2.211   0.671  0.2408  0.0298 -0.8126
 6496SOL    HW131121   2.479   2.245   0.588 -0.3342  1.7402  0.1321
 6496SOL    HW231122   2.562   2.290   0.699 -2.1472  1.1514  0.0516
 6497SOL     OW31123   4.728   4.045  12.251  0.7251  0.4982 -0.1246
 6497SOL    HW131124   0.085   4.032  12.234  0.5267  1.6368 -2.0461
 6497SOL    HW231125   4.733   4.120  12.311  0.5739  1.0887 -0.8571
 6498SOL     OW31126   2.121   4.360   6.471  0.2396 -0.3821 -0.2031
 6498SOL    HW131127   2.072   4.348   6.390 -0.2236 -0.5852  0.1097
 6498SOL    HW231128   2.086   4.445   6.499  0.5390  0.0788 -1.2319
 6499SOL     OW31129   1.748   0.583   4.769 -0.1587  0.1675 -0.2575
 6499SOL    HW131130   1.807   0.633   4.826 -0.0173 -0.3545  0.0603
 6499SOL    HW231131   1.702   0.646   4.714  0.7867 -0.1075 -1.3574
 6500SOL     OW31132   1.755   0.395  11.932  0.3794 -0.8435 -0.0291
 6500SOL    HW131133   1.830   0.453  11.938  1.2665 -1.9425 -0.4583
 6500SOL    HW231134   1.733   0.386  11.840 -0.2656 -0.6681  0.1028
 6501SOL     OW31135   3.831   1.147  10.965  0.3261 -0.5384 -0.1318
 6501SOL    HW131136   3.844   1.237  10.935 -1.9905 -0.5271 -1.0338
 6501SOL    HW231137   3.741   1.126  10.941 -0.1433 -0.9014  1.9821
 6502SOL     OW31138   4.210   4.547  14.330  0.0579  0.4907 -0.0001
 6502SOL    HW131139   4.297   4.525  14.296  0.2075 -0.0879  0.7633
 6502SOL    HW231140   4.214   4.638  14.357  0.2096  0.7694 -0.9615
 6503SOL     OW31141   2.353   3.239   9.555  0.2430  0.1414  0.4161
 6503SOL    HW131142   2.267   3.216   9.517  0.4398 -0.4284  0.3103
 6503SOL    HW231143   2.387   3.318   9.513  1.0842 -0.5446 -0.1784
 6504SOL     OW31144   2.368   3.988   5.576  0.4878  0.1527 -0.8741
 6504SOL    HW131145   2.419   4.068   5.590 -1.2195  0.9698  0.4644
 6504SOL    HW231146   2.403   3.950   5.495 -0.8238 -0.1205 -1.3103
 6505SOL     OW31147   3.479   3.846   3.490 -0.0750 -0.0577 -0.1587
 6505SOL    HW131148   3.544   3.809   3.430 -2.4744 -3.5203 -0.6069
 6505SOL    HW231149   3.481   3.939   3.471  1.8468  0.0586  0.5749
 6506SOL     OW31150   0.808   1.546  16.198 -0.2822 -0.1660  0.0105
 6506SOL    HW131151   0.732   1.599  16.222  0.8554  2.0390 -1.2762
 6506SOL    HW231152   0.835   1.596  16.121 -0.5409  0.2442  0.1837
 6507SOL     OW31153   1.691   2.248   8.105 -0.3019  0.6180 -0.4370
 6507SOL    HW131154   1.697   2.253   8.010  0.4240  2.0907 -0.3127
 6507SOL    HW231155   1.613   2.302   8.121 -0.8610  0.2234 -1.8577
 6508SOL     OW31156   0.176   0.219   4.867 -0.0109  0.1033 -0.6406
 6508SOL    HW131157   0.125   0.152   4.913  2.1704 -1.6153 -0.7275
 6508SOL    HW231158   0.105   0.273   4.832  0.6455  1.7493  0.5448
 6509SOL     OW31159   3.378   1.374  10.776 -0.2134 -0.1456 -0.4102
 6509SOL    HW131160   3.358   1.339  10.689 -0.3907  0.5594 -0.6549
 6509SOL    HW231161   3.292   1.414  10.789 -0.0750  0.0251 -0.0265
 6510SOL     OW31162   1.924   1.768   5.896 -0.7185 -0.2489  0.1048
 6510SOL    HW131163   1.933   1.797   5.805  3.5510 -3.3083 -0.3972
 6510SOL    HW231164   1.992   1.701   5.902  0.6268  1.2053  1.1700
 6511SOL     OW31165   1.617   2.760   0.971  0.3398 -0.6906  0.0856
 6511SOL    HW131166   1.534   2.789   1.010 -0.0170 -2.7168  0.8013
 6511SOL    HW231167   1.599   2.759   0.877 -1.4978 -1.1135  0.4443
 6512SOL     OW31168   3.114   4.555   0.358  0.2783 -0.1328 -0.0484
 6512SOL    HW131169   3.197   4.601   0.374  0.5620 -1.1392  1.4260
 6512SOL    HW231170   3.064   4.622   0.405 -0.4650 -0.7124 -0.0101
 6513SOL     OW31171   0.339   0.388   8.465  0.6822 -0.2557  0.1983
 6513SOL    HW131172   0.297   0.311   8.503  0.4006 -1.1882 -2.0062
 6513SOL    HW231173   0.401   0.396   8.537 -0.0456  1.0588  0.6831
 6514SOL     OW31174   1.436   4.190  16.193  0.0383 -0.2986 -0.1429
 6514SOL    HW131175   1.354   4.226  16.227  0.2855  1.8060 -1.7788
 6514SOL    HW231176   1.485   4.273  16.186 -1.1818  0.4855  0.7181
 6515SOL     OW31177   3.706   3.699   3.578 -0.1876  0.1710  0.6528
 6515SOL    HW131178   3.629   3.755   3.577 -1.6341 -1.8684 -0.9556
 6515SOL    HW231179   3.670   3.631   3.521 -2.3969 -1.4027  3.8885
 6516SOL     OW31180   3.671   4.057   1.691  0.4315  0.1230 -0.2026
 6516SOL    HW131181   3.683   4.139   1.739 -3.2669 -0.0411  0.9632
 6516SOL    HW231182   3.719   4.092   1.616 -0.0901  1.2912  0.0196
 6517SOL     OW31183   3.012   0.777  14.368  0.3892  0.0268 -0.6954
 6517SOL    HW131184   3.091   0.775  14.421  0.6975 -0.5755 -1.1764
 6517SOL    HW231185   2.961   0.713  14.419  0.8117 -0.9402 -1.4803
 6518SOL     OW31186   2.998   0.388   7.913 -0.0138 -0.1639 -0.5120
 6518SOL    HW131187   3.006   0.385   8.008 -1.5227  0.2640 -0.3796
 6518SOL    HW231188   2.965   0.301   7.890 -2.5959  0.7155 -0.0895
 6519SOL     OW31189   0.393   3.780   2.590 -0.6176  0.4104  0.0812
 6519SOL    HW131190   0.466   3.727   2.558 -0.4870 -0.7643  2.3614
 6519SOL    HW231191   0.375   3.833   2.512 -0.6987  0.2198 -0.0302
 6520SOL     OW31192   4.150   2.904   5.772 -0.3197 -0.3391  0.1779
 6520SOL    HW131193   4.235   2.860   5.775 -0.0248  0.3932  3.0138
 6520SOL    HW231194   4.144   2.939   5.683 -0.8261 -1.0056 -0.0467
 6521SOL     OW31195   3.121   0.665   6.853  0.1721  0.0172  0.5697
 6521SOL    HW131196   3.079   0.585   6.821 -0.2156  0.4143  0.0791
 6521SOL    HW231197   3.156   0.690   6.767 -1.1683 -0.9605 -0.2587
 6522SOL     OW31198   1.531   3.959   2.471  0.3941  0.3470  0.0708
 6522SOL    HW131199   1.457   3.942   2.413 -0.1161 -0.0161  0.8125
 6522SOL    HW231200   1.561   4.043   2.437  0.9623  0.1136  0.0015
 6523SOL     OW31201   0.010   2.851  12.165 -0.4097 -0.1244  0.2280
 6523SOL    HW131202   0.101   2.840  12.139 -0.1510  0.2264  0.9638
 6523SOL    HW231203   4.712   2.789  12.102 -1.1524  2.2888 -1.7332
 6524SOL     OW31204   4.102   1.555   8.778 -0.5070 -0.4426 -0.3271
 6524SOL    HW131205   4.099   1.598   8.692 -1.3803  1.5642  0.7202
 6524SOL    HW231206   4.137   1.470   8.750 -0.6965 -0.0569 -1.7271
 6525SOL     OW31207   3.879   1.951   9.196 -0.3925  0.4360  0.2970
 6525SOL    HW131208   3.822   2.002   9.137  0.8727  2.3345  0.7100
 6525SOL    HW231209   3.813   1.946   9.265 -1.7992  2.6294 -0.8622
 6526SOL     OW31210   2.909   1.319   7.827  0.3997  0.1233  0.7598
 6526SOL    HW131211   2.981   1.328   7.765 -1.3303 -2.2578 -1.5846
 6526SOL    HW231212   2.941   1.355   7.909  1.9078  1.8727 -0.6194
 6527SOL     OW31213   2.517   1.652   5.639 -0.3343 -0.2919 -1.0856
 6527SOL    HW131214   2.459   1.726   5.621  0.0495  0.1557 -0.4878
 6527SOL    HW231215   2.546   1.676   5.728 -0.7681  3.2436 -1.8991
 6528SOL     OW31216   2.594   0.656   6.960  0.5007 -0.1803 -0.4235
 6528SOL    HW131217   2.521   0.662   6.898  0.5495 -1.4349 -0.5937
 6528SOL    HW231218   2.602   0.747   6.991 -2.0099 -0.0892 -0.0778
 6529SOL     OW31219   0.791   1.354   2.501 -0.1407  0.1897  0.0205
 6529SOL    HW131220   0.702   1.337   2.472 -0.1319 -0.9057  0.6175
 6529SOL    HW231221   0.793   1.447   2.521  0.0316  0.5107 -1.5126
 6530SOL     OW31222   3.773   1.051   8.240 -0.2617 -0.0536  0.0541
 6530SOL    HW131223   3.790   0.960   8.265 -3.1269 -0.7377 -0.4749
 6530SOL    HW231224   3.830   1.102   8.298 -1.1049 -1.2892  1.9971
 6531SOL     OW31225   2.764   2.539   3.660  0.7489 -0.5199 -0.3584
 6531SOL    HW131226   2.798   2.618   3.617  0.1684 -1.9512 -3.4636
 6531SOL    HW231227   2.781   2.551   3.753  1.2337  0.1598 -0.5320
 6532SOL     OW31228   3.135   3.078   2.886  0.2785 -0.2847  0.2025
 6532SOL    HW131229   3.088   3.161   2.881 -0.5370 -0.5933  2.4988
 6532SOL    HW231230   3.095   3.005   2.838 -0.7461 -0.0885  0.7445
 6533SOL     OW31231   0.209   1.506   4.334 -0.3738  0.1527 -0.1554
 6533SOL    HW131232   0.260   1.425   4.332  0.7091  0.8346 -0.6980
 6533SOL    HW231233   0.122   1.468   4.325  0.2475 -1.4815  0.7304
 6534SOL     OW31234   0.414   4.341   2.928  0.0486 -0.3375 -0.4645
 6534SOL    HW131235   0.389   4.304   2.844 -2.1449  0.3499 -0.1296
 6534SOL    HW231236   0.417   4.260   2.979 -1.1590 -0.0590  0.0486
 6535SOL     OW31237   2.521   2.420   7.874 -0.2568  0.9180  0.3780
 6535SOL    HW131238   2.508   2.363   7.949  0.7148  0.5116  0.2336
 6535SOL    HW231239   2.469   2.492   7.910 -0.5678  0.9559 -0.1398
 6536SOL     OW31240   2.583   1.335  13.393 -0.0652  0.4654 -0.1414
 6536SOL    HW131241   2.668   1.292  13.398 -1.0603 -1.7501 -2.2190
 6536SOL    HW231242   2.596   1.413  13.446  0.3706  1.2387 -1.3902
 6537SOL     OW31243   1.828   3.067   8.106 -0.5114 -0.6227 -0.0121
 6537SOL    HW131244   1.815   3.063   8.012  0.8546 -1.4150 -0.1695
 6537SOL    HW231245   1.876   2.985   8.117 -1.7292 -1.4111 -0.5947
 6538SOL     OW31246   0.348   1.532   8.694  0.0925  0.0043 -0.1204
 6538SOL    HW131247   0.351   1.469   8.622 -2.4238 -0.2572 -0.0029
 6538SOL    HW231248   0.334   1.473   8.768  0.0241 -0.0139 -0.1478
 6539SOL     OW31249   3.885   0.711   2.729 -0.4942 -0.5509  0.2404
 6539SOL    HW131250   3.864   0.791   2.681  0.1964  0.3153  1.3741
 6539SOL    HW231251   3.937   0.735   2.806 -1.1400 -1.3031  0.9137
 6540SOL     OW31252   4.230   2.562   7.008 -0.4305  0.3740 -0.0081
 6540SOL    HW131253   4.251   2.583   7.099 -3.5715 -1.0680  1.0540
 6540SOL    HW231254   4.269   2.640   6.968  0.5081  0.7477  1.6547
 6541SOL     OW31255   2.261   1.931   2.321 -0.3865 -0.2424  0.4753
 6541SOL    HW131256   2.306   1.883   2.251 -1.8746 -2.6971  1.1956
 6541SOL    HW231257   2.172   1.905   2.299  0.0470 -2.3883  1.2166
 6542SOL     OW31258   0.056   3.468   4.710  0.2333  0.3692 -0.2895
 6542SOL    HW131259   0.065   3.563   4.706 -1.3314  0.4700 -1.5849
 6542SOL    HW231260   0.106   3.452   4.790 -2.6358 -0.5415  1.3211
 6543SOL     OW31261   4.400   4.597   1.720 -0.5688  0.2285 -0.0819
 6543SOL    HW131262   4.333   4.652   1.760 -1.1583 -0.2303 -0.4491
 6543SOL    HW231263   4.434   4.650   1.648 -0.6657  0.1030 -0.2202
 6544SOL     OW31264   0.541   4.446  14.313  0.1486 -0.0501 -0.3368
 6544SOL    HW131265   0.580   4.436  14.227 -1.6027  0.7837 -1.2207
 6544SOL    HW231266   0.566   4.535  14.340 -0.3353 -0.0708  0.1742
 6545SOL     OW31267   1.996   3.291   3.900  0.0627  0.1513  0.3262
 6545SOL    HW131268   1.998   3.328   3.812 -0.4767 -2.2658 -0.7006
 6545SOL    HW231269   1.958   3.364   3.948  0.7375  0.3688  0.5375
 6546SOL     OW31270   4.230   0.977   5.171  0.0081 -0.1092  0.3417
 6546SOL    HW131271   4.172   1.052   5.171 -2.5360 -2.0734  1.2815
 6546SOL    HW231272   4.310   1.029   5.162  0.6190 -1.0365  0.4237
 6547SOL     OW31273   0.412   3.091   9.963 -0.1458 -0.1976 -0.3846
 6547SOL    HW131274   0.434   3.071  10.054  0.1991  0.6786 -0.2744
 6547SOL    HW231275   0.361   3.015   9.935 -1.3152  0.8964 -1.2741
 6548SOL     OW31276   3.174   3.317   9.325  0.0591 -0.1339 -0.4215
 6548SOL    HW131277   3.157   3.322   9.420 -0.5814 -2.2123 -0.4326
 6548SOL    HW231278   3.269   3.308   9.322  0.1526  1.2723 -1.6337
 6549SOL     OW31279   1.454   3.429   0.321 -0.3187 -0.2849  0.0376
 6549SOL    HW131280   1.412   3.368   0.382 -2.1666  0.9549  0.0002
 6549SOL    HW231281   1.501   3.480   0.386 -0.0546 -1.1234  0.5067
 6550SOL     OW31282   4.625   3.927   8.973  0.0758 -0.1093  0.2165
 6550SOL    HW131283   4.626   3.935   9.069 -2.2862 -0.2793  0.2617
 6550SOL    HW231284   4.712   3.894   8.949  0.3064 -0.5306  1.6401
 6551SOL     OW31285   0.166   3.522   8.616  0.0141 -0.5366  0.1534
 6551SOL    HW131286   0.131   3.546   8.702 -1.1270 -0.6261 -0.2824
 6551SOL    HW231287   0.193   3.610   8.590 -0.3780 -0.4627 -0.0117
 6552SOL     OW31288   0.439   3.927   2.815  0.3446  0.2167 -0.2248
 6552SOL    HW131289   0.409   3.863   2.749  1.1295  1.7769 -2.0881
 6552SOL    HW231290   0.518   3.880   2.843 -0.2140 -0.9139 -0.5250
 6553SOL     OW31291   0.910   2.136   5.850 -0.1173 -0.0242  0.2792
 6553SOL    HW131292   0.942   2.128   5.940 -0.3433 -1.3269  0.2477
 6553SOL    HW231293   0.980   2.179   5.801  1.5546 -0.3824  2.3544
 6554SOL     OW31294   4.302   2.254   0.812 -0.1451  0.1754  0.0672
 6554SOL    HW131295   4.354   2.315   0.759 -2.1246 -0.0457 -2.0974
 6554SOL    HW231296   4.241   2.205   0.757  0.5664 -0.7684  0.1171
 6555SOL     OW31297   1.155   3.097   1.940  1.0586  0.4474 -0.2705
 6555SOL    HW131298   1.082   3.069   1.884 -0.0844  2.3126  0.2910
 6555SOL    HW231299   1.180   3.178   1.896 -0.0158  0.4376 -0.9113
 6556SOL     OW31300   2.056   0.961   3.439 -0.1434  0.4683  0.4111
 6556SOL    HW131301   2.078   0.879   3.395 -0.2751  0.0822  1.0645
 6556SOL    HW231302   2.086   0.949   3.528  0.2869 -0.5311  0.1298
 6557SOL     OW31303   0.232   0.156   8.548  0.4525  0.5279  0.1769
 6557SOL    HW131304   0.202   0.186   8.634 -0.3272  0.5127 -0.0904
 6557SOL    HW231305   0.288   0.082   8.570 -0.4901 -0.1944  0.1721
 6558SOL     OW31306   4.229   0.902   8.361 -0.3532 -0.2111  0.1606
 6558SOL    HW131307   4.219   0.994   8.335 -0.8007 -0.2377  0.2307
 6558SOL    HW231308   4.283   0.908   8.439 -0.1376  1.3612 -0.1065
 6559SOL     OW31309   4.627   0.108  12.069 -0.4118  0.5037 -0.1174
 6559SOL    HW131310   4.537   0.096  12.101 -0.5423  3.1853  0.5172
 6559SOL    HW231311   4.639   0.084  11.977  0.9251  0.5600  0.0460
 6560SOL     OW31312   2.578   1.406   2.003  0.0769  0.1335 -0.1975
 6560SOL    HW131313   2.608   1.487   1.961 -1.7102  2.5093  3.1119
 6560SOL    HW231314   2.596   1.427   2.094 -0.3646  0.4622 -0.1858
 6561SOL     OW31315   0.537   1.041  15.509  0.2015  0.4466 -0.0383
 6561SOL    HW131316   0.617   1.012  15.553 -0.3586 -2.4081 -0.9230
 6561SOL    HW231317   0.482   0.968  15.536  1.9810 -0.5325  0.9622
 6562SOL     OW31318   4.693   2.820   1.070 -0.4529  0.1763 -0.8950
 6562SOL    HW131319   0.012   2.897   1.061 -1.2853  1.0329  1.3807
 6562SOL    HW231320   4.687   2.817   1.165  0.2849  1.9199 -0.7975
 6563SOL     OW31321   1.449   4.286   4.792  0.4868  0.1499  0.2210
 6563SOL    HW131322   1.498   4.317   4.715 -0.3284  0.6533 -0.0995
 6563SOL    HW231323   1.489   4.336   4.863  2.9590  0.3829 -1.3203
 6564SOL     OW31324   2.716   3.409  12.639  0.1853  0.0973 -0.4618
 6564SOL    HW131325   2.751   3.334  12.591  1.3007  0.8098 -0.7431
 6564SOL    HW231326   2.796   3.451  12.670 -0.8396  0.5895  1.5337
 6565SOL     OW31327   4.206   1.493  12.279 -0.0834  0.8171 -0.1390
 6565SOL    HW131328   4.201   1.409  12.324 -2.1191  0.6400 -0.7111
 6565SOL    HW231329   4.124   1.494  12.229  0.2823 -2.0938 -0.7945
 6566SOL     OW31330   1.986   0.223   1.169  0.1522  0.2400 -0.2512
 6566SOL    HW131331   1.943   0.172   1.238  0.3293 -0.2710 -0.5144
 6566SOL    HW231332   1.949   0.181   1.091 -0.1250  0.1409 -0.0690
 6567SOL     OW31333   1.003   0.596  13.787  0.1490  0.2887  0.1280
 6567SOL    HW131334   0.987   0.527  13.723  1.4154 -0.7267  0.9330
 6567SOL    HW231335   0.969   0.674  13.741 -2.6801 -0.6086  0.7190
 6568SOL     OW31336   4.417   3.088   5.690  0.1715 -0.2123  0.6219
 6568SOL    HW131337   4.471   3.010   5.703 -0.7747 -1.0336 -0.3427
 6568SOL    HW231338   4.465   3.140   5.753  0.6555  0.7032 -0.5056
 6569SOL     OW31339   4.097   2.625   6.415 -0.6579  0.8555 -0.1062
 6569SOL    HW131340   4.147   2.696   6.456 -0.6511  0.4160  0.6504
 6569SOL    HW231341   4.029   2.605   6.479 -0.8341 -0.6346 -0.7711
 6570SOL     OW31342   0.198   0.530  16.859  0.2767  0.0093  0.2863
 6570SOL    HW131343   0.199   0.588  16.935 -1.4832 -1.5433  1.4858
 6570SOL    HW231344   0.277   0.476  16.869 -0.1782 -0.5278  0.9521
 6571SOL     OW31345   2.382   3.633   3.449  0.1847 -0.1057 -0.4108
 6571SOL    HW131346   2.471   3.627   3.413  0.7134  3.7045  0.2440
 6571SOL    HW231347   2.332   3.598   3.375  1.6809 -3.3451  0.1141
 6572SOL     OW31348   3.106   3.852   3.962 -0.7065  0.3704  0.8988
 6572SOL    HW131349   3.029   3.883   4.010 -1.3896 -3.1575  2.0502
 6572SOL    HW231350   3.121   3.917   3.893 -0.2793  0.3220  0.9421
 6573SOL     OW31351   2.701   2.953  11.935 -0.1907  1.3947 -0.2111
 6573SOL    HW131352   2.791   2.919  11.930 -1.0886 -0.4532 -3.9134
 6573SOL    HW231353   2.652   2.897  11.994 -1.7477  2.1825 -0.7351
 6574SOL     OW31354   3.620   1.612   8.410 -0.1987 -0.2663 -0.1258
 6574SOL    HW131355   3.631   1.530   8.362 -0.4086 -1.3553  1.6935
 6574SOL    HW231356   3.536   1.591   8.450  0.3015 -2.7407 -0.3632
 6575SOL     OW31357   4.194   3.149   2.399 -0.2486  0.5676 -0.2258
 6575SOL    HW131358   4.287   3.174   2.397  0.4427 -1.9246  1.7516
 6575SOL    HW231359   4.200   3.089   2.473 -0.6134 -0.2852 -0.8906
 6576SOL     OW31360   0.818   1.889   3.811 -0.1485 -0.2103 -0.1963
 6576SOL    HW131361   0.810   1.892   3.907 -0.4754 -2.3700 -0.1554
 6576SOL    HW231362   0.820   1.980   3.781  1.1614 -0.2646 -0.2563
 6577SOL     OW31363   1.776   2.079  10.606  0.5346  0.4596  0.4399
 6577SOL    HW131364   1.814   2.142  10.667  1.6476  2.0146 -1.8708
 6577SOL    HW231365   1.777   2.004  10.666  2.4674 -0.5819 -0.8778
 6578SOL     OW31366   1.324   2.992   2.456 -0.0597 -0.2685  0.4304
 6578SOL    HW131367   1.408   2.999   2.410 -0.3128 -0.5907 -0.0795
 6578SOL    HW231368   1.342   3.035   2.539  2.9551  0.9475 -0.8625
 6579SOL     OW31369   0.825   0.988   6.305 -0.1384  0.1714 -0.0658
 6579SOL    HW131370   0.898   1.014   6.361  0.5720 -0.3800 -0.7431
 6579SOL    HW231371   0.837   0.893   6.298  2.8812  0.5325 -0.0385
 6580SOL     OW31372   4.443   3.906   9.277  0.3827  0.2900  0.1797
 6580SOL    HW131373   4.396   3.989   9.272  1.3357  0.7296 -1.5902
 6580SOL    HW231374   4.405   3.860   9.202  2.1798 -0.0018 -0.5442
 6581SOL     OW31375   1.568   0.937  13.211 -0.7661  0.4351  1.0862
 6581SOL    HW131376   1.621   0.899  13.140  0.5642  5.4699 -0.6671
 6581SOL    HW231377   1.630   0.937  13.284 -0.1250  2.1061  0.5456
 6582SOL     OW31378   1.686   2.277   8.979 -0.6854  0.4289  0.3833
 6582SOL    HW131379   1.765   2.255   9.028 -1.2156  2.6949  2.2266
 6582SOL    HW231380   1.629   2.307   9.050  0.4225 -0.4382  1.6275
 6583SOL     OW31381   1.968   0.473  10.534 -0.0584  0.0158 -0.3346
 6583SOL    HW131382   2.008   0.557  10.513  0.9203 -0.2586  0.4261
 6583SOL    HW231383   1.906   0.505  10.598  1.3046 -2.3052  2.1339
 6584SOL     OW31384   0.661   2.381   9.512  0.2800  0.0924 -0.5688
 6584SOL    HW131385   0.629   2.359   9.599  1.3639 -0.9384 -0.4274
 6584SOL    HW231386   0.754   2.364   9.524  0.5864  0.0806 -2.7985
 6585SOL     OW31387   1.670   3.766   6.535  0.0583  0.3625  0.6321
 6585SOL    HW131388   1.578   3.743   6.524  0.0307  0.4252  0.7317
 6585SOL    HW231389   1.675   3.813   6.618  0.0115 -2.4320  2.2133
 6586SOL     OW31390   3.380   0.471   6.964  0.5741 -0.1905 -0.1552
 6586SOL    HW131391   3.292   0.502   6.985  0.2904 -1.4510  0.5012
 6586SOL    HW231392   3.385   0.392   7.018 -1.1280  0.7631  1.4145
 6587SOL     OW31393   4.547   3.289  17.278 -0.4155 -0.4298 -0.2881
 6587SOL    HW131394   4.524   3.378  17.252  0.3596 -0.1685 -0.0800
 6587SOL    HW231395   4.640   3.287  17.255  0.5453  0.7014  3.5474
 6588SOL     OW31396   2.934   4.249   7.035 -0.3472 -0.2892  0.0180
 6588SOL    HW131397   2.919   4.290   6.950  0.0140  0.2057  0.1932
 6588SOL    HW231398   3.016   4.202   7.018 -0.8125 -1.0232 -0.1987
 6589SOL     OW31399   3.494   0.414   7.949 -0.7035 -0.0542  0.3225
 6589SOL    HW131400   3.424   0.397   7.886 -0.3968  1.6335 -0.4929
 6589SOL    HW231401   3.433   0.452   8.013 -1.0145 -3.0363  1.7832
 6590SOL     OW31402   3.095   3.167   2.372 -0.1018 -0.3076  0.0737
 6590SOL    HW131403   3.142   3.086   2.395  0.3342 -0.4262 -1.2050
 6590SOL    HW231404   3.161   3.230   2.401 -0.7686 -0.1898  1.3350
 6591SOL     OW31405   0.773   3.653   9.058 -0.1248  0.1512  0.2996
 6591SOL    HW131406   0.709   3.583   9.045  0.0681 -0.5032  2.7775
 6591SOL    HW231407   0.724   3.732   9.035  1.6861  0.4179 -2.6511
 6592SOL     OW31408   4.308   4.182  10.062  0.3261 -0.5311  0.0232
 6592SOL    HW131409   4.333   4.230  10.142 -0.7865 -0.5708  0.3975
 6592SOL    HW231410   4.309   4.247   9.992 -0.8180 -0.3229  0.2004
 6593SOL     OW31411   1.984   3.936   5.462  0.3406 -0.6988  0.2877
 6593SOL    HW131412   2.055   3.973   5.515  3.0781 -2.5330 -2.1065
 6593SOL    HW231413   1.997   3.970   5.374  2.3846 -0.6724  0.6062
 6594SOL     OW31414   3.870   2.327  15.246  0.0601  0.3305 -0.5460
 6594SOL    HW131415   3.912   2.269  15.182  1.5496 -0.8441  1.5043
 6594SOL    HW231416   3.860   2.407  15.194 -1.9576  0.0600 -0.5725
 6595SOL     OW31417   1.945   2.574  13.319  0.1975 -0.4154 -0.0001
 6595SOL    HW131418   1.953   2.648  13.379  1.3950 -0.5728  0.0500
 6595SOL    HW231419   1.911   2.508  13.380 -0.1704 -1.1308 -0.9750
 6596SOL     OW31420   3.998   2.895   5.006 -0.0426  0.1497 -0.0489
 6596SOL    HW131421   4.055   2.837   4.956 -0.7438 -0.2681 -0.3570
 6596SOL    HW231422   4.066   2.951   5.045 -0.9639  1.1699  0.0954
 6597SOL     OW31423   4.311   2.227   4.367  0.5133  0.9623 -0.4098
 6597SOL    HW131424   4.313   2.285   4.443 -1.0082 -0.4225  0.7065
 6597SOL    HW231425   4.219   2.201   4.368  1.0748 -1.0609 -1.6750
 6598SOL     OW31426   2.125   2.200   8.445 -0.4484  0.0231 -0.0431
 6598SOL    HW131427   2.170   2.195   8.529 -1.0451 -0.7691  0.2250
 6598SOL    HW231428   2.201   2.186   8.388  0.1933  1.4371  0.4513
 6599SOL     OW31429   0.316   3.405   0.019  0.0843 -0.2299 -0.3041
 6599SOL    HW131430   0.289   3.380  17.676 -0.7585  0.0576 -0.1264
 6599SOL    HW231431   0.238   3.406   0.075  0.0623 -0.2898 -0.3340
 6600SOL     OW31432   3.974   1.255   3.280 -0.0089 -0.0161  0.0244
 6600SOL    HW131433   3.903   1.232   3.340  0.8402 -0.0034  1.0237
 6600SOL    HW231434   4.000   1.338   3.319 -4.9280  0.7734  1.5668
 6601SOL     OW31435   3.876   3.177   2.929 -0.1925  0.1392 -0.1244
 6601SOL    HW131436   3.838   3.195   2.843  1.0640 -1.0915 -0.9328
 6601SOL    HW231437   3.965   3.210   2.915  0.3670 -0.3008  2.4644
 6602SOL     OW31438   1.191   4.118   2.112 -0.1733  0.0416  0.2168
 6602SOL    HW131439   1.173   4.030   2.078 -0.6544  0.4708 -0.6621
 6602SOL    HW231440   1.127   4.165   2.058 -2.4540  0.0866  2.9053
 6603SOL     OW31441   3.650   3.429   8.528  0.9159 -0.1066  0.3030
 6603SOL    HW131442   3.611   3.465   8.608  1.0139  2.2021 -0.6689
 6603SOL    HW231443   3.694   3.512   8.507 -0.2456  1.1388  2.7745
 6604SOL     OW31444   3.850   2.998  16.472 -0.1450  0.5488  0.0402
 6604SOL    HW131445   3.857   3.038  16.385  1.1725 -1.0473 -0.5772
 6604SOL    HW231446   3.909   3.058  16.518 -0.1215 -0.3659  1.1956
 6605SOL     OW31447   2.884   1.651   6.979  0.0267  0.0338  0.2682
 6605SOL    HW131448   2.843   1.566   6.994 -0.0825 -0.0254 -0.3306
 6605SOL    HW231449   2.809   1.707   6.960  0.8175  1.4481  1.2756
 6606SOL     OW31450   2.609   0.578   5.115  0.3942  0.5008 -0.4351
 6606SOL    HW131451   2.631   0.645   5.179 -1.5866  1.9331 -1.2357
 6606SOL    HW231452   2.659   0.606   5.038  0.4256 -1.8587 -1.2859
 6607SOL     OW31453   0.290   3.356   7.175 -0.3790  0.2958 -0.1803
 6607SOL    HW131454   0.316   3.446   7.196  0.8320 -0.5170  1.7710
 6607SOL    HW231455   0.281   3.317   7.262 -0.5470 -0.9473 -0.7545
 6608SOL     OW31456   1.191   3.855   8.843 -0.0162  0.1917 -0.4179
 6608SOL    HW131457   1.112   3.810   8.815  0.1595 -1.5285  1.9441
 6608SOL    HW231458   1.248   3.779   8.837  0.6107  0.4616  2.2191
 6609SOL     OW31459   3.379   4.168   1.045  0.3961 -0.0937 -0.0294
 6609SOL    HW131460   3.291   4.188   1.013  0.9296  1.4288 -0.5137
 6609SOL    HW231461   3.385   4.229   1.118 -2.2325  1.0568 -0.7867
 6610SOL     OW31462   2.871   3.001   0.615 -0.0035  0.1893 -0.0769
 6610SOL    HW131463   2.929   3.062   0.569  0.8354 -1.5378 -1.3173
 6610SOL    HW231464   2.928   2.934   0.652  0.7723  0.8560 -0.0591
 6611SOL     OW31465   2.094   1.745   7.912  0.4413 -1.2156  0.7646
 6611SOL    HW131466   2.166   1.790   7.956  1.7210 -1.5588 -0.9964
 6611SOL    HW231467   2.128   1.669   7.865 -1.0471 -0.3138 -1.7834
 6612SOL     OW31468   3.854   0.323   7.803  0.3477 -0.0690 -0.3422
 6612SOL    HW131469   3.775   0.320   7.749  0.1614 -0.3982 -0.0552
 6612SOL    HW231470   3.819   0.332   7.892 -1.1038  1.4788 -1.0702
 6613SOL     OW31471   2.705   0.219  13.017 -0.4799  0.0257  0.1108
 6613SOL    HW131472   2.700   0.315  13.017 -0.1667  0.0087 -3.6567
 6613SOL    HW231473   2.751   0.208  13.101 -1.3591 -1.8112  0.3485
 6614SOL     OW31474   0.284   2.177   1.933  0.7824 -0.0952 -0.1140
 6614SOL    HW131475   0.253   2.139   2.015 -0.6406 -0.8465 -0.9864
 6614SOL    HW231476   0.331   2.255   1.962 -0.7202  0.2746  1.3513
 6615SOL     OW31477   4.269   4.447  14.648  0.3043 -0.6030  0.0091
 6615SOL    HW131478   4.259   4.422  14.740  0.1215 -0.5862 -0.0067
 6615SOL    HW231479   4.180   4.439  14.614 -0.5221 -2.6285  2.7186
 6616SOL     OW31480   4.555   0.082   1.630 -0.2699  0.5036  0.5847
 6616SOL    HW131481   4.578   0.174   1.618 -0.1694 -0.0039 -3.0513
 6616SOL    HW231482   4.542   0.079   1.725  0.2991  1.5097  0.6984
 6617SOL     OW31483   0.239   0.046   6.522 -0.2668 -0.4376 -0.0189
 6617SOL    HW131484   0.198   0.118   6.474 -1.5475  0.0846  1.8694
 6617SOL    HW231485   0.163   0.012   6.568 -1.8238 -1.9652 -3.7712
 6618SOL     OW31486   0.860   2.781   2.252  0.2003 -0.0831 -0.0785
 6618SOL    HW131487   0.831   2.691   2.268  1.2296 -0.4042 -0.0034
 6618SOL    HW231488   0.947   2.779   2.292  1.7206 -0.6499 -3.4212
 6619SOL     OW31489   0.870   1.959   4.882  0.0313 -0.1840  0.2154
 6619SOL    HW131490   0.930   2.028   4.853  2.4724 -2.6539 -0.5172
 6619SOL    HW231491   0.924   1.917   4.949 -0.0598 -1.7915 -0.7261
 6620SOL     OW31492   1.125   1.394  13.125  0.8585  0.6799 -0.8663
 6620SOL    HW131493   1.104   1.390  13.219 -0.5149  1.5881 -1.1347
 6620SOL    HW231494   1.062   1.334  13.084 -0.2124  0.3112  1.2738
 6621SOL     OW31495   3.723   2.041   6.118 -0.1688 -0.4144 -0.1254
 6621SOL    HW131496   3.642   2.069   6.075  1.7008  1.0490 -2.7083
 6621SOL    HW231497   3.682   2.016   6.200 -1.8207 -0.3286 -0.9246
 6622SOL     OW31498   1.286   0.746   5.305  0.1056 -0.1920  0.3684
 6622SOL    HW131499   1.316   0.714   5.220 -0.8955 -0.5144  0.1296
 6622SOL    HW231500   1.260   0.670   5.358  2.4739 -1.8597 -0.8211
 6623SOL     OW31501   3.506   0.401  15.398  0.2707 -0.2762  0.3643
 6623SOL    HW131502   3.498   0.468  15.329  2.1863 -0.1129  0.2985
 6623SOL    HW231503   3.411   0.392  15.408  0.2544 -0.9419 -0.3595
 6624SOL     OW31504   1.209   1.173   9.213  0.1784  0.4204 -0.1203
 6624SOL    HW131505   1.267   1.101   9.237 -0.0019  0.7510  1.2857
 6624SOL    HW231506   1.129   1.128   9.186  0.3606 -0.4851  0.8852
 6625SOL     OW31507   3.662   0.093   1.523  0.4545 -0.1386  0.1318
 6625SOL    HW131508   3.613   0.078   1.442  0.2921  1.6659 -0.0883
 6625SOL    HW231509   3.590   0.102   1.585 -0.7062 -2.0950 -0.9276
 6626SOL     OW31510   2.977   0.641   8.285 -0.1814  0.1843 -0.3446
 6626SOL    HW131511   2.987   0.735   8.298 -0.2931  0.1010  0.3525
 6626SOL    HW231512   2.981   0.634   8.190 -1.9588 -0.8407 -0.3495
 6627SOL     OW31513   4.661   4.255   5.359  0.1129  0.2247  0.3823
 6627SOL    HW131514   4.720   4.212   5.421 -0.9810 -1.3111  0.3635
 6627SOL    HW231515   4.585   4.197   5.352  0.0798  0.1245  1.6261
 6628SOL     OW31516   1.783   0.359   4.947  0.1218 -0.2253 -0.4893
 6628SOL    HW131517   1.740   0.434   4.905  0.3279 -0.4810 -1.1555
 6628SOL    HW231518   1.846   0.345   4.877  0.0916 -1.6317 -0.2223
 6629SOL     OW31519   3.307   1.540  16.651  0.1068 -0.6570 -0.0443
 6629SOL    HW131520   3.400   1.562  16.640 -0.1060  0.7131  0.9393
 6629SOL    HW231521   3.275   1.554  16.562 -0.3601 -1.8024 -0.0561
 6630SOL     OW31522   0.652   1.693  15.533  0.3662 -0.2641 -0.1137
 6630SOL    HW131523   0.733   1.652  15.563  0.7412  0.5939  0.0588
 6630SOL    HW231524   0.618   1.732  15.614 -0.0471 -2.0160  0.5601
 6631SOL     OW31525   3.091   2.878   1.666 -0.6374  0.1885 -0.1894
 6631SOL    HW131526   3.048   2.963   1.679 -1.1782 -0.2046  0.5620
 6631SOL    HW231527   3.138   2.893   1.584  0.3692  0.5076  0.4465
 6632SOL     OW31528   1.977   0.352  17.602  0.2676  0.0735  0.3077
 6632SOL    HW131529   1.949   0.363  17.511  0.2725 -1.8227  0.0811
 6632SOL    HW231530   2.065   0.318  17.588  0.4332  0.4439  0.4596
 6633SOL     OW31531   2.693   0.414   1.541  0.0083 -0.2563  0.4889
 6633SOL    HW131532   2.618   0.354   1.540  0.9903 -1.4675  0.1162
 6633SOL    HW231533   2.689   0.466   1.622  2.4793  0.1074  0.3751
 6634SOL     OW31534   3.357   4.354   7.382  0.2819 -0.3923  0.0195
 6634SOL    HW131535   3.316   4.329   7.300 -2.5939  2.7332  0.5190
 6634SOL    HW231536   3.446   4.384   7.362  0.0083 -0.3685 -1.1310
 6635SOL     OW31537   3.046   3.068   9.252 -0.1226  0.3516 -0.0011
 6635SOL    HW131538   3.095   3.144   9.284 -0.7225 -0.7063  3.3862
 6635SOL    HW231539   3.050   3.017   9.332  0.8095 -0.1230 -0.3459
 6636SOL     OW31540   4.363   1.337  14.696  0.2493 -0.5829 -0.2206
 6636SOL    HW131541   4.373   1.276  14.622 -0.5980 -1.0343  0.0461
 6636SOL    HW231542   4.274   1.314  14.719  0.0393  1.8607  1.3819
 6637SOL     OW31543   0.712   0.506   8.524  0.2825 -0.2791  0.4701
 6637SOL    HW131544   0.735   0.458   8.445  2.0383 -0.2308  0.9452
 6637SOL    HW231545   0.785   0.510   8.586  0.0206 -0.4193  0.7903
 6638SOL     OW31546   4.134   1.440   7.574 -0.0726 -0.0546 -0.5615
 6638SOL    HW131547   4.071   1.512   7.564 -1.1386 -0.9854 -0.6284
 6638SOL    HW231548   4.198   1.479   7.634 -0.7984  2.2155 -1.2469
 6639SOL     OW31549   3.298   1.616   6.378 -0.0015 -1.1936 -0.0106
 6639SOL    HW131550   3.337   1.684   6.323  0.4186 -1.6699 -0.2981
 6639SOL    HW231551   3.260   1.682   6.436 -0.9028 -0.9917 -0.8353
 6640SOL     OW31552   0.143   1.254  10.090  0.2864  0.3026  0.1746
 6640SOL    HW131553   0.174   1.263  10.181 -2.6190  0.5280  1.1353
 6640SOL    HW231554   0.196   1.186  10.049  1.5047  1.6199 -0.4394
 6641SOL     OW31555   0.095   3.658   5.604  0.0003 -0.0150  0.0309
 6641SOL    HW131556   0.163   3.718   5.635  0.5566 -1.9198  2.4641
 6641SOL    HW231557   0.049   3.715   5.543  0.8603 -0.1839 -0.7778
 6642SOL     OW31558   1.153   4.265  15.080 -0.0587 -0.1953 -0.6279
 6642SOL    HW131559   1.079   4.217  15.116 -0.4514  2.3473  1.9674
 6642SOL    HW231560   1.183   4.314  15.157 -1.3191 -0.2526 -0.1063
 6643SOL     OW31561   4.167   4.435   5.724  0.2479 -0.2811  0.2322
 6643SOL    HW131562   4.244   4.381   5.707  0.5027  0.5358 -1.2667
 6643SOL    HW231563   4.154   4.428   5.818  0.1733 -2.5376  0.0506
 6644SOL     OW31564   0.159   3.931  11.644  0.1128  0.7340  0.1317
 6644SOL    HW131565   0.098   3.911  11.715  1.4418  2.7846  1.8275
 6644SOL    HW231566   0.104   3.976  11.579 -1.6625  0.4633  1.4477
 6645SOL     OW31567   3.019   0.875   5.289  0.0468  0.3600 -0.1515
 6645SOL    HW131568   2.995   0.792   5.247 -0.7711  0.0713  0.8777
 6645SOL    HW231569   3.093   0.832   5.332  0.2214  0.3434 -0.4709
 6646SOL     OW31570   3.381   4.320   2.162 -0.0009  0.0990  0.4499
 6646SOL    HW131571   3.424   4.256   2.104 -0.4662 -1.7689  2.1485
 6646SOL    HW231572   3.336   4.384   2.107 -0.7132 -0.9612 -0.1995
 6647SOL     OW31573   3.906   0.725   5.413  0.7667 -0.6468 -0.1049
 6647SOL    HW131574   3.877   0.658   5.475 -0.2167 -2.2527 -2.3023
 6647SOL    HW231575   3.877   0.806   5.455 -1.2337 -0.1051 -2.5190
 6648SOL     OW31576   0.367   3.445   5.100  0.5388 -0.4411  0.3201
 6648SOL    HW131577   0.404   3.416   5.016  0.9159 -0.0247  0.3442
 6648SOL    HW231578   0.395   3.381   5.166  2.2656  1.5035  1.4540
 6649SOL     OW31579   1.101   1.707   9.436 -0.3082 -0.2694  0.8009
 6649SOL    HW131580   1.185   1.735   9.399  0.1030 -0.0898  1.8765
 6649SOL    HW231581   1.035   1.728   9.369 -0.4261  0.0971  1.0304
 6650SOL     OW31582   1.068   3.991  11.426  0.0209 -0.3926  0.2800
 6650SOL    HW131583   1.141   3.930  11.439 -0.1624 -0.6586  0.0496
 6650SOL    HW231584   1.085   4.073  11.472  1.0494  0.5435 -1.7968
 6651SOL     OW31585   4.043   4.250  16.023 -0.0783  0.1585  0.1206
 6651SOL    HW131586   4.018   4.180  15.964  1.2169 -0.2431  0.0536
 6651SOL    HW231587   4.069   4.318  15.961  0.5188 -0.1110  0.0769
 6652SOL     OW31588   3.965   4.274   7.840  0.3757  0.5816  0.0519
 6652SOL    HW131589   3.935   4.247   7.927  0.5214  0.0087 -0.0770
 6652SOL    HW231590   4.025   4.202   7.820 -0.3643  0.7269 -2.6989
 6653SOL     OW31591   0.824   3.203   1.568 -0.5637  0.5637  0.2342
 6653SOL    HW131592   0.730   3.221   1.574 -1.1368 -2.4763  0.4629
 6653SOL    HW231593   0.846   3.213   1.475  0.9578 -0.1552  0.5226
 6654SOL     OW31594   2.624   0.903   7.065  0.1325 -0.1195 -0.0059
 6654SOL    HW131595   2.635   0.855   7.147 -1.0776 -2.3536 -1.1550
 6654SOL    HW231596   2.654   0.992   7.086 -0.4176 -0.0347  0.4168
 6655SOL     OW31597   1.799   1.850   9.284  1.1506  0.2053 -0.1130
 6655SOL    HW131598   1.789   1.778   9.221  1.7472  0.1515 -0.1467
 6655SOL    HW231599   1.755   1.919   9.235 -0.0212 -0.6587 -0.2716
 6656SOL     OW31600   2.037   4.157   7.610  0.3486  0.2677  0.2498
 6656SOL    HW131601   1.948   4.126   7.629  0.4777 -0.4137 -0.2612
 6656SOL    HW231602   2.027   4.240   7.565  1.7547  0.6190  0.6148
 6657SOL     OW31603   2.926   3.864   1.478  0.6353 -0.4037 -0.0483
 6657SOL    HW131604   2.925   3.774   1.443 -0.1285  0.1598 -1.4829
 6657SOL    HW231605   2.937   3.913   1.397 -0.5044 -0.7925 -0.4436
 6658SOL     OW31606   1.989   0.278   8.024 -0.3756  0.1829  0.5121
 6658SOL    HW131607   2.006   0.371   8.035  1.5671  0.0032 -0.9139
 6658SOL    HW231608   2.055   0.264   7.956 -0.1974 -1.1094  0.9326
 6659SOL     OW31609   0.035   0.170   2.235  0.4286 -0.0059 -0.0197
 6659SOL    HW131610   0.017   0.264   2.238 -0.0485 -0.1536  2.1742
 6659SOL    HW231611   4.683   0.142   2.259  0.5141  0.9277  1.4216
 6660SOL     OW31612   0.281   3.055   5.130 -0.5519 -0.4410 -0.1846
 6660SOL    HW131613   0.371   3.037   5.101 -1.3673 -2.8046 -1.2670
 6660SOL    HW231614   0.235   2.978   5.096 -0.9326 -0.3707  0.1799
 6661SOL     OW31615   0.018   2.682  16.611 -0.0008 -0.4213  0.3737
 6661SOL    HW131616   0.070   2.618  16.563  0.4404 -0.8150  1.3758
 6661SOL    HW231617   4.673   2.693  16.562  1.1057  0.0394 -1.4027
 6662SOL     OW31618   1.268   3.595   2.344  0.0988 -0.0815  0.1839
 6662SOL    HW131619   1.300   3.547   2.420 -0.2609 -1.9997 -0.8746
 6662SOL    HW231620   1.291   3.534   2.274  1.7945 -0.5364  1.1505
 6663SOL     OW31621   1.293   1.330   1.778  0.3022 -0.7199 -0.4973
 6663SOL    HW131622   1.234   1.370   1.714  0.8662  1.6865  0.5161
 6663SOL    HW231623   1.227   1.326   1.847  0.4739  3.1116 -0.1234
 6664SOL     OW31624   0.731   0.559   4.885  0.6885 -0.0748 -0.4209
 6664SOL    HW131625   0.751   0.653   4.883  0.3179  0.0118 -0.2220
 6664SOL    HW231626   0.796   0.533   4.950 -2.1916  0.9186  2.8955
 6665SOL     OW31627   1.899   2.040   2.126 -0.4811  0.3426  0.0254
 6665SOL    HW131628   1.869   2.123   2.163  2.9276  1.3287  0.6765
 6665SOL    HW231629   1.900   2.051   2.031 -1.5978 -2.5258 -0.3259
 6666SOL     OW31630   2.741   3.895   1.669 -0.1496 -0.4898  0.5925
 6666SOL    HW131631   2.822   3.887   1.618 -0.0513 -3.8248  1.2778
 6666SOL    HW231632   2.755   3.822   1.729  1.5935  0.4073  1.2704
 6667SOL     OW31633   4.098   1.665   2.537 -0.1556 -0.3521 -0.0529
 6667SOL    HW131634   4.175   1.704   2.580 -2.1244  2.3571  0.9666
 6667SOL    HW231635   4.094   1.720   2.459 -0.2972 -0.3194 -0.0220
 6668SOL     OW31636   4.392   4.259   1.546  0.0150  0.1353  0.1353
 6668SOL    HW131637   4.332   4.287   1.477 -1.5524  0.6667  1.7033
 6668SOL    HW231638   4.368   4.311   1.623  3.9041  0.2624  1.2697
 6669SOL     OW31639   1.995   2.114   2.981  0.1571  0.3593 -0.3325
 6669SOL    HW131640   2.046   2.053   2.928  0.1838  0.3561 -0.3037
 6669SOL    HW231641   1.983   2.185   2.918 -3.0302 -0.5034 -0.6927
 6670SOL     OW31642   2.657   4.432   3.941  0.0461  0.2206 -0.5048
 6670SOL    HW131643   2.581   4.455   3.993  0.0580 -1.0134  0.0661
 6670SOL    HW231644   2.617   4.398   3.861  1.1395 -0.0227 -0.9546
 6671SOL     OW31645   4.557   0.866  11.785  0.5011  0.7302  0.5732
 6671SOL    HW131646   4.593   0.850  11.872 -1.4450 -0.5349  1.1458
 6671SOL    HW231647   4.586   0.787  11.741  1.4070  0.5510  1.4933
 6672SOL     OW31648   3.623   4.670  17.422 -0.2361 -0.3734 -0.3644
 6672SOL    HW131649   3.597   0.018  17.385  0.2105 -0.1923 -0.2663
 6672SOL    HW231650   3.717   4.680  17.409 -0.0656  0.1459  1.2368
 6673SOL     OW31651   0.087   2.696  11.186 -0.4388  0.1736  0.0481
 6673SOL    HW131652   0.095   2.600  11.184  0.6049  0.2773 -0.7682
 6673SOL    HW231653   0.178   2.722  11.174 -0.4056  0.4368  0.8944
 6674SOL     OW31654   0.008   2.783   2.146  0.0559  0.0135  0.4777
 6674SOL    HW131655   0.080   2.791   2.210 -0.0559 -1.6616  0.8206
 6674SOL    HW231656   0.045   2.740   2.069  0.5847 -0.0792  0.7782
 6675SOL     OW31657   1.620   0.798   0.296 -0.4360 -0.2761  0.0826
 6675SOL    HW131658   1.613   0.892   0.281  1.6658 -0.2318 -0.6268
 6675SOL    HW231659   1.594   0.791   0.388  1.0092 -0.5996  0.4686
 6676SOL     OW31660   4.113   3.131   4.717 -0.1708  0.4187 -0.0128
 6676SOL    HW131661   4.202   3.110   4.745 -0.0542  0.3626 -0.4291
 6676SOL    HW231662   4.102   3.080   4.637 -0.9743 -0.7113  0.8119
 6677SOL     OW31663   3.977   0.556   6.596  0.5938  0.1435  0.4702
 6677SOL    HW131664   3.983   0.622   6.527 -1.2738 -1.0970 -0.9034
 6677SOL    HW231665   4.065   0.525   6.614  1.1950  1.7332  0.2601
 6678SOL     OW31666   3.801   0.700   6.080 -0.4111 -0.2790 -0.2947
 6678SOL    HW131667   3.728   0.708   6.141 -1.1731 -2.3977 -0.9375
 6678SOL    HW231668   3.790   0.773   6.019  1.6998  0.5175  0.2683
 6679SOL     OW31669   3.765   3.268   3.149  0.3321  1.0658 -0.4099
 6679SOL    HW131670   3.733   3.356   3.128 -1.0514  0.1852 -2.0596
 6679SOL    HW231671   3.800   3.229   3.069 -0.7703 -2.0464  0.6342
 6680SOL     OW31672   4.012   3.586   9.945  0.4891  0.2408 -0.3626
 6680SOL    HW131673   4.011   3.572   9.851 -0.5189  0.7827 -0.4431
 6680SOL    HW231674   3.921   3.567   9.969 -0.5545  2.5549 -2.5448
 6681SOL     OW31675   2.423   0.381   0.377 -0.6491  0.3385  0.2096
 6681SOL    HW131676   2.344   0.406   0.330  1.3064  0.1376 -3.1597
 6681SOL    HW231677   2.431   0.295   0.335  0.6257  1.4069 -1.7186
 6682SOL     OW31678   4.296   0.724   8.907  0.3795 -0.0328 -0.6233
 6682SOL    HW131679   4.208   0.730   8.944  0.3285 -2.5851 -0.3267
 6682SOL    HW231680   4.356   0.711   8.980  0.6675  0.7207 -0.7309
 6683SOL     OW31681   2.938   1.987   6.488 -0.6900  0.3929 -0.2534
 6683SOL    HW131682   2.847   1.957   6.483 -1.2220  2.2989 -2.0085
 6683SOL    HW231683   2.936   2.064   6.433  2.5357  0.2510 -0.5551
 6684SOL     OW31684   3.725   3.412   7.935  0.8096 -0.1797 -0.2003
 6684SOL    HW131685   3.749   3.411   8.028  1.0991  0.8932 -0.2643
 6684SOL    HW231686   3.647   3.357   7.944  0.1008  0.7617 -0.6977
 6685SOL     OW31687   1.882   2.264  15.633 -0.3178 -0.2039  0.5235
 6685SOL    HW131688   1.946   2.279  15.563 -2.3210 -1.7424 -1.6347
 6685SOL    HW231689   1.906   2.179  15.669 -1.2300 -1.2839 -1.4541
 6686SOL     OW31690   1.010   4.312   2.037 -0.1370  0.0162 -0.1475
 6686SOL    HW131691   1.069   4.387   2.036 -0.8680  0.6209  0.9549
 6686SOL    HW231692   0.944   4.355   1.982 -1.0076  1.3773  1.9506
 6687SOL     OW31693   0.555   0.948  11.871 -0.3120  0.4648 -0.1292
 6687SOL    HW131694   0.559   0.979  11.961 -0.5807 -1.1937  0.4500
 6687SOL    HW231695   0.462   0.951  11.849  0.0765  0.5787 -1.7658
 6688SOL     OW31696   2.401   0.817  15.942 -0.9317 -0.2588  0.0284
 6688SOL    HW131697   2.378   0.903  15.978  2.8447  0.7611  0.0016
 6688SOL    HW231698   2.483   0.844  15.901 -2.2367  2.7201 -0.6517
 6689SOL     OW31699   0.035   4.221   3.171 -0.2614 -0.2375  0.3829
 6689SOL    HW131700   4.717   4.283   3.220 -2.8271 -0.1832 -2.5509
 6689SOL    HW231701   4.721   4.141   3.185  1.5095 -1.5052 -0.4393
 6690SOL     OW31702   3.901   3.576  15.243  0.2333  0.0868  0.0278
 6690SOL    HW131703   3.948   3.520  15.181  0.2297 -0.2903  0.3709
 6690SOL    HW231704   3.930   3.664  15.217 -0.1398  0.0193 -0.6293
 6691SOL     OW31705   1.862   2.495  10.079 -0.1690  0.3367 -0.3144
 6691SOL    HW131706   1.789   2.527  10.026  0.2811  1.2494 -0.3852
 6691SOL    HW231707   1.851   2.551  10.155 -0.0828 -0.5420  0.3460
 6692SOL     OW31708   0.691   2.295   8.681  0.2752  0.2435  0.0121
 6692SOL    HW131709   0.767   2.241   8.660 -1.0449 -0.4239 -2.9602
 6692SOL    HW231710   0.697   2.295   8.777 -0.9367  2.5320  0.0976
 6693SOL     OW31711   1.014   4.316  13.075  0.6753 -0.2991 -0.0255
 6693SOL    HW131712   0.943   4.257  13.049 -2.2871  2.0432  2.7697
 6693SOL    HW231713   1.086   4.279  13.024  0.9041 -0.1497  0.1893
 6694SOL     OW31714   1.990   4.290   4.449  0.5178  0.2473 -0.1206
 6694SOL    HW131715   1.906   4.279   4.405  0.3690 -1.6782  0.6436
 6694SOL    HW231716   1.996   4.384   4.466  0.3183  0.6061 -2.1150
 6695SOL     OW31717   0.593   3.080   5.077 -0.1859  0.5920  0.2145
 6695SOL    HW131718   0.620   3.119   4.994  0.2199 -1.0861 -0.4496
 6695SOL    HW231719   0.624   3.139   5.145  1.8860 -1.8608  1.3846
 6696SOL     OW31720   3.987   0.162  17.552 -0.5103 -0.0445  0.5447
 6696SOL    HW131721   3.958   0.186  17.640  0.2033 -1.2335  1.0979
 6696SOL    HW231722   4.080   0.181  17.557 -0.5227  0.1162  0.1860
 6697SOL     OW31723   0.341   0.677   3.071  0.1717 -0.1959 -0.0347
 6697SOL    HW131724   0.327   0.699   3.163 -1.3827  1.7184 -0.7175
 6697SOL    HW231725   0.284   0.747   3.039  0.7833 -0.1845 -1.1119
 6698SOL     OW31726   4.552   2.053   3.287  0.1719 -0.9336 -0.2803
 6698SOL    HW131727   4.465   2.016   3.270 -0.1875  0.9812 -2.5350
 6698SOL    HW231728   4.571   2.032   3.379 -0.9891  1.8597  0.6423
 6699SOL     OW31729   2.358   4.553   8.716 -0.5026  0.1094  0.4149
 6699SOL    HW131730   2.353   4.648   8.722 -0.8183  0.1273 -0.1552
 6699SOL    HW231731   2.453   4.538   8.722 -0.3656  1.1060  0.6600
 6700SOL     OW31732   1.776   3.112   0.632  0.3880 -0.6575  0.3566
 6700SOL    HW131733   1.824   3.037   0.598  1.3619  0.7384 -1.3925
 6700SOL    HW231734   1.845   3.178   0.642  0.0215  0.0539 -1.7538
 6701SOL     OW31735   3.427   0.373   5.425 -0.1079  0.4358 -0.4584
 6701SOL    HW131736   3.493   0.355   5.493 -0.4710  0.2938 -0.1396
 6701SOL    HW231737   3.405   0.463   5.451  2.6044  0.7510  0.7064
 6702SOL     OW31738   0.111   0.347   5.731  0.3585 -0.4613 -0.0556
 6702SOL    HW131739   0.054   0.407   5.778  1.7608 -0.1776  1.2938
 6702SOL    HW231740   0.159   0.409   5.675  0.4567  0.6181  1.2249
 6703SOL     OW31741   3.037   4.119   2.692  0.2504 -0.2939 -0.0164
 6703SOL    HW131742   3.037   4.213   2.705 -1.7157 -0.3448  0.3915
 6703SOL    HW231743   3.125   4.095   2.718  0.2374 -2.8623 -2.2378
 6704SOL     OW31744   1.075   0.832   5.757 -0.4495 -0.3478  0.1232
 6704SOL    HW131745   1.035   0.857   5.673  1.2748  0.9932 -0.2896
 6704SOL    HW231746   1.036   0.893   5.819  0.7197 -0.8512  1.3447
 6705SOL     OW31747   0.517   4.371   7.359  0.6481 -0.4887  0.0737
 6705SOL    HW131748   0.584   4.330   7.304 -0.0606  1.7799 -2.4847
 6705SOL    HW231749   0.542   4.338   7.445  0.8191 -1.0778 -0.1999
 6706SOL     OW31750   0.660   0.734   8.848 -0.2004 -0.1314 -0.1109
 6706SOL    HW131751   0.694   0.690   8.771  0.0014 -1.6591  0.8527
 6706SOL    HW231752   0.568   0.732   8.824 -0.1800 -2.5438  0.0447
 6707SOL     OW31753   1.218   0.414   4.432  0.5294  0.5029  0.0842
 6707SOL    HW131754   1.208   0.457   4.346  1.3233 -0.6338 -0.5686
 6707SOL    HW231755   1.313   0.422   4.438  0.6435 -1.4918  0.7197
 6708SOL     OW31756   2.704   3.791  11.799 -0.2623 -0.0939  0.1908
 6708SOL    HW131757   2.739   3.877  11.822  0.4531  0.0532 -1.4798
 6708SOL    HW231758   2.776   3.728  11.799  0.2855  0.5270  1.2553
 6709SOL     OW31759   0.702   1.440   7.336  0.1330  0.1449 -0.1598
 6709SOL    HW131760   0.663   1.356   7.362  3.2480 -0.5747  2.1833
 6709SOL    HW231761   0.642   1.492   7.390  0.9562 -0.5043  1.3610
 6710SOL     OW31762   3.247   0.804   2.122  0.3925 -0.0234  0.3968
 6710SOL    HW131763   3.154   0.798   2.101 -0.2020  0.6025  2.9198
 6710SOL    HW231764   3.275   0.730   2.067 -0.5177 -1.5627  2.0064
 6711SOL     OW31765   4.713   1.878   5.004 -0.2551  0.3176 -0.3723
 6711SOL    HW131766   4.631   1.860   4.957 -0.9615  1.2239  0.5242
 6711SOL    HW231767   4.683   1.929   5.079 -2.6342  0.8437 -1.6638
 6712SOL     OW31768   1.546   1.393   5.016 -0.6389 -0.1078 -0.1031
 6712SOL    HW131769   1.599   1.352   4.947 -1.3185 -0.3826 -0.4631
 6712SOL    HW231770   1.539   1.318   5.075 -0.3649 -1.6368 -1.9829
 6713SOL     OW31771   1.767   0.213  15.841  0.0970 -0.0472  0.3501
 6713SOL    HW131772   1.791   0.135  15.792 -0.7827 -0.2026  0.1621
 6713SOL    HW231773   1.808   0.283  15.791  1.1047  1.0990  2.7452
 6714SOL     OW31774   3.831   0.682   5.140  0.0918  0.3269  0.0582
 6714SOL    HW131775   3.863   0.743   5.206 -0.1394 -1.3716  1.7423
 6714SOL    HW231776   3.809   0.607   5.195 -0.6855 -0.4960 -1.3872
 6715SOL     OW31777   1.599   4.269   7.856  0.2061  0.5915  0.2899
 6715SOL    HW131778   1.570   4.249   7.945 -1.3257  0.9467 -0.1381
 6715SOL    HW231779   1.517   4.287   7.810  0.6220  0.7090 -0.3903
 6716SOL     OW31780   0.454   0.240   8.241  0.7577  0.2066 -0.0798
 6716SOL    HW131781   0.441   0.322   8.287  4.9764  0.9480 -0.2250
 6716SOL    HW231782   0.530   0.201   8.284  0.6142  1.4770  1.3326
 6717SOL     OW31783   4.164   2.051   7.671 -0.1424  0.4749  0.1542
 6717SOL    HW131784   4.238   2.071   7.614  0.3834  1.2910  1.1253
 6717SOL    HW231785   4.100   2.100   7.619  1.4531  0.6086 -1.6482
 6718SOL     OW31786   2.733   3.591   5.204  0.7151 -0.5279  0.4676
 6718SOL    HW131787   2.731   3.545   5.287 -0.5165  0.3884  0.9572
 6718SOL    HW231788   2.768   3.519   5.151  2.4945  1.0559 -0.5194
 6719SOL     OW31789   0.326   2.697   9.545  0.6992 -0.1517  0.2188
 6719SOL    HW131790   0.231   2.707   9.539  0.8510  0.9024 -0.3581
 6719SOL    HW231791   0.336   2.602   9.552 -0.6882 -0.1079  2.8694
 6720SOL     OW31792   2.074   3.505   2.357  0.0158  0.1751 -0.3948
 6720SOL    HW131793   2.057   3.429   2.414 -1.0928 -1.4778 -2.9258
 6720SOL    HW231794   2.065   3.457   2.275  0.6161  1.6582 -1.3205
 6721SOL     OW31795   1.415   1.788  12.432  0.2546  0.2061 -0.4092
 6721SOL    HW131796   1.340   1.762  12.378  0.8838 -3.1859  0.3815
 6721SOL    HW231797   1.467   1.709  12.444  0.8033  0.6605  0.2041
 6722SOL     OW31798   0.721   2.269  11.198 -0.0510 -0.5856 -0.5233
 6722SOL    HW131799   0.677   2.205  11.254  1.3341  1.2199  2.6365
 6722SOL    HW231800   0.675   2.349  11.225  1.6556  0.2379 -0.0396
 6723SOL     OW31801   0.968   1.455   1.376 -0.1617 -0.5396  0.1358
 6723SOL    HW131802   0.916   1.415   1.306 -1.6597 -0.7879  1.4051
 6723SOL    HW231803   0.914   1.440   1.454 -2.5242  2.2751 -0.9535
 6724SOL     OW31804   0.201   3.976  11.987 -0.2173  0.6803  0.3323
 6724SOL    HW131805   0.120   4.025  11.999 -0.4284  0.0935  1.3486
 6724SOL    HW231806   0.236   3.968  12.076  2.6280  1.7651 -0.6776
 6725SOL     OW31807   0.841   0.986  14.321 -0.3044  0.7265 -0.1802
 6725SOL    HW131808   0.884   0.964  14.239  2.1980  2.4340  0.6874
 6725SOL    HW231809   0.854   1.078  14.345 -1.9532  1.4158 -1.9137
 6726SOL     OW31810   3.698   1.839   7.721 -0.4910  0.2238  0.6072
 6726SOL    HW131811   3.764   1.908   7.726 -1.8459  1.7912 -2.7404
 6726SOL    HW231812   3.699   1.813   7.629  0.5675  1.5758  0.2344
 6727SOL     OW31813   1.481   4.503  14.710  0.0707  0.2675 -0.2507
 6727SOL    HW131814   1.472   4.565  14.783 -0.3944 -0.0649 -0.0226
 6727SOL    HW231815   1.393   4.481  14.678  0.7229 -0.8776 -1.2830
 6728SOL     OW31816   4.660   3.372   3.076 -0.1556  0.4237 -0.0544
 6728SOL    HW131817   4.591   3.308   3.090  0.5391 -0.2028  0.4703
 6728SOL    HW231818   4.651   3.371   2.981  0.3227  1.8572 -0.1193
 6729SOL     OW31819   3.211   3.989   0.192  0.4410 -0.0313 -0.7467
 6729SOL    HW131820   3.199   3.921   0.258 -0.1601  0.5769 -0.2341
 6729SOL    HW231821   3.214   3.936   0.112  0.7621 -1.0105 -0.0870
 6730SOL     OW31822   2.281   1.506   2.976 -0.5665  0.4414  0.6289
 6730SOL    HW131823   2.221   1.546   2.913 -0.9911  0.7837  1.2575
 6730SOL    HW231824   2.362   1.521   2.926  0.4870  1.1762  2.5439
 6731SOL     OW31825   0.611   0.158  15.911 -0.3827 -0.0893 -0.8037
 6731SOL    HW131826   0.566   0.094  15.966  0.5715  1.8741  2.2657
 6731SOL    HW231827   0.642   0.106  15.837 -0.6729 -1.8392  0.2970
 6732SOL     OW31828   2.589   1.845   5.276 -0.1938  0.4981 -0.3633
 6732SOL    HW131829   2.579   1.855   5.371 -3.4836 -3.5778 -0.2952
 6732SOL    HW231830   2.513   1.798   5.244 -1.4242  1.3149  1.3479
 6733SOL     OW31831   3.554   0.546  15.713  0.0101 -0.3878 -0.5113
 6733SOL    HW131832   3.515   0.602  15.780  2.7952  1.2475 -0.2448
 6733SOL    HW231833   3.479   0.487  15.707 -1.9978  2.2281 -1.0413
 6734SOL     OW31834   0.020   3.744  14.163  0.2509 -0.0093 -0.3124
 6734SOL    HW131835   0.102   3.745  14.211  0.1579  1.1961 -0.1787
 6734SOL    HW231836   0.022   3.818  14.102  0.4118 -0.6978 -1.1333
 6735SOL     OW31837   1.940   2.056   7.483 -0.1393  0.2460  0.0948
 6735SOL    HW131838   2.022   2.046   7.436  0.8470 -0.5375  1.9602
 6735SOL    HW231839   1.967   2.024   7.569 -2.1655 -1.5249  0.0670
 6736SOL     OW31840   0.576   0.592   2.915  0.4027 -0.0778 -0.8539
 6736SOL    HW131841   0.630   0.554   2.984  1.7080  0.8297 -1.3684
 6736SOL    HW231842   0.508   0.625   2.975  0.9070 -0.2013 -0.2141
 6737SOL     OW31843   0.178   4.650   4.720  0.3245 -0.0942  0.3384
 6737SOL    HW131844   0.149   4.559   4.733  1.1136 -0.5986 -1.3774
 6737SOL    HW231845   0.149   4.698   4.797 -2.8594  0.3860 -1.1596
 6738SOL     OW31846   3.796   0.046  11.929 -0.3777 -0.2004  0.2347
 6738SOL    HW131847   3.808   0.050  12.024  3.0653 -1.2996 -0.1488
 6738SOL    HW231848   3.774   4.690  11.913 -0.4317 -0.1651  0.1046
 6739SOL     OW31849   2.057   3.570   5.493 -0.3683 -0.3835 -0.1058
 6739SOL    HW131850   1.973   3.563   5.448  0.3695 -1.9773 -1.2194
 6739SOL    HW231851   2.110   3.625   5.436 -0.9540 -1.5211 -1.7320
 6740SOL     OW31852   2.552   0.615   4.182 -0.1437  0.6365 -0.1352
 6740SOL    HW131853   2.619   0.679   4.205  1.1418 -0.4989 -0.7701
 6740SOL    HW231854   2.472   0.644   4.227 -0.6140 -2.1040  0.7986
 6741SOL     OW31855   2.427   3.912   8.212 -0.3320  1.0760  0.5239
 6741SOL    HW131856   2.411   3.826   8.252 -1.1869  2.1709  2.4918
 6741SOL    HW231857   2.340   3.929   8.175  0.7710  4.7558 -0.2997
 6742SOL     OW31858   4.484   0.574  14.143  0.3416  0.2345 -0.2811
 6742SOL    HW131859   4.537   0.576  14.223 -1.7182  1.5114  1.0429
 6742SOL    HW231860   4.525   0.508  14.087 -1.0745 -1.6027  0.8124
 6743SOL     OW31861   4.490   4.466  17.110 -0.3097  0.5626  0.0683
 6743SOL    HW131862   4.461   4.379  17.085 -0.2812  0.6796 -0.3647
 6743SOL    HW231863   4.580   4.438  17.129  0.4799  2.0006 -1.5326
 6744SOL     OW31864   3.292   4.601   6.378  0.0990 -0.4550 -0.1447
 6744SOL    HW131865   3.374   4.593   6.426  2.1385  0.7243 -3.4115
 6744SOL    HW231866   3.335   4.636   6.300 -1.9746 -1.0933 -1.5789
 6745SOL     OW31867   1.539   2.142   1.315 -0.6178  0.4495 -0.4331
 6745SOL    HW131868   1.493   2.123   1.397  0.3001 -0.5432 -0.1392
 6745SOL    HW231869   1.482   2.212   1.282  1.0351  1.7529 -0.5386
 6746SOL     OW31870   0.360   3.462   1.054 -0.4089  0.6707  0.4894
 6746SOL    HW131871   0.325   3.509   0.978 -1.6251 -2.1670 -0.6990
 6746SOL    HW231872   0.305   3.505   1.120  0.8024  1.4000  1.0282
 6747SOL     OW31873   1.045   2.594   6.752  0.4246 -0.4294 -0.9775
 6747SOL    HW131874   0.992   2.672   6.738 -0.3369 -0.5478  1.2562
 6747SOL    HW231875   1.063   2.617   6.843 -0.5109 -0.0964 -0.8773
 6748SOL     OW31876   1.554   1.880   2.719 -0.1310  0.7292  0.1854
 6748SOL    HW131877   1.569   1.846   2.807 -1.8989  0.4838  0.3880
 6748SOL    HW231878   1.532   1.971   2.739  1.0361  1.0495 -0.0016
 6749SOL     OW31879   3.557   4.586   0.510  0.3231 -0.7584  0.2609
 6749SOL    HW131880   3.551   4.524   0.437 -0.5224 -1.5872  1.0444
 6749SOL    HW231881   3.471   4.580   0.551  1.2321 -1.1868  2.1219
 6750SOL     OW31882   0.546   2.211   0.558 -0.1821 -0.5844 -0.2218
 6750SOL    HW131883   0.572   2.301   0.576  1.1965 -0.9880 -0.1738
 6750SOL    HW231884   0.499   2.207   0.475 -0.8127  0.2742  0.1037
 6751SOL     OW31885   1.771   0.717  12.783  0.0716  0.4349 -0.1616
 6751SOL    HW131886   1.825   0.661  12.726  0.8541 -0.6694  1.6380
 6751SOL    HW231887   1.726   0.653  12.838 -2.6825  0.5229 -2.3568
 6752SOL     OW31888   2.321   1.878   6.010 -0.0916 -0.1601 -0.4799
 6752SOL    HW131889   2.393   1.824   6.044 -1.1955 -1.0361  0.4800
 6752SOL    HW231890   2.250   1.826   6.049  0.5199 -0.0221  0.8174
 6753SOL     OW31891   3.452   2.104   2.217  0.4210  0.2970  0.1979
 6753SOL    HW131892   3.447   2.189   2.172 -0.4941 -0.6962 -1.5598
 6753SOL    HW231893   3.360   2.081   2.228  0.1463  0.8012 -1.0443
 6754SOL     OW31894   0.242   3.592   1.255 -0.1147 -0.3849 -0.1126
 6754SOL    HW131895   0.186   3.669   1.268 -2.1418 -2.3762  2.8953
 6754SOL    HW231896   0.311   3.598   1.320 -0.8511 -0.9290  0.7128
 6755SOL     OW31897   0.687   1.864   5.294 -0.4810 -0.4103  0.1490
 6755SOL    HW131898   0.659   1.823   5.211 -1.5252 -2.0610  1.3103
 6755SOL    HW231899   0.779   1.840   5.303 -0.2740 -0.0497 -1.0451
 6756SOL     OW31900   2.559   4.283  15.638  0.3868  0.0220 -0.1464
 6756SOL    HW131901   2.616   4.226  15.587  0.3071 -0.1424 -0.0537
 6756SOL    HW231902   2.490   4.301  15.574  0.2304 -0.5094 -0.1284
 6757SOL     OW31903   4.247   3.536  17.271  0.1984  0.1859 -0.3311
 6757SOL    HW131904   4.303   3.501  17.340  0.3456 -2.2324 -1.6427
 6757SOL    HW231905   4.198   3.460  17.239  0.8024  0.2203 -1.3379
 6758SOL     OW31906   2.642   4.107   6.469  0.2622 -0.0358  0.2822
 6758SOL    HW131907   2.692   4.188   6.481 -0.0592  0.3407 -0.9068
 6758SOL    HW231908   2.550   4.130   6.481  0.2004  0.7211 -1.6048
 6759SOL     OW31909   1.099   2.448  15.307 -0.4878  0.4027 -0.2878
 6759SOL    HW131910   1.135   2.404  15.230  1.6902 -0.9354  1.5071
 6759SOL    HW231911   1.135   2.536  15.294  1.6764 -0.6708 -1.6253
 6760SOL     OW31912   3.721   1.823   4.356 -0.2481  0.0483  0.2303
 6760SOL    HW131913   3.638   1.842   4.313 -0.0202 -1.0098 -0.6649
 6760SOL    HW231914   3.748   1.907   4.393 -1.0182 -0.1570  1.2674
 6761SOL     OW31915   1.439   3.161   4.225 -0.4643  0.3675  0.7960
 6761SOL    HW131916   1.428   3.227   4.157  1.4587  0.7447  0.8346
 6761SOL    HW231917   1.495   3.204   4.290  0.4790  0.4517 -0.0653
 6762SOL     OW31918   0.142   4.524  15.291  0.0996 -0.2016  0.2028
 6762SOL    HW131919   0.122   4.597  15.350  0.3621 -1.1073  1.3954
 6762SOL    HW231920   0.102   4.456  15.344  0.4708 -1.5729 -1.2691
 6763SOL     OW31921   0.422   1.798   6.296  0.0349 -0.6448 -0.6177
 6763SOL    HW131922   0.460   1.782   6.209  0.5077 -0.6038 -0.4220
 6763SOL    HW231923   0.354   1.861   6.273  2.2512  1.7842 -0.5892
 6764SOL     OW31924   2.738   1.646  12.921 -0.2180 -0.0384 -0.0679
 6764SOL    HW131925   2.708   1.558  12.944  1.9217 -0.7243  0.1185
 6764SOL    HW231926   2.825   1.642  12.962  0.6464  0.8160 -1.8085
 6765SOL     OW31927   3.438   4.492   5.833 -0.1859 -0.0034  0.3488
 6765SOL    HW131928   3.423   4.574   5.880  0.5511  0.2760  0.0952
 6765SOL    HW231929   3.526   4.510   5.800 -1.1370  0.8262 -1.7810
 6766SOL     OW31930   1.384   2.955   5.906  0.7448  0.0256  0.1031
 6766SOL    HW131931   1.412   3.019   5.972  2.2637 -0.4445 -0.0832
 6766SOL    HW231932   1.425   2.872   5.929 -0.0689 -0.4946 -0.3290
 6767SOL     OW31933   0.851   3.581   4.484 -0.5679  0.0420 -0.2501
 6767SOL    HW131934   0.774   3.545   4.528  0.3047  0.0433  1.2460
 6767SOL    HW231935   0.913   3.576   4.556 -0.3299 -0.2226 -0.4744
 6768SOL     OW31936   2.393   0.681  17.062  0.3687  0.1853 -0.2145
 6768SOL    HW131937   2.399   0.746  17.132  1.5240 -0.7474  0.5341
 6768SOL    HW231938   2.298   0.682  17.079  0.2097 -1.6097 -0.9291
 6769SOL     OW31939   3.686   2.983   3.939  0.0183  0.0560  0.5385
 6769SOL    HW131940   3.752   3.017   3.878 -0.7263 -1.8723 -1.3265
 6769SOL    HW231941   3.725   3.027   4.014  1.0891 -2.1229  1.2458
 6770SOL     OW31942   0.012   1.289  14.016 -0.1278 -0.2484  0.2929
 6770SOL    HW131943   0.059   1.274  14.098  1.2052 -0.8106 -0.5682
 6770SOL    HW231944   0.049   1.376  14.005 -1.1341 -0.0487 -1.5339
 6771SOL     OW31945   1.358   4.279   3.095 -0.3745  0.1445  0.1969
 6771SOL    HW131946   1.332   4.250   3.182 -0.7553 -0.2128 -0.0362
 6771SOL    HW231947   1.437   4.327   3.121 -0.2928  0.6417 -0.9603
 6772SOL     OW31948   4.133   1.696   6.133  0.0394 -0.3962 -0.2508
 6772SOL    HW131949   4.101   1.658   6.215  0.5409 -0.2276  0.0229
 6772SOL    HW231950   4.117   1.624   6.072  3.1700  0.9108 -2.6077
 6773SOL     OW31951   3.741   0.483   6.333 -0.2232  0.3527  0.1115
 6773SOL    HW131952   3.702   0.498   6.419  1.3893 -1.3378  1.1185
 6773SOL    HW231953   3.817   0.540   6.336 -2.1012  2.9946 -2.2365
 6774SOL     OW31954   2.509   3.604   2.741  0.1064  0.7977  0.7863
 6774SOL    HW131955   2.485   3.550   2.666 -2.2937 -0.7263  2.6490
 6774SOL    HW231956   2.526   3.532   2.801 -2.1986 -1.6367 -1.4922
 6775SOL     OW31957   1.312   2.643   8.575  0.3670  0.1753  0.1519
 6775SOL    HW131958   1.373   2.637   8.502 -0.4485 -1.2783 -0.4263
 6775SOL    HW231959   1.270   2.728   8.568  0.2614  0.1479  0.4277
 6776SOL     OW31960   0.465   4.371   4.296 -0.5758  0.2020  0.4908
 6776SOL    HW131961   0.551   4.412   4.298 -0.8011  0.7031 -0.3906
 6776SOL    HW231962   0.489   4.278   4.292  1.8266  0.8623 -0.2464
 6777SOL     OW31963   2.516   0.339   7.879  0.7806  0.1952  0.9364
 6777SOL    HW131964   2.590   0.354   7.938  1.1664  2.2694 -0.1101
 6777SOL    HW231965   2.552   0.277   7.816  0.9227 -0.8881  2.0630
 6778SOL     OW31966   3.068   1.255  16.707  0.1241  0.0683  0.6859
 6778SOL    HW131967   3.090   1.314  16.779  0.5026 -0.7184  1.2135
 6778SOL    HW231968   3.150   1.209  16.692  0.5079  1.4681 -1.5055
 6779SOL     OW31969   4.649   1.531   2.204  0.2952 -0.4538 -0.0365
 6779SOL    HW131970   4.630   1.477   2.127 -0.2037  1.6539 -1.3774
 6779SOL    HW231971   4.636   1.617   2.164 -1.9025 -0.3848  0.8275
 6780SOL     OW31972   3.152   1.109   7.392 -0.1750 -0.3171  0.8937
 6780SOL    HW131973   3.210   1.185   7.400 -0.0554 -0.0107 -2.6371
 6780SOL    HW231974   3.155   1.112   7.296 -0.0421  1.3223  0.9486
 6781SOL     OW31975   4.285   4.366   6.506 -0.3214 -0.2554 -0.2030
 6781SOL    HW131976   4.194   4.394   6.513 -0.1883  0.1541 -0.1129
 6781SOL    HW231977   4.292   4.288   6.560  1.0789  0.2435  0.3299
 6782SOL     OW31978   3.186   1.263  17.095 -0.4777 -0.8002 -0.1271
 6782SOL    HW131979   3.168   1.286  17.004 -3.8021 -1.1827  0.4248
 6782SOL    HW231980   3.222   1.343  17.136 -1.5029 -2.1276  3.4138
 6783SOL     OW31981   4.071   0.429   2.981  0.2031  0.3262 -0.0947
 6783SOL    HW131982   4.131   0.436   2.906  0.3214 -0.0318 -0.0335
 6783SOL    HW231983   4.135   0.379   3.030  0.1175 -0.9246 -1.2532
 6784SOL     OW31984   0.841   0.921   4.148  0.1517  0.5652  0.4341
 6784SOL    HW131985   0.751   0.899   4.173  0.6428 -2.6880 -0.6559
 6784SOL    HW231986   0.834   0.903   4.054  1.1348 -0.4441  0.5516
 6785SOL     OW31987   1.557   0.585   6.622  0.9022  0.3323  0.6843
 6785SOL    HW131988   1.487   0.546   6.569  0.3611 -0.1272  1.7358
 6785SOL    HW231989   1.564   0.520   6.692 -0.8654 -0.3798  0.1982
 6786SOL     OW31990   1.010   2.206   4.546  0.2535  0.7411  0.0524
 6786SOL    HW131991   1.049   2.130   4.588 -0.7289  1.2023  1.8120
 6786SOL    HW231992   1.009   2.181   4.454  2.0001 -0.1185  0.2656
 6787SOL     OW31993   1.632   1.596   1.346  0.2945  0.3641 -0.1401
 6787SOL    HW131994   1.562   1.574   1.285  1.3194  1.2640 -1.6337
 6787SOL    HW231995   1.688   1.630   1.277 -0.6115  2.2844  0.0893
 6788SOL     OW31996   1.052   3.278   2.606  0.0194 -0.1495 -0.1801
 6788SOL    HW131997   1.069   3.291   2.512  1.7156  2.2858  0.4471
 6788SOL    HW231998   1.003   3.359   2.621  1.5462  0.8558 -0.5590
 6789SOL     OW31999   0.555   1.808  15.761 -0.0255  0.1049 -0.4821
 6789SOL    HW132000   0.593   1.878  15.814 -1.7183  1.4998 -1.1280
 6789SOL    HW232001   0.530   1.738  15.822 -0.5102  0.3878 -0.3625
 6790SOL     OW32002   1.209   3.419  15.565  0.1964  0.2159 -0.1488
 6790SOL    HW132003   1.224   3.442  15.473  2.5522  1.0348  0.4570
 6790SOL    HW232004   1.261   3.339  15.567  0.7411  0.5011 -2.0835
 6791SOL     OW32005   0.147   3.214   3.644 -0.0529  0.2670  0.0473
 6791SOL    HW132006   0.182   3.180   3.562 -0.3738  1.1842 -0.4756
 6791SOL    HW232007   0.056   3.226   3.616  0.1728 -1.1043 -1.2520
 6792SOL     OW32008   3.806   3.576   1.810 -0.2204  0.1465 -0.3423
 6792SOL    HW132009   3.823   3.552   1.901  0.0854  2.9270  0.3401
 6792SOL    HW232010   3.757   3.657   1.820  1.4356  1.1839 -0.6108
 6793SOL     OW32011   2.290   4.005   5.971 -0.5889  0.1549 -0.3051
 6793SOL    HW132012   2.377   4.045   5.976  0.5178 -2.3997  1.4616
 6793SOL    HW232013   2.261   4.023   6.060 -1.0943  0.6463 -0.5694
 6794SOL     OW32014   2.153   4.669   4.077  0.0958 -0.0796 -1.0123
 6794SOL    HW132015   2.090   4.608   4.117 -0.7017  0.0731 -2.0349
 6794SOL    HW232016   2.136   4.684   3.984 -0.7628 -1.9396 -1.1553
 6795SOL     OW32017   0.996   3.104  15.123  0.3778  0.2720  0.0845
 6795SOL    HW132018   0.933   3.100  15.194 -0.3428 -0.3166 -0.5851
 6795SOL    HW232019   0.950   3.063  15.050 -2.0208  3.3312 -0.0902
 6796SOL     OW32020   4.425   1.145   5.827 -0.4844  0.6738 -0.3429
 6796SOL    HW132021   4.416   1.240   5.816  0.1050  0.5811 -1.5708
 6796SOL    HW232022   4.492   1.141   5.895 -0.4202  0.0076 -0.4444
 6797SOL     OW32023   1.714   3.124   7.310 -0.0256  0.0562 -0.0217
 6797SOL    HW132024   1.796   3.079   7.289 -0.4575  0.2071 -2.0909
 6797SOL    HW232025   1.667   3.140   7.227 -0.9511 -2.8677 -0.0551
 6798SOL     OW32026   1.484   1.928   1.591  0.0871  0.3334  0.5386
 6798SOL    HW132027   1.420   1.927   1.520  0.1328 -1.4543  0.5084
 6798SOL    HW232028   1.497   1.834   1.608  1.6734  0.2960 -0.8800
 6799SOL     OW32029   2.613   3.390  16.037  0.3554  0.1243  0.5397
 6799SOL    HW132030   2.617   3.425  15.948 -0.8167 -0.8021  0.1129
 6799SOL    HW232031   2.700   3.351  16.045  1.1258  1.8882  0.6710
 6800SOL     OW32032   3.281   1.522   8.256  0.0149 -0.6292  0.5060
 6800SOL    HW132033   3.276   1.551   8.347 -0.5496  0.2769  0.1861
 6800SOL    HW232034   3.230   1.444   8.278 -0.1449 -0.1815  1.6864
 6801SOL     OW32035   2.694   2.575  11.841  0.2392 -0.2876  0.2844
 6801SOL    HW132036   2.728   2.664  11.850 -0.4883 -0.0743  0.9246
 6801SOL    HW232037   2.615   2.580  11.788  2.2877  2.7088 -2.4775
 6802SOL     OW32038   1.851   4.542   3.702  0.4325  0.2831 -0.4727
 6802SOL    HW132039   1.774   4.485   3.707  2.8064 -2.8446 -0.1927
 6802SOL    HW232040   1.915   4.474   3.682  1.4675  1.2953 -0.5901
 6803SOL     OW32041   4.023   0.979  12.805 -0.4130 -0.1475 -0.4918
 6803SOL    HW132042   3.928   0.977  12.814 -0.5115 -2.1678 -2.0209
 6803SOL    HW232043   4.042   0.892  12.771 -0.1145 -0.1159 -0.4045
 6804SOL     OW32044   0.156   4.400   3.620 -0.3328 -0.2942 -0.3561
 6804SOL    HW132045   0.203   4.435   3.544  0.5165 -2.6101 -0.9098
 6804SOL    HW232046   0.190   4.458   3.687 -1.3277 -2.3063  1.8849
 6805SOL     OW32047   3.948   0.989   7.056  0.1224 -0.4674 -0.4712
 6805SOL    HW132048   3.992   0.952   7.133 -0.8300  0.1599  0.3654
 6805SOL    HW232049   3.975   0.934   6.982  0.9879  1.4372 -1.5567
 6806SOL     OW32050   4.466   1.690   0.541 -0.4070  0.3004 -0.0770
 6806SOL    HW132051   4.454   1.627   0.613  1.7378  2.2221  1.9389
 6806SOL    HW232052   4.561   1.702   0.539 -0.1313 -1.1619  4.5748
 6807SOL     OW32053   2.316   0.771   1.522 -0.0669 -0.0354 -0.0995
 6807SOL    HW132054   2.348   0.769   1.431  2.6169 -0.2368  0.8310
 6807SOL    HW232055   2.253   0.843   1.521 -1.4805 -1.2791 -0.5878
 6808SOL     OW32056   0.534   4.277   6.812 -0.0049  0.2548 -0.3544
 6808SOL    HW132057   0.454   4.323   6.788  0.5918  0.4304 -2.0555
 6808SOL    HW232058   0.492   4.192   6.821 -0.2454  0.5427  1.1624
 6809SOL     OW32059   0.078   3.236   2.570 -0.1635  0.8355  0.4975
 6809SOL    HW132060   0.167   3.220   2.538 -0.4995  0.9878 -0.5144
 6809SOL    HW232061   0.054   3.324   2.541  1.4291  0.3541 -2.3400
 6810SOL     OW32062   3.181   2.776  13.297 -0.1147  0.0666  0.0273
 6810SOL    HW132063   3.263   2.824  13.301  1.6683 -2.9250 -0.4390
 6810SOL    HW232064   3.199   2.706  13.360  0.5426 -0.1804 -0.4374
 6811SOL     OW32065   2.130   1.450  15.664  0.4059 -0.1267 -0.1757
 6811SOL    HW132066   2.194   1.385  15.694 -1.4379 -1.6857  0.3775
 6811SOL    HW232067   2.152   1.451  15.571 -0.5171  0.7106 -0.3900
 6812SOL     OW32068   1.331   2.355  16.918  0.0652  0.4198  0.3350
 6812SOL    HW132069   1.287   2.398  16.991 -1.4345  1.4557 -1.1895
 6812SOL    HW232070   1.343   2.422  16.851  0.4303  0.2269  0.2047
 6813SOL     OW32071   0.558   1.379   3.650 -0.3635  0.1873  0.5073
 6813SOL    HW132072   0.473   1.335   3.641  0.1515 -1.3680  3.2176
 6813SOL    HW232073   0.531   1.468   3.673 -1.1803  0.0804 -0.0417
 6814SOL     OW32074   2.357   1.211   2.332  0.2618  0.3302  0.0222
 6814SOL    HW132075   2.438   1.244   2.370  0.3100  0.3771 -0.1217
 6814SOL    HW232076   2.373   1.227   2.239  2.0113  0.1408  0.2975
 6815SOL     OW32077   2.161   1.057   7.163 -0.2382  0.5977 -0.6542
 6815SOL    HW132078   2.116   1.092   7.240  0.2505 -0.2566  0.0203
 6815SOL    HW232079   2.176   1.136   7.111 -1.2092  1.7305  0.7771
 6816SOL     OW32080   0.594   1.574  12.372 -0.0627 -0.3236  0.3472
 6816SOL    HW132081   0.597   1.668  12.354 -2.3026 -0.8528 -2.7750
 6816SOL    HW232082   0.591   1.537  12.284 -0.9215 -1.7961  1.0056
 6817SOL     OW32083   3.531   3.273   9.584 -0.4482 -0.0571  0.1562
 6817SOL    HW132084   3.548   3.259   9.677  0.5521 -0.6222 -0.1201
 6817SOL    HW232085   3.608   3.326   9.565 -0.2959 -0.3629 -0.0686
 6818SOL     OW32086   0.391   4.425  10.203  0.1566 -0.1305  0.3093
 6818SOL    HW132087   0.361   4.380  10.282 -1.0325  0.2111  0.0374
 6818SOL    HW232088   0.486   4.416  10.213  0.2543 -0.2602 -0.7481
 6819SOL     OW32089   1.624   1.994  17.234  0.1480 -0.5969  0.9965
 6819SOL    HW132090   1.579   2.076  17.256 -2.0378 -1.6219  0.3386
 6819SOL    HW232091   1.675   1.978  17.314 -1.1515  1.1938  2.1920
 6820SOL     OW32092   3.444   0.309   5.137 -0.3075 -0.4243 -0.2989
 6820SOL    HW132093   3.433   0.214   5.142 -2.0057 -0.2359 -0.5307
 6820SOL    HW232094   3.479   0.319   5.226  0.6643  0.3405 -0.7717
 6821SOL     OW32095   3.356   0.794   7.352 -0.3380  0.0771  0.2116
 6821SOL    HW132096   3.316   0.734   7.415  1.3742 -1.0553  0.2039
 6821SOL    HW232097   3.319   0.777   7.265 -0.5976  2.0268 -0.0588
 6822SOL     OW32098   2.040   4.285   0.780 -0.1199  0.1143 -0.3794
 6822SOL    HW132099   2.071   4.310   0.868 -0.5015  0.3301 -0.3083
 6822SOL    HW232100   1.947   4.279   0.798 -0.1047  1.2508  0.0980
 6823SOL     OW32101   2.354   4.163   3.155  0.3964  0.6115 -0.0403
 6823SOL    HW132102   2.377   4.247   3.116 -0.7126 -0.6763 -3.4574
 6823SOL    HW232103   2.261   4.153   3.133 -0.0806  0.4595  2.0820
 6824SOL     OW32104   2.076   2.041   8.981 -0.7224  0.6814 -0.4145
 6824SOL    HW132105   2.084   2.080   9.068  1.2545  1.6625 -1.0277
 6824SOL    HW232106   2.154   1.985   8.974 -0.5395  0.8364  0.4035
 6825SOL     OW32107   0.313   2.693   2.917  0.2307 -0.5543  0.3695
 6825SOL    HW132108   0.391   2.663   2.964 -0.6900  1.1088  2.9712
 6825SOL    HW232109   0.319   2.788   2.928 -0.8186 -0.4700  0.1946
 6826SOL     OW32110   3.259   4.104   3.967  0.3444  0.1024 -0.3546
 6826SOL    HW132111   3.307   4.043   3.911 -1.3495 -2.3655  0.8486
 6826SOL    HW232112   3.272   4.189   3.926 -1.7240  0.5489 -0.0915
 6827SOL     OW32113   2.567   4.205  16.569 -0.0505  0.0433 -0.0675
 6827SOL    HW132114   2.586   4.111  16.579  2.0646  0.5788  1.0328
 6827SOL    HW232115   2.531   4.201  16.481  2.1026 -2.2946 -0.8596
 6828SOL     OW32116   0.345   0.206   4.079 -0.0478 -0.1329  0.4355
 6828SOL    HW132117   0.252   0.183   4.087  0.7008 -2.7220  1.6125
 6828SOL    HW232118   0.369   0.174   4.166  0.6199  2.0556  1.0544
 6829SOL     OW32119   3.235   2.576  14.730 -0.0492 -0.6009  0.0183
 6829SOL    HW132120   3.220   2.669  14.714 -2.2756 -0.5546  2.3821
 6829SOL    HW232121   3.265   2.575  14.821  0.8352 -2.8319 -0.2795
 6830SOL     OW32122   0.698   2.441   7.164 -0.1329  0.2134 -0.1092
 6830SOL    HW132123   0.671   2.421   7.074  2.0774 -1.0700 -0.4824
 6830SOL    HW232124   0.637   2.511   7.187  1.2337  0.9223  1.3442
 6831SOL     OW32125   2.867   2.363   8.913 -0.6403 -0.2331  0.1135
 6831SOL    HW132126   2.785   2.408   8.890 -0.5402 -0.9911 -1.7609
 6831SOL    HW232127   2.903   2.439   8.960 -1.5677  0.6515 -0.5930
 6832SOL     OW32128   2.926   4.677   3.169  0.8073  0.3515  0.1366
 6832SOL    HW132129   2.844   4.643   3.205  1.4441 -0.6024  0.6842
 6832SOL    HW232130   2.915   4.654   3.077 -0.4500  0.3795  0.2761
 6833SOL     OW32131   1.409   1.719   8.841 -0.2499  0.6222  0.0735
 6833SOL    HW132132   1.385   1.665   8.915  0.6600  2.1476  1.4853
 6833SOL    HW232133   1.363   1.802   8.856 -0.6277  0.3684  0.3151
 6834SOL     OW32134   0.780   1.515  10.681 -0.4070 -0.1597  0.1928
 6834SOL    HW132135   0.846   1.492  10.615  0.1226 -0.4410  0.8173
 6834SOL    HW232136   0.842   1.542  10.749  1.3461 -0.6810 -1.1905
 6835SOL     OW32137   4.221   1.428   8.411 -0.0764  0.0209 -0.4654
 6835SOL    HW132138   4.280   1.503   8.408 -0.4314  0.4001  2.1393
 6835SOL    HW232139   4.140   1.469   8.380  0.5171  1.9643  0.5384
 6836SOL     OW32140   0.563   0.547   0.854  0.0250  0.4712 -0.1567
 6836SOL    HW132141   0.598   0.467   0.894 -3.5421 -1.6577 -1.2566
 6836SOL    HW232142   0.571   0.541   0.759  0.3930 -0.1695 -0.0853
 6837SOL     OW32143   2.909   0.847   6.892  0.0687  0.2301  0.0386
 6837SOL    HW132144   2.985   0.791   6.879  1.4620  1.5464  2.4762
 6837SOL    HW232145   2.935   0.933   6.858 -0.2225  0.1473 -0.3913
 6838SOL     OW32146   0.131   1.384   2.989 -0.1381 -0.5603  0.0860
 6838SOL    HW132147   0.209   1.376   2.933 -0.7579  0.5665 -0.9473
 6838SOL    HW232148   0.172   1.425   3.065  0.4028 -1.9827  0.5697
 6839SOL     OW32149   1.099   4.084   2.964  0.3832  0.5159  0.2287
 6839SOL    HW132150   1.134   4.172   2.978  0.3308  0.4513  0.7926
 6839SOL    HW232151   1.143   4.051   2.886 -0.9458 -1.6981  0.4212
 6840SOL     OW32152   3.510   3.383  17.005  0.0126 -0.8981  0.1992
 6840SOL    HW132153   3.532   3.302  16.959  0.5844  0.5737 -2.1516
 6840SOL    HW232154   3.584   3.386  17.065 -1.1253  0.9159  1.5151
 6841SOL     OW32155   0.028   1.052   2.708  0.6049 -0.1968  0.2541
 6841SOL    HW132156   4.736   0.962   2.696 -0.0076 -0.1389  1.3158
 6841SOL    HW232157   0.116   1.039   2.742  0.1832 -0.0186  1.4239
 6842SOL     OW32158   0.101   0.998   8.921 -0.1781 -0.0036 -0.5372
 6842SOL    HW132159   0.171   0.965   8.865  0.3324 -1.8948  1.1892
 6842SOL    HW232160   0.154   1.041   8.988  1.1020 -0.4781 -1.2553
 6843SOL     OW32161   2.836   2.932   8.273  0.1624 -0.1870 -0.4521
 6843SOL    HW132162   2.875   2.999   8.329 -0.6796 -0.5788  0.5900
 6843SOL    HW232163   2.752   2.913   8.315  0.5408 -2.0187 -0.5377
 6844SOL     OW32164   3.390   2.296  10.047  0.0199  0.3157  0.3165
 6844SOL    HW132165   3.425   2.257  10.128 -0.1616  1.8477  1.1239
 6844SOL    HW232166   3.300   2.264  10.049  0.2704 -0.3462  1.2139
 6845SOL     OW32167   4.296   2.643   7.269  0.6285  0.3479 -0.5556
 6845SOL    HW132168   4.383   2.606   7.253 -0.1523 -0.8359 -1.9573
 6845SOL    HW232169   4.300   2.650   7.365 -1.2659 -1.1052 -0.3834
 6846SOL     OW32170   1.207   1.262  11.212  0.1370  0.1936  0.5956
 6846SOL    HW132171   1.145   1.330  11.237 -0.3842 -0.7470  1.8380
 6846SOL    HW232172   1.151   1.185  11.214  1.5646 -0.8835 -0.7648
 6847SOL     OW32173   4.550   2.681   5.267 -0.3858  0.2383  0.4451
 6847SOL    HW132174   4.646   2.672   5.272 -0.5695 -1.8810  0.0804
 6847SOL    HW232175   4.516   2.613   5.326 -1.6130  0.1200 -0.4106
 6848SOL     OW32176   2.443   4.253   2.794  0.2656  0.4807 -0.0367
 6848SOL    HW132177   2.524   4.219   2.831 -0.4303  1.2252  2.2054
 6848SOL    HW232178   2.401   4.174   2.760  0.0822 -0.6866  2.9173
 6849SOL     OW32179   3.596   4.203   4.476 -0.1499 -0.4592  0.4663
 6849SOL    HW132180   3.664   4.269   4.460 -0.5788  0.2075  1.3532
 6849SOL    HW232181   3.645   4.123   4.492  0.5246  0.0689  1.0546
 6850SOL     OW32182   3.470   2.858   3.404 -0.9703 -0.2509 -0.0238
 6850SOL    HW132183   3.542   2.891   3.351 -0.2352  0.3839  1.3991
 6850SOL    HW232184   3.467   2.924   3.473  0.1997 -1.5373  1.2619
 6851SOL     OW32185   3.477   2.032   5.689  0.3567 -0.8123 -0.7945
 6851SOL    HW132186   3.500   2.083   5.612  0.0054  0.3332 -0.1277
 6851SOL    HW232187   3.421   2.091   5.739 -0.6458 -0.4648 -2.3413
 6852SOL     OW32188   2.125   1.364   4.616  0.0854  0.2972  0.4113
 6852SOL    HW132189   2.139   1.411   4.534 -1.3081 -1.1189 -0.6171
 6852SOL    HW232190   2.094   1.437   4.671  0.3681  1.1793 -0.5934
 6853SOL     OW32191   3.867   4.330   4.550 -0.7090  0.3386  0.2268
 6853SOL    HW132192   3.863   4.397   4.481  0.7154 -2.0575 -2.1420
 6853SOL    HW232193   3.952   4.292   4.531  0.0397  2.1618 -0.1073
 6854SOL     OW32194   0.617   2.554   7.551 -0.2309 -0.2255 -1.1989
 6854SOL    HW132195   0.543   2.494   7.560 -0.3417 -0.3638 -3.0026
 6854SOL    HW232196   0.604   2.570   7.457  1.0415 -2.5652 -1.7714
 6855SOL     OW32197   2.979   0.214  15.810 -0.0120 -0.3744 -0.2630
 6855SOL    HW132198   2.939   0.127  15.807  0.1769 -0.4805  0.2639
 6855SOL    HW232199   3.068   0.185  15.792  0.6717 -0.1400  2.7710
 6856SOL     OW32200   4.025   0.449  15.577 -0.0321  0.1704  0.3983
 6856SOL    HW132201   4.071   0.365  15.587  0.3197  0.3028 -0.1510
 6856SOL    HW232202   3.964   0.464  15.650 -0.9537 -0.0325 -0.3366
 6857SOL     OW32203   0.832   4.684   0.939  0.0606 -0.2027 -0.3603
 6857SOL    HW132204   0.810   0.031   0.897  0.0838 -0.3306 -0.6265
 6857SOL    HW232205   0.889   4.646   0.872  0.3057 -0.0167 -0.2559
 6858SOL     OW32206   0.155   3.781   6.302  0.0932 -0.6870  0.3708
 6858SOL    HW132207   0.090   3.773   6.233  0.3138 -2.3770  0.3516
 6858SOL    HW232208   0.203   3.700   6.283  2.0039  1.2499 -3.0722
 6859SOL     OW32209   3.684   2.527   3.851  0.1555  0.0335 -0.6158
 6859SOL    HW132210   3.649   2.523   3.940  1.1501  2.3103 -0.1387
 6859SOL    HW232211   3.632   2.597   3.812  0.0569 -0.0255 -0.5907
 6860SOL     OW32212   2.786   2.299  16.231  0.1140  0.2879  0.5160
 6860SOL    HW132213   2.863   2.313  16.288 -0.2177 -0.6741  1.2022
 6860SOL    HW232214   2.729   2.260  16.297 -0.1812  0.1920  0.1997
 6861SOL     OW32215   1.332   3.863   4.369  0.2634 -0.3516 -0.2977
 6861SOL    HW132216   1.358   3.928   4.433 -3.1091  0.6977  0.0232
 6861SOL    HW232217   1.295   3.922   4.303 -0.8918 -1.6994 -0.8712
 6862SOL     OW32218   2.824   0.562   4.521 -0.1048 -0.1043 -0.0374
 6862SOL    HW132219   2.873   0.504   4.580 -0.2282  0.4001  0.5632
 6862SOL    HW232220   2.857   0.646   4.553  0.0433 -0.7344  1.5043
 6863SOL     OW32221   3.532   2.445   2.626 -0.1515  0.1287  0.6401
 6863SOL    HW132222   3.568   2.533   2.628  1.1070 -0.3812  0.4698
 6863SOL    HW232223   3.465   2.448   2.556 -0.0542  0.3778  0.5598
 6864SOL     OW32224   0.466   2.091  16.942 -0.4160 -0.4484  0.6380
 6864SOL    HW132225   0.557   2.116  16.957 -0.2673  0.0878 -1.1353
 6864SOL    HW232226   0.468   2.045  16.858  0.9615  0.2864  0.2670
 6865SOL     OW32227   2.914   0.465  12.865 -0.0853  0.0823  0.4386
 6865SOL    HW132228   2.987   0.458  12.926 -1.6220 -2.0937  1.9841
 6865SOL    HW232229   2.844   0.470  12.930 -1.1705  0.5516 -0.7589
 6866SOL     OW32230   0.472   2.858   9.270 -0.3405  0.0747  0.5110
 6866SOL    HW132231   0.473   2.914   9.347  0.6473  0.3585  0.2975
 6866SOL    HW232232   0.383   2.825   9.279 -0.9166  1.2382 -0.8793
 6867SOL     OW32233   3.483   0.171   4.385  0.0243 -0.6762  0.2466
 6867SOL    HW132234   3.401   0.152   4.431 -1.0659  1.8292 -0.6466
 6867SOL    HW232235   3.515   0.081   4.380 -0.7899 -1.0365  1.3377
 6868SOL     OW32236   0.490   3.904   3.848  0.3094  0.3760 -0.0439
 6868SOL    HW132237   0.410   3.862   3.880 -0.0054 -0.2307 -1.6607
 6868SOL    HW232238   0.475   3.898   3.754  0.5432 -1.4449  0.0353
 6869SOL     OW32239   2.900   3.046   2.241  0.1490  0.4582  0.0776
 6869SOL    HW132240   2.929   3.001   2.161  1.3981  0.5764  0.4698
 6869SOL    HW232241   2.983   3.060   2.287  0.2185  0.2279  0.0208
 6870SOL     OW32242   4.137   4.400   9.286 -0.6876 -0.0751  0.2405
 6870SOL    HW132243   4.053   4.441   9.267  0.1485  1.7473  0.3944
 6870SOL    HW232244   4.139   4.406   9.381  0.7527 -0.3240  0.2261
 6871SOL     OW32245   2.868   0.897   8.514 -0.7050  0.1497 -0.2970
 6871SOL    HW132246   2.795   0.951   8.543 -0.7089  0.8900 -1.6808
 6871SOL    HW232247   2.840   0.811   8.545  0.5010 -0.4356 -0.8231
 6872SOL     OW32248   4.292   3.399   4.684 -0.2851  0.0435 -0.1120
 6872SOL    HW132249   4.263   3.313   4.715 -2.7416  0.9872  0.2355
 6872SOL    HW232250   4.387   3.399   4.697 -0.1074  0.5034 -1.3198
 6873SOL     OW32251   1.732   4.043  14.524 -0.3597  0.1211 -0.3165
 6873SOL    HW132252   1.690   4.126  14.545 -0.3703  0.4366 -1.5653
 6873SOL    HW232253   1.695   4.024  14.437 -0.6065 -1.8619  0.2236
 6874SOL     OW32254   0.466   4.137  14.109 -0.0628 -0.1270  0.2729
 6874SOL    HW132255   0.449   4.230  14.095 -1.3090 -0.4001 -0.0810
 6874SOL    HW232256   0.561   4.141  14.104 -0.1361  1.0188 -0.1357
 6875SOL     OW32257   1.286   4.281   6.664 -0.3039  0.1088  0.6723
 6875SOL    HW132258   1.263   4.310   6.752  0.6542  1.7272  0.3822
 6875SOL    HW232259   1.370   4.327   6.665 -1.0612  1.5663 -2.2273
 6876SOL     OW32260   0.538   0.101   8.644  0.5449  0.3625  0.3761
 6876SOL    HW132261   0.626   0.136   8.658  0.4936  0.7597 -0.2696
 6876SOL    HW232262   0.519   0.045   8.718  3.0615  1.6411  2.0048
 6877SOL     OW32263   3.113   2.401   5.200  0.2646  0.4593 -0.1949
 6877SOL    HW132264   3.038   2.430   5.252  0.2257 -0.5594  0.3336
 6877SOL    HW232265   3.111   2.305   5.200 -1.2882  0.5066  0.8426
 6878SOL     OW32266   3.218   3.605  14.029 -0.3373  0.0890 -0.1310
 6878SOL    HW132267   3.238   3.685  13.982 -1.3214  0.1871 -0.3911
 6878SOL    HW232268   3.203   3.638  14.117 -0.4544 -2.0989  0.6868
 6879SOL     OW32269   2.971   1.191   7.148  0.2994  0.1976 -0.5916
 6879SOL    HW132270   2.970   1.224   7.058 -1.0047  2.1109  0.1125
 6879SOL    HW232271   2.950   1.098   7.138 -3.5023  1.0147 -0.2831
 6880SOL     OW32272   1.300   1.048   5.584 -0.0104 -0.2462 -0.1396
 6880SOL    HW132273   1.226   0.988   5.575 -0.4905  0.5890 -1.6541
 6880SOL    HW232274   1.350   1.021   5.508 -1.2039 -0.4024 -0.8742
 6881SOL     OW32275   3.206   0.440   7.419  0.0214 -0.2426  0.1727
 6881SOL    HW132276   3.298   0.468   7.418 -0.6403  1.9039  0.3075
 6881SOL    HW232277   3.211   0.347   7.442  1.3031 -0.4699 -1.0107
 6882SOL     OW32278   0.750   2.486  15.122 -0.0543  0.3215  0.4927
 6882SOL    HW132279   0.820   2.464  15.060 -2.9041 -0.4219 -2.4507
 6882SOL    HW232280   0.743   2.404  15.170 -0.5810  0.2291  0.2644
 6883SOL     OW32281   0.757   0.465   2.752 -0.2158 -0.2501  0.0784
 6883SOL    HW132282   0.774   0.383   2.799  0.4695  0.4450  1.0662
 6883SOL    HW232283   0.691   0.511   2.803 -0.3329 -0.4005  0.0610
 6884SOL     OW32284   2.838   3.765   6.107  0.2573 -0.4946  0.2875
 6884SOL    HW132285   2.795   3.841   6.145  0.8196  0.1769 -0.4238
 6884SOL    HW232286   2.768   3.699   6.103  0.0619 -0.2203 -0.7764
 6885SOL     OW32287   1.137   0.908  11.372  0.5812 -0.8413  0.0380
 6885SOL    HW132288   1.074   0.926  11.442  0.3320  1.5183 -0.7645
 6885SOL    HW232289   1.215   0.904  11.427  1.0162  2.4931 -0.3350
 6886SOL     OW32290   3.124   3.845  13.890  0.2591 -0.4089  0.1376
 6886SOL    HW132291   3.063   3.825  13.961  0.3043  0.4888  0.4231
 6886SOL    HW232292   3.129   3.935  13.920 -1.9277  0.3443 -1.8198
 6887SOL     OW32293   1.037   3.520   2.945 -0.1224  0.1272  0.1853
 6887SOL    HW132294   1.011   3.600   2.900 -0.0122  0.6141  0.9934
 6887SOL    HW232295   0.993   3.456   2.889  1.7315  0.1304 -1.2775
 6888SOL     OW32296   1.444   2.063   4.881  0.0971  0.2911 -0.1063
 6888SOL    HW132297   1.454   2.157   4.866  0.5954 -0.2719 -3.2636
 6888SOL    HW232298   1.491   2.058   4.965 -1.8589 -0.7415  0.9287
 6889SOL     OW32299   4.709   1.446   5.732  0.5001 -0.0129 -0.1689
 6889SOL    HW132300   4.672   1.479   5.814 -0.3510  2.8152 -1.6768
 6889SOL    HW232301   4.636   1.421   5.675  0.3567 -0.7155  0.3237
 6890SOL     OW32302   2.292   0.911  11.163  0.3224  0.1880  0.3214
 6890SOL    HW132303   2.282   0.816  11.153  1.9361 -0.2099  2.4589
 6890SOL    HW232304   2.387   0.915  11.155 -0.1038  2.1808 -3.7282
 6891SOL     OW32305   0.178   0.350   2.619 -0.2741 -0.1321  0.0612
 6891SOL    HW132306   0.274   0.351   2.615 -0.3148  0.7196 -0.7845
 6891SOL    HW232307   0.157   0.259   2.597  1.7712 -0.6902  0.4309
 6892SOL     OW32308   1.674   4.679   2.997 -0.2161 -0.1703 -0.3734
 6892SOL    HW132309   1.728   0.006   2.951 -0.1218  1.1005  1.5105
 6892SOL    HW232310   1.739   4.610   3.014  0.1071 -0.5501 -3.1510
 6893SOL     OW32311   0.508   0.330   7.784 -0.0150 -0.5352  0.4135
 6893SOL    HW132312   0.434   0.316   7.845 -0.2018  0.9974  0.5351
 6893SOL    HW232313   0.456   0.316   7.705 -0.5313 -0.4590  0.7358
 6894SOL     OW32314   2.658   3.448   3.707 -0.0449  0.3376  0.4777
 6894SOL    HW132315   2.647   3.400   3.789 -1.1347  0.6424  0.5024
 6894SOL    HW232316   2.753   3.463   3.709  0.1095 -0.4739 -0.6753
 6895SOL     OW32317   2.929   0.516   2.699 -0.2935 -0.0625 -0.2467
 6895SOL    HW132318   2.893   0.428   2.689  0.8437 -0.3867 -1.3655
 6895SOL    HW232319   3.019   0.516   2.667 -0.5932  1.4032 -1.1300
 6896SOL     OW32320   2.732   3.905  12.430  0.4048  0.7036 -0.4730
 6896SOL    HW132321   2.787   3.870  12.500 -1.8338 -0.6716  0.6111
 6896SOL    HW232322   2.789   3.917  12.354  0.3075 -2.5406 -1.0565
 6897SOL     OW32323   2.539   0.590   1.738 -0.1694 -0.6248 -0.1975
 6897SOL    HW132324   2.551   0.641   1.658 -0.2964  1.1929  0.9429
 6897SOL    HW232325   2.445   0.600   1.754  0.0694  0.3175  0.5708
 6898SOL     OW32326   3.797   0.405  16.846  0.3826  0.3548  0.5884
 6898SOL    HW132327   3.784   0.361  16.762 -1.0885 -0.0135  0.9980
 6898SOL    HW232328   3.867   0.354  16.886  1.6919  0.6533 -1.3453
 6899SOL     OW32329   1.106   3.179  15.392 -0.4607 -0.1902 -0.1128
 6899SOL    HW132330   1.034   3.211  15.447 -0.7220  1.1514 -1.2457
 6899SOL    HW232331   1.069   3.182  15.304  0.7414  2.5771 -0.5123
 6900SOL     OW32332   4.561   2.156  10.405 -0.0619 -0.1431 -0.0160
 6900SOL    HW132333   4.527   2.071  10.431 -2.3672  0.5764 -0.6854
 6900SOL    HW232334   4.618   2.180  10.478  0.8459  0.3135 -0.8668
 6901SOL     OW32335   2.389   2.999   1.197 -0.4638  0.2323 -0.2037
 6901SOL    HW132336   2.471   3.021   1.242  0.2841 -0.0426 -1.4405
 6901SOL    HW232337   2.421   3.002   1.107  1.2363 -0.6917  0.3878
 6902SOL     OW32338   4.171   0.271   1.914  0.3749 -0.2998 -0.3784
 6902SOL    HW132339   4.118   0.255   1.992 -0.4406  3.2766 -0.1945
 6902SOL    HW232340   4.171   0.182   1.878 -1.0200  0.3251 -1.9222
 6903SOL     OW32341   1.282   1.762   9.703  0.0852  0.3270 -0.3384
 6903SOL    HW132342   1.299   1.788   9.613 -0.7105 -1.7601 -1.0981
 6903SOL    HW232343   1.372   1.750   9.734 -0.6535  0.9135  2.0585
 6904SOL     OW32344   3.669   3.027   5.792  0.4519  0.0593  1.0400
 6904SOL    HW132345   3.756   3.066   5.804 -0.3099  1.4530  2.0775
 6904SOL    HW232346   3.668   2.937   5.823 -2.1246  0.0759  0.9700
 6905SOL     OW32347   0.250   2.226  17.028  0.0722  0.0667  0.0727
 6905SOL    HW132348   0.281   2.261  17.111 -1.8479 -2.0708  1.6930
 6905SOL    HW232349   0.324   2.167  17.013  0.1417  0.6267 -1.8717
 6906SOL     OW32350   3.633   1.203  16.571 -0.1929 -0.2400 -0.2922
 6906SOL    HW132351   3.556   1.191  16.628  0.8422  0.9085  1.3636
 6906SOL    HW232352   3.710   1.225  16.623  0.5489 -1.4160 -0.9005
 6907SOL     OW32353   2.278   0.788   1.827  0.7888 -0.1646 -0.0194
 6907SOL    HW132354   2.243   0.795   1.738  0.4505 -0.6790  0.0721
 6907SOL    HW232355   2.214   0.731   1.871  1.0211 -1.1784 -1.0119
 6908SOL     OW32356   2.970   4.509  16.911 -0.1824 -0.6578 -0.4396
 6908SOL    HW132357   2.902   4.451  16.878  0.6254 -1.2120 -1.1262
 6908SOL    HW232358   2.929   4.594  16.928  0.4100 -0.1869 -1.3756
 6909SOL     OW32359   1.693   2.700   8.675 -0.5011 -0.3307  0.0334
 6909SOL    HW132360   1.641   2.661   8.745 -1.1976  1.6353  0.6258
 6909SOL    HW232361   1.639   2.766   8.630  0.4917  3.2149  4.0590
 6910SOL     OW32362   2.897   1.782   1.703  0.2021 -0.3290 -0.0954
 6910SOL    HW132363   2.912   1.839   1.779 -1.0814 -0.5044  0.2938
 6910SOL    HW232364   2.981   1.793   1.658 -0.5726  2.3224 -0.9084
 6911SOL     OW32365   2.532   1.554   2.815  0.2520  0.2374 -0.1262
 6911SOL    HW132366   2.589   1.631   2.806  0.1912  0.2779 -0.1629
 6911SOL    HW232367   2.594   1.492   2.853  0.8279  0.5344 -0.5792
 6912SOL     OW32368   4.014   2.485   8.370  0.6388 -0.0929 -0.0523
 6912SOL    HW132369   4.011   2.435   8.289  0.0169 -1.5875  0.8911
 6912SOL    HW232370   4.087   2.541   8.347 -0.7498  1.5777 -0.4305
 6913SOL     OW32371   3.527   4.651   6.547 -0.2881  0.7114  0.0809
 6913SOL    HW132372   3.555   4.718   6.485 -0.0407 -3.0272 -3.8311
 6913SOL    HW232373   3.572   4.689   6.622  2.1024 -1.3011 -0.3704
 6914SOL     OW32374   4.486   3.766   3.847  0.2608 -0.2045  0.0847
 6914SOL    HW132375   4.573   3.797   3.869  0.1261 -0.3259  0.7813
 6914SOL    HW232376   4.450   3.824   3.780 -0.8776 -0.4608  0.4585
 6915SOL     OW32377   4.577   4.700  10.660  0.5804  0.2114 -0.0951
 6915SOL    HW132378   4.542   4.698  10.570  0.6546  1.6197 -0.1535
 6915SOL    HW232379   4.637   0.037  10.671  0.6798  0.0238  0.6088
 6916SOL     OW32380   1.090   1.354   3.633  0.4774  0.0191  0.0394
 6916SOL    HW132381   1.175   1.333   3.595 -0.3756 -3.7470  0.1929
 6916SOL    HW232382   1.114   1.384   3.721  0.9946 -2.1815  0.6531
 6917SOL     OW32383   3.289   2.477   1.627  0.7867  0.3123 -0.3063
 6917SOL    HW132384   3.358   2.498   1.563  1.2511  0.5149  0.2598
 6917SOL    HW232385   3.255   2.560   1.659 -1.7292  0.1819 -2.6675
 6918SOL     OW32386   4.308   3.411   1.639  0.6334 -0.1179 -0.4170
 6918SOL    HW132387   4.273   3.369   1.560  1.6490 -1.0693 -0.3781
 6918SOL    HW232388   4.400   3.426   1.616  0.7519 -1.5878 -0.9440
 6919SOL     OW32389   4.189   4.105  13.786 -0.5692 -0.8753 -0.5975
 6919SOL    HW132390   4.280   4.107  13.754  0.0752 -0.6897  1.2691
 6919SOL    HW232391   4.206   4.080  13.877  0.5190  2.5786  0.1478
 6920SOL     OW32392   4.324   4.629   4.627  0.3172 -0.0701 -0.2156
 6920SOL    HW132393   4.249   4.583   4.589  1.3781 -2.8670  1.0593
 6920SOL    HW232394   4.310   4.616   4.721 -1.0261  0.5387 -0.3298
 6921SOL     OW32395   3.345   0.077   9.194 -0.0250  0.1911 -0.5030
 6921SOL    HW132396   3.326   0.100   9.286  0.8685  0.5108 -0.3946
 6921SOL    HW232397   3.327   4.721   9.205  1.5941 -0.1837 -1.1187
 6922SOL     OW32398   1.914   1.046   6.216  0.3194 -0.1362 -0.0475
 6922SOL    HW132399   1.860   1.106   6.165  1.3064 -0.4958 -1.5322
 6922SOL    HW232400   1.887   0.962   6.177  2.3306 -0.3365 -1.0482
 6923SOL     OW32401   0.344   3.102   6.560 -0.1308 -0.0416  0.2675
 6923SOL    HW132402   0.374   3.011   6.566 -0.9574 -0.2215  1.5999
 6923SOL    HW232403   0.388   3.118   6.476 -0.8440 -3.7923 -0.8442
 6924SOL     OW32404   4.575   2.022  11.287 -0.2396 -0.5443  0.0377
 6924SOL    HW132405   4.539   2.009  11.374  2.4674 -0.8927  1.1077
 6924SOL    HW232406   4.604   1.932  11.273 -0.3737 -0.6478  0.4368
 6925SOL     OW32407   1.901   0.231  12.289 -0.7109  0.0262 -0.0614
 6925SOL    HW132408   1.929   0.320  12.267 -0.2462  0.2436  1.4674
 6925SOL    HW232409   1.861   0.203  12.206  0.6156  2.1352 -1.4407
 6926SOL     OW32410   2.668   0.968   2.731 -0.7380 -0.1343  1.0272
 6926SOL    HW132411   2.723   0.967   2.810 -0.9150  1.9532  1.2005
 6926SOL    HW232412   2.704   1.039   2.677 -4.4443  1.0463  0.0982
 6927SOL     OW32413   0.074   3.172  11.161  0.0078  0.1778  0.5027
 6927SOL    HW132414   0.069   3.122  11.243 -0.6254 -2.0369 -0.8860
 6927SOL    HW232415   0.150   3.225  11.183 -0.7596  0.9270  1.3413
 6928SOL     OW32416   4.012   2.380   8.119  0.2416 -0.1775 -0.0606
 6928SOL    HW132417   3.982   2.400   8.030  1.7699  1.9217 -0.1098
 6928SOL    HW232418   4.033   2.288   8.104  0.6269  0.0325 -0.8241
 6929SOL     OW32419   0.819   0.699   2.617 -0.0185  0.0349  0.3625
 6929SOL    HW132420   0.783   0.619   2.653 -1.2591  0.8927  1.0232
 6929SOL    HW232421   0.769   0.768   2.660 -1.1247 -0.0390 -0.8161
 6930SOL     OW32422   0.192   0.788  13.113 -0.0459  0.1535  0.1066
 6930SOL    HW132423   0.229   0.875  13.121  0.0591  0.2183 -0.9907
 6930SOL    HW232424   0.101   0.807  13.134  0.2022 -0.5092  1.7635
 6931SOL     OW32425   3.158   1.358   3.809  0.0355 -0.0989 -0.2055
 6931SOL    HW132426   3.082   1.370   3.866  0.2909 -0.7278  0.2773
 6931SOL    HW232427   3.109   1.347   3.728 -2.6612 -0.5595  1.4772
 6932SOL     OW32428   2.335   0.330   0.813 -0.1823  0.3175  0.0183
 6932SOL    HW132429   2.270   0.268   0.781  0.0940  0.2160 -0.3426
 6932SOL    HW232430   2.280   0.407   0.826  3.1505  2.5106  0.9692
 6933SOL     OW32431   2.328   3.247   3.038  0.2900 -0.2741 -0.4323
 6933SOL    HW132432   2.345   3.220   3.128  1.1284  3.0660  0.3792
 6933SOL    HW232433   2.238   3.278   3.044  0.3579  0.2443 -2.1005
 6934SOL     OW32434   4.561   1.317  15.558 -0.2152 -0.1523  0.1278
 6934SOL    HW132435   4.631   1.295  15.496 -1.0048 -0.6565 -0.5773
 6934SOL    HW232436   4.519   1.381  15.501  0.3519 -0.7526 -0.9737
 6935SOL     OW32437   1.871   3.479   2.771  0.1014 -0.2390 -0.5260
 6935SOL    HW132438   1.850   3.568   2.801  0.2656  0.0536 -1.2586
 6935SOL    HW232439   1.850   3.482   2.677 -1.6595 -3.5919 -0.2272
 6936SOL     OW32440   3.503   2.714   3.719  0.1575 -0.1072 -0.5488
 6936SOL    HW132441   3.477   2.656   3.648 -0.7184  1.1436 -1.2611
 6936SOL    HW232442   3.518   2.795   3.669 -1.1029  0.4248 -0.0698
 6937SOL     OW32443   0.396   3.876   1.709  0.0164 -0.0613  0.4895
 6937SOL    HW132444   0.417   3.850   1.799  2.1682  3.7699  1.0909
 6937SOL    HW232445   0.329   3.811   1.686  1.0011  0.0975 -2.8009
 6938SOL     OW32446   1.686   0.923   3.398  0.2367 -0.2738  0.1742
 6938SOL    HW132447   1.596   0.906   3.370 -0.1357  4.0327 -1.2870
 6938SOL    HW232448   1.719   0.992   3.340  0.9971 -0.6586  0.1526
 6939SOL     OW32449   2.133   1.558  16.595 -0.1288  0.2993 -0.2782
 6939SOL    HW132450   2.167   1.614  16.665  1.5046  0.4807 -1.2402
 6939SOL    HW232451   2.043   1.592  16.600 -0.3136 -0.3090  0.5194
 6940SOL     OW32452   3.621   1.659   2.830  0.3369 -0.8618 -0.1111
 6940SOL    HW132453   3.639   1.610   2.749 -2.6047  1.2235 -2.0429
 6940SOL    HW232454   3.630   1.745   2.790  1.4418 -0.1083  1.7972
 6941SOL     OW32455   2.310   1.170   0.184 -0.1242  0.0874  0.3161
 6941SOL    HW132456   2.288   1.163   0.091 -0.9829 -0.4809  0.5574
 6941SOL    HW232457   2.226   1.147   0.224  0.3162  0.4606  1.4461
 6942SOL     OW32458   1.614   4.298  14.572  0.1633 -0.3736  0.1551
 6942SOL    HW132459   1.553   4.365  14.604 -0.6931 -0.0009 -2.2946
 6942SOL    HW232460   1.605   4.299  14.477  0.2756  0.7234  0.1559
 6943SOL     OW32461   1.280   3.441   3.326  0.5744  0.5768  0.4626
 6943SOL    HW132462   1.282   3.536   3.316 -3.7903  0.7733  1.4296
 6943SOL    HW232463   1.281   3.422   3.232  0.1448  0.7891  0.4142
 6944SOL     OW32464   0.745   2.387  12.816 -0.2859  0.9343 -0.1084
 6944SOL    HW132465   0.786   2.320  12.870  0.6011  0.7755 -0.9868
 6944SOL    HW232466   0.697   2.437  12.883  1.6447  0.4112  1.6552
 6945SOL     OW32467   2.500   1.336   3.737  0.3910  0.1735 -0.0789
 6945SOL    HW132468   2.512   1.319   3.644  1.6897  2.0580 -0.2487
 6945SOL    HW232469   2.467   1.252   3.769  1.1717  0.1546  0.6778
 6946SOL     OW32470   2.412   1.391   4.138 -0.0901  0.3895  0.6698
 6946SOL    HW132471   2.438   1.304   4.108 -0.2018  1.4967 -2.6346
 6946SOL    HW232472   2.337   1.414   4.082 -0.0528 -0.5788  0.2149
 6947SOL     OW32473   0.430   2.524  13.639 -0.1809 -0.4764  0.3329
 6947SOL    HW132474   0.429   2.604  13.693  0.8304 -0.7973  0.8395
 6947SOL    HW232475   0.339   2.497  13.649  0.3788 -2.3274  0.3944
 6948SOL     OW32476   1.103   3.131  11.168 -0.1671  0.5730  0.3400
 6948SOL    HW132477   1.176   3.076  11.195 -1.2608 -0.4151  1.3092
 6948SOL    HW232478   1.095   3.119  11.073 -0.2771 -1.3171  0.5956
 6949SOL     OW32479   0.264   2.806   3.773 -0.3390  0.5597 -0.2412
 6949SOL    HW132480   0.182   2.788   3.727 -1.1006  0.3701  1.1932
 6949SOL    HW232481   0.275   2.719   3.811 -1.0464  0.8069  0.5343
 6950SOL     OW32482   1.720   1.864   9.583  0.3390 -0.2634  0.1565
 6950SOL    HW132483   1.765   1.850   9.499  1.5988 -1.1105  0.9757
 6950SOL    HW232484   1.787   1.907   9.636  0.1682  0.0990  0.0725
 6951SOL     OW32485   1.101   1.751   5.976  0.1230  0.2407 -0.2486
 6951SOL    HW132486   1.052   1.686   5.926  1.5019 -0.8848 -0.1452
 6951SOL    HW232487   1.022   1.794   6.008  0.0745  1.4823 -2.0137
 6952SOL     OW32488   4.550   1.808   2.759  0.4426  0.1427  0.5957
 6952SOL    HW132489   4.511   1.728   2.794  2.3761 -1.7826 -1.6698
 6952SOL    HW232490   4.577   1.778   2.672  0.5250  2.5571 -0.2402
 6953SOL     OW32491   2.217   0.809  14.816  0.0033  0.2879  0.2834
 6953SOL    HW132492   2.309   0.784  14.813 -0.0669 -0.1364  1.7112
 6953SOL    HW232493   2.180   0.751  14.750  2.5277 -1.3209  0.2655
 6954SOL     OW32494   3.941   1.675   4.808 -0.0871  0.2458 -0.0227
 6954SOL    HW132495   3.983   1.598   4.844 -0.8308 -0.3018 -0.3234
 6954SOL    HW232496   3.907   1.719   4.886  1.5329  0.1548  0.7352
 6955SOL     OW32497   4.143   4.454   9.574  0.0032 -0.3075 -0.4915
 6955SOL    HW132498   4.235   4.480   9.586  0.7632 -1.7530 -3.0827
 6955SOL    HW232499   4.127   4.404   9.654 -1.0459  1.2690  0.2659
 6956SOL     OW32500   4.348   0.692   1.781 -0.1022  0.0012  0.3548
 6956SOL    HW132501   4.443   0.681   1.775  0.0440  1.7262 -0.5159
 6956SOL    HW232502   4.344   0.781   1.816  1.1847  0.2475 -0.1176
 6957SOL     OW32503   4.296   0.709   4.449  0.2912 -0.6318  0.3513
 6957SOL    HW132504   4.271   0.651   4.521 -0.1652  0.0019  0.7065
 6957SOL    HW232505   4.380   0.732   4.490  0.0255 -0.1234  0.6193
 6958SOL     OW32506   4.688   3.909   8.276 -0.2593 -0.0516  0.0316
 6958SOL    HW132507   4.614   3.851   8.296 -0.4779  0.9452  2.0511
 6958SOL    HW232508   4.643   3.984   8.238 -0.9190  0.0819  1.0745
 6959SOL     OW32509   2.415   3.093   2.211 -0.3672 -0.3959  0.1868
 6959SOL    HW132510   2.491   3.061   2.163 -0.0271 -1.0547  1.1527
 6959SOL    HW232511   2.453   3.175   2.245 -0.6847 -0.0097 -0.3903
 6960SOL     OW32512   1.666   3.757   2.373 -0.6679 -0.0125  0.0907
 6960SOL    HW132513   1.663   3.756   2.278  0.1038  0.5674  0.0538
 6960SOL    HW232514   1.632   3.841   2.403 -1.8107  1.4119 -5.1990
 6961SOL     OW32515   4.317   2.351   2.707 -0.9603  0.3602 -0.2302
 6961SOL    HW132516   4.224   2.345   2.729 -0.5951 -0.9736  0.9228
 6961SOL    HW232517   4.350   2.264   2.728  1.0442  0.6870 -1.9777
 6962SOL     OW32518   0.471   0.243   0.040  0.3801 -0.1393  0.1002
 6962SOL    HW132519   0.439   0.330   0.018  1.8760  0.1280 -1.0344
 6962SOL    HW232520   0.477   0.198  17.701 -0.2611 -1.7753  0.9096
 6963SOL     OW32521   1.826   1.404   3.138 -0.2500  0.4529  0.0306
 6963SOL    HW132522   1.779   1.482   3.169  0.4089  0.7449  0.2893
 6963SOL    HW232523   1.791   1.342   3.201  0.2434 -1.1543 -1.2834
 6964SOL     OW32524   2.238   1.285   5.951  0.4943  0.3689 -0.3134
 6964SOL    HW132525   2.288   1.229   5.892  1.4346 -0.5330  1.3262
 6964SOL    HW232526   2.174   1.319   5.888  1.9271 -0.6683 -2.3031
 6965SOL     OW32527   0.841   0.786   7.550  0.4594 -0.7020  0.6354
 6965SOL    HW132528   0.772   0.853   7.552 -0.8883 -2.1789  3.2993
 6965SOL    HW232529   0.781   0.717   7.520  1.1603 -1.1712  0.3134
 6966SOL     OW32530   4.071   4.566   4.542 -0.2363 -0.1470 -0.0388
 6966SOL    HW132531   4.042   4.502   4.477  1.6624 -0.6685 -0.3610
 6966SOL    HW232532   3.990   4.585   4.589 -0.2329 -1.2663  0.4405
 6967SOL     OW32533   0.326   2.882   5.991 -0.0823  0.0587 -0.3470
 6967SOL    HW132534   0.363   2.854   5.907 -0.2113 -0.5981 -0.1886
 6967SOL    HW232535   0.378   2.960   6.007  1.2741 -0.4818 -2.1455
 6968SOL     OW32536   2.148   4.662   5.767  0.1692  0.1067 -0.3306
 6968SOL    HW132537   2.143   4.592   5.832  0.8367  1.6871  1.4455
 6968SOL    HW232538   2.067   4.649   5.718  0.1679 -0.5420 -0.1517
 6969SOL     OW32539   0.269   3.677   6.641  0.0587  0.0968 -0.2580
 6969SOL    HW132540   0.285   3.650   6.731  2.0140 -0.5196 -0.7883
 6969SOL    HW232541   0.205   3.746   6.659  0.6300  0.6434 -0.3339
 6970SOL     OW32542   1.693   4.070   5.498  0.4084 -0.6049  0.4064
 6970SOL    HW132543   1.747   3.998   5.466  3.2063  2.2535 -1.2436
 6970SOL    HW232544   1.727   4.135   5.437  0.1812 -1.0830 -0.2247
 6971SOL     OW32545   0.989   1.149   4.773 -0.0287 -0.0854  0.1687
 6971SOL    HW132546   1.042   1.097   4.713  0.1844  1.5418 -1.0594
 6971SOL    HW232547   0.980   1.229   4.721  1.5378 -0.7557 -1.1023
 6972SOL     OW32548   3.949   2.811   5.946 -0.4482  0.3637 -0.2623
 6972SOL    HW132549   4.027   2.827   5.893  1.5427  0.6861  2.7138
 6972SOL    HW232550   4.001   2.795   6.025 -0.3299  2.4203  0.0629
 6973SOL     OW32551   1.972   4.594   1.146  0.0120 -0.0762  0.1044
 6973SOL    HW132552   1.901   4.529   1.138  0.4257 -0.5721  0.4208
 6973SOL    HW232553   2.036   4.541   1.194  0.7661  1.0727  0.3720
 6974SOL     OW32554   3.983   2.475   7.123 -0.6173  0.1609  0.5979
 6974SOL    HW132555   3.959   2.566   7.144 -0.7107 -0.0996  1.6141
 6974SOL    HW232556   4.060   2.495   7.069 -1.5720 -0.2059 -0.8698
 6975SOL     OW32557   1.786   1.025   1.236  0.2429 -0.5121 -0.1799
 6975SOL    HW132558   1.814   1.116   1.245 -2.1715  0.2896 -0.7466
 6975SOL    HW232559   1.766   1.019   1.142  2.0072  1.5851 -0.6903
 6976SOL     OW32560   3.466   1.188   0.524 -0.8700  0.0789  0.1782
 6976SOL    HW132561   3.504   1.223   0.604 -1.2234  3.5207 -1.1537
 6976SOL    HW232562   3.498   1.099   0.536  0.2147  0.5970  1.0672
 6977SOL     OW32563   0.061   1.994   8.942 -0.4526 -0.6914  0.0110
 6977SOL    HW132564   0.127   2.062   8.952 -0.9945 -0.2505  0.5242
 6977SOL    HW232565   0.112   1.916   8.966  1.2419 -0.2939 -2.3015
 6978SOL     OW32566   2.740   0.565   3.333  0.7317 -0.3476 -0.1853
 6978SOL    HW132567   2.713   0.592   3.245 -0.1429 -0.8993 -0.0914
 6978SOL    HW232568   2.832   0.547   3.314  0.1985 -2.6676 -0.5666
 6979SOL     OW32569   3.706   3.944  10.173 -0.4651 -0.0517  0.5238
 6979SOL    HW132570   3.724   3.932  10.266  0.3182 -0.5505  0.3079
 6979SOL    HW232571   3.779   4.003  10.157 -0.7660  0.8111  2.2795
 6980SOL     OW32572   2.454   3.058   2.609  0.0561  0.6418  0.2628
 6980SOL    HW132573   2.512   3.016   2.546  0.0441 -0.2890  0.8807
 6980SOL    HW232574   2.466   3.009   2.690 -1.3459  0.5109  0.3887
 6981SOL     OW32575   0.405   0.263   1.753 -0.0040  0.0684 -0.3809
 6981SOL    HW132576   0.355   0.332   1.709 -0.6747  0.6128  1.1938
 6981SOL    HW232577   0.377   0.195   1.692 -0.3271 -1.6503  1.6712
 6982SOL     OW32578   2.528   2.642   6.291 -0.2748 -0.5830 -0.2855
 6982SOL    HW132579   2.448   2.590   6.285 -1.1420  0.5799  1.0325
 6982SOL    HW232580   2.510   2.733   6.269  1.0355  0.1149  1.4935
 6983SOL     OW32581   0.802   2.793   1.153 -0.2794 -0.1913 -0.1820
 6983SOL    HW132582   0.736   2.861   1.145  0.6339  0.6204 -0.8539
 6983SOL    HW232583   0.749   2.729   1.200  0.3544  0.4495  1.4181
 6984SOL     OW32584   4.597   1.364   3.269 -0.7788 -0.2784 -0.4654
 6984SOL    HW132585   4.587   1.286   3.215  0.3452 -1.8727  1.6236
 6984SOL    HW232586   4.680   1.348   3.314  0.2387  0.3593 -2.0937
 6985SOL     OW32587   4.224   4.187   3.490 -0.2161  0.4756 -0.0194
 6985SOL    HW132588   4.194   4.112   3.439 -1.7375  2.5421 -2.1687
 6985SOL    HW232589   4.205   4.164   3.581 -0.3262 -0.9289 -0.3949
 6986SOL     OW32590   1.133   2.122  15.615 -0.6539  0.0961 -0.2651
 6986SOL    HW132591   1.041   2.143  15.601 -0.2418  1.9852 -0.1525
 6986SOL    HW232592   1.158   2.214  15.608  2.1715 -0.5798  0.6830
 6987SOL     OW32593   4.183   3.839   6.256  0.1347  0.7486 -0.7652
 6987SOL    HW132594   4.114   3.846   6.190 -1.2023 -0.8291  0.4825
 6987SOL    HW232595   4.207   3.748   6.238 -0.7917  0.5150 -0.8052
 6988SOL     OW32596   3.576   2.861  16.311 -0.5781 -1.0823  0.1499
 6988SOL    HW132597   3.655   2.818  16.280  1.1622  2.0423  0.3065
 6988SOL    HW232598   3.598   2.856  16.404 -0.6449  1.1384  0.2974
 6989SOL     OW32599   2.419   0.840  17.287  0.3684 -0.0597  0.0851
 6989SOL    HW132600   2.504   0.822  17.248  0.4869 -2.4698  1.4603
 6989SOL    HW232601   2.430   0.841  17.383 -1.3668 -1.2972  0.2913
 6990SOL     OW32602   4.413   2.425   8.321 -0.1157 -0.4651  0.5558
 6990SOL    HW132603   4.387   2.396   8.408  0.4375  1.0893  1.2224
 6990SOL    HW232604   4.505   2.448   8.334 -0.2371  2.2203 -3.3214
 6991SOL     OW32605   0.280   3.475   3.656 -0.8053  0.1796 -0.0406
 6991SOL    HW132606   0.203   3.518   3.694 -2.4501 -1.9665 -0.9364
 6991SOL    HW232607   0.240   3.389   3.639 -0.6668 -0.5208  3.1953
 6992SOL     OW32608   4.608   2.830   3.449 -0.6487  0.2430  0.1885
 6992SOL    HW132609   4.531   2.801   3.401  1.0849  0.6470 -2.8325
 6992SOL    HW232610   4.667   2.755   3.445 -2.2620 -1.0215  0.0717
 6993SOL     OW32611   0.570   4.015  10.146 -0.7766  0.2427  0.0891
 6993SOL    HW132612   0.517   3.961  10.205  1.5167 -1.7750  0.3285
 6993SOL    HW232613   0.598   4.073  10.217 -1.2509 -1.1906  1.4550
 6994SOL     OW32614   4.477   1.703  11.389 -0.6212  0.0809  0.2917
 6994SOL    HW132615   4.530   1.761  11.444 -2.2300 -0.2996  2.2622
 6994SOL    HW232616   4.495   1.626  11.443 -1.4086 -0.3346 -0.0361
 6995SOL     OW32617   2.397   1.657   0.694 -0.0342  0.2764 -0.2108
 6995SOL    HW132618   2.316   1.685   0.737 -1.0747 -1.8266 -0.7963
 6995SOL    HW232619   2.389   1.717   0.620 -0.7952 -0.1290 -0.4657
 6996SOL     OW32620   2.006   2.279   3.905 -0.3186  0.0705 -0.1708
 6996SOL    HW132621   2.055   2.255   3.983 -0.5993  0.6964  0.1979
 6996SOL    HW232622   2.077   2.307   3.847 -1.3720  1.0587 -0.9837
 6997SOL     OW32623   3.521   1.313   8.625  0.8193  0.2118  0.2117
 6997SOL    HW132624   3.514   1.226   8.585  0.2661  0.7123 -0.7670
 6997SOL    HW232625   3.567   1.307   8.709  0.1902  2.2693  0.6817
 6998SOL     OW32626   3.778   4.179  15.093  0.0411 -0.6846  0.4012
 6998SOL    HW132627   3.752   4.246  15.157 -0.9554  0.3503 -1.0796
 6998SOL    HW232628   3.699   4.128  15.112 -1.4815  0.8565 -1.8065
 6999SOL     OW32629   0.274   0.938   6.019 -0.3434  0.3856  0.2525
 6999SOL    HW132630   0.200   0.900   6.068 -0.8145 -0.3586 -1.0445
 6999SOL    HW232631   0.239   0.975   5.938  0.7391  1.0449  0.0913
 7000SOL     OW32632   0.755   3.170   0.432 -0.1475 -0.1081  0.1098
 7000SOL    HW132633   0.747   3.093   0.488  1.2276 -0.9768 -0.8873
 7000SOL    HW232634   0.842   3.157   0.394 -0.1633 -1.2556  0.4877
 7001SOL     OW32635   2.677   0.390   6.569  0.1759  0.4853 -0.0820
 7001SOL    HW132636   2.687   0.485   6.563  0.2584  0.5644  1.3490
 7001SOL    HW232637   2.713   0.368   6.483 -0.1938  0.2493 -0.1745
 7002SOL     OW32638   2.559   4.164   5.622 -0.6562  0.1384 -0.5442
 7002SOL    HW132639   2.547   4.155   5.717  1.0229  0.6361 -0.2851
 7002SOL    HW232640   2.655   4.165   5.614 -0.7293 -2.7549 -1.6018
 7003SOL     OW32641   4.623   3.551   1.357 -0.0981  0.2464 -0.0244
 7003SOL    HW132642   4.614   3.496   1.435 -1.9606  1.9350  0.9359
 7003SOL    HW232643   4.666   3.493   1.294 -0.0100 -1.8715  1.9486
 7004SOL     OW32644   1.690   4.482   5.859 -0.4984  0.0975  0.0287
 7004SOL    HW132645   1.712   4.390   5.868 -3.0856 -0.6483 -1.3602
 7004SOL    HW232646   1.742   4.524   5.927 -0.6886  0.5318 -0.0934
 7005SOL     OW32647   1.609   3.206   8.185  0.1607  0.0943  0.5648
 7005SOL    HW132648   1.536   3.225   8.125  2.2172 -1.1443 -2.3439
 7005SOL    HW232649   1.683   3.185   8.128 -0.7243  2.5387 -1.4762
 7006SOL     OW32650   2.557   3.682  14.671 -0.2735 -0.0000 -0.6238
 7006SOL    HW132651   2.606   3.642  14.599 -0.6097  0.3475 -1.0490
 7006SOL    HW232652   2.472   3.638  14.669  0.0965 -0.7136 -0.3196
 7007SOL     OW32653   3.220   2.428   3.731  0.0078  0.0702 -0.2155
 7007SOL    HW132654   3.253   2.473   3.654 -0.9931 -0.7399 -1.1231
 7007SOL    HW232655   3.295   2.382   3.770 -3.5201 -4.3748  1.3976
 7008SOL     OW32656   3.330   1.218   5.837 -0.1654 -0.0118 -1.0963
 7008SOL    HW132657   3.407   1.271   5.857 -1.5681  1.5883  0.0242
 7008SOL    HW232658   3.293   1.255   5.757 -1.1624 -0.5262 -0.8755
 7009SOL     OW32659   0.479   1.973  16.685 -0.0558 -0.4790  0.3108
 7009SOL    HW132660   0.444   1.884  16.690 -1.5649  0.0425 -0.9647
 7009SOL    HW232661   0.548   1.955  16.620  0.6301 -0.6564  1.0801
 7010SOL     OW32662   0.591   4.107   2.137 -0.2408  0.2686  0.3824
 7010SOL    HW132663   0.614   4.032   2.192  0.0810 -0.1844 -0.3837
 7010SOL    HW232664   0.657   4.173   2.159 -0.8085  0.6215  1.0382
 7011SOL     OW32665   4.496   1.051   4.024  0.9749 -0.3720 -0.0176
 7011SOL    HW132666   4.486   1.106   4.102 -1.7702  0.6649 -1.1032
 7011SOL    HW232667   4.463   0.968   4.059  0.7404 -0.3855 -0.2656
 7012SOL     OW32668   2.047   1.179   7.389 -0.2105  0.3026 -0.8531
 7012SOL    HW132669   2.033   1.122   7.465  1.1863  0.4704 -0.4688
 7012SOL    HW232670   2.091   1.253   7.431  0.2351 -0.4817  0.0812
 7013SOL     OW32671   2.733   4.460  17.705 -0.5378 -0.7019 -0.0277
 7013SOL    HW132672   2.731   4.540   0.013  1.7697 -1.2315  0.8459
 7013SOL    HW232673   2.718   4.406   0.037  0.2737  1.3692  1.5659
 7014SOL     OW32674   2.487   4.134   3.594  0.1184  0.0367  0.2896
 7014SOL    HW132675   2.517   4.162   3.507 -1.4574 -1.8579 -0.8570
 7014SOL    HW232676   2.407   4.099   3.556  1.0535  0.9452 -2.5348
 7015SOL     OW32677   3.195   1.624  17.635  0.1994  0.0079 -0.3860
 7015SOL    HW132678   3.213   1.692  17.701 -1.9972  0.9239 -0.7274
 7015SOL    HW232679   3.139   1.672  17.573 -1.2164  0.5981  1.3419
 7016SOL     OW32680   3.212   3.341   4.514  0.0659  0.4801 -0.3116
 7016SOL    HW132681   3.300   3.338   4.478  0.2706  0.2673  0.2113
 7016SOL    HW232682   3.215   3.413   4.577 -1.7070  0.2540  0.0366
 7017SOL     OW32683   0.913   2.803   2.749  0.1177 -0.1721 -0.3552
 7017SOL    HW132684   0.962   2.885   2.738  2.2386 -1.5333 -0.9793
 7017SOL    HW232685   0.913   2.786   2.843 -0.6929  0.6938 -0.1950
 7018SOL     OW32686   3.722   1.908   2.788  0.1998 -0.1889  0.0819
 7018SOL    HW132687   3.679   1.993   2.803 -0.9727 -0.5062 -1.5112
 7018SOL    HW232688   3.776   1.912   2.867 -0.7272 -0.0092  0.7111
 7019SOL     OW32689   3.914   0.352   4.258  0.4487 -0.4668  0.3320
 7019SOL    HW132690   3.988   0.411   4.265  1.3934 -1.2197 -3.5729
 7019SOL    HW232691   3.950   0.265   4.276  1.7573  0.0292  0.0555
 7020SOL     OW32692   0.101   4.599   1.476  0.7343 -0.1802  0.0532
 7020SOL    HW132693   0.028   4.558   1.523  0.4239 -1.2477 -1.3248
 7020SOL    HW232694   0.061   4.614   1.390 -0.3697  0.3231  0.6448
 7021SOL     OW32695   2.310   2.622   4.085 -0.0735  0.2414 -0.3036
 7021SOL    HW132696   2.404   2.627   4.073 -0.1170 -2.0889 -1.5529
 7021SOL    HW232697   2.282   2.713   4.073 -0.2539  0.1766 -0.3862
 7022SOL     OW32698   1.677   2.070   9.193  0.1541  0.0869 -0.1023
 7022SOL    HW132699   1.745   2.126   9.155 -0.6881 -0.2568 -2.1384
 7022SOL    HW232700   1.594   2.112   9.171  0.1289 -1.0238 -2.1130
 7023SOL     OW32701   3.000   3.320   5.228 -0.2880 -0.0358 -0.5657
 7023SOL    HW132702   2.915   3.282   5.251 -0.5903  0.9035 -0.1140
 7023SOL    HW232703   2.976   3.374   5.153  0.3675 -0.8042 -1.3344
 7024SOL     OW32704   2.355   4.051   0.597 -0.1934 -0.2162  0.4950
 7024SOL    HW132705   2.317   4.139   0.601  0.9200  0.2452  0.8986
 7024SOL    HW232706   2.285   3.989   0.620 -0.7354  0.7902  1.5364
 7025SOL     OW32707   0.374   2.982   5.435 -0.0708  0.5673  0.2691
 7025SOL    HW132708   0.374   2.942   5.348 -0.0521 -0.7086  0.8556
 7025SOL    HW232709   0.282   2.962   5.455 -0.3676  1.1942 -0.4570
 7026SOL     OW32710   3.648   4.143  12.097 -0.6046 -0.1047  0.0903
 7026SOL    HW132711   3.726   4.191  12.071 -0.2884 -0.9029 -0.4401
 7026SOL    HW232712   3.582   4.208  12.075  0.0014  0.5207  0.0983
 7027SOL     OW32713   3.539   4.189  14.845  0.4317 -0.1220 -0.0602
 7027SOL    HW132714   3.526   4.266  14.901 -2.2400 -0.5322 -0.1136
 7027SOL    HW232715   3.473   4.125  14.872  0.9790  0.3602  2.4574
 7028SOL     OW32716   3.627   3.983  14.229  0.4372 -0.0977  0.1442
 7028SOL    HW132717   3.718   3.959  14.248  1.2360  1.5938 -1.4429
 7028SOL    HW232718   3.586   3.897  14.228  0.7577 -0.2197 -2.5595
 7029SOL     OW32719   4.484   2.785  12.305  0.2312  0.2098 -0.5138
 7029SOL    HW132720   4.573   2.784  12.341 -0.3076 -0.7823  0.7798
 7029SOL    HW232721   4.503   2.859  12.247  1.6305 -0.7413 -1.2765
 7030SOL     OW32722   3.780   4.328   5.924  0.1474  0.2511 -0.8419
 7030SOL    HW132723   3.705   4.388   5.925 -0.7456 -0.8977  0.6896
 7030SOL    HW232724   3.809   4.325   6.014 -0.3990  1.0228 -0.6390
 7031SOL     OW32725   3.423   3.085   1.789  0.3758 -0.6317  0.3811
 7031SOL    HW132726   3.371   3.032   1.849  1.7599 -0.7681  1.4743
 7031SOL    HW232727   3.360   3.087   1.717 -0.7788 -1.1707  1.3900
 7032SOL     OW32728   2.895   0.725  13.141 -0.0837 -0.3813 -0.0823
 7032SOL    HW132729   2.963   0.789  13.165  0.4684 -0.2684 -1.9744
 7032SOL    HW232730   2.894   0.751  13.049  2.2815  0.1748  0.0566
 7033SOL     OW32731   2.460   4.571  14.269 -0.5145  0.2184 -0.1285
 7033SOL    HW132732   2.554   4.582  14.283 -0.3395 -0.8798 -0.5007
 7033SOL    HW232733   2.464   4.490  14.220  0.4275  0.9146 -1.1953
 7034SOL     OW32734   0.894   0.522  17.425 -0.3148 -0.0746 -0.2740
 7034SOL    HW132735   0.904   0.515  17.520  0.4469 -1.6283 -0.4668
 7034SOL    HW232736   0.894   0.616  17.407 -0.4751  0.3743  1.9632
 7035SOL     OW32737   2.040   2.447   9.058  0.0110 -0.0705 -0.0320
 7035SOL    HW132738   2.118   2.472   9.108 -0.4746  1.8947 -0.2365
 7035SOL    HW232739   2.084   2.422   8.977 -1.1955 -1.7440 -0.1734
 7036SOL     OW32740   3.749   3.455   5.057  0.1628  0.3176  0.2516
 7036SOL    HW132741   3.754   3.429   4.965 -1.1352  0.3657  0.1668
 7036SOL    HW232742   3.740   3.371   5.102  0.3079  1.0511  1.6507
 7037SOL     OW32743   0.809   3.313   9.294 -0.1726 -0.4207  0.7399
 7037SOL    HW132744   0.896   3.342   9.320  0.5941 -0.7331 -1.4464
 7037SOL    HW232745   0.830   3.240   9.235 -2.9826 -1.4394  0.9811
 7038SOL     OW32746   2.695   0.538  12.335  0.1161 -0.1479 -0.2132
 7038SOL    HW132747   2.730   0.580  12.256 -0.5531  2.3979  0.8569
 7038SOL    HW232748   2.603   0.565  12.338 -0.1738 -1.1117 -0.5115
 7039SOL     OW32749   3.431   3.091   2.229  0.2655 -0.4339  0.0767
 7039SOL    HW132750   3.374   3.127   2.160 -0.3588 -0.8019  0.4079
 7039SOL    HW232751   3.494   3.161   2.247  1.2954 -0.3751 -3.6461
 7040SOL     OW32752   0.438   3.414   2.436 -0.0889 -1.3604 -0.1426
 7040SOL    HW132753   0.501   3.482   2.458  0.3887 -1.7918 -0.1736
 7040SOL    HW232754   0.455   3.350   2.505 -0.5414  1.5062  2.6064
 7041SOL     OW32755   3.751   2.862  13.784 -0.0026  0.1901  0.6848
 7041SOL    HW132756   3.837   2.830  13.755 -0.5100  1.0057 -1.7844
 7041SOL    HW232757   3.760   2.880  13.877 -1.3977 -0.2286  0.8960
 7042SOL     OW32758   4.232   1.101  10.233 -0.5290 -0.4746  0.2996
 7042SOL    HW132759   4.324   1.105  10.207 -0.3259  0.2882  1.1299
 7042SOL    HW232760   4.192   1.134  10.153  0.0233  2.0671  1.0688
 7043SOL     OW32761   3.880   0.957   4.520  0.4551  0.2503  0.3241
 7043SOL    HW132762   3.902   1.004   4.439  3.4678 -0.2858  0.8307
 7043SOL    HW232763   3.913   0.869   4.504  1.0356  0.8317 -1.6850
 7044SOL     OW32764   4.726   4.518  13.567  0.0359 -0.1942  0.6421
 7044SOL    HW132765   4.713   4.598  13.618 -0.6422  0.5779 -0.7352
 7044SOL    HW232766   0.044   4.553  13.498  0.4479 -0.1888  0.9736
 7045SOL     OW32767   2.043   0.530   4.946 -0.1096  0.4146 -0.1657
 7045SOL    HW132768   2.014   0.460   5.004 -1.0138 -0.2963 -1.4739
 7045SOL    HW232769   2.098   0.489   4.880 -0.1144  0.9855 -0.5282
 7046SOL     OW32770   0.692   2.995   7.443  0.1760 -0.3648 -0.1606
 7046SOL    HW132771   0.762   2.938   7.476 -0.1212 -0.2017  0.7639
 7046SOL    HW232772   0.625   2.982   7.510  0.3972 -2.2575 -0.3191
 7047SOL     OW32773   2.119   3.208   7.735 -0.7455  0.3360 -0.0068
 7047SOL    HW132774   2.132   3.299   7.763 -2.4979  0.3837  0.6565
 7047SOL    HW232775   2.023   3.208   7.734 -0.7542  1.7159  0.6481
 7048SOL     OW32776   3.912   3.773  10.636 -0.1774 -0.1046  0.3204
 7048SOL    HW132777   3.864   3.853  10.653 -0.1436  0.2470 -1.2310
 7048SOL    HW232778   3.886   3.763  10.544 -2.2986 -2.4586  1.1723
 7049SOL     OW32779   0.998   0.703   8.450 -0.6001 -0.2572  0.7525
 7049SOL    HW132780   0.944   0.710   8.371 -1.0015 -0.2554  1.0306
 7049SOL    HW232781   1.019   0.610   8.450 -0.9011 -0.3248  1.1247
 7050SOL     OW32782   0.372   0.161   3.592 -0.0966  0.2838 -0.2005
 7050SOL    HW132783   0.356   0.220   3.518  1.3244 -0.0425 -0.7516
 7050SOL    HW232784   0.286   0.150   3.634  0.5584  0.9032  1.3026
 7051SOL     OW32785   2.432   3.743   9.501 -0.1955 -0.0626 -0.7403
 7051SOL    HW132786   2.340   3.758   9.476 -0.9041 -1.3829  1.0602
 7051SOL    HW232787   2.418   3.749   9.596  2.6674 -1.8638 -0.2264
 7052SOL     OW32788   4.114   0.943  12.510 -0.0738 -0.2155  0.3340
 7052SOL    HW132789   4.044   0.963  12.447  1.5201 -2.0969 -2.0046
 7052SOL    HW232790   4.101   0.849  12.526  0.7249  0.0237  2.4943
 7053SOL     OW32791   4.122   4.552   3.233 -0.6699  0.0429 -0.4619
 7053SOL    HW132792   4.057   4.562   3.303 -1.0737  2.9310 -1.2558
 7053SOL    HW232793   4.106   4.461   3.210  2.8573 -1.2329  1.9697
 7054SOL     OW32794   0.812   3.550   7.807 -0.0396  0.7325  0.5106
 7054SOL    HW132795   0.849   3.526   7.722  3.3647 -0.7763  2.3837
 7054SOL    HW232796   0.891   3.552   7.861  1.4529  1.7097 -1.7123
 7055SOL     OW32797   4.047   3.512  16.954  0.3958  0.0048  0.0073
 7055SOL    HW132798   4.041   3.448  16.883 -1.3721 -1.9057  1.9118
 7055SOL    HW232799   4.142   3.526  16.958  0.3417  0.3103  0.1791
 7056SOL     OW32800   4.436   3.586   8.268  0.3508 -0.2863  0.1280
 7056SOL    HW132801   4.459   3.600   8.176  1.5556 -0.4391  0.4069
 7056SOL    HW232802   4.498   3.519   8.295  2.4518  1.5531 -0.0852
 7057SOL     OW32803   2.011   2.935   1.100 -0.2843 -0.2700 -0.3431
 7057SOL    HW132804   2.003   2.840   1.095 -0.1189 -0.2823 -0.3486
 7057SOL    HW232805   1.950   2.951   1.028  0.2545 -1.5572 -1.0718
 7058SOL     OW32806   2.185   1.438  12.497 -0.0156  0.2235 -0.1357
 7058SOL    HW132807   2.266   1.420  12.448 -0.1345  0.1408 -0.3012
 7058SOL    HW232808   2.119   1.416  12.432  3.0140  2.0980 -3.8241
 7059SOL     OW32809   3.127   2.373  11.466 -0.6091  0.1447  0.5665
 7059SOL    HW132810   3.072   2.308  11.423  0.0202  0.7146 -1.1115
 7059SOL    HW232811   3.176   2.331  11.537  0.4659  1.3069  0.5285
 7060SOL     OW32812   4.057   1.935   5.052  0.0235  0.5900 -0.2299
 7060SOL    HW132813   4.045   2.008   5.112  0.1041  0.0924  0.3919
 7060SOL    HW232814   3.988   1.879   5.088  0.8712 -0.1780  0.1914
 7061SOL     OW32815   4.615   4.230   9.835 -0.2168 -0.0028 -0.6865
 7061SOL    HW132816   4.687   4.177   9.868 -0.8375 -0.1275  0.4727
 7061SOL    HW232817   4.593   4.195   9.748  0.2335 -0.4450 -0.6262
 7062SOL     OW32818   3.886   0.947   7.472  0.1271 -0.3334  0.0526
 7062SOL    HW132819   3.946   0.939   7.547 -2.4816 -0.2263  2.1536
 7062SOL    HW232820   3.801   0.923   7.508  1.2976  0.1011  3.1795
 7063SOL     OW32821   1.525   1.710   6.883  0.1949  0.0712  0.0158
 7063SOL    HW132822   1.441   1.694   6.841  0.7950  1.6604 -1.7684
 7063SOL    HW232823   1.499   1.708   6.975 -1.1401 -0.0879 -0.3612
 7064SOL     OW32824   4.148   3.659  10.591 -0.5223  0.1904  0.1022
 7064SOL    HW132825   4.113   3.585  10.542 -2.3029  1.1427 -0.0487
 7064SOL    HW232826   4.066   3.707  10.600 -0.8908 -0.4802  0.3545
 7065SOL     OW32827   3.330   0.879  13.532 -0.2262 -0.3403 -0.8296
 7065SOL    HW132828   3.346   0.970  13.507  1.8423 -0.0872  1.3952
 7065SOL    HW232829   3.396   0.863  13.600 -1.8666 -1.5087  0.4590
 7066SOL     OW32830   4.216   1.120  17.187 -0.6446 -0.2690 -0.1895
 7066SOL    HW132831   4.171   1.171  17.120  1.4474  1.2176 -0.4603
 7066SOL    HW232832   4.282   1.187  17.202 -1.3835  0.5189 -0.4947
 7067SOL     OW32833   0.842   3.288   5.502  0.5798  0.3914 -0.1801
 7067SOL    HW132834   0.924   3.241   5.488 -0.3954 -0.9129 -1.6018
 7067SOL    HW232835   0.869   3.365   5.551 -1.3753 -0.0755  1.6159
 7068SOL     OW32836   4.281   2.999   9.678  0.2051  0.2298 -0.2817
 7068SOL    HW132837   4.251   3.084   9.710 -0.9504 -0.4304  0.3644
 7068SOL    HW232838   4.349   2.982   9.743 -0.9296 -0.3592  0.7193
 7069SOL     OW32839   2.521   4.011  14.836 -0.2258 -0.0866  0.1514
 7069SOL    HW132840   2.446   3.974  14.881  0.2826 -0.8128  0.3983
 7069SOL    HW232841   2.551   3.928  14.799 -1.5016 -0.3827 -0.2058
 7070SOL     OW32842   0.997   1.848  15.677  0.6092  0.2314  0.3087
 7070SOL    HW132843   0.942   1.775  15.647 -0.9051  1.9633 -1.0897
 7070SOL    HW232844   1.052   1.871  15.602 -0.1087 -0.1338 -0.3313
 7071SOL     OW32845   2.964   0.395   4.049  0.1702 -0.0402  0.0534
 7071SOL    HW132846   2.896   0.427   4.109  0.5531 -0.0441  0.4875
 7071SOL    HW232847   3.034   0.385   4.112 -0.0263  0.5313  0.3625
 7072SOL     OW32848   3.070   1.336   4.117 -0.1692 -0.3803  0.2039
 7072SOL    HW132849   3.099   1.262   4.170  0.3166 -1.1059 -1.0875
 7072SOL    HW232850   2.994   1.302   4.069 -1.9088  1.1665  1.8710
 7073SOL     OW32851   0.473   1.725   4.401  0.3861 -0.3022  0.0707
 7073SOL    HW132852   0.436   1.675   4.474  0.0065 -0.3069 -0.1280
 7073SOL    HW232853   0.523   1.657   4.357 -2.2568 -2.5511  0.5150
 7074SOL     OW32854   1.696   3.190  15.678 -0.1471  0.4994 -0.0645
 7074SOL    HW132855   1.756   3.261  15.698  0.8374 -0.3001 -0.1708
 7074SOL    HW232856   1.616   3.242  15.675 -0.2547  0.3239 -0.2827
 7075SOL     OW32857   2.712   4.029  15.791  0.2305 -0.0188 -0.1928
 7075SOL    HW132858   2.677   4.096  15.849  0.0749  0.0048 -0.3139
 7075SOL    HW232859   2.692   4.057  15.702  1.2542  0.1258 -0.3796
 7076SOL     OW32860   2.654   4.187  16.950 -0.1981  0.2993  0.2288
 7076SOL    HW132861   2.682   4.126  17.019 -0.7790 -0.7302 -0.4367
 7076SOL    HW232862   2.666   4.123  16.880  1.4233  1.6577 -0.7202
 7077SOL     OW32863   4.581   0.856   3.182 -0.9263  0.2611  0.7730
 7077SOL    HW132864   4.606   0.874   3.092  0.2426  2.5249  1.5697
 7077SOL    HW232865   4.528   0.777   3.170 -1.2281  0.6672 -0.5131
 7078SOL     OW32866   0.338   4.482  11.418 -0.4315  0.2300 -0.1749
 7078SOL    HW132867   0.382   4.564  11.440  1.8952 -0.4517 -2.1767
 7078SOL    HW232868   0.366   4.425  11.490  0.9017  0.8253 -0.2218
 7079SOL     OW32869   2.778   0.396  12.632 -0.4009  0.4843  0.3681
 7079SOL    HW132870   2.803   0.453  12.705 -0.0957 -0.0011  0.6417
 7079SOL    HW232871   2.714   0.449  12.586  0.2506 -0.3144 -1.4915
 7080SOL     OW32872   2.243   0.211  17.578  0.0378 -0.5913  1.0146
 7080SOL    HW132873   2.317   0.194  17.637 -0.2570  0.2080  1.6265
 7080SOL    HW232874   2.260   0.154  17.504 -0.5575 -0.9045  1.1174
 7081SOL     OW32875   3.965   2.073  15.484  0.2165 -1.0684 -0.1719
 7081SOL    HW132876   3.882   2.117  15.505  1.1324 -0.3767  1.9666
 7081SOL    HW232877   4.023   2.149  15.489 -1.1400 -0.0604  0.3703
 7082SOL     OW32878   0.038   2.564   1.142 -0.1918  0.2382  0.2244
 7082SOL    HW132879   0.014   2.651   1.111  0.2020  1.2154  2.6323
 7082SOL    HW232880   0.069   2.567   1.233  2.0997  0.0675 -0.5430
 7083SOL     OW32881   3.458   3.880   1.483  0.4215 -0.0236 -0.1095
 7083SOL    HW132882   3.494   3.906   1.398  1.2565  0.4514  0.3959
 7083SOL    HW232883   3.384   3.823   1.464  0.0031 -0.0683  1.6311
 7084SOL     OW32884   0.169   1.763   9.049 -0.7145 -0.1305 -0.0246
 7084SOL    HW132885   0.240   1.705   9.076  0.4182  1.0406 -0.5028
 7084SOL    HW232886   0.108   1.704   9.003 -0.3674 -0.4006 -0.1375
 7085SOL     OW32887   1.268   3.281   7.764  0.1773  0.1514  0.3156
 7085SOL    HW132888   1.215   3.228   7.705  1.3972  0.9185 -1.4524
 7085SOL    HW232889   1.272   3.363   7.715  3.4238  1.3456  2.5836
 7086SOL     OW32890   3.665   0.431  14.188 -0.0457  0.1085  0.1312
 7086SOL    HW132891   3.645   0.398  14.276  0.5124 -0.4691  0.0465
 7086SOL    HW232892   3.696   0.521  14.189 -0.2906  0.1813  1.2755
 7087SOL     OW32893   0.090   1.175   7.174 -0.1619  0.3848  0.5986
 7087SOL    HW132894   0.025   1.112   7.143  1.8812 -1.2529 -0.3906
 7087SOL    HW232895   0.032   1.250   7.190 -1.2138 -0.2337 -0.3071
 7088SOL     OW32896   1.110   0.302   7.102 -0.4371  0.3123 -0.6415
 7088SOL    HW132897   1.104   0.236   7.171 -0.5866 -0.0834 -1.0389
 7088SOL    HW232898   1.018   0.320   7.081  0.3035  2.7880 -1.8490
 7089SOL     OW32899   3.061   2.102   3.057 -0.4770 -0.6120 -0.8161
 7089SOL    HW132900   3.009   2.181   3.043 -0.1311 -0.4058 -0.9401
 7089SOL    HW232901   3.136   2.109   2.998  0.2396 -3.2274 -0.2219
 7090SOL     OW32902   0.617   1.780   2.406 -0.1322  0.2578 -0.0240
 7090SOL    HW132903   0.526   1.750   2.398  0.1328 -1.1587  2.1340
 7090SOL    HW232904   0.602   1.874   2.414  1.1489  0.3914  0.8267
 7091SOL     OW32905   2.860   4.165  16.551  0.3922  0.8743 -0.0854
 7091SOL    HW132906   2.832   4.207  16.633 -0.6482  0.1923 -0.0881
 7091SOL    HW232907   2.853   4.228  16.480 -0.8302 -1.6206 -2.1421
 7092SOL     OW32908   2.796   3.501   2.302  0.3226  0.4520 -0.6833
 7092SOL    HW132909   2.847   3.576   2.270 -0.6019  2.2704  2.0251
 7092SOL    HW232910   2.811   3.442   2.229 -1.1403 -1.9767  1.0006
 7093SOL     OW32911   2.392   1.817  15.206 -0.1402  0.1455 -0.4404
 7093SOL    HW132912   2.422   1.849  15.291 -0.2546  1.4586 -0.8933
 7093SOL    HW232913   2.345   1.896  15.178  1.1419  1.9394  2.4108
 7094SOL     OW32914   1.589   0.175   6.701  0.4928  0.1957 -0.9785
 7094SOL    HW132915   1.514   0.235   6.701  0.7154  0.4684 -1.0526
 7094SOL    HW232916   1.648   0.202   6.772 -0.0373  2.6551 -1.4873
 7095SOL     OW32917   2.108   1.173   8.979 -0.6973 -0.2061  0.2554
 7095SOL    HW132918   2.096   1.124   9.060  0.0951 -0.1575  0.4054
 7095SOL    HW232919   2.142   1.098   8.930  1.4185  1.0599 -0.2029
 7096SOL     OW32920   3.163   4.066   8.069  0.1143  0.1337  0.1963
 7096SOL    HW132921   3.093   4.001   8.071  0.5816 -0.4514 -2.0527
 7096SOL    HW232922   3.112   4.131   8.021 -0.0891 -0.2053 -0.0479
 7097SOL     OW32923   4.276   0.439   5.551 -0.1603  0.1925  1.0449
 7097SOL    HW132924   4.253   0.512   5.493 -0.7026  0.0317  1.0561
 7097SOL    HW232925   4.196   0.387   5.551 -1.4750  2.2678 -1.4477
 7098SOL     OW32926   2.531   1.952   5.503 -0.5988 -0.4120 -0.3981
 7098SOL    HW132927   2.467   2.022   5.492 -2.1711 -1.8364 -0.2798
 7098SOL    HW232928   2.523   1.940   5.598 -1.9706  0.2171 -0.4333
 7099SOL     OW32929   0.116   2.128  17.624 -0.5348  0.4677  0.2370
 7099SOL    HW132930   0.050   2.060  17.638  0.1131 -0.5238 -1.5023
 7099SOL    HW232931   0.075   2.182  17.556 -0.3123 -0.0735 -0.3285
 7100SOL     OW32932   0.707   4.252   7.184 -0.5723 -0.6345  0.4189
 7100SOL    HW132933   0.794   4.290   7.199 -0.1351 -1.6912  0.5361
 7100SOL    HW232934   0.685   4.285   7.096 -0.3810  0.9458  0.9602
 7101SOL     OW32935   1.901   2.916   7.853 -0.1204  0.1500  0.4698
 7101SOL    HW132936   1.902   2.851   7.782  2.4932 -0.9926  1.5606
 7101SOL    HW232937   1.995   2.927   7.868 -0.2257  0.8818  0.6020
 7102SOL     OW32938   0.258   3.912   7.370  0.0820 -0.4085  0.3378
 7102SOL    HW132939   0.240   3.994   7.324 -0.4578 -1.3825 -1.1741
 7102SOL    HW232940   0.303   3.933   7.452 -1.9260 -0.2015  1.3964
 7103SOL     OW32941   4.590   1.728   8.061  0.1589 -0.3540  0.1914
 7103SOL    HW132942   4.562   1.798   8.003  0.2773 -0.9029 -0.5313
 7103SOL    HW232943   4.637   1.774   8.131 -0.0201 -0.1397  0.1682
 7104SOL     OW32944   2.576   2.917  10.825  0.6440 -0.3236  0.1030
 7104SOL    HW132945   2.487   2.919  10.859  0.7256  0.1417  0.2799
 7104SOL    HW232946   2.615   2.996  10.862  0.0105 -1.0138  2.2625
 7105SOL     OW32947   3.495   0.552   0.948  0.8766 -0.4084 -0.2470
 7105SOL    HW132948   3.480   0.479   1.008  0.7075 -1.0430 -1.0591
 7105SOL    HW232949   3.430   0.544   0.878  0.2324 -0.8523  0.4019
 7106SOL     OW32950   3.467   0.004   8.583 -0.0852  0.4504 -0.7587
 7106SOL    HW132951   3.508   0.084   8.550 -0.1714 -0.9392 -4.1961
 7106SOL    HW232952   3.472   4.683   8.507  1.5526  1.5196 -1.4739
 7107SOL     OW32953   2.653   1.791   3.542 -0.2067  0.2759 -0.1887
 7107SOL    HW132954   2.646   1.810   3.635 -0.3933 -1.1268  0.0850
 7107SOL    HW232955   2.615   1.868   3.500 -0.0935  0.7107  0.5097
 7108SOL     OW32956   2.924   3.702  14.989 -0.6076  0.4132  0.0927
 7108SOL    HW132957   2.894   3.758  14.917 -1.2967  1.0759  0.8897
 7108SOL    HW232958   2.846   3.657  15.022 -1.2231  1.0634 -0.4884
 7109SOL     OW32959   2.745   3.261   3.040  0.3476 -0.9137  0.1383
 7109SOL    HW132960   2.779   3.200   3.106  1.7410 -2.2529 -1.8153
 7109SOL    HW232961   2.750   3.344   3.086  0.1547 -0.9687  0.2622
 7110SOL     OW32962   4.006   3.723  13.552 -0.0547 -0.4992 -0.0178
 7110SOL    HW132963   3.930   3.756  13.600  1.7296  2.8477  0.5446
 7110SOL    HW232964   4.073   3.790  13.568 -0.3653 -0.3547  0.6905
 7111SOL     OW32965   1.491   0.385  17.697 -0.1835  0.1590  0.4099
 7111SOL    HW132966   1.545   0.458  17.726 -0.4779  0.2294  0.7811
 7111SOL    HW232967   1.527   0.369  17.610 -0.1228 -1.6868  0.7643
 7112SOL     OW32968   0.217   3.826   9.230 -0.0058 -0.1101 -0.2826
 7112SOL    HW132969   0.225   3.733   9.251  2.8169  0.7105  2.3256
 7112SOL    HW232970   0.122   3.830   9.223  0.0005 -0.5433 -0.5994
 7113SOL     OW32971   2.403   1.724  13.834  0.0474  0.6478  0.3360
 7113SOL    HW132972   2.492   1.762  13.835 -0.0038  0.7509  1.0847
 7113SOL    HW232973   2.362   1.770  13.907  1.6503  0.6491  1.2287
 7114SOL     OW32974   0.763   3.828  16.259 -0.1494  0.2088 -0.4588
 7114SOL    HW132975   0.700   3.878  16.311 -0.1514 -2.1546  1.7959
 7114SOL    HW232976   0.843   3.859  16.302  0.7965  0.0525 -2.1168
 7115SOL     OW32977   2.692   0.375   5.784 -0.0264  0.3334  0.7254
 7115SOL    HW132978   2.688   0.395   5.690  1.4212 -0.5037  0.4854
 7115SOL    HW232979   2.655   0.449   5.833 -1.6276 -0.5886  0.8843
 7116SOL     OW32980   3.235   4.362   8.407 -0.0461  0.2462 -0.2583
 7116SOL    HW132981   3.161   4.375   8.347 -0.5270  0.7922  0.4503
 7116SOL    HW232982   3.202   4.410   8.483  1.8024  0.0122  0.6841
 7117SOL     OW32983   3.111   3.745   7.302  0.1138 -0.5323 -0.3429
 7117SOL    HW132984   3.179   3.726   7.367  0.0083 -2.1679 -0.7309
 7117SOL    HW232985   3.039   3.693   7.336 -0.7011  0.7552 -0.0959
 7118SOL     OW32986   0.332   2.802   7.233  0.2664 -0.5552  0.0237
 7118SOL    HW132987   0.287   2.799   7.317  1.4068  0.4357  0.6750
 7118SOL    HW232988   0.381   2.884   7.242 -0.4540  0.1294 -2.3354
 7119SOL     OW32989   0.982   4.098  12.845 -0.2959  0.3258  0.8019
 7119SOL    HW132990   1.031   4.042  12.906 -0.7460 -0.1282  0.7480
 7119SOL    HW232991   0.904   4.123  12.896 -1.0209 -0.7298  0.2044
 7120SOL     OW32992   1.762   3.792   4.682  0.3047  0.2605  0.0076
 7120SOL    HW132993   1.715   3.864   4.724  0.3219 -1.0966  2.3497
 7120SOL    HW232994   1.778   3.839   4.600  0.7015 -1.1216 -0.7064
 7121SOL     OW32995   0.561   4.023   7.208 -0.5316 -0.1102 -0.4939
 7121SOL    HW132996   0.611   4.102   7.185 -1.5567  0.8827  0.6513
 7121SOL    HW232997   0.591   4.024   7.299 -2.6071  2.9760  0.1827
 7122SOL     OW32998   1.842   2.358   6.015  0.6673  0.5944 -0.1853
 7122SOL    HW132999   1.779   2.428   6.000  0.9711  0.9185  0.0643
 7122SOL    HW233000   1.785   2.281   6.010  1.0238  0.2711  0.7156
 7123SOL     OW33001   2.200   2.227   7.549 -0.2423  0.2533  0.6998
 7123SOL    HW133002   2.111   2.206   7.519  0.5413 -1.4098 -0.5155
 7123SOL    HW233003   2.249   2.228   7.467 -1.2575 -0.8276  0.0754
 7124SOL     OW33004   2.699   2.424   0.634 -0.4570  0.1446  0.0868
 7124SOL    HW133005   2.794   2.410   0.636 -0.2024  1.4845 -1.8727
 7124SOL    HW233006   2.694   2.519   0.626  1.7359  0.0831 -2.4337
 7125SOL     OW33007   3.801   1.061  12.437 -0.2293  0.4828 -0.5769
 7125SOL    HW133008   3.859   1.068  12.361  0.8958  1.4201  0.3716
 7125SOL    HW233009   3.752   0.981  12.417  1.0234 -0.2251 -0.7811
 7126SOL     OW33010   1.011   3.338   8.754  0.6770  0.1191  0.1816
 7126SOL    HW133011   0.929   3.387   8.750  0.4551 -0.1290  1.8977
 7126SOL    HW233012   1.083   3.399   8.736 -0.1580  1.1018  0.2565
 7127SOL     OW33013   2.573   4.009   9.407 -0.3314 -0.2058  0.1273
 7127SOL    HW133014   2.499   3.966   9.449 -0.0673 -0.1095  0.6924
 7127SOL    HW233015   2.578   4.084   9.467 -0.1000 -0.6218  0.6355
 7128SOL     OW33016   1.198   1.163   0.189  0.3265 -0.1630  0.1700
 7128SOL    HW133017   1.252   1.242   0.199  0.4137 -0.4379  1.8395
 7128SOL    HW233018   1.218   1.121   0.272  1.8248 -1.3860 -0.8179
 7129SOL     OW33019   2.094   0.515   7.994  0.1142 -0.1719 -0.3103
 7129SOL    HW133020   2.157   0.454   7.955 -0.7657 -0.4057 -1.3627
 7129SOL    HW233021   2.150   0.584   8.029 -1.2207  0.0384  1.4245
 7130SOL     OW33022   0.804   3.660  11.889 -0.7254 -0.0409 -0.3611
 7130SOL    HW133023   0.828   3.751  11.906 -1.1628  0.1155 -0.5765
 7130SOL    HW233024   0.720   3.666  11.843 -1.0660 -3.7996 -0.2109
 7131SOL     OW33025   4.544   2.403  14.427 -0.1909 -0.2272 -0.0344
 7131SOL    HW133026   4.553   2.384  14.334  1.0683  1.4605 -0.2586
 7131SOL    HW233027   4.587   2.488  14.422  2.0141 -1.4066 -1.1319
 7132SOL     OW33028   2.992   3.916  16.563  0.5941  0.0349  0.2322
 7132SOL    HW133029   2.972   4.010  16.567  2.1185  0.1492  4.7829
 7132SOL    HW233030   2.951   3.889  16.481 -0.5260  0.8431  0.5193
 7133SOL     OW33031   4.301   0.439   6.096  0.1031  0.1591 -0.3889
 7133SOL    HW133032   4.247   0.362   6.119  1.7874 -1.6124 -2.3746
 7133SOL    HW233033   4.233   0.503   6.073  1.0520  0.1628 -3.0515
 7134SOL     OW33034   1.500   3.628   6.778  0.0357  0.4658 -0.7895
 7134SOL    HW133035   1.487   3.639   6.873  2.4629  0.0086 -0.4103
 7134SOL    HW233036   1.574   3.684   6.755  0.2809  0.2996 -0.4138
 7135SOL     OW33037   2.128   2.776   7.211  0.0711 -0.0287 -0.3390
 7135SOL    HW133038   2.115   2.707   7.277 -4.1898 -0.6134 -1.7853
 7135SOL    HW233039   2.214   2.811   7.231 -0.4221 -0.0248  1.7806
 7136SOL     OW33040   4.458   4.118   1.891 -0.1375  1.0997  0.2289
 7136SOL    HW133041   4.435   4.049   1.829 -1.3175  0.0837  1.7833
 7136SOL    HW233042   4.411   4.187   1.844 -1.7983 -0.4064 -0.3251
 7137SOL     OW33043   2.748   1.925  10.445  0.3885 -0.6583 -0.0965
 7137SOL    HW133044   2.743   1.853  10.508  0.8003 -1.7625 -1.3177
 7137SOL    HW233045   2.795   1.879  10.376  0.4157  0.8543 -1.0850
 7138SOL     OW33046   3.108   3.047   5.242 -0.4136 -0.2153  0.2423
 7138SOL    HW133047   3.055   3.126   5.232 -1.2333 -0.8054 -0.0754
 7138SOL    HW233048   3.174   3.069   5.175 -1.8534  0.5323 -0.9485
 7139SOL     OW33049   1.029   1.023   2.356  0.6570  0.0947  0.3098
 7139SOL    HW133050   0.942   1.062   2.367 -0.5032 -1.7454 -2.1541
 7139SOL    HW233051   1.080   1.103   2.365 -0.7780  1.1237 -0.7634
 7140SOL     OW33052   4.224   3.305   1.894 -0.0489  0.7442 -0.4399
 7140SOL    HW133053   4.267   3.337   1.815  0.4844 -0.5224 -0.6582
 7140SOL    HW233054   4.200   3.215   1.874  0.3648  0.9582 -1.8910
 7141SOL     OW33055   2.231   1.302   7.052  0.1262 -0.0616  0.3913
 7141SOL    HW133056   2.256   1.332   7.139 -1.0020  0.5761  0.4970
 7141SOL    HW233057   2.179   1.372   7.014 -0.1147 -0.0822  0.6848
 7142SOL     OW33058   2.481   4.433   3.339 -0.3343 -0.0774 -0.2851
 7142SOL    HW133059   2.466   4.512   3.287  1.8827  0.1352 -0.6122
 7142SOL    HW233060   2.448   4.473   3.419  0.2480 -0.3794  0.0994
 7143SOL     OW33061   4.667   3.414  12.085 -0.1274 -0.4960  0.0637
 7143SOL    HW133062   0.018   3.412  12.048  0.0922  2.5490  0.4234
 7143SOL    HW233063   4.606   3.442  12.016  1.1098 -1.0659 -1.2601
 7144SOL     OW33064   3.985   3.496   6.618  0.2545 -0.1694  0.9030
 7144SOL    HW133065   3.961   3.421   6.673  0.8872 -0.6148  0.5748
 7144SOL    HW233066   4.078   3.475   6.616 -0.1085 -1.9416  2.3036
 7145SOL     OW33067   3.344   0.135   8.804 -0.1621 -0.0076  0.5100
 7145SOL    HW133068   3.439   0.147   8.815 -0.4632  3.6534 -0.9308
 7145SOL    HW233069   3.338   0.097   8.716  0.2597 -1.3647  1.0614
 7146SOL     OW33070   2.855   0.930  16.726 -0.4110 -0.0529 -0.4067
 7146SOL    HW133071   2.884   0.973  16.646 -2.2120  1.9014  0.0228
 7146SOL    HW233072   2.840   0.843  16.690  1.1128 -0.2021 -0.7023
 7147SOL     OW33073   1.500   1.462   3.442  0.6683 -0.1411  0.2067
 7147SOL    HW133074   1.451   1.529   3.395  0.1590 -1.4349 -1.1391
 7147SOL    HW233075   1.504   1.390   3.378 -0.0747 -0.9090  1.0209
 7148SOL     OW33076   3.269   2.264   6.228  0.6351 -0.0675  0.2369
 7148SOL    HW133077   3.205   2.330   6.252 -0.7013 -0.6165 -1.8918
 7148SOL    HW233078   3.342   2.313   6.190  0.2007  0.6495  0.3373
 7149SOL     OW33079   1.678   2.784   9.755  0.0507  0.5244  0.3524
 7149SOL    HW133080   1.750   2.846   9.745  0.8846 -0.4653  0.2255
 7149SOL    HW233081   1.623   2.806   9.680 -1.4554 -0.5611  1.1259
 7150SOL     OW33082   2.084   2.884  15.995 -0.1315  0.1510 -0.2695
 7150SOL    HW133083   2.028   2.887  15.917  1.6237  1.6675 -1.4715
 7150SOL    HW233084   2.153   2.938  15.958  1.9342 -1.7043  0.8944
 7151SOL     OW33085   1.052   2.936   3.374 -0.2143 -0.3625  0.2568
 7151SOL    HW133086   1.059   2.878   3.450  0.8941  0.4609  0.7984
 7151SOL    HW233087   1.024   3.014   3.423  2.4799  0.2836  0.7915
 7152SOL     OW33088   1.669   0.770   2.681 -0.0395  0.2354 -0.1892
 7152SOL    HW133089   1.663   0.808   2.769  0.6126  0.1180 -0.0932
 7152SOL    HW233090   1.667   0.675   2.697 -0.9616  0.2702 -0.1048
 7153SOL     OW33091   1.595   3.132  14.468 -0.4548  0.3761  0.0332
 7153SOL    HW133092   1.673   3.179  14.497  0.6165  0.0444 -2.2924
 7153SOL    HW233093   1.541   3.123  14.547  1.2038  2.0683  1.3537
 7154SOL     OW33094   4.476   1.093   5.116 -0.1208 -0.0831 -0.3807
 7154SOL    HW133095   4.556   1.061   5.156 -1.3758 -1.4230  1.0650
 7154SOL    HW233096   4.497   1.098   5.023 -1.7513 -0.1974 -0.7595
 7155SOL     OW33097   3.973   2.448   2.470  0.1384 -0.0381 -0.6013
 7155SOL    HW133098   3.891   2.486   2.442 -0.2340  0.6761  1.4735
 7155SOL    HW233099   4.034   2.520   2.486 -1.0479  0.7803  0.1508
 7156SOL     OW33100   3.069   4.569  10.528  0.3486  0.4374 -0.0901
 7156SOL    HW133101   3.121   4.649  10.517  1.3418 -0.0549  1.0640
 7156SOL    HW233102   3.130   4.499  10.552  0.9316  1.6471  1.9212
 7157SOL     OW33103   0.217   3.910   1.024  0.1836  0.5576 -0.3611
 7157SOL    HW133104   0.295   3.911   1.078  1.2187 -1.3270 -1.8197
 7157SOL    HW233105   0.158   3.886   1.095  0.6729  3.1187  0.8932
 7158SOL     OW33106   4.346   0.331   4.785 -0.0654 -0.8090  0.0369
 7158SOL    HW133107   4.292   0.258   4.815  0.0268 -1.8860 -2.4801
 7158SOL    HW233108   4.434   0.298   4.804  1.4971  2.9912 -0.6192
 7159SOL     OW33109   2.621   3.519   8.263  0.0347 -0.0098  0.5160
 7159SOL    HW133110   2.696   3.532   8.321  0.0043  0.3224  0.4805
 7159SOL    HW233111   2.555   3.584   8.290 -1.6060 -1.1780 -0.7054
 7160SOL     OW33112   0.182   2.071  10.143 -0.3900 -0.5090  0.1541
 7160SOL    HW133113   0.092   2.104  10.149  0.7868  2.5284  1.1915
 7160SOL    HW233114   0.189   2.017  10.222  0.1156 -1.4408 -0.5415
 7161SOL     OW33115   2.336   3.051   8.136  0.0932 -0.1672 -0.0400
 7161SOL    HW133116   2.287   3.128   8.164  0.5142  0.4338 -0.9610
 7161SOL    HW233117   2.421   3.089   8.112 -1.2445  2.1812 -1.1167
 7162SOL     OW33118   1.876   0.190   7.599 -0.3124  0.1592  0.7752
 7162SOL    HW133119   1.851   0.156   7.513  2.9902  0.1633 -0.2151
 7162SOL    HW233120   1.971   0.179   7.594 -0.6117 -1.6510 -0.9311
 7163SOL     OW33121   4.570   0.043   7.301  0.3185  0.0105  0.3079
 7163SOL    HW133122   4.511   4.724   7.352 -0.3053  1.1136  0.7796
 7163SOL    HW233123   4.557   4.729   7.221  1.3538 -1.6018  1.1580
 7164SOL     OW33124   2.634   4.480   8.745 -0.0040 -0.0779 -0.3459
 7164SOL    HW133125   2.646   4.400   8.796  3.7068  0.4275 -0.4416
 7164SOL    HW233126   2.720   4.522   8.741 -1.2127  2.4965  0.0705
 7165SOL     OW33127   4.635   0.367  10.003 -0.3759 -0.1054  0.4294
 7165SOL    HW133128   4.573   0.293   9.999  2.9315 -2.7813 -1.5222
 7165SOL    HW233129   4.682   0.359  10.086 -0.0589 -0.5644  0.2060
 7166SOL     OW33130   0.660   1.859  17.285  0.0664 -0.1101  0.2400
 7166SOL    HW133131   0.625   1.771  17.274  2.6370 -0.9400 -1.2031
 7166SOL    HW233132   0.729   1.853  17.218 -0.1202  2.7843 -0.2071
 7167SOL     OW33133   0.863   2.180  10.664 -0.2362 -0.3026 -0.2959
 7167SOL    HW133134   0.793   2.116  10.653  0.2861 -1.0375  0.6863
 7167SOL    HW233135   0.837   2.229  10.742  0.7145  2.7381 -1.8530
 7168SOL     OW33136   4.319   4.460  12.632  0.4122  0.4911  0.2863
 7168SOL    HW133137   4.381   4.529  12.654  2.3715 -1.2138  0.0750
 7168SOL    HW233138   4.255   4.470  12.703 -0.8542  0.8821 -0.9032
 7169SOL     OW33139   2.475   1.367   7.223 -0.0587  0.3249  0.4454
 7169SOL    HW133140   2.506   1.422   7.151 -1.6979  1.8334  0.9054
 7169SOL    HW233141   2.487   1.422   7.300  0.5332 -1.1069  1.3652
 7170SOL     OW33142   2.744   3.367   8.668 -0.0783 -0.3504  0.7798
 7170SOL    HW133143   2.825   3.415   8.650 -1.2397  1.2420 -0.1529
 7170SOL    HW233144   2.743   3.359   8.763 -0.4077 -1.4254  0.6931
 7171SOL     OW33145   0.154   0.588  13.743  0.2955 -0.1247 -0.2739
 7171SOL    HW133146   0.135   0.527  13.815 -1.7197  1.8012  0.8119
 7171SOL    HW233147   0.180   0.535  13.668 -0.4299 -2.4607  1.1094
 7172SOL     OW33148   4.281   3.250   1.403 -0.0226  0.5348  1.1433
 7172SOL    HW133149   4.240   3.305   1.337  0.6338 -0.2302  0.0975
 7172SOL    HW233150   4.200   3.214   1.439 -0.6716  0.8339 -0.0223
 7173SOL     OW33151   0.226   4.524  14.895 -0.7344 -0.5669  0.1970
 7173SOL    HW133152   0.264   4.501  14.810 -1.4171  1.7753 -0.7222
 7173SOL    HW233153   0.150   4.465  14.899 -0.6481 -0.7451 -0.8248
 7174SOL     OW33154   2.891   0.531  15.826  0.5573 -0.0331 -0.2589
 7174SOL    HW133155   2.817   0.496  15.876  0.4819  0.2503 -0.1750
 7174SOL    HW233156   2.936   0.447  15.814  0.0010 -0.6149  1.6892
 7175SOL     OW33157   3.771   2.508   8.490 -0.2964 -0.4281 -0.2859
 7175SOL    HW133158   3.824   2.532   8.413 -1.0491 -0.3647 -0.7881
 7175SOL    HW233159   3.835   2.539   8.555  1.4706  1.8022 -3.0629
 7176SOL     OW33160   3.307   2.665   7.942 -0.2310  0.3713  0.6170
 7176SOL    HW133161   3.341   2.733   7.999  1.2722  1.2671 -1.3363
 7176SOL    HW233162   3.300   2.592   8.003  0.6183  0.0719  0.3656
 7177SOL     OW33163   1.362   3.762   2.905  0.0358  0.0749  0.2972
 7177SOL    HW133164   1.275   3.725   2.919 -0.4895  2.0044  2.0543
 7177SOL    HW233165   1.348   3.780   2.812 -1.6084 -0.2512  0.4912
 7178SOL     OW33166   0.070   0.476   8.040 -0.0253  0.2501 -0.0702
 7178SOL    HW133167   0.141   0.490   8.102  0.7993  3.6886 -1.8174
 7178SOL    HW233168   0.002   0.448   8.103  1.3334 -0.5698  1.0369
 7179SOL     OW33169   2.149   1.531   4.069  0.1109 -0.5100  0.1783
 7179SOL    HW133170   2.080   1.588   4.100 -0.2244 -0.3534 -0.8520
 7179SOL    HW233171   2.181   1.592   4.003 -0.0589  0.1541  0.7115
 7180SOL     OW33172   3.790   3.595   2.814 -0.1460  0.5248  0.1269
 7180SOL    HW133173   3.771   3.684   2.784 -2.9715 -0.0160  0.3424
 7180SOL    HW233174   3.837   3.570   2.734  0.1787 -0.0747  0.5092
 7181SOL     OW33175   4.105   2.872   8.400  0.3467 -0.3324 -0.3667
 7181SOL    HW133176   4.161   2.864   8.478 -0.2130  1.0443  0.1635
 7181SOL    HW233177   4.128   2.792   8.353 -1.3516 -0.3529 -1.1562
 7182SOL     OW33178   3.944   1.056  12.205  0.3105  0.3648 -0.0045
 7182SOL    HW133179   3.962   1.118  12.134 -3.2018  1.6369  0.2285
 7182SOL    HW233180   3.991   0.979  12.173  0.1970  0.2264  0.1639
 7183SOL     OW33181   1.702   0.917   4.515  0.1792 -0.0354 -0.2344
 7183SOL    HW133182   1.613   0.907   4.480  0.6232 -0.2473 -1.2979
 7183SOL    HW233183   1.759   0.906   4.439  1.0365  1.8686  0.1334
 7184SOL     OW33184   2.154   0.654   6.893 -0.1105  0.5378 -0.4227
 7184SOL    HW133185   2.135   0.597   6.967  0.7762  1.0984  0.2338
 7184SOL    HW233186   2.127   0.741   6.922  0.3528  0.9238 -1.1461
 7185SOL     OW33187   3.581   0.453   9.013 -0.2551 -0.4013  0.4581
 7185SOL    HW133188   3.559   0.364   9.042  0.4585 -0.8808 -0.5147
 7185SOL    HW233189   3.603   0.489   9.099  1.1543  2.0070 -0.9323
 7186SOL     OW33190   4.522   2.402   6.629 -0.0862 -0.0459 -0.7920
 7186SOL    HW133191   4.493   2.371   6.543  0.0776  2.2241 -1.6541
 7186SOL    HW233192   4.441   2.403   6.679  1.4750 -0.1405  1.7259
 7187SOL     OW33193   0.097   1.475   2.667  0.1429  0.1732 -0.2672
 7187SOL    HW133194   0.012   1.431   2.667 -0.4270  1.2928  3.9570
 7187SOL    HW233195   0.108   1.498   2.575  1.1003 -2.4005 -0.7992
 7188SOL     OW33196   0.739   0.986   9.578 -0.1285 -0.1744 -0.3518
 7188SOL    HW133197   0.716   1.035   9.499 -1.2031  0.0196  0.0892
 7188SOL    HW233198   0.753   0.901   9.536  1.4700 -0.2143  0.2645
 7189SOL     OW33199   0.996   2.203   8.540 -0.1368  0.5439  0.4517
 7189SOL    HW133200   1.024   2.234   8.454 -0.6791 -0.4106 -0.0686
 7189SOL    HW233201   1.035   2.271   8.594 -0.5191 -0.4329  1.9730
 7190SOL     OW33202   3.167   4.510   7.120 -0.3130  0.0390 -0.1117
 7190SOL    HW133203   3.153   4.527   7.027  0.0329  0.4136 -0.0968
 7190SOL    HW233204   3.224   4.433   7.120 -0.0714  0.2181 -2.0598
 7191SOL     OW33205   0.943   0.220   6.827  0.0584 -0.2849 -0.3092
 7191SOL    HW133206   0.886   0.297   6.821 -0.0019 -0.5218 -3.1826
 7191SOL    HW233207   0.887   0.152   6.864  0.4212 -0.0314  0.6786
 7192SOL     OW33208   1.719   0.994  17.574  0.0479  0.2551 -0.0328
 7192SOL    HW133209   1.704   0.911  17.620  1.6323 -0.8808 -1.5843
 7192SOL    HW233210   1.802   1.025  17.610 -0.0837  0.5743 -0.0050
 7193SOL     OW33211   2.361   2.506   6.739  0.8638 -0.7861  0.0076
 7193SOL    HW133212   2.412   2.496   6.819  1.7585  0.2602 -0.4417
 7193SOL    HW233213   2.434   2.504   6.677  0.1311 -0.7371 -0.8549
 7194SOL     OW33214   0.738   0.257   7.980  0.6824 -0.1725 -0.2168
 7194SOL    HW133215   0.790   0.179   7.966 -0.4069 -0.9000 -0.2413
 7194SOL    HW233216   0.646   0.229   7.974  1.0637 -1.4581  0.0633
 7195SOL     OW33217   0.626   3.824   5.183  0.4285 -0.1621 -0.2667
 7195SOL    HW133218   0.604   3.744   5.231  1.2261 -0.7186 -0.8152
 7195SOL    HW233219   0.588   3.893   5.237 -1.5567 -1.1452 -0.4275
 7196SOL     OW33220   2.504   0.026  17.256  0.1260 -0.1921 -0.3824
 7196SOL    HW133221   2.553   4.724  17.329 -0.8052 -0.9513 -0.1527
 7196SOL    HW233222   2.574   0.023  17.191  0.1452  1.3777 -0.4285
 7197SOL     OW33223   1.647   0.420   8.163 -0.3542 -0.1466 -0.2360
 7197SOL    HW133224   1.682   0.389   8.080 -1.4986  0.1436 -0.8340
 7197SOL    HW233225   1.726   0.467   8.189 -0.9548  0.4498  0.4982
 7198SOL     OW33226   3.182   0.094  11.456  0.0516  0.4538 -0.5574
 7198SOL    HW133227   3.175   0.162  11.389 -0.7217  1.2650  0.3372
 7198SOL    HW233228   3.109   0.108  11.516 -0.3056 -2.0417 -0.4495
 7199SOL     OW33229   1.018   4.230   3.879 -0.0069  0.6362  0.5636
 7199SOL    HW133230   0.953   4.288   3.918  0.1917 -0.0747  1.9451
 7199SOL    HW233231   1.097   4.283   3.881  1.2840 -1.2071 -1.7550
 7200SOL     OW33232   3.381   2.330   2.093 -0.3170  0.1154 -0.1992
 7200SOL    HW133233   3.309   2.351   2.153 -0.1793  2.4819 -0.8518
 7200SOL    HW233234   3.330   2.321   2.012  0.7945 -0.3540 -0.8389
 7201SOL     OW33235   3.334   4.121   9.631 -0.1625  0.1002  0.2063
 7201SOL    HW133236   3.270   4.161   9.689  0.6670  1.6096  0.0801
 7201SOL    HW233237   3.389   4.083   9.700  2.4705 -0.3416 -2.1276
 7202SOL     OW33238   3.363   3.463   5.027 -0.0295  0.0063 -0.4417
 7202SOL    HW133239   3.364   3.540   5.085  0.3376 -0.6810  0.4665
 7202SOL    HW233240   3.412   3.497   4.953  0.3489 -1.5143 -0.8808
 7203SOL     OW33241   1.218   3.557   5.937  0.7021 -0.2493  0.6435
 7203SOL    HW133242   1.251   3.597   6.018 -0.0478  0.6164  0.5209
 7203SOL    HW233243   1.189   3.470   5.966  1.1576  0.5937  3.6713
 7204SOL     OW33244   1.877   0.540   9.736  0.4248 -0.1096  0.1228
 7204SOL    HW133245   1.955   0.496   9.771  0.6063 -1.6102 -2.2188
 7204SOL    HW233246   1.881   0.613   9.798 -2.7350 -0.2976  0.5298
 7205SOL     OW33247   4.576   4.653  15.205 -0.0066  0.2083  0.3228
 7205SOL    HW133248   4.534   4.572  15.235 -1.1334  1.1774  1.3688
 7205SOL    HW233249   4.546   4.659  15.115 -0.3002 -0.5844  0.3640
 7206SOL     OW33250   0.843   2.364   0.452 -0.6713 -0.6051  0.0985
 7206SOL    HW133251   0.752   2.338   0.468 -1.1409  0.5922 -0.7002
 7206SOL    HW233252   0.881   2.306   0.519  0.0152 -1.5877 -1.1382
 7207SOL     OW33253   1.360   0.926   2.497  0.5185  0.1062  0.1695
 7207SOL    HW133254   1.338   0.936   2.404  1.7086  0.7916 -0.0500
 7207SOL    HW233255   1.298   0.992   2.528  1.7602  0.8212  1.1320
 7208SOL     OW33256   1.976   0.241   9.358  0.2663 -0.0572 -0.1582
 7208SOL    HW133257   2.066   0.215   9.338  0.3951  2.5182 -3.0026
 7208SOL    HW233258   2.004   0.320   9.405 -2.2566  1.4721 -1.1876
 7209SOL     OW33259   2.088   1.591   6.643  0.1728  0.3228  0.5673
 7209SOL    HW133260   2.103   1.515   6.587 -2.4365 -0.0065  0.2743
 7209SOL    HW233261   2.174   1.631   6.633 -0.4299  0.9973 -2.0981
 7210SOL     OW33262   3.761   1.942   3.474 -0.5251  0.0036  0.3435
 7210SOL    HW133263   3.842   1.976   3.436 -0.7469  0.1391  0.0015
 7210SOL    HW233264   3.783   1.850   3.488  0.6448  0.1503 -0.6041
 7211SOL     OW33265   0.028   3.309  14.759 -0.0267  0.4637 -0.1264
 7211SOL    HW133266   0.053   3.402  14.757  1.8676 -0.0313  1.1353
 7211SOL    HW233267   0.107   3.256  14.753 -0.6030 -0.3182 -0.7882
 7212SOL     OW33268   4.643   0.281   5.091 -0.3177 -0.0774  0.2364
 7212SOL    HW133269   4.628   0.258   5.000  2.2125  1.0714 -0.4653
 7212SOL    HW233270   4.579   0.229   5.140  0.5061 -1.0504  0.2803
 7213SOL     OW33271   4.056   4.700   5.341 -0.6908 -0.7381 -0.1096
 7213SOL    HW133272   3.995   4.666   5.276 -0.7438 -0.2970 -0.2934
 7213SOL    HW233273   4.134   4.654   5.310 -0.2510  1.3405 -2.1073
 7214SOL     OW33274   4.370   3.567   4.024 -0.2267 -0.1733  0.0415
 7214SOL    HW133275   4.445   3.605   3.978 -0.8763 -0.4962 -1.2628
 7214SOL    HW233276   4.293   3.589   3.972  0.3111 -0.2791 -0.7890
 7215SOL     OW33277   4.359   2.776   6.889 -0.3610  0.5012 -0.2413
 7215SOL    HW133278   4.452   2.769   6.910 -0.8237 -1.5969  0.9963
 7215SOL    HW233279   4.343   2.869   6.869 -0.0017  0.7698  0.7170
 7216SOL     OW33280   1.854   1.199   4.379 -0.5779 -0.4398 -0.1715
 7216SOL    HW133281   1.777   1.251   4.355 -0.4022  0.4383  1.1854
 7216SOL    HW233282   1.919   1.226   4.314 -0.9502 -0.1564 -0.4265
 7217SOL     OW33283   0.259   1.377   6.116 -0.0643  0.4808  0.0358
 7217SOL    HW133284   0.314   1.452   6.092  1.1411  0.0782  1.5436
 7217SOL    HW233285   0.299   1.309   6.062  1.6643 -0.1356  2.0642
 7218SOL     OW33286   2.526   1.651   4.139  0.3364 -0.0511 -0.2160
 7218SOL    HW133287   2.451   1.596   4.159  1.5993 -2.5677 -2.4025
 7218SOL    HW233288   2.595   1.589   4.162  0.3687  0.5336  1.2386
 7219SOL     OW33289   0.254   3.939   5.173  0.3850  0.1808  0.0764
 7219SOL    HW133290   0.245   3.955   5.267  0.8874  0.5521  0.0578
 7219SOL    HW233291   0.298   3.855   5.167 -0.1327  0.0167 -1.4907
 7220SOL     OW33292   0.398   2.080  10.359 -0.2925 -0.0481 -0.0988
 7220SOL    HW133293   0.486   2.043  10.355 -0.2272  0.3128 -2.4224
 7220SOL    HW233294   0.374   2.083  10.266 -0.8446 -1.7175 -0.0198
 7221SOL     OW33295   4.735   1.015   8.188  0.0901 -0.1763  0.0896
 7221SOL    HW133296   0.017   0.953   8.118 -0.3188  0.1105 -0.2678
 7221SOL    HW233297   0.048   0.981   8.262 -2.6776  0.7966  2.3798
 7222SOL     OW33298   4.003   3.461   9.374  0.2786  0.5506 -0.3326
 7222SOL    HW133299   4.076   3.511   9.337  1.8073  0.3385  2.3789
 7222SOL    HW233300   4.037   3.372   9.364 -0.5594  0.3146 -1.0785
 7223SOL     OW33301   3.987   1.470  12.110 -0.0003  0.3357 -0.1393
 7223SOL    HW133302   3.911   1.525  12.129 -0.1859  0.0864 -0.1541
 7223SOL    HW233303   3.943   1.408  12.051 -0.4679 -0.5375  1.1396
 7224SOL     OW33304   0.310   2.237   0.449  0.2930 -0.3664  0.1246
 7224SOL    HW133305   0.287   2.268   0.537 -1.4088  1.6526 -1.0483
 7224SOL    HW233306   0.225   2.254   0.409  0.1532 -1.8200 -0.1778
 7225SOL     OW33307   4.042   3.331   5.565  0.0309 -0.0389 -0.2379
 7225SOL    HW133308   4.072   3.278   5.639  1.0893 -1.8049 -1.9511
 7225SOL    HW233309   4.115   3.393   5.574 -0.5757  0.7601 -0.9175
 7226SOL     OW33310   2.143   0.304   7.601 -0.4414  0.6455 -0.3904
 7226SOL    HW133311   2.218   0.315   7.543  0.0306 -3.9822 -0.6896
 7226SOL    HW233312   2.187   0.315   7.685  1.4424 -3.3000 -0.8344
 7227SOL     OW33313   4.100   1.020   0.149 -0.1071 -0.4802 -0.3191
 7227SOL    HW133314   4.010   0.990   0.147  0.5185 -2.4587  1.7421
 7227SOL    HW233315   4.143   0.938   0.170  0.5145  0.1300  0.8132
 7228SOL     OW33316   3.889   2.957  14.001 -0.2042 -0.4886  0.0345
 7228SOL    HW133317   3.818   2.972  14.064  0.6322  1.6247  0.4792
 7228SOL    HW233318   3.939   2.895  14.053  1.2838 -0.2733 -1.1331
 7229SOL     OW33319   0.135   2.088  13.792  0.2376  0.3721  0.3779
 7229SOL    HW133320   0.080   2.165  13.779  1.4917  1.2525  0.3222
 7229SOL    HW233321   0.218   2.113  13.752  0.9486 -2.5126  0.0836
 7230SOL     OW33322   1.519   1.193  11.687  0.5434  0.5201 -0.2323
 7230SOL    HW133323   1.487   1.200  11.597 -1.7761  1.5076  0.6419
 7230SOL    HW233324   1.469   1.261  11.732  0.1961  0.7535 -0.9665
 7231SOL     OW33325   0.113   2.876   5.448  0.2268  0.5055  0.1939
 7231SOL    HW133326   0.106   2.792   5.402 -1.0812  1.1512 -0.7874
 7231SOL    HW233327   0.046   2.916   5.392 -0.8923 -1.6294 -0.0183
 7232SOL     OW33328   0.119   0.462  14.263 -0.4572  0.2066  0.2818
 7232SOL    HW133329   0.150   0.496  14.348  1.0711  1.6102 -0.8337
 7232SOL    HW233330   0.091   0.552  14.243  0.4563  0.6970  1.1682
 7233SOL     OW33331   2.030   3.098   8.485  0.3463  0.7975  0.5057
 7233SOL    HW133332   2.080   3.133   8.411 -0.1631  1.7633  0.6216
 7233SOL    HW233333   2.069   3.148   8.556 -0.9427 -0.1523  1.8874
 7234SOL     OW33334   0.784   4.492   5.745 -0.2771 -0.1911 -0.1580
 7234SOL    HW133335   0.875   4.520   5.755 -0.7835  2.0987 -1.9639
 7234SOL    HW233336   0.751   4.551   5.677 -0.7874  0.4551  0.6551
 7235SOL     OW33337   0.157   0.085   3.763  0.0079 -0.0029  0.2297
 7235SOL    HW133338   0.063   0.087   3.746  0.0951  2.0365 -0.0646
 7235SOL    HW233339   0.185   0.160   3.816 -0.0489 -0.3314  0.7286
 7236SOL     OW33340   2.387   3.567   6.130  0.4326 -0.4976 -0.2638
 7236SOL    HW133341   2.338   3.631   6.182  1.6763  0.3007 -0.0838
 7236SOL    HW233342   2.320   3.528   6.074 -0.3384 -1.7291  1.5071
 7237SOL     OW33343   0.251   2.097   5.654 -0.0277  0.3514 -0.4325
 7237SOL    HW133344   0.221   2.144   5.576  2.4559  0.4880 -1.2992
 7237SOL    HW233345   0.176   2.101   5.714 -0.2793  0.2002 -0.7329
 7238SOL     OW33346   2.424   3.414   8.615 -0.0908  0.1325  0.1549
 7238SOL    HW133347   2.502   3.359   8.609 -0.0482  0.1093  1.0579
 7238SOL    HW233348   2.458   3.497   8.647 -2.1961  1.5532 -1.2101
 7239SOL     OW33349   1.817   1.106   8.863 -0.0871 -0.3217 -0.0750
 7239SOL    HW133350   1.765   1.162   8.920  1.6254 -0.9996  2.1283
 7239SOL    HW233351   1.910   1.114   8.885 -0.1592  3.5420 -1.2041
 7240SOL     OW33352   3.460   2.063   6.075  0.4571 -0.0642 -0.7792
 7240SOL    HW133353   3.379   2.113   6.083 -1.5349 -3.6028  1.0525
 7240SOL    HW233354   3.450   1.986   6.019 -0.5617 -1.0983  0.8399
 7241SOL     OW33355   1.333   3.728   3.208  0.4427  0.0342 -0.9671
 7241SOL    HW133356   1.338   3.774   3.124 -0.6909  0.8823 -0.5731
 7241SOL    HW233357   1.320   3.792   3.278  0.8203 -1.1902  0.2349
 7242SOL     OW33358   2.010   2.620  15.351  0.3938  0.2252  0.2967
 7242SOL    HW133359   2.081   2.677  15.379 -0.4079  1.5830 -0.4601
 7242SOL    HW233360   1.936   2.679  15.360  1.2807  1.2920  0.6284
 7243SOL     OW33361   3.890   2.343   5.351  0.4017  0.2211  0.0205
 7243SOL    HW133362   3.894   2.255   5.388 -0.8303  0.5348  0.8925
 7243SOL    HW233363   3.978   2.379   5.358  1.0661 -1.2913 -0.4213
 7244SOL     OW33364   4.127   4.607   3.673  0.4928 -0.0541  0.3586
 7244SOL    HW133365   4.183   4.641   3.743  2.0880 -0.6576 -0.6247
 7244SOL    HW233366   4.117   4.684   3.617 -1.4709 -0.9105 -0.4815
 7245SOL     OW33367   0.694   0.209   0.237  0.5713  0.6196 -0.4432
 7245SOL    HW133368   0.611   0.226   0.193 -1.4540 -1.1020  2.6982
 7245SOL    HW233369   0.699   0.288   0.290 -0.6322  1.3360 -1.4173
 7246SOL     OW33370   0.180   1.622   0.892 -0.0571  0.1842 -0.0040
 7246SOL    HW133371   0.115   1.682   0.927  2.5167  2.6404  0.5464
 7246SOL    HW233372   0.251   1.627   0.957 -2.0061 -1.2090  2.2174
 7247SOL     OW33373   3.924   2.564  13.825 -0.1866 -0.1325 -0.4094
 7247SOL    HW133374   3.846   2.545  13.774 -0.3367 -0.5062 -0.0425
 7247SOL    HW233375   3.970   2.633  13.777 -1.7967  2.0037  1.1273
 7248SOL     OW33376   2.631   1.513   2.237  0.0400 -0.1617  0.1890
 7248SOL    HW133377   2.707   1.570   2.224 -1.6441  1.9678 -0.3054
 7248SOL    HW233378   2.668   1.451   2.299  1.8903  1.4157  0.6530
 7249SOL     OW33379   3.156   1.520   7.212 -0.4013  0.0258 -0.1235
 7249SOL    HW133380   3.200   1.437   7.232 -0.4215 -0.3422 -1.6215
 7249SOL    HW233381   3.065   1.514   7.242 -0.7232  0.0897 -1.0652
 7250SOL     OW33382   0.879   1.261   8.740  0.2998 -0.0116 -0.0795
 7250SOL    HW133383   0.899   1.187   8.684 -1.3287  0.1346 -0.8559
 7250SOL    HW233384   0.955   1.275   8.797  0.3882  0.2975 -0.2701
 7251SOL     OW33385   1.068   3.884   9.089 -0.3757 -0.4939  0.0068
 7251SOL    HW133386   1.105   3.903   9.003  0.0557 -0.9983  0.0809
 7251SOL    HW233387   0.992   3.942   9.092 -2.0544 -2.6445 -0.8691
 7252SOL     OW33388   0.789   1.426   3.821 -0.3990  0.4810 -0.0456
 7252SOL    HW133389   0.843   1.349   3.807 -0.8641 -0.0124  0.8478
 7252SOL    HW233390   0.708   1.376   3.806 -1.0254  2.2050 -2.3391
 7253SOL     OW33391   1.518   0.229   4.291 -0.2956 -0.3378 -0.2612
 7253SOL    HW133392   1.528   0.292   4.363 -0.4494 -1.2435  0.5421
 7253SOL    HW233393   1.466   0.165   4.338  1.3875 -0.1266  1.9063
 7254SOL     OW33394   3.231   2.855   1.413 -0.0458  0.3190  0.3157
 7254SOL    HW133395   3.231   2.800   1.335  1.5292  0.9447 -0.1391
 7254SOL    HW233396   3.323   2.881   1.420 -0.3963  1.8854 -1.0513
 7255SOL     OW33397   0.142   2.378  13.589  0.2160  0.3814 -0.2093
 7255SOL    HW133398   0.084   2.326  13.644  2.1304 -1.3750  0.1835
 7255SOL    HW233399   0.081   2.417  13.528 -0.6717 -1.3224 -0.4060
 7256SOL     OW33400   0.119   3.145   1.851 -0.0178  0.3147 -0.5286
 7256SOL    HW133401   0.134   3.122   1.943 -0.7840  2.1934  0.0682
 7256SOL    HW233402   0.037   3.097   1.835 -0.3461  0.7247 -0.0639
 7257SOL     OW33403   2.790   3.905   7.597  0.3338 -0.1910 -0.2326
 7257SOL    HW133404   2.856   3.899   7.667 -0.7299 -1.6123  0.6492
 7257SOL    HW233405   2.757   3.815   7.604  0.6007 -0.0699  2.5597
 7258SOL     OW33406   2.018   3.262   2.512  0.2129  0.5164 -0.0508
 7258SOL    HW133407   2.062   3.178   2.499  0.4932  0.5999  0.3674
 7258SOL    HW233408   2.036   3.282   2.604  0.9968 -1.6549  0.2642
 7259SOL     OW33409   3.123   4.052   5.224  0.0712 -0.1585 -0.5579
 7259SOL    HW133410   3.193   4.107   5.189  1.0420  1.4806  4.0031
 7259SOL    HW233411   3.163   3.993   5.288 -0.3010 -1.3044 -1.3757
 7260SOL     OW33412   3.344   1.823   6.190 -0.1387  0.1698 -0.1794
 7260SOL    HW133413   3.282   1.781   6.131 -0.3741 -0.2399  0.3594
 7260SOL    HW233414   3.298   1.897   6.230  2.4086  0.6641  1.9026
 7261SOL     OW33415   1.209   3.995  15.620 -0.3803  0.1553 -0.7323
 7261SOL    HW133416   1.172   4.032  15.700 -2.3286  2.1289 -2.5389
 7261SOL    HW233417   1.293   3.965  15.655 -0.6222  0.0519 -0.2375
 7262SOL     OW33418   1.506   1.741   3.600 -0.6173  0.0755  0.1643
 7262SOL    HW133419   1.556   1.713   3.524 -1.7299  0.5534 -0.7432
 7262SOL    HW233420   1.424   1.692   3.593 -0.6626  0.5180 -2.5398
 7263SOL     OW33421   3.434   0.872   6.022 -0.0951  0.3030  0.0973
 7263SOL    HW133422   3.498   0.943   6.014 -0.3509  0.5289  0.0585
 7263SOL    HW233423   3.368   0.908   6.081  1.7286 -2.5780  3.9021
 7264SOL     OW33424   4.207   0.748   5.437  0.3211  0.4072 -0.3022
 7264SOL    HW133425   4.118   0.729   5.467  0.2817  2.5664  0.8919
 7264SOL    HW233426   4.203   0.717   5.346 -0.3068 -2.2188  0.6226
 7265SOL     OW33427   0.893   2.431   4.652  0.4274 -0.3994 -0.1328
 7265SOL    HW133428   0.925   2.354   4.605  0.5938  0.9056 -2.1534
 7265SOL    HW233429   0.829   2.388   4.709  0.6800 -3.6194 -2.2844
 7266SOL     OW33430   4.147   4.082   7.559 -0.6213  0.1579 -0.4767
 7266SOL    HW133431   4.158   4.087   7.654  0.6228  0.8499 -0.6558
 7266SOL    HW233432   4.052   4.072   7.550 -1.1784  1.5271  3.9385
 7267SOL     OW33433   3.915   2.439   3.540 -0.6090  0.0208  0.1203
 7267SOL    HW133434   3.821   2.422   3.551 -1.0383  0.6976 -2.5496
 7267SOL    HW233435   3.937   2.471   3.628 -0.8625 -0.3483  0.3229
 7268SOL     OW33436   1.769   4.416   1.120 -0.1993  0.1881 -0.1369
 7268SOL    HW133437   1.800   4.363   1.046  0.3912 -0.7187  0.7593
 7268SOL    HW233438   1.674   4.413   1.117 -0.3315  2.5699  1.8362
 7269SOL     OW33439   1.908   2.040   3.581  0.5868  0.1363 -0.1722
 7269SOL    HW133440   1.937   2.094   3.507  0.7360  1.3580  0.7632
 7269SOL    HW233441   1.879   1.961   3.537  2.5919 -1.5047  1.4933
 7270SOL     OW33442   2.895   0.191   0.775 -0.5701 -0.6666 -0.4580
 7270SOL    HW133443   2.900   0.133   0.851  2.1777 -1.4321 -1.1930
 7270SOL    HW233444   2.826   0.168   0.713 -0.4723 -0.0791 -0.7868
 7271SOL     OW33445   3.010   1.562   4.891 -0.3048  0.4193  0.4742
 7271SOL    HW133446   3.001   1.468   4.907 -2.7349  0.9202  1.9685
 7271SOL    HW233447   2.962   1.564   4.808 -1.6817 -1.7381  1.2058
 7272SOL     OW33448   0.310   2.308   4.170  0.2820  0.1381  0.3247
 7272SOL    HW133449   0.241   2.245   4.188  1.2563 -0.9344  0.2380
 7272SOL    HW233450   0.257   2.378   4.131 -2.0754 -0.4992  2.3877
 7273SOL     OW33451   0.212   3.570   9.321 -1.0794 -0.1672 -0.0063
 7273SOL    HW133452   0.200   3.476   9.313  0.7321 -0.4243  0.4616
 7273SOL    HW233453   0.307   3.574   9.333 -0.6918 -1.8322 -2.5755
 7274SOL     OW33454   1.456   4.261  14.326 -0.3198 -0.5023  0.5146
 7274SOL    HW133455   1.429   4.353  14.318  0.5249 -0.4747 -1.8196
 7274SOL    HW233456   1.428   4.232  14.240 -1.5574 -0.0423  0.7520
 7275SOL     OW33457   1.468   1.639   1.568  0.1211 -0.2640 -0.4746
 7275SOL    HW133458   1.530   1.613   1.500  1.0920 -1.8719  1.0346
 7275SOL    HW233459   1.391   1.594   1.530  1.0665 -0.6191 -1.9853
 7276SOL     OW33460   2.810   3.424   2.046 -0.1058 -0.1410  0.4694
 7276SOL    HW133461   2.838   3.498   1.991  2.4687 -0.1867  1.7522
 7276SOL    HW233462   2.861   3.352   2.009  0.5665 -0.2086  1.5251
 7277SOL     OW33463   3.919   2.013  11.971 -0.5530 -0.5458  0.0415
 7277SOL    HW133464   3.934   1.975  12.057  1.6372 -0.1525 -0.1593
 7277SOL    HW233465   4.008   2.014  11.935 -1.6350  2.8718 -2.6249
 7278SOL     OW33466   2.103   0.702   8.512 -0.8090  0.4339  0.1476
 7278SOL    HW133467   2.025   0.650   8.490  1.2403 -2.4862 -0.2272
 7278SOL    HW233468   2.159   0.695   8.435  1.4788 -0.3587  1.8658
 7279SOL     OW33469   2.854   0.392  11.506  0.3708  0.0805  0.5197
 7279SOL    HW133470   2.763   0.366  11.522 -0.0503  1.6911  0.7877
 7279SOL    HW233471   2.834   0.482  11.481 -1.5778 -0.2800  0.7835
 7280SOL     OW33472   4.257   1.103   7.193 -0.1323  0.3879  0.0169
 7280SOL    HW133473   4.274   1.016   7.229 -0.5882  0.1165 -0.4178
 7280SOL    HW233474   4.225   1.141   7.274  0.2647  0.0256  0.3452
 7281SOL     OW33475   0.397   1.489   4.571  0.0088  0.3877 -0.4522
 7281SOL    HW133476   0.324   1.459   4.518  0.4208  1.7562 -1.7786
 7281SOL    HW233477   0.471   1.444   4.531  0.7610  0.5944  0.6940
 7282SOL     OW33478   3.579   0.025   2.902  0.3086 -0.1882 -0.1802
 7282SOL    HW133479   3.494   0.050   2.937  0.4728  1.4002 -0.9396
 7282SOL    HW233480   3.570   4.667   2.900  1.0517 -0.2648 -0.0307
 7283SOL     OW33481   1.261   0.190  15.080 -0.5475 -0.0021 -0.1140
 7283SOL    HW133482   1.257   0.220  15.171  1.5983 -1.8093  0.5750
 7283SOL    HW233483   1.316   0.256  15.040  1.9313  0.1940  3.5971
 7284SOL     OW33484   3.174   3.142   6.987  0.3310 -0.3390  0.3657
 7284SOL    HW133485   3.191   3.197   6.911  0.7438  0.0596  0.7466
 7284SOL    HW233486   3.223   3.065   6.960 -0.1219 -0.7451  0.7041
 7285SOL     OW33487   3.039   0.488   6.165 -0.0182 -0.0461 -0.0990
 7285SOL    HW133488   3.011   0.558   6.223  0.7128 -0.2996  0.5542
 7285SOL    HW233489   2.998   0.504   6.080 -0.2036 -1.9431 -0.3828
 7286SOL     OW33490   3.864   3.956   9.293  0.1661  0.7818  0.5101
 7286SOL    HW133491   3.899   4.010   9.363 -0.4195  2.8521 -0.7909
 7286SOL    HW233492   3.804   3.901   9.343 -0.6861  3.0729  1.9870
 7287SOL     OW33493   2.277   0.659   8.295 -0.0440 -0.6620  0.1093
 7287SOL    HW133494   2.336   0.710   8.351 -1.2255  0.1311  0.6221
 7287SOL    HW233495   2.332   0.604   8.239  1.9144  1.6912 -0.2740
 7288SOL     OW33496   4.340   0.394  15.733  0.2494 -0.4163 -0.4879
 7288SOL    HW133497   4.284   0.341  15.676  1.2967 -1.5311 -0.4528
 7288SOL    HW233498   4.285   0.395  15.812  0.0354  0.5343 -0.6470
 7289SOL     OW33499   3.535   4.276   5.613 -0.0320 -0.4027 -0.4437
 7289SOL    HW133500   3.614   4.295   5.663  0.0826 -1.4761 -0.2141
 7289SOL    HW233501   3.507   4.362   5.581  1.1334 -0.6043 -2.0371
 7290SOL     OW33502   2.580   2.373  16.576 -0.3584  0.1301 -0.6613
 7290SOL    HW133503   2.495   2.347  16.541 -0.6042 -0.7650  0.5733
 7290SOL    HW233504   2.595   2.327  16.658 -0.0155  0.3335 -0.6098
 7291SOL     OW33505   3.638   2.638   3.131  0.2190 -0.0622  0.0898
 7291SOL    HW133506   3.645   2.728   3.101 -3.7117  0.2114  0.0374
 7291SOL    HW233507   3.609   2.581   3.060 -0.9787  2.9352 -1.7901
 7292SOL     OW33508   1.682   0.560  16.729  0.5584  0.3576  0.1413
 7292SOL    HW133509   1.652   0.649  16.710 -4.0819 -1.1485  0.3594
 7292SOL    HW233510   1.597   0.515  16.729  0.7908 -0.0932 -1.6462
 7293SOL     OW33511   3.578   2.462   1.186  0.6714  0.2846 -0.2863
 7293SOL    HW133512   3.542   2.506   1.262 -0.9775  0.1900 -1.0200
 7293SOL    HW233513   3.633   2.535   1.155 -2.9528  2.8120 -0.7456
 7294SOL     OW33514   0.306   3.590   4.213 -0.0719 -0.0837  0.1298
 7294SOL    HW133515   0.283   3.593   4.306  1.0301 -1.7676  0.4596
 7294SOL    HW233516   0.228   3.546   4.179 -0.6912  1.2387 -0.1626
 7295SOL     OW33517   1.838   0.489   6.057  0.0950 -0.2205  0.1784
 7295SOL    HW133518   1.848   0.455   5.968  0.6562 -1.9371  0.9025
 7295SOL    HW233519   1.745   0.474   6.077  0.1661  1.0162  1.4242
 7296SOL     OW33520   1.995   3.544   0.138  0.2984  0.3410  0.3943
 7296SOL    HW133521   1.945   3.503   0.068 -2.0100  1.5884  1.3226
 7296SOL    HW233522   2.009   3.635   0.115  1.7848  0.0401  0.0889
 7297SOL     OW33523   3.150   2.379   6.503 -0.1544  0.8198 -0.2779
 7297SOL    HW133524   3.245   2.391   6.492  0.2167  1.3180  3.6098
 7297SOL    HW233525   3.154   2.376   6.599 -0.7743 -0.4066 -0.2911
 7298SOL     OW33526   2.071   1.292   5.106 -0.3166 -0.1361 -0.0797
 7298SOL    HW133527   2.021   1.371   5.083  0.8168  0.1269 -1.5928
 7298SOL    HW233528   2.039   1.239   5.033  1.4513 -1.2423 -0.0553
 7299SOL     OW33529   4.562   3.736   6.902  0.0078  0.0374  0.3751
 7299SOL    HW133530   4.482   3.683   6.898  0.5419 -0.6719 -1.0019
 7299SOL    HW233531   4.525   3.820   6.926  0.3240  0.8567 -1.9659
 7300SOL     OW33532   0.475   2.615   0.119  0.2533 -0.3103  0.2441
 7300SOL    HW133533   0.545   2.649   0.174  0.8403 -0.1057 -0.6313
 7300SOL    HW233534   0.515   2.634   0.034 -0.5878 -1.4193 -0.4110
 7301SOL     OW33535   2.868   3.166   3.263  0.9648  0.2017 -0.1041
 7301SOL    HW133536   2.962   3.155   3.281  0.9695 -0.6483 -0.6174
 7301SOL    HW233537   2.837   3.113   3.336  0.0066 -0.3973 -0.9568
 7302SOL     OW33538   3.294   2.831   2.731  0.6953 -0.3448  0.2619
 7302SOL    HW133539   3.344   2.906   2.763 -2.5456  2.1858 -0.5914
 7302SOL    HW233540   3.205   2.864   2.727  0.7308 -0.2178  0.5507
 7303SOL     OW33541   4.194   3.895   2.035  0.3496 -0.7785  0.6458
 7303SOL    HW133542   4.213   3.955   1.963 -2.6130  1.6032  1.8314
 7303SOL    HW233543   4.230   3.815   1.996 -0.9844 -1.0172 -0.1117
 7304SOL     OW33544   4.620   2.352   9.140 -0.5489  0.5853  0.4387
 7304SOL    HW133545   4.653   2.361   9.229  0.2172  0.2924  0.1828
 7304SOL    HW233546   4.538   2.305   9.154 -0.2727 -0.0357 -0.0112
 7305SOL     OW33547   0.905   3.684   2.297 -0.2399  0.5905  0.3915
 7305SOL    HW133548   0.838   3.680   2.228 -0.8599 -0.2497  1.0383
 7305SOL    HW233549   0.928   3.592   2.308  0.3675  0.7199  0.2036
 7306SOL     OW33550   3.408   3.987   6.891 -0.0502 -0.3155 -0.3037
 7306SOL    HW133551   3.314   4.003   6.900  0.0133 -0.5550  0.8261
 7306SOL    HW233552   3.416   4.032   6.807 -1.9610  1.3523  0.4129
 7307SOL     OW33553   2.098   0.647   2.867 -0.6767 -0.0482  0.3206
 7307SOL    HW133554   2.164   0.699   2.913 -0.8598 -0.4752  1.0641
 7307SOL    HW233555   2.074   0.713   2.801 -0.7111  0.5324  0.9143
 7308SOL     OW33556   3.920   1.265  13.926 -0.7946  0.2733 -0.5959
 7308SOL    HW133557   3.840   1.316  13.913 -0.0625  1.1072 -1.8526
 7308SOL    HW233558   3.956   1.273  13.837  1.7709 -0.1408  0.4047
 7309SOL     OW33559   1.271   2.108  12.031  0.1391  0.5045  0.8447
 7309SOL    HW133560   1.329   2.118  12.107  2.1776  1.0630 -0.7828
 7309SOL    HW233561   1.289   2.193  11.990  3.0076  0.4052  1.9318
 7310SOL     OW33562   4.076   2.383   7.824  0.6534  1.1480  0.3254
 7310SOL    HW133563   4.132   2.437   7.768 -0.3833  0.6376 -1.1912
 7310SOL    HW233564   4.138   2.342   7.885 -1.5637 -1.0476  1.1276
 7311SOL     OW33565   2.628   4.023   0.463  0.5182 -0.2883  0.0842
 7311SOL    HW133566   2.606   4.070   0.382 -0.7049 -0.4355  0.3201
 7311SOL    HW233567   2.545   4.036   0.511 -0.1399 -0.6423 -0.9565
 7312SOL     OW33568   1.180   4.649   7.718 -0.2298 -0.0075  0.3643
 7312SOL    HW133569   1.199   4.591   7.792  1.2311 -2.2214 -1.7639
 7312SOL    HW233570   1.182   0.002   7.752 -0.0381  0.7065 -1.5440
 7313SOL     OW33571   1.313   1.414   0.179  0.1233 -0.6511  0.1359
 7313SOL    HW133572   1.230   1.454   0.205 -1.3221 -3.4208 -0.2973
 7313SOL    HW233573   1.376   1.484   0.196 -2.0850  1.3550  0.0781
 7314SOL     OW33574   4.640   3.413   8.332 -0.4945  0.3349  0.1463
 7314SOL    HW133575   4.615   3.344   8.271  2.7476 -0.2464 -0.5288
 7314SOL    HW233576   4.733   3.393   8.347 -0.5374 -1.4094 -1.9873
 7315SOL     OW33577   4.648   3.593   1.785  0.0472  0.2762 -0.1221
 7315SOL    HW133578   4.715   3.652   1.820  1.1115 -2.2064  1.9621
 7315SOL    HW233579   4.575   3.619   1.840  0.4873  3.4762 -1.0141
 7316SOL     OW33580   1.870   0.768   0.225 -0.3512 -0.1869 -0.1035
 7316SOL    HW133581   1.871   0.699   0.159 -1.3210 -1.4407  1.1849
 7316SOL    HW233582   1.776   0.784   0.227 -0.3926 -0.5869  1.3110
 7317SOL     OW33583   1.580   2.869  10.066  0.1557  0.2048  0.2417
 7317SOL    HW133584   1.494   2.842  10.033  0.2120  0.9338 -0.4947
 7317SOL    HW233585   1.642   2.819  10.012  1.2308 -0.4433  2.0847
 7318SOL     OW33586   0.382   1.758   3.240  0.6096 -0.1689  0.1141
 7318SOL    HW133587   0.387   1.848   3.207 -0.7195  0.2707  1.0988
 7318SOL    HW233588   0.423   1.767   3.326  0.2077 -0.0403  0.2956
 7319SOL     OW33589   2.015   3.442   3.632 -0.2039  0.3802  0.1183
 7319SOL    HW133590   2.022   3.529   3.671 -2.3027 -0.2747  1.9809
 7319SOL    HW233591   1.921   3.432   3.645 -0.2781  0.9005 -0.0104
 7320SOL     OW33592   2.254   3.643   3.212  0.6839  0.0177 -0.1059
 7320SOL    HW133593   2.256   3.736   3.192 -2.1496  0.1166  0.1681
 7320SOL    HW233594   2.217   3.606   3.131  1.6212  1.1525 -1.0600
 7321SOL     OW33595   0.672   1.945  16.005 -0.0996  0.3069 -0.2926
 7321SOL    HW133596   0.603   2.011  16.008  1.2101  1.6180  0.5654
 7321SOL    HW233597   0.736   1.989  16.061  0.5508  1.8694 -2.2634
 7322SOL     OW33598   2.152   1.676  12.192  0.4245  0.3146  0.1307
 7322SOL    HW133599   2.193   1.658  12.277 -0.6216 -1.7233  0.1908
 7322SOL    HW233600   2.123   1.766  12.205  0.5997  0.5121 -0.8051
 7323SOL     OW33601   0.165   1.066   5.753 -0.2731 -0.2544 -0.7855
 7323SOL    HW133602   0.080   1.043   5.791 -0.6947  1.6395 -0.5922
 7323SOL    HW233603   0.169   1.161   5.763  0.3573 -0.3797  0.2004
 7324SOL     OW33604   2.063   4.276   2.950 -0.0031 -0.1040  0.2541
 7324SOL    HW133605   2.102   4.198   2.911 -0.9117 -0.1978 -0.4637
 7324SOL    HW233606   2.018   4.325   2.882 -0.8300  0.6213  1.3232
 7325SOL     OW33607   0.995   1.560   9.219 -0.1209  0.0407  0.0819
 7325SOL    HW133608   0.947   1.641   9.235 -0.6039  0.4175 -3.2001
 7325SOL    HW233609   0.930   1.491   9.217 -0.7003  0.5473  1.8609
 7326SOL     OW33610   4.350   3.656   1.403  0.1913  0.1675  0.4730
 7326SOL    HW133611   4.346   3.702   1.319  0.3916  0.6385  0.7214
 7326SOL    HW233612   4.442   3.633   1.413  0.8829  2.4305 -0.8438
 7327SOL     OW33613   2.094   1.907   3.397  0.3006 -0.1811  0.0369
 7327SOL    HW133614   2.068   1.934   3.309  0.1409  0.2555  0.2188
 7327SOL    HW233615   2.106   1.989   3.445  0.2136 -1.9626  3.1008
 7328SOL     OW33616   4.334   2.643   6.671 -0.1061 -0.1632  0.0534
 7328SOL    HW133617   4.356   2.716   6.729 -0.0487 -0.1308 -0.0097
 7328SOL    HW233618   4.348   2.573   6.735 -0.8947  0.1452  0.5764
 7329SOL     OW33619   2.976   2.011   3.663 -0.5768 -0.2912 -0.0117
 7329SOL    HW133620   3.003   2.069   3.734  0.8410 -0.4753 -0.3931
 7329SOL    HW233621   2.900   2.053   3.623 -0.6497 -0.8475 -0.4656
 7330SOL     OW33622   4.735   4.113   5.021  0.7383  0.2049 -0.8343
 7330SOL    HW133623   0.088   4.097   4.992  0.6421  1.8338 -2.0347
 7330SOL    HW233624   4.733   4.050   5.093  0.0002 -0.4805 -1.4488
 7331SOL     OW33625   3.932   0.849   6.809  0.9485 -0.3690 -0.1496
 7331SOL    HW133626   4.022   0.833   6.782  1.6339 -0.6973  2.3562
 7331SOL    HW233627   3.891   0.838   6.723 -0.5026 -0.2149  0.5198
 7332SOL     OW33628   3.801   1.966   0.472  0.0595 -0.1172 -0.7284
 7332SOL    HW133629   3.766   1.878   0.486  1.3809 -0.5009  0.2462
 7332SOL    HW233630   3.746   2.016   0.532  0.7625  0.9722 -0.9962
 7333SOL     OW33631   2.490   2.946   6.489  0.5671 -0.0009  0.0980
 7333SOL    HW133632   2.539   3.026   6.509  0.5767  0.0486 -0.1205
 7333SOL    HW233633   2.441   2.971   6.410  0.6827 -0.0727  0.0049
 7334SOL     OW33634   2.894   0.349   1.774  0.6000  0.3003  0.0985
 7334SOL    HW133635   2.842   0.287   1.825  0.1420  0.1511 -0.5532
 7334SOL    HW233636   2.884   0.433   1.819 -1.9799  1.1634 -2.0375
 7335SOL     OW33637   1.398   3.047   9.702  0.1721 -0.7443 -0.1324
 7335SOL    HW133638   1.359   3.133   9.713  0.8167 -0.4606 -0.0640
 7335SOL    HW233639   1.464   3.056   9.771 -0.3579 -1.6917  0.4979
 7336SOL     OW33640   1.265   2.371  12.300 -0.1738 -0.3732 -0.0139
 7336SOL    HW133641   1.178   2.393  12.333  0.6238  1.2121  1.0618
 7336SOL    HW233642   1.285   2.426  12.224 -0.2556  0.8760  0.8617
 7337SOL     OW33643   2.109   3.856   4.611 -0.0331  0.0065 -0.5834
 7337SOL    HW133644   2.182   3.825   4.557  1.0505 -0.0519  0.8805
 7337SOL    HW233645   2.118   3.951   4.608  0.9423  0.0153  1.9107
 7338SOL     OW33646   0.173   4.292   7.850  0.2647  0.3035  0.3602
 7338SOL    HW133647   0.102   4.239   7.886  0.4776  0.9791  1.7439
 7338SOL    HW233648   0.245   4.229   7.860  0.9342  1.2071  1.2157
 7339SOL     OW33649   2.270   4.655   9.583  0.1599  0.0152  0.1458
 7339SOL    HW133650   2.200   4.598   9.613 -1.1069  0.5282 -1.8227
 7339SOL    HW233651   2.233   0.006   9.599  0.4309  0.5824 -2.3839
 7340SOL     OW33652   2.025   0.695   2.305 -0.0227  0.5973 -0.1961
 7340SOL    HW133653   1.996   0.783   2.329 -1.8041  0.3310 -1.3901
 7340SOL    HW233654   1.953   0.662   2.251 -0.8712  0.6131  0.9142
 7341SOL     OW33655   2.580   3.151   8.617 -0.6714 -0.5159 -0.0228
 7341SOL    HW133656   2.612   3.080   8.673 -0.5291 -0.1102  0.4136
 7341SOL    HW233657   2.641   3.222   8.638 -0.3725 -1.3087  1.8431
 7342SOL     OW33658   4.318   4.614   3.926  0.3248  0.0092  0.0812
 7342SOL    HW133659   4.404   4.597   3.966  0.1692 -2.1534 -0.5118
 7342SOL    HW233660   4.260   4.594   3.999 -0.3118  2.0426  0.1341
 7343SOL     OW33661   4.523   1.447   0.247  0.5564  0.0774 -0.4901
 7343SOL    HW133662   4.445   1.426   0.297  0.5680 -0.5231 -0.7159
 7343SOL    HW233663   4.501   1.420   0.158  1.1367  2.1628 -1.2642
 7344SOL     OW33664   4.642   3.962   9.924  0.3298  0.2843  0.4733
 7344SOL    HW133665   4.689   3.958   9.840  2.1829 -1.2532  1.5663
 7344SOL    HW233666   4.638   3.868   9.945 -1.5194  0.5111  1.0638
 7345SOL     OW33667   1.266   0.536   5.489 -0.1510  0.4315 -0.3134
 7345SOL    HW133668   1.176   0.565   5.501  0.1909  1.6599 -0.6847
 7345SOL    HW233669   1.246   0.446   5.512 -0.7958  0.3009 -1.3778
 7346SOL     OW33670   3.257   4.107   1.456  1.0758 -0.6936  0.1640
 7346SOL    HW133671   3.287   4.197   1.442  0.5864 -0.9597 -2.6225
 7346SOL    HW233672   3.340   4.062   1.444  2.4065  1.8126 -0.0992
 7347SOL     OW33673   1.107   3.965  13.081 -0.4202 -0.6347 -0.3889
 7347SOL    HW133674   1.172   3.915  13.032 -1.5485 -3.1390  0.6733
 7347SOL    HW233675   1.121   3.932  13.170  0.4640 -0.1353 -0.3428
 7348SOL     OW33676   2.014   0.087   5.093 -0.9188  0.1235  0.0525
 7348SOL    HW133677   1.939   0.080   5.153 -2.6386  4.5500 -1.6118
 7348SOL    HW233678   1.981   0.012   5.043 -0.8573  0.5601 -0.6299
 7349SOL     OW33679   1.713   3.247   0.306  0.8326  0.5901 -0.3194
 7349SOL    HW133680   1.801   3.282   0.320  1.0312  0.2001 -0.5951
 7349SOL    HW233681   1.673   3.329   0.333 -1.7282 -1.2359  1.4331
 7350SOL     OW33682   2.271   2.483   1.283  0.4518  0.2586  0.1286
 7350SOL    HW133683   2.179   2.472   1.305  0.0690 -0.2925 -1.7887
 7350SOL    HW233684   2.282   2.578   1.290 -1.9519  0.5355  0.1210
 7351SOL     OW33685   3.723   3.011   6.185 -0.5200  0.2518 -0.2680
 7351SOL    HW133686   3.818   3.005   6.179 -0.5270 -1.0670  0.9582
 7351SOL    HW233687   3.699   2.919   6.176 -4.1023  1.1012  0.2219
 7352SOL     OW33688   4.605   0.342   8.658 -0.1110 -0.5243 -0.5122
 7352SOL    HW133689   4.619   0.363   8.750  0.9456  0.6692 -0.9472
 7352SOL    HW233690   4.608   0.431   8.624 -1.3713 -0.5154 -0.6263
 7353SOL     OW33691   1.812   4.077   1.886 -0.0082 -0.1069  0.0754
 7353SOL    HW133692   1.843   4.016   1.820  1.2493  0.3984  0.1968
 7353SOL    HW233693   1.853   4.160   1.862 -0.7102  0.8141  1.9914
 7354SOL     OW33694   1.330   0.855   0.225  0.0257 -0.3636  0.4450
 7354SOL    HW133695   1.357   0.770   0.259 -2.0302 -0.4903  1.7897
 7354SOL    HW233696   1.408   0.906   0.205 -1.1343  2.0394  2.0674
 7355SOL     OW33697   0.176   0.032   0.409  0.0416  0.1622 -0.3824
 7355SOL    HW133698   0.096   0.032   0.357 -0.2809  2.4232  0.1456
 7355SOL    HW233699   0.164   4.685   0.455 -2.2723  0.3594 -0.6694
 7356SOL     OW33700   1.949   2.375   4.213 -0.0833  0.2482 -0.2510
 7356SOL    HW133701   2.007   2.369   4.137 -0.1282 -0.4546 -0.2246
 7356SOL    HW233702   1.974   2.461   4.247  2.7894 -0.0629 -1.5682
 7357SOL     OW33703   3.913   2.142   8.969  0.0600  0.2007 -0.2603
 7357SOL    HW133704   3.821   2.154   8.947  0.4915  2.0637 -1.0343
 7357SOL    HW233705   3.924   2.049   8.950  1.1327 -0.5147  3.9607
 7358SOL     OW33706   1.057   2.587   6.183  0.0608 -0.0039 -0.3232
 7358SOL    HW133707   0.980   2.606   6.237 -0.9000 -0.2169 -1.6125
 7358SOL    HW233708   1.021   2.611   6.098 -0.3747 -2.1835 -0.7560
 7359SOL     OW33709   3.476   3.261   7.368  1.2487  0.0519 -0.1769
 7359SOL    HW133710   3.399   3.232   7.319  1.0162 -0.9534  0.7775
 7359SOL    HW233711   3.513   3.175   7.389  0.0719 -0.4569 -0.2240
 7360SOL     OW33712   1.287   3.492   3.952  0.5344  0.6757 -0.0038
 7360SOL    HW133713   1.223   3.518   4.018 -1.6571 -2.8310 -0.7787
 7360SOL    HW233714   1.246   3.521   3.870  3.4871  0.3661 -1.5640
 7361SOL     OW33715   1.212   1.185  15.555  0.2713 -0.2462 -0.4415
 7361SOL    HW133716   1.192   1.096  15.581 -1.7477 -0.2240 -1.8830
 7361SOL    HW233717   1.292   1.181  15.503  0.6073 -3.0804  0.3079
 7362SOL     OW33718   2.355   4.571   8.299 -0.2417 -0.6201  0.0289
 7362SOL    HW133719   2.289   4.587   8.367  0.9630  0.2314  0.9958
 7362SOL    HW233720   2.430   4.579   8.358 -0.9913 -0.7339  1.0029
 7363SOL     OW33721   0.121   1.231   9.260 -1.0873  0.0399 -0.1027
 7363SOL    HW133722   0.060   1.167   9.296 -0.1588 -1.3826 -1.0453
 7363SOL    HW233723   0.081   1.310   9.296 -2.0041 -0.7855  0.6951
 7364SOL     OW33724   0.680   1.686   1.092 -0.5820  0.0653 -0.3372
 7364SOL    HW133725   0.644   1.665   1.007  0.1098 -1.1690 -0.3148
 7364SOL    HW233726   0.645   1.774   1.109 -2.3904 -0.4952 -1.2157
 7365SOL     OW33727   1.704   0.948  12.666  0.8044 -0.3961  0.5002
 7365SOL    HW133728   1.701   0.855  12.684 -0.0842  0.0959  2.9091
 7365SOL    HW233729   1.796   0.959  12.643  0.2697  2.0689 -0.4870
 7366SOL     OW33730   4.617   1.504   9.613  0.4972 -0.3248 -0.5300
 7366SOL    HW133731   4.609   1.421   9.660 -0.9837 -0.0897 -0.3513
 7366SOL    HW233732   4.710   1.495   9.592  0.5800  0.8725 -0.6547
 7367SOL     OW33733   4.523   3.672   8.010  0.0153  0.2465 -0.6074
 7367SOL    HW133734   4.433   3.699   7.992 -0.1815 -1.7445 -2.5865
 7367SOL    HW233735   4.558   3.760   8.019 -0.2331  0.1458  1.5553
 7368SOL     OW33736   2.918   0.349   2.999  0.0169 -0.3010 -0.4360
 7368SOL    HW133737   2.863   0.271   2.988 -1.1402  0.7080 -1.8465
 7368SOL    HW233738   2.852   0.418   2.985 -0.9430 -1.7056 -2.8705
 7369SOL     OW33739   1.170   1.706  11.260  1.1350 -0.0145 -0.4600
 7369SOL    HW133740   1.253   1.724  11.304  1.3275  1.0587 -1.2648
 7369SOL    HW233741   1.120   1.785  11.278  0.8921  0.4563 -3.1596
 7370SOL     OW33742   2.769   0.179   8.030 -0.1995 -0.5433  0.1654
 7370SOL    HW133743   2.789   0.147   7.942  0.0195  2.4654 -0.8793
 7370SOL    HW233744   2.845   0.158   8.085 -0.5743 -0.3892  0.7377
 7371SOL     OW33745   3.426   3.990  17.463 -0.1695 -0.6897  0.3018
 7371SOL    HW133746   3.344   4.038  17.455 -0.0616 -0.8660 -1.8633
 7371SOL    HW233747   3.462   4.022  17.546 -2.1097  0.6953  0.5961
 7372SOL     OW33748   3.400   1.035   7.508 -0.4083 -0.3818 -0.0654
 7372SOL    HW133749   3.338   1.060   7.577 -0.0152  0.6943 -0.1024
 7372SOL    HW233750   3.346   0.973   7.459 -0.9871 -0.7208  0.9744
 7373SOL     OW33751   4.427   3.560   6.636 -0.3159  0.2629 -0.0748
 7373SOL    HW133752   4.504   3.617   6.631 -1.3591  1.2967 -3.7791
 7373SOL    HW233753   4.380   3.578   6.718 -0.0438  2.1343 -0.3289
 7374SOL     OW33754   1.145   3.856  11.743  0.4527 -0.0818 -0.0232
 7374SOL    HW133755   1.058   3.863  11.704  0.9917 -1.3436 -1.4464
 7374SOL    HW233756   1.182   3.805  11.671  1.2596 -0.9157  0.9817
 7375SOL     OW33757   4.035   1.281   7.117  0.0181 -0.4211 -0.8617
 7375SOL    HW133758   3.988   1.225   7.055 -0.1327 -2.8834  1.4958
 7375SOL    HW233759   4.117   1.236   7.136 -0.9275 -1.0917  1.6565
 7376SOL     OW33760   0.795   0.606   4.467 -0.1394 -0.3366 -0.1423
 7376SOL    HW133761   0.732   0.641   4.403 -0.6385 -0.3942  0.3138
 7376SOL    HW233762   0.741   0.538   4.508  0.3717  0.2710  1.5316
 7377SOL     OW33763   3.139   1.990   4.251  0.6497  0.3646 -0.3629
 7377SOL    HW133764   3.135   1.901   4.286 -0.2394  0.5404 -0.0362
 7377SOL    HW233765   3.054   2.004   4.210 -0.2204  1.4886  1.8409
 7378SOL     OW33766   0.182   3.184   2.925  0.0457 -0.4116 -0.1433
 7378SOL    HW133767   0.208   3.092   2.926  0.1807 -0.3820 -1.3014
 7378SOL    HW233768   0.093   3.172   2.892  0.8642 -1.0890 -2.0351
 7379SOL     OW33769   0.777   0.962   0.681  0.5216  0.5213 -0.0979
 7379SOL    HW133770   0.760   1.056   0.672 -0.4445  0.4341  0.8142
 7379SOL    HW233771   0.724   0.918   0.748  0.2384  2.5091  0.9979
 7380SOL     OW33772   2.351   4.725   7.678 -0.1549  0.3633 -0.0835
 7380SOL    HW133773   2.315   0.024   7.759 -1.8796 -1.5428 -0.0342
 7380SOL    HW233774   2.371   4.637   7.708 -3.9070 -1.4696 -2.9594
 7381SOL     OW33775   2.412   3.372   4.199 -0.1244 -0.0100  0.1309
 7381SOL    HW133776   2.367   3.456   4.201 -1.6681 -0.7859 -1.1680
 7381SOL    HW233777   2.372   3.328   4.124  0.2296 -1.5346  0.8211
 7382SOL     OW33778   2.756   2.481   4.461  0.6871  0.5113 -0.6957
 7382SOL    HW133779   2.791   2.530   4.535 -0.8209  2.1370 -1.0747
 7382SOL    HW233780   2.819   2.410   4.449  0.2480  0.2457 -1.4278
 7383SOL     OW33781   0.808   4.531   5.382  0.0028  0.1701  0.3376
 7383SOL    HW133782   0.748   4.567   5.447 -1.7584  1.0588 -1.7475
 7383SOL    HW233783   0.748   4.538   5.308 -0.4293 -0.6045  0.6184
 7384SOL     OW33784   2.663   2.498   8.803 -0.4269 -0.0454 -0.4355
 7384SOL    HW133785   2.623   2.448   8.732 -0.9210 -2.3542  1.4430
 7384SOL    HW233786   2.645   2.586   8.771 -1.2499 -0.5184 -1.2652
 7385SOL     OW33787   1.059   1.475   1.681  0.0089 -0.3109 -0.1864
 7385SOL    HW133788   1.036   1.478   1.774  0.5966 -0.6195 -0.0285
 7385SOL    HW233789   0.975   1.470   1.636  0.3441  0.8500 -0.9418
 7386SOL     OW33790   0.184   0.653   1.988 -0.0674 -0.3543  0.4598
 7386SOL    HW133791   0.223   0.741   1.994  2.9650 -1.4456 -3.0573
 7386SOL    HW233792   0.090   0.670   1.992 -0.1386 -0.8406  0.9258
 7387SOL     OW33793   0.475   4.257  13.768 -0.0058 -0.3147  0.1698
 7387SOL    HW133794   0.445   4.284  13.855  0.7584 -1.2226  0.7085
 7387SOL    HW233795   0.538   4.190  13.793 -1.2706 -2.0933 -1.3977
 7388SOL     OW33796   0.226   3.845   5.941 -0.7172 -0.0164 -0.0465
 7388SOL    HW133797   0.269   3.772   5.985  0.4377  1.0583  0.6204
 7388SOL    HW233798   0.145   3.848   5.992 -1.0434  1.1119 -0.6143
 7389SOL     OW33799   2.814   1.984   7.161  0.7427 -0.0995  0.0111
 7389SOL    HW133800   2.800   2.076   7.180 -1.0493 -0.5598  0.9096
 7389SOL    HW233801   2.892   1.991   7.105  1.1381 -1.5081  0.3797
 7390SOL     OW33802   3.555   2.856   8.970  0.1342  0.2873  0.2643
 7390SOL    HW133803   3.638   2.888   9.002  0.9460 -0.9642 -0.5768
 7390SOL    HW233804   3.497   2.837   9.044 -0.2922 -0.1795 -0.1826
 7391SOL     OW33805   1.376   3.660   8.895 -0.0903 -0.4515 -0.0308
 7391SOL    HW133806   1.464   3.699   8.900 -0.7304  1.2674 -2.0708
 7391SOL    HW233807   1.381   3.572   8.930  3.9744  0.6774  2.2448
 7392SOL     OW33808   1.835   3.551   9.466 -0.0056 -0.0612  0.1485
 7392SOL    HW133809   1.762   3.589   9.515 -2.8675 -0.5943 -3.6475
 7392SOL    HW233810   1.809   3.459   9.454 -0.1295  0.2704 -2.1861
 7393SOL     OW33811   2.073   3.944   6.414  0.1908 -0.2951  0.0534
 7393SOL    HW133812   2.095   3.856   6.445  1.2642 -0.3859 -0.9685
 7393SOL    HW233813   2.105   3.999   6.485  0.1525  2.6809 -2.2310
 7394SOL     OW33814   3.433   0.044   5.168  0.4299 -0.0652 -0.6327
 7394SOL    HW133815   3.463   4.731   5.244  0.2721 -1.8637 -1.7599
 7394SOL    HW233816   3.426   4.712   5.102  1.5301 -1.7420  1.0003
 7395SOL     OW33817   0.907   0.248   4.815  0.4777 -0.3276  0.2586
 7395SOL    HW133818   0.892   0.287   4.901 -0.4670 -0.6048  0.2225
 7395SOL    HW233819   0.888   0.319   4.754  1.1913 -1.6854 -1.5372
 7396SOL     OW33820   3.320   0.413   3.757 -0.2201  0.0535  0.0432
 7396SOL    HW133821   3.348   0.492   3.803  0.0707 -0.9297  1.5847
 7396SOL    HW233822   3.367   0.343   3.803 -2.9035 -1.4064  0.5937
 7397SOL     OW33823   3.785   0.063   7.428  0.6317 -0.3522 -0.1661
 7397SOL    HW133824   3.756   0.010   7.354 -1.2210 -1.4140  1.3151
 7397SOL    HW233825   3.699   0.068   7.470  0.2255 -1.9701 -0.8049
 7398SOL     OW33826   0.078   0.857  17.382 -0.2506 -0.6357  0.0488
 7398SOL    HW133827   0.032   0.782  17.343  0.5516 -1.6526  1.0894
 7398SOL    HW233828   0.110   0.897  17.301 -0.3237 -0.6323  0.0210
 7399SOL     OW33829   2.228   1.446   6.235 -0.5230  0.2848 -0.4393
 7399SOL    HW133830   2.199   1.433   6.325 -1.0025  0.2016 -0.6012
 7399SOL    HW233831   2.228   1.352   6.217 -1.3923 -0.0697  1.3900
 7400SOL     OW33832   3.550   0.081   2.337 -0.6772 -0.0725 -0.1109
 7400SOL    HW133833   3.582   0.171   2.334  2.9135 -1.2927  1.5390
 7400SOL    HW233834   3.547   0.078   2.432  3.8499 -1.5132 -0.0185
 7401SOL     OW33835   3.429   1.290   4.258 -0.1667  0.0836  0.4071
 7401SOL    HW133836   3.423   1.351   4.331  2.6364  3.3452 -2.1184
 7401SOL    HW233837   3.492   1.338   4.204 -2.7315  1.0664 -1.7474
 7402SOL     OW33838   3.038   1.340   8.817  0.1661 -0.2374 -0.4745
 7402SOL    HW133839   3.054   1.312   8.907  1.1331  0.8811 -0.2995
 7402SOL    HW233840   3.040   1.262   8.761 -0.5405  0.0497 -0.8908
 7403SOL     OW33841   1.222   1.826   3.167  0.1109 -0.1022  0.1596
 7403SOL    HW133842   1.198   1.820   3.074 -0.6137  0.5627  0.3053
 7403SOL    HW233843   1.266   1.911   3.158  0.7975 -0.5576 -0.8591
 7404SOL     OW33844   1.014   3.526  11.772 -0.0984 -0.0652  0.7920
 7404SOL    HW133845   1.018   3.548  11.679  0.3672 -1.7025  0.4127
 7404SOL    HW233846   0.936   3.571  11.803 -0.0244  0.7407 -0.1952
 7405SOL     OW33847   4.540   2.236   9.749 -0.0763 -0.0756  0.2215
 7405SOL    HW133848   4.542   2.141   9.758 -0.0853  0.1707  3.0245
 7405SOL    HW233849   4.449   2.249   9.774  0.7706 -0.2183  3.4666
 7406SOL     OW33850   2.037   3.715   7.152 -0.0136 -0.8139  0.7024
 7406SOL    HW133851   1.988   3.685   7.228 -0.2354 -1.6120  0.2421
 7406SOL    HW233852   2.101   3.644   7.147  1.3045  0.2986  1.6691
 7407SOL     OW33853   4.711   2.438  11.536 -0.8180  0.4922  0.4481
 7407SOL    HW133854   4.703   2.432  11.631  1.2806 -2.7396  0.4265
 7407SOL    HW233855   4.682   2.527  11.514  1.4224  0.7198 -1.4633
 7408SOL     OW33856   0.333   1.077   7.038 -0.6554  0.3302  0.9632
 7408SOL    HW133857   0.262   1.109   7.094 -1.6405 -0.1137 -0.0430
 7408SOL    HW233858   0.287   1.002   7.001  2.7141 -1.5627  0.6609
 7409SOL     OW33859   0.347   3.260  12.715 -0.4386  0.3170  0.6166
 7409SOL    HW133860   0.266   3.303  12.743 -1.9292 -0.1814 -2.8947
 7409SOL    HW233861   0.407   3.334  12.722  0.0011 -0.3064  3.1394
 7410SOL     OW33862   3.993   2.742   5.454 -0.3463 -0.0105 -0.3002
 7410SOL    HW133863   3.920   2.751   5.392 -0.0553  0.8409 -0.5051
 7410SOL    HW233864   4.011   2.830   5.486  1.4133 -0.0409 -1.2215
 7411SOL     OW33865   4.602   2.854   2.374  0.0401  0.0330  0.6993
 7411SOL    HW133866   4.642   2.810   2.299 -2.1970 -2.7717  1.1539
 7411SOL    HW233867   4.626   2.943   2.347  0.4950 -0.3198 -0.0295
 7412SOL     OW33868   3.327   3.169   5.116  0.1398 -0.1989 -0.4634
 7412SOL    HW133869   3.341   3.261   5.094  1.9998 -0.3681 -0.0304
 7412SOL    HW233870   3.399   3.124   5.072 -0.4794 -2.9541  1.3255
 7413SOL     OW33871   1.452   2.014   7.774  0.3074  0.5662  0.2982
 7413SOL    HW133872   1.526   2.026   7.715  2.0554 -1.9631  1.9530
 7413SOL    HW233873   1.495   1.941   7.819  2.1843  0.6910 -1.3322
 7414SOL     OW33874   3.206   3.723  14.973  0.2458  0.0090  0.7416
 7414SOL    HW133875   3.208   3.769  15.057  0.4106  1.1915  0.0891
 7414SOL    HW233876   3.110   3.722  14.969  0.2774 -2.0941  0.8422
 7415SOL     OW33877   2.584   0.636   2.685  0.0349 -0.3085 -0.3423
 7415SOL    HW133878   2.570   0.706   2.622 -1.1892  0.2399  0.5567
 7415SOL    HW233879   2.524   0.570   2.650  0.6412 -0.1343 -1.7229
 7416SOL     OW33880   0.090   2.646   4.654  0.0159  0.0700 -0.3196
 7416SOL    HW133881   0.143   2.696   4.592 -1.4867  1.1836 -0.6775
 7416SOL    HW233882   0.149   2.570   4.663  0.8547  0.8323  0.6100
 7417SOL     OW33883   0.299   4.292   8.199  0.2657 -0.6064 -0.2448
 7417SOL    HW133884   0.299   4.206   8.157 -1.8874 -0.1037 -1.2882
 7417SOL    HW233885   0.213   4.298   8.241  0.1742 -0.6166 -0.4293
 7418SOL     OW33886   0.557   0.806   6.480  0.1499  0.4326 -0.5577
 7418SOL    HW133887   0.495   0.744   6.517  1.3168 -0.3770  0.0372
 7418SOL    HW233888   0.508   0.816   6.399 -3.1811  1.0432  1.5550
 7419SOL     OW33889   1.128   3.784   2.493 -0.0165  0.9245 -0.8361
 7419SOL    HW133890   1.221   3.771   2.512 -0.4768 -2.5810 -1.1183
 7419SOL    HW233891   1.103   3.732   2.417 -1.4259 -0.0623  0.3083
 7420SOL     OW33892   2.969   0.817   8.045 -0.3244 -0.3222  0.1689
 7420SOL    HW133893   2.952   0.882   7.977  1.6344 -0.1099 -0.1213
 7420SOL    HW233894   2.883   0.775   8.050 -0.5484  0.2676  1.2056
 7421SOL     OW33895   0.204   0.315   9.163 -0.1018  0.0659 -0.1524
 7421SOL    HW133896   0.224   0.358   9.247  4.0634 -1.0214 -0.5882
 7421SOL    HW233897   0.219   0.225   9.191 -2.3282 -0.3163 -0.2176
 7422SOL     OW33898   2.185   2.995   7.907  0.1634  0.0175 -0.2703
 7422SOL    HW133899   2.254   2.991   7.974 -2.2348  0.1345  2.1947
 7422SOL    HW233900   2.215   3.053   7.837  2.4729 -1.4922 -0.5378
 7423SOL     OW33901   0.548   1.977   9.054 -0.2939 -0.3083 -0.4917
 7423SOL    HW133902   0.550   2.072   9.066 -0.7075 -0.3010 -0.4753
 7423SOL    HW233903   0.553   1.964   8.959  0.8885  2.0685 -0.7411
 7424SOL     OW33904   1.456   2.802   6.769 -0.0332  0.1681  0.0707
 7424SOL    HW133905   1.434   2.716   6.733  1.6287 -1.0177  1.9342
 7424SOL    HW233906   1.547   2.778   6.787 -0.3270 -0.5616  0.5831
 7425SOL     OW33907   4.317   2.858   1.289  0.1416  0.5313 -0.0390
 7425SOL    HW133908   4.313   2.933   1.230 -0.5329  0.7074  0.2384
 7425SOL    HW233909   4.412   2.852   1.277  0.1107  0.1801 -0.1172
 7426SOL     OW33910   1.140   2.377  13.147 -0.0613  0.2062 -0.0694
 7426SOL    HW133911   1.188   2.309  13.194  2.3525  1.1433 -1.1560
 7426SOL    HW233912   1.132   2.453  13.205  1.0428 -1.4805  2.2581
 7427SOL     OW33913   4.609   3.586   9.082  0.5452 -0.3117  0.3804
 7427SOL    HW133914   4.515   3.596   9.068  0.7241 -0.4490 -0.9123
 7427SOL    HW233915   4.624   3.512   9.140  0.6557  0.4121  1.2650
 7428SOL     OW33916   4.410   3.938   4.845 -0.8483 -0.1119 -0.0950
 7428SOL    HW133917   4.443   4.012   4.897 -0.1455  0.0005 -0.7028
 7428SOL    HW233918   4.317   3.945   4.866 -1.1268 -0.0431 -1.3544
 7429SOL     OW33919   1.597   2.408  10.349  0.4861  0.3160  0.4063
 7429SOL    HW133920   1.617   2.326  10.396 -1.4270  1.8897  3.9176
 7429SOL    HW233921   1.610   2.472  10.419 -3.6697  1.4330  0.1341
 7430SOL     OW33922   1.973   2.164   6.879  0.6616 -0.1258  0.5212
 7430SOL    HW133923   1.946   2.109   6.952  0.5528  1.3279  1.5684
 7430SOL    HW233924   2.063   2.190   6.899  0.9519  0.5477 -1.6007
 7431SOL     OW33925   1.805   3.793   5.170  0.8692  0.6284 -0.3024
 7431SOL    HW133926   1.839   3.831   5.089  1.4620 -0.0159 -0.3584
 7431SOL    HW233927   1.795   3.703   5.140 -0.1820  0.5972  0.1382
 7432SOL     OW33928   1.287   1.776  14.609  0.4881  0.1168  0.2243
 7432SOL    HW133929   1.261   1.780  14.517 -0.1187 -0.2550  0.3837
 7432SOL    HW233930   1.205   1.806  14.649 -1.3822 -0.7187 -2.9473
 7433SOL     OW33931   4.387   0.419   5.195  0.1665  0.6018  0.3442
 7433SOL    HW133932   4.320   0.440   5.130  0.6902 -0.2556 -0.4851
 7433SOL    HW233933   4.383   0.326   5.214  1.3523  0.0250 -2.1379
 7434SOL     OW33934   4.355   2.979   6.592 -0.2160 -0.1826 -0.3755
 7434SOL    HW133935   4.448   2.957   6.590  0.1767  1.5267 -1.7093
 7434SOL    HW233936   4.351   3.029   6.510 -2.1167 -0.7338 -0.6143
 7435SOL     OW33937   3.156   1.891   5.402 -0.0933 -0.3191  0.3834
 7435SOL    HW133938   3.248   1.909   5.424 -0.6593  1.6494  1.1495
 7435SOL    HW233939   3.110   1.948   5.464  1.2872 -0.7691  1.8312
 7436SOL     OW33940   0.292   4.289   3.244  0.0128  0.2171  0.1397
 7436SOL    HW133941   0.210   4.248   3.216 -0.3323  0.2613  1.0847
 7436SOL    HW233942   0.360   4.243   3.194  1.0524  1.8802  0.0318
 7437SOL     OW33943   1.828   0.648   8.590  0.5882 -0.0109  0.4973
 7437SOL    HW133944   1.815   0.578   8.654  2.1650  0.5766  1.4500
 7437SOL    HW233945   1.857   0.723   8.641 -0.0465  0.4177  0.2424
 7438SOL     OW33946   0.906   1.305   4.358 -0.1420  0.0006 -0.5076
 7438SOL    HW133947   0.868   1.317   4.445  1.4188 -0.5832  0.2521
 7438SOL    HW233948   0.991   1.277   4.391 -0.0814  0.4148 -0.3094
 7439SOL     OW33949   3.985   0.246   4.592  0.2237  0.2048 -0.3054
 7439SOL    HW133950   4.058   0.299   4.557 -0.8928  0.1131 -2.7894
 7439SOL    HW233951   3.922   0.317   4.579 -0.2017 -0.3111 -1.0369
 7440SOL     OW33952   3.194   0.634  14.630 -0.1990 -0.0092 -0.0123
 7440SOL    HW133953   3.257   0.697  14.595  1.2580 -1.7822 -0.5450
 7440SOL    HW233954   3.234   0.630  14.717  2.0480 -1.1286 -1.1148
 7441SOL     OW33955   3.081   2.123   3.911 -0.9076 -0.0494 -0.4324
 7441SOL    HW133956   3.037   2.208   3.901 -0.7147  0.1051  0.0132
 7441SOL    HW233957   3.024   2.092   3.981  0.5615 -0.3265  0.6321
 7442SOL     OW33958   0.798   4.607  15.958  0.1859  0.0319  0.1291
 7442SOL    HW133959   0.763   4.622  16.046  0.4000 -0.1000  0.2377
 7442SOL    HW233960   0.854   4.684  15.948 -2.3648  1.9212  0.3745
 7443SOL     OW33961   3.497   4.044   9.841  0.0037 -0.0827  0.0787
 7443SOL    HW133962   3.592   4.037   9.827  0.1382  0.9509  0.5037
 7443SOL    HW233963   3.486   4.066   9.933  0.5306  1.2452 -0.1815
 7444SOL     OW33964   4.612   0.691   4.514 -0.3454 -0.2884 -0.1468
 7444SOL    HW133965   4.644   0.703   4.603 -0.2608  1.5775 -0.4278
 7444SOL    HW233966   4.590   0.598   4.514 -0.0961 -0.3557  1.6441
 7445SOL     OW33967   2.222   3.199   1.514 -0.2558  0.0910 -0.0610
 7445SOL    HW133968   2.210   3.161   1.427 -3.5074 -0.3858  0.6132
 7445SOL    HW233969   2.140   3.248   1.523 -1.4601 -1.7526 -1.1806
 7446SOL     OW33970   2.860   2.718   5.174  0.3032 -0.0318  0.0640
 7446SOL    HW133971   2.897   2.681   5.255  1.4996 -1.7485 -1.2684
 7446SOL    HW233972   2.769   2.726   5.202 -0.2872 -0.1737 -1.7984
 7447SOL     OW33973   3.894   2.240  10.514 -0.2100  0.5265 -0.6878
 7447SOL    HW133974   3.872   2.175  10.581 -0.5213  0.6442 -0.6749
 7447SOL    HW233975   3.967   2.200  10.468 -0.0578  0.4710 -0.3958
 7448SOL     OW33976   0.895   4.494   6.097  0.0589  0.3453  0.4042
 7448SOL    HW133977   0.818   4.521   6.147 -0.1110 -0.0663  0.3667
 7448SOL    HW233978   0.947   4.573   6.084  0.2621  0.2218  0.4476
 7449SOL     OW33979   1.966   1.142   4.908  0.3079  0.1248 -0.5387
 7449SOL    HW133980   2.007   1.065   4.868  0.3133 -0.1987  0.1008
 7449SOL    HW233981   1.882   1.146   4.861  0.0199  0.9975  0.0492
 7450SOL     OW33982   1.146   2.080   4.764  0.3286  0.1247 -0.1870
 7450SOL    HW133983   1.228   2.032   4.777  0.6478  0.6175 -0.3654
 7450SOL    HW233984   1.140   2.140   4.838  1.0774  0.5248 -0.4446
 7451SOL     OW33985   3.582   3.101   7.728  0.2818 -0.1999  0.1394
 7451SOL    HW133986   3.626   3.177   7.690  0.5320 -0.5229 -0.2179
 7451SOL    HW233987   3.523   3.142   7.791 -0.8991 -2.3928  0.4419
 7452SOL     OW33988   1.914   1.017   0.101  0.4245 -0.1723  0.2368
 7452SOL    HW133989   1.922   0.925   0.125  1.1263 -0.4646 -1.1524
 7452SOL    HW233990   1.944   1.065   0.179  0.7275  0.7180 -0.4239
 7453SOL     OW33991   0.509   1.538   7.520 -0.0656  0.6629  0.0941
 7453SOL    HW133992   0.534   1.625   7.552  0.7799  1.1188 -1.7967
 7453SOL    HW233993   0.419   1.548   7.490 -0.5891  0.6432  1.6829
 7454SOL     OW33994   1.627   4.316   5.264  0.1508  0.1963  0.0440
 7454SOL    HW133995   1.533   4.334   5.263 -0.2563 -1.9936 -1.7439
 7454SOL    HW233996   1.645   4.222   5.261  2.2631  0.5595  1.4983
 7455SOL     OW33997   4.083   3.299  11.695  0.5951  0.2842 -0.8440
 7455SOL    HW133998   4.041   3.385  11.693 -0.5918 -0.2734  0.3116
 7455SOL    HW233999   4.041   3.256  11.769  1.1972  0.8079 -0.1958
 7456SOL     OW34000   3.098   2.392   4.100 -0.3239  0.2372  0.5809
 7456SOL    HW134001   3.175   2.412   4.153  0.5225 -1.2969 -0.0769
 7456SOL    HW234002   3.117   2.438   4.018  0.2689  0.9422  1.1108
 7457SOL     OW34003   0.959   4.463   9.213  0.2169 -0.0837 -0.7247
 7457SOL    HW134004   0.962   4.546   9.260  1.0655 -1.5393  1.8476
 7457SOL    HW234005   0.880   4.479   9.162 -2.2194 -1.0970  2.7381
 7458SOL     OW34006   1.554   1.363  14.779 -0.2344 -0.3783 -0.0657
 7458SOL    HW134007   1.533   1.288  14.833 -3.0032  0.6979  0.3647
 7458SOL    HW234008   1.519   1.430  14.839 -1.7278 -0.6318 -0.6597
 7459SOL     OW34009   0.812   4.709  13.742 -0.4627 -0.3805  0.4071
 7459SOL    HW134010   0.733   4.655  13.738 -0.2993 -0.4261 -2.4225
 7459SOL    HW234011   0.778   0.047  13.792 -4.3942 -1.6947 -0.2464
 7460SOL     OW34012   1.003   3.902   8.585  0.2015  0.3699  0.2515
 7460SOL    HW134013   1.006   3.951   8.667 -0.0956  0.3540  0.2709
 7460SOL    HW234014   0.996   3.975   8.523 -0.3918 -0.0947 -0.2356
 7461SOL     OW34015   0.674   2.969   7.174 -0.1661  0.6323  0.2555
 7461SOL    HW134016   0.735   3.004   7.239  0.6611  0.1582 -0.2546
 7461SOL    HW234017   0.591   3.006   7.202 -0.7945 -0.5474 -0.0408
 7462SOL     OW34018   0.251   4.465   9.407  0.0044  0.4396 -0.6162
 7462SOL    HW134019   0.236   4.557   9.389 -1.3977  0.3641  0.1599
 7462SOL    HW234020   0.337   4.455   9.366  0.6376  1.9466  0.3511
 7463SOL     OW34021   2.483   2.003  10.411 -0.3079 -0.2019  0.2063
 7463SOL    HW134022   2.487   2.061  10.487 -2.1384  0.4685 -0.2116
 7463SOL    HW234023   2.573   1.971  10.415  0.0612  0.8175  0.1939
 7464SOL     OW34024   2.140   1.515  11.959 -0.1430 -0.4995  0.1050
 7464SOL    HW134025   2.161   1.424  11.938 -1.5422 -1.0673  1.1727
 7464SOL    HW234026   2.186   1.540  12.040 -0.1738  3.3372 -1.0347
 7465SOL     OW34027   4.628   0.832   2.648 -0.3840  0.1527 -0.0852
 7465SOL    HW134028   4.678   0.771   2.593  1.9439  1.4238  0.6242
 7465SOL    HW234029   4.565   0.869   2.587 -1.0779 -1.8888 -0.6273
 7466SOL     OW34030   1.970   3.095   4.385 -0.4908 -0.0601 -0.3195
 7466SOL    HW134031   1.886   3.057   4.409  0.6833 -2.2650  0.2859
 7466SOL    HW234032   1.979   3.075   4.292  0.3973 -3.5791  0.5490
 7467SOL     OW34033   2.233   2.772   5.154  0.6162 -0.0472  0.1276
 7467SOL    HW134034   2.162   2.761   5.091  2.1262 -2.5795 -1.1173
 7467SOL    HW234035   2.308   2.739   5.105 -1.1358 -0.3403 -2.3346
 7468SOL     OW34036   4.531   0.162   2.781 -0.4487  0.3243 -0.0136
 7468SOL    HW134037   4.577   0.238   2.817  1.8632 -0.4768 -1.2599
 7468SOL    HW234038   4.601   0.097   2.779  0.1409  1.0186 -1.8725
 7469SOL     OW34039   0.374   0.502   4.090 -0.8413 -0.3942 -0.0796
 7469SOL    HW134040   0.327   0.510   4.007  1.0014  0.2395 -1.0556
 7469SOL    HW234041   0.362   0.407   4.103  1.7820 -0.5453  1.1228
 7470SOL     OW34042   1.364   2.147   9.818 -0.3393  0.5199  0.1228
 7470SOL    HW134043   1.449   2.130   9.859 -1.3025  0.8865  2.2821
 7470SOL    HW234044   1.353   2.240   9.836  1.4913  0.4435  1.5859
 7471SOL     OW34045   0.770   4.679   7.606 -0.0765  0.1756 -0.5738
 7471SOL    HW134046   0.763   4.709   7.516 -0.5169 -0.8818 -0.8832
 7471SOL    HW234047   0.693   4.717   7.650 -1.0875 -0.5408 -1.7334
 7472SOL     OW34048   3.509   3.481  15.927  0.0254  0.5808  0.5045
 7472SOL    HW134049   3.492   3.397  15.970  1.7324 -0.4958 -0.8811
 7472SOL    HW234050   3.429   3.527  15.950  0.7636  1.9773  0.2869
 7473SOL     OW34051   4.383   2.569   9.421 -0.0479 -0.5313  0.0447
 7473SOL    HW134052   4.469   2.529   9.433 -0.8480 -2.2643  0.0202
 7473SOL    HW234053   4.398   2.596   9.330  0.8834  0.9939  0.6505
 7474SOL     OW34054   2.606   4.276  14.841 -0.5895 -0.3281 -0.5754
 7474SOL    HW134055   2.571   4.188  14.851  1.1854 -0.8508  1.0909
 7474SOL    HW234056   2.532   4.336  14.847 -0.0015  0.3404  0.0783
 7475SOL     OW34057   0.059   0.174   6.884  0.6224 -0.1601 -0.0163
 7475SOL    HW134058   4.729   0.127   6.834  0.1716  0.0084  0.4252
 7475SOL    HW234059   0.104   0.101   6.927  3.0218  1.3539  0.0641
 7476SOL     OW34060   0.594   3.480   8.981  0.0519  0.2870 -0.0315
 7476SOL    HW134061   0.582   3.433   8.899  0.1095 -0.1615  0.2150
 7476SOL    HW234062   0.573   3.411   9.044 -0.3374 -0.0894 -0.5785
 7477SOL     OW34063   0.208   1.459   5.221  0.4418  1.2864  0.0803
 7477SOL    HW134064   0.270   1.410   5.166 -0.9371  0.7227 -0.9570
 7477SOL    HW234065   0.127   1.418   5.192  0.6602  1.9905 -1.5071
 7478SOL     OW34066   1.889   2.843   8.826  0.0295 -0.1551  0.5687
 7478SOL    HW134067   1.846   2.929   8.827  0.8362  0.2558 -0.0052
 7478SOL    HW234068   1.832   2.804   8.760  2.3730 -0.4279 -1.2961
 7479SOL     OW34069   0.146   2.843   5.076 -0.2465  0.4755 -0.8170
 7479SOL    HW134070   0.189   2.804   5.000 -0.5539 -2.2415  0.3884
 7479SOL    HW234071   0.062   2.853   5.030 -0.3870 -0.8640 -0.8502
 7480SOL     OW34072   0.400   0.343   1.451 -0.0022  0.2014 -0.3126
 7480SOL    HW134073   0.357   0.269   1.407 -3.0279  1.4224  0.5443
 7480SOL    HW234074   0.325   0.394   1.483  0.6307  0.7560  0.2643
 7481SOL     OW34075   0.537   0.599  15.944 -0.0016 -0.2672 -0.4103
 7481SOL    HW134076   0.511   0.545  15.869  1.0900 -1.8003  0.3473
 7481SOL    HW234077   0.624   0.617  15.910 -0.8644  0.0679 -2.4479
 7482SOL     OW34078   3.744   1.018  16.383 -0.4885  0.6002 -0.3008
 7482SOL    HW134079   3.709   1.083  16.444  0.0444 -2.5823  3.4140
 7482SOL    HW234080   3.836   1.042  16.373  0.5728 -3.0099  0.6815
 7483SOL     OW34081   0.081   1.373   4.985 -0.2961  1.1277 -0.1772
 7483SOL    HW134082   0.167   1.356   4.946 -0.0763 -0.2522  0.8714
 7483SOL    HW234083   0.065   1.461   4.953 -1.7444  1.4538  1.4286
 7484SOL     OW34084   0.674   2.636   7.935  0.4541  0.1864  0.4089
 7484SOL    HW134085   0.677   2.725   7.968  0.5252  0.1128  0.6024
 7484SOL    HW234086   0.662   2.577   8.010  1.9659  0.7976  1.1389
 7485SOL     OW34087   4.458   4.325   6.921  0.1323  0.2604 -0.5534
 7485SOL    HW134088   4.512   4.340   6.998  0.8915  2.5460 -1.5560
 7485SOL    HW234089   4.370   4.351   6.951 -0.0713 -2.0368  0.8454
 7486SOL     OW34090   3.672   2.129  10.724  0.8156  0.2086  1.0459
 7486SOL    HW134091   3.652   2.200  10.784 -1.6338  1.8559 -1.7121
 7486SOL    HW234092   3.765   2.128  10.746  0.8529  1.6383  0.9636
 7487SOL     OW34093   2.336   0.940  15.490 -0.4347 -0.1151  0.1779
 7487SOL    HW134094   2.413   0.929  15.435 -1.5891 -2.3935 -0.9739
 7487SOL    HW234095   2.366   1.005  15.554 -1.3697  1.1574 -0.6853
 7488SOL     OW34096   1.960   0.321   6.600 -0.0303 -0.0500 -0.3568
 7488SOL    HW134097   1.965   0.232   6.566  3.7109  0.3928 -0.9894
 7488SOL    HW234098   1.883   0.355   6.556 -0.3032 -1.0145 -0.6180
 7489SOL     OW34099   3.457   2.018   3.037 -0.3126 -0.3290 -0.4308
 7489SOL    HW134100   3.530   1.967   3.073  0.0469  0.9138  0.5888
 7489SOL    HW234101   3.488   2.107   3.023 -1.7172  0.1448 -0.5840
 7490SOL     OW34102   1.403   4.706   4.661 -0.0173 -0.0585  0.3139
 7490SOL    HW134103   1.370   0.005   4.578  2.4931 -1.3716 -1.2576
 7490SOL    HW234104   1.355   4.624   4.669 -0.1449  0.0032  0.1827
 7491SOL     OW34105   1.225   4.074   2.392  0.2387 -0.0570  0.4026
 7491SOL    HW134106   1.221   4.069   2.297 -0.6645 -0.4435  0.4610
 7491SOL    HW234107   1.170   4.000   2.418  2.3169 -1.0991  1.7555
 7492SOL     OW34108   3.292   2.496   4.277 -0.4855 -0.4522  0.2137
 7492SOL    HW134109   3.351   2.569   4.263 -0.4233 -0.4405  0.5216
 7492SOL    HW234110   3.224   2.528   4.337  0.2580 -1.9043  1.8495
 7493SOL     OW34111   2.701   0.232  17.707 -0.0825 -0.7319  0.0739
 7493SOL    HW134112   2.764   0.234   0.033 -0.4033  0.8212  0.3095
 7493SOL    HW234113   2.664   0.320  17.706 -1.3848 -1.2396  2.9652
 7494SOL     OW34114   2.410   2.862   6.889  0.0094 -0.0805  0.1488
 7494SOL    HW134115   2.341   2.856   6.955 -1.3095 -0.9925 -1.2987
 7494SOL    HW234116   2.366   2.848   6.806 -1.2730  0.5103  0.7288
 7495SOL     OW34117   2.573   4.358   3.703  0.0416 -0.3882 -0.2606
 7495SOL    HW134118   2.546   4.271   3.674  0.1019 -1.0540  1.6750
 7495SOL    HW234119   2.544   4.412   3.629  0.3085  0.0002 -0.0827
 7496SOL     OW34120   4.591   4.409   3.241  0.0116  0.0497  0.1390
 7496SOL    HW134121   4.609   4.423   3.148  1.1076  0.0720  0.3533
 7496SOL    HW234122   4.622   4.496   3.265  0.1737 -0.8202  3.1273
 7497SOL     OW34123   4.279   0.499   1.970  0.4015 -0.3952  0.1306
 7497SOL    HW134124   4.288   0.558   1.896  0.2460 -0.6567 -0.0964
 7497SOL    HW234125   4.235   0.419   1.939 -2.5889  1.2308  0.2033
 7498SOL     OW34126   3.008   2.865   3.095  0.4266 -0.2703 -0.1355
 7498SOL    HW134127   3.024   2.952   3.057  1.7966 -0.1022  0.8122
 7498SOL    HW234128   3.007   2.897   3.185  1.5131 -0.6990  0.0275
 7499SOL     OW34129   1.963   2.623   4.304  0.4882 -0.7874 -1.0589
 7499SOL    HW134130   1.921   2.668   4.230 -0.7549  1.2022  0.8772
 7499SOL    HW234131   1.970   2.698   4.362 -0.2388 -2.5856  1.3726
 7500SOL     OW34132   4.356   4.293   5.236  0.2800  0.0446  0.5902
 7500SOL    HW134133   4.384   4.230   5.302 -0.5415 -0.6237  0.3130
 7500SOL    HW234134   4.389   4.377   5.267 -0.0998 -0.0297  1.1875
 7501SOL     OW34135   3.004   1.066   5.051  0.1294  0.5762 -1.3749
 7501SOL    HW134136   3.098   1.062   5.033  0.3907 -0.4990  0.1489
 7501SOL    HW234137   3.010   1.048   5.145  1.3262 -0.0137 -1.5613
 7502SOL     OW34138   2.453   4.655   7.088 -0.3549 -0.3394  0.1701
 7502SOL    HW134139   2.539   4.665   7.129 -0.6951  1.6484  0.4102
 7502SOL    HW234140   2.473   4.656   6.995  0.3338 -1.4196  0.3121
 7503SOL     OW34141   1.567   4.669   4.329  0.5189 -0.1726  0.1479
 7503SOL    HW134142   1.524   4.658   4.413 -0.4505  2.0279 -0.0563
 7503SOL    HW234143   1.649   4.715   4.347  1.1865 -1.0899 -0.5084
 7504SOL     OW34144   4.066   3.156   3.645  0.4654 -0.2500  0.1146
 7504SOL    HW134145   3.982   3.159   3.599  1.0131 -0.5217 -0.9210
 7504SOL    HW234146   4.044   3.160   3.738  1.9410  3.0611  0.2957
 7505SOL     OW34147   2.880   2.685   6.903 -0.3917 -0.3901 -0.6374
 7505SOL    HW134148   2.801   2.734   6.877 -0.2321  0.9835  1.5359
 7505SOL    HW234149   2.933   2.757   6.937  1.5310 -1.9459 -0.3593
 7506SOL     OW34150   0.912   4.159  10.407  0.4525 -0.0282  0.0761
 7506SOL    HW134151   0.955   4.150  10.492  3.0859 -0.4273 -1.3047
 7506SOL    HW234152   0.902   4.067  10.384  0.1370  0.4918 -1.9275
 7507SOL     OW34153   2.796   3.164  16.240 -0.0870 -1.4997 -0.4745
 7507SOL    HW134154   2.852   3.087  16.239  1.1919 -0.5641 -0.7518
 7507SOL    HW234155   2.844   3.212  16.174 -0.8040 -1.9142 -1.2943
 7508SOL     OW34156   1.499   1.438  11.268  0.3730  0.4449 -0.1260
 7508SOL    HW134157   1.580   1.396  11.242 -0.1878  0.5489 -2.0432
 7508SOL    HW234158   1.429   1.382  11.236 -0.5888  1.0129  0.9401
 7509SOL     OW34159   1.676   1.950  12.912  0.2846  0.1778 -0.4042
 7509SOL    HW134160   1.708   1.879  12.857  1.2294  0.2658  0.0253
 7509SOL    HW234161   1.753   1.950  12.970 -0.9430  2.9486  1.2355
 7510SOL     OW34162   1.117   3.636  12.022 -0.5168 -0.1741  0.0498
 7510SOL    HW134163   1.061   3.599  11.953  0.0578 -0.3804 -0.3080
 7510SOL    HW234164   1.150   3.707  11.967 -1.6381 -0.1263 -0.5648
 7511SOL     OW34165   4.394   0.423   9.150  0.2945 -0.1776 -0.3724
 7511SOL    HW134166   4.461   0.372   9.194  1.5684  0.8924 -1.0720
 7511SOL    HW234167   4.322   0.367   9.177 -0.0718  1.1536  1.3983
 7512SOL     OW34168   1.813   0.136  11.402  0.2291  0.0259  0.2553
 7512SOL    HW134169   1.739   0.152  11.343  1.6387  1.5097 -1.1130
 7512SOL    HW234170   1.874   0.206  11.380  1.2016 -1.8261 -3.0753
 7513SOL     OW34171   4.684   1.341  11.700  0.1055 -0.0162 -0.0056
 7513SOL    HW134172   0.005   1.397  11.752  1.2078 -1.7141  0.5829
 7513SOL    HW234173   4.696   1.259  11.748 -0.4938 -0.7545 -1.1119
 7514SOL     OW34174   3.377   0.575   1.604 -0.0771 -0.1862  0.5922
 7514SOL    HW134175   3.288   0.550   1.577  0.1593  1.7397 -1.9140
 7514SOL    HW234176   3.422   0.562   1.521  1.6826  0.0060  1.5138
 7515SOL     OW34177   2.774   0.742  12.553 -0.3437  0.6024 -0.1505
 7515SOL    HW134178   2.857   0.790  12.563 -0.5429  0.9160 -0.0069
 7515SOL    HW234179   2.796   0.675  12.488 -0.8342  0.1837  0.1158
 7516SOL     OW34180   1.572   4.160   8.714  0.5009  0.3756  0.3694
 7516SOL    HW134181   1.636   4.151   8.786  0.7812 -1.1745 -0.0780
 7516SOL    HW234182   1.501   4.109   8.752 -0.0239  2.0236  1.6163
 7517SOL     OW34183   1.580   0.131   5.973  0.4847  0.4815  0.1045
 7517SOL    HW134184   1.672   0.147   5.993  0.1810  1.4186  0.7585
 7517SOL    HW234185   1.537   0.183   6.041  1.1905 -0.9191  1.6438
 7518SOL     OW34186   1.318   0.241   2.134 -0.3831 -0.8239  0.3049
 7518SOL    HW134187   1.321   0.266   2.227 -0.8810 -0.3675  0.1931
 7518SOL    HW234188   1.380   0.304   2.099 -1.0765 -0.1093  0.3786
 7519SOL     OW34189   1.265   3.190   8.977 -0.6356 -0.2342  0.1253
 7519SOL    HW134190   1.334   3.153   8.923 -1.1086 -0.4489 -0.3265
 7519SOL    HW234191   1.227   3.113   9.020  0.4586 -0.8803 -0.0447
 7520SOL     OW34192   3.230   1.770   7.136  0.4492  0.2166 -0.0290
 7520SOL    HW134193   3.159   1.784   7.074  0.2190  1.8129  0.5830
 7520SOL    HW234194   3.204   1.683   7.164 -1.2533  0.7755  0.1071
 7521SOL     OW34195   4.731   1.040   5.242  0.1286  0.1259 -0.3551
 7521SOL    HW134196   0.053   0.989   5.298 -0.9235 -1.2714 -0.5316
 7521SOL    HW234197   4.722   1.123   5.288  1.7798 -0.5643  1.2430
 7522SOL     OW34198   2.233   1.715   6.223  0.2570 -0.0297  0.1259
 7522SOL    HW134199   2.143   1.733   6.251  0.2754  0.9195 -0.4336
 7522SOL    HW234200   2.216   1.624   6.199  0.2497 -0.6546  2.5453
 7523SOL     OW34201   1.340   1.487  13.003  0.1466  0.0763  0.0682
 7523SOL    HW134202   1.258   1.450  13.034  0.6456  0.9850  2.4400
 7523SOL    HW234203   1.397   1.454  13.072  0.7075  1.0945  0.0950
 7524SOL     OW34204   3.394   4.280   2.939  0.3232  0.7366 -0.1837
 7524SOL    HW134205   3.315   4.326   2.911  2.1328  1.5500 -3.9265
 7524SOL    HW234206   3.402   4.220   2.866  0.6117  0.6140 -0.0516
 7525SOL     OW34207   2.847   3.709   4.101 -0.1622  0.0884  0.0272
 7525SOL    HW134208   2.843   3.782   4.162  1.5216  0.3832 -0.2063
 7525SOL    HW234209   2.784   3.646   4.136 -0.6814  0.9038  0.5598
 7526SOL     OW34210   2.774   0.124   5.354 -0.0505 -0.5917  0.1245
 7526SOL    HW134211   2.803   0.068   5.427  0.5375 -1.2849 -0.6351
 7526SOL    HW234212   2.800   0.077   5.275 -0.1988  0.8988 -0.8106
 7527SOL     OW34213   4.213   1.689  11.463  0.1930 -0.4382  0.1033
 7527SOL    HW134214   4.304   1.715  11.448 -0.7828  1.7707 -2.0853
 7527SOL    HW234215   4.216   1.674  11.557 -0.9793 -4.7317 -0.5519
 7528SOL     OW34216   4.570   0.604   9.056  0.7394 -0.3432  0.1773
 7528SOL    HW134217   4.496   0.554   9.090  1.3756 -1.3820  0.0032
 7528SOL    HW234218   4.613   0.539   9.001  0.8256  1.0851 -1.4322
 7529SOL     OW34219   4.375   3.119  14.045  0.4801  0.0666  0.2431
 7529SOL    HW134220   4.290   3.104  14.087  0.1054 -0.6789 -0.7929
 7529SOL    HW234221   4.385   3.214  14.058  0.4570  0.0368  0.4743
 7530SOL     OW34222   2.165   1.986   7.379 -0.1199  0.2931 -0.2041
 7530SOL    HW134223   2.178   1.930   7.303  1.1755  1.0162 -0.5155
 7530SOL    HW234224   2.240   1.961   7.433 -0.8952  0.5255  0.9809
 7531SOL     OW34225   2.426   4.484   0.745  0.3681 -0.0513 -0.1617
 7531SOL    HW134226   2.511   4.442   0.734  0.5236  0.7674 -2.0832
 7531SOL    HW234227   2.441   4.569   0.786 -0.5639 -0.2390  0.5635
 7532SOL     OW34228   2.807   2.501  12.091 -0.0618  0.0696  0.0201
 7532SOL    HW134229   2.734   2.470  12.145 -1.1309  1.6826 -0.4844
 7532SOL    HW234230   2.760   2.548  12.021  0.2515  0.6927  0.2294
 7533SOL     OW34231   3.211   4.598   3.454  0.3467  0.2312  0.3970
 7533SOL    HW134232   3.291   4.588   3.505  0.7424  1.9319  0.1094
 7533SOL    HW234233   3.147   4.536   3.489  0.2944 -0.5821 -1.1428
 7534SOL     OW34234   3.364   1.583  14.124  0.1732  0.7199  0.3822
 7534SOL    HW134235   3.280   1.630  14.121 -0.6082 -0.8336 -2.2739
 7534SOL    HW234236   3.375   1.560  14.032  0.6602 -2.1351  1.1714
 7535SOL     OW34237   0.520   3.809   0.500  0.8363  0.2037  0.8443
 7535SOL    HW134238   0.601   3.768   0.532  0.3429 -0.5334  1.1505
 7535SOL    HW234239   0.452   3.755   0.541 -0.8404  1.5222 -0.2295
 7536SOL     OW34240   1.624   2.257   3.464  0.1517 -0.1364 -0.5700
 7536SOL    HW134241   1.560   2.196   3.427  1.4860 -1.8391 -0.0644
 7536SOL    HW234242   1.600   2.245   3.556 -2.1846 -0.4016 -1.2050
 7537SOL     OW34243   0.536   1.358   5.781  0.3789 -0.6410  0.7685
 7537SOL    HW134244   0.568   1.448   5.784 -1.0370 -0.1042  0.0021
 7537SOL    HW234245   0.476   1.356   5.707 -0.4790 -1.5889  1.4903
 7538SOL     OW34246   1.696   3.437   3.607 -0.3264 -0.4603 -0.8148
 7538SOL    HW134247   1.606   3.469   3.612 -0.4716 -1.2401  1.3582
 7538SOL    HW234248   1.697   3.397   3.520  3.0583  0.3970 -1.1786
 7539SOL     OW34249   0.409   4.387  13.991 -0.1994  0.2148  0.5283
 7539SOL    HW134250   0.431   4.480  13.983 -2.8175  0.7942 -0.1290
 7539SOL    HW234251   0.318   4.396  14.022 -0.3624 -0.1716  0.1596
 7540SOL     OW34252   1.561   2.741   7.883  0.3867 -0.0311  1.0316
 7540SOL    HW134253   1.594   2.680   7.817  0.1197  0.7016  0.2195
 7540SOL    HW234254   1.587   2.696   7.963  0.8613  2.4327  2.2517
 7541SOL     OW34255   3.765   2.119   3.704  0.2606  0.0169 -0.3125
 7541SOL    HW134256   3.775   2.036   3.752 -0.0606 -1.2028 -2.3694
 7541SOL    HW234257   3.762   2.091   3.613 -0.1968  1.1774 -0.6455
 7542SOL     OW34258   1.071   1.027   3.827 -0.1773  0.0548 -0.3015
 7542SOL    HW134259   1.158   1.001   3.856 -0.2308  0.4421  0.1939
 7542SOL    HW234260   1.019   0.957   3.868 -0.8430  1.6078  1.4649
 7543SOL     OW34261   0.280   0.289   0.454 -0.1179 -0.6200 -0.0538
 7543SOL    HW134262   0.258   0.201   0.423 -0.1900 -0.9746  1.0282
 7543SOL    HW234263   0.271   0.340   0.373  0.9051 -1.8672 -0.9544
 7544SOL     OW34264   1.296   1.127  12.928  0.1885 -0.2335  0.0664
 7544SOL    HW134265   1.266   1.159  13.013 -0.7264  0.9847 -0.7179
 7544SOL    HW234266   1.391   1.133  12.936  0.4048 -0.8245 -2.0198
 7545SOL     OW34267   2.889   2.163   9.838 -0.0783  0.1580  0.4757
 7545SOL    HW134268   2.819   2.129   9.782  0.6301 -2.0369  0.9001
 7545SOL    HW234269   2.907   2.088   9.895 -0.8142 -1.4582 -1.4010
 7546SOL     OW34270   0.599   2.638  17.612 -0.5928 -0.1489  0.2652
 7546SOL    HW134271   0.665   2.593  17.559 -1.3785 -0.4753 -0.4350
 7546SOL    HW234272   0.589   2.718  17.560  1.3088  0.8980  1.5368
 7547SOL     OW34273   3.003   2.774   8.095 -0.2983  0.1032 -0.6584
 7547SOL    HW134274   2.956   2.735   8.022 -3.1982  1.0687  0.7126
 7547SOL    HW234275   2.936   2.815   8.150 -0.5510 -0.4000 -0.5881
 7548SOL     OW34276   1.279   2.940   3.815  0.2319 -0.0358 -0.1438
 7548SOL    HW134277   1.184   2.947   3.822 -0.1673 -2.6367 -2.7285
 7548SOL    HW234278   1.307   3.031   3.824  0.0196 -0.0691  0.7959
 7549SOL     OW34279   1.321   3.408   5.472 -0.4195  0.2362 -0.5096
 7549SOL    HW134280   1.278   3.336   5.426  0.0926  0.6549 -1.6685
 7549SOL    HW234281   1.248   3.462   5.500  2.1191  3.8940 -0.9022
 7550SOL     OW34282   4.329   3.157   4.316 -0.1786 -0.3960  0.6253
 7550SOL    HW134283   4.348   3.251   4.314 -1.9770 -0.0759 -1.9555
 7550SOL    HW234284   4.370   3.121   4.395 -1.0730 -1.8423  0.4310
 7551SOL     OW34285   2.924   3.288   2.817 -0.2049 -0.2682  0.4858
 7551SOL    HW134286   2.864   3.258   2.885 -1.8468 -1.4850 -1.4817
 7551SOL    HW234287   2.880   3.253   2.739  0.6512  1.5324 -0.8166
 7552SOL     OW34288   3.826   3.930   5.602 -0.1673  0.1916  0.3861
 7552SOL    HW134289   3.917   3.900   5.596  0.4168  2.5282 -2.5945
 7552SOL    HW234290   3.843   4.023   5.618 -2.2235  0.5916  0.2337
 7553SOL     OW34291   1.426   3.650  16.695  0.3436  0.6992 -0.1858
 7553SOL    HW134292   1.447   3.615  16.781  1.3985 -0.3539 -0.8816
 7553SOL    HW234293   1.505   3.638  16.643  0.7055 -0.1656  0.5670
 7554SOL     OW34294   1.444   3.230  14.247 -0.7035 -0.3032  0.1814
 7554SOL    HW134295   1.518   3.289  14.260 -1.8313  0.9584  0.8867
 7554SOL    HW234296   1.456   3.175  14.324  1.4980  0.2351  0.2298
 7555SOL     OW34297   3.341   3.801   2.828 -0.2999 -0.0356  0.2348
 7555SOL    HW134298   3.387   3.729   2.785 -0.9772 -0.6972  0.6219
 7555SOL    HW234299   3.253   3.765   2.840  0.1784 -1.8411 -1.8633
 7556SOL     OW34300   0.689   3.277   5.248  0.4317  0.0963 -0.7558
 7556SOL    HW134301   0.739   3.291   5.328 -1.8153  0.5059  0.5851
 7556SOL    HW234302   0.600   3.299   5.275  0.3829 -1.6769  0.5132
 7557SOL     OW34303   1.772   0.457  15.208 -0.1571  0.3651  0.5699
 7557SOL    HW134304   1.694   0.511  15.217 -0.7480 -0.5363  0.9172
 7557SOL    HW234305   1.832   0.507  15.153 -1.0103 -0.3787 -1.0540
 7558SOL     OW34306   1.891   3.334  13.181 -0.1682  0.0387  0.0142
 7558SOL    HW134307   1.971   3.363  13.137 -1.9420  2.5055 -1.6150
 7558SOL    HW234308   1.846   3.302  13.103 -0.4451 -2.9442  1.4035
 7559SOL     OW34309   3.397   3.062   2.865 -0.0803 -0.1527  0.4670
 7559SOL    HW134310   3.307   3.049   2.893 -0.2856 -1.7107 -0.9363
 7559SOL    HW234311   3.427   3.146   2.900  0.1218 -0.5341  1.2038
 7560SOL     OW34312   1.034   0.660   0.403 -0.1989  0.0137 -0.2560
 7560SOL    HW134313   0.986   0.578   0.406  2.0828 -1.3744 -1.5011
 7560SOL    HW234314   1.014   0.714   0.327  1.2012  0.6887 -0.1563
 7561SOL     OW34315   3.984   0.037   3.508 -0.2420  0.3752 -0.1034
 7561SOL    HW134316   3.990   0.131   3.490  1.0462  0.3722  0.3386
 7561SOL    HW234317   3.939   0.003   3.430 -1.4207  2.6655 -0.4314
 7562SOL     OW34318   1.523   0.876  16.500 -0.1936  0.2206 -0.6257
 7562SOL    HW134319   1.454   0.930  16.537  0.6419  1.1264 -0.4113
 7562SOL    HW234320   1.466   0.805  16.470  1.1171 -1.2007  0.2318
 7563SOL     OW34321   0.476   1.564   1.884  0.1495  0.1206 -0.3556
 7563SOL    HW134322   0.498   1.629   1.951  0.4655 -1.1440  0.7547
 7563SOL    HW234323   0.441   1.616   1.812  0.1796 -0.3943 -0.7452
 7564SOL     OW34324   2.887   1.765   3.697 -0.1253 -0.4560 -0.2497
 7564SOL    HW134325   2.807   1.766   3.646 -1.1140  2.6344  1.3693
 7564SOL    HW234326   2.924   1.854   3.701  0.3742 -0.6943  0.4151
 7565SOL     OW34327   4.686   2.448   1.729 -0.2753 -0.5062 -0.0881
 7565SOL    HW134328   0.037   2.463   1.693 -0.0168 -0.0056  0.7516
 7565SOL    HW234329   4.686   2.353   1.724  0.4238 -0.5465  0.7711
 7566SOL     OW34330   0.655   1.109   2.810  0.2145  0.4417  0.2706
 7566SOL    HW134331   0.715   1.158   2.753  0.3028 -0.1728 -0.1675
 7566SOL    HW234332   0.718   1.111   2.882 -0.7513  0.4588  1.1179
 7567SOL     OW34333   1.432   3.409  17.620  0.0801 -0.0489  0.2730
 7567SOL    HW134334   1.399   3.491  17.656 -1.0196  0.1876 -1.2733
 7567SOL    HW234335   1.463   3.358  17.694 -1.9297 -0.9278  0.5191
 7568SOL     OW34336   0.174   3.945  17.528 -0.0862  0.8556  0.1709
 7568SOL    HW134337   0.105   3.984  17.581  0.4963  0.0288  1.5518
 7568SOL    HW234338   0.240   3.966  17.594  0.8672  0.0631 -0.5131
 7569SOL     OW34339   1.757   4.176   3.011 -0.2719 -0.8482 -0.0339
 7569SOL    HW134340   1.730   4.173   2.919 -0.5643  3.2383 -0.1120
 7569SOL    HW234341   1.828   4.112   3.003  1.5500  1.3336 -1.6186
 7570SOL     OW34342   0.854   0.279  12.117 -0.6219  0.2658 -0.1137
 7570SOL    HW134343   0.762   0.261  12.101 -0.3949 -1.3026  0.3116
 7570SOL    HW234344   0.883   0.200  12.163 -0.6854  0.7639  0.7859
 7571SOL     OW34345   2.823   4.031  17.625 -0.1105 -0.0272  0.2238
 7571SOL    HW134346   2.888   4.085  17.670 -1.1571  1.5459 -0.1597
 7571SOL    HW234347   2.801   4.088  17.552  1.8447 -0.5507 -0.7964
 7572SOL     OW34348   0.828   4.010   5.105 -0.4690 -0.1308  0.1132
 7572SOL    HW134349   0.757   3.954   5.136 -1.2920  0.8265 -0.0147
 7572SOL    HW234350   0.854   4.052   5.187 -1.6125  0.0219  0.3964
 7573SOL     OW34351   0.866   1.183   3.681  0.2477 -0.5459  0.2057
 7573SOL    HW134352   0.909   1.099   3.695 -3.4963 -2.7658 -1.4799
 7573SOL    HW234353   0.933   1.251   3.683  0.3856 -0.7763  2.7298
 7574SOL     OW34354   4.544   2.951   8.109 -0.2144 -0.0626  0.3032
 7574SOL    HW134355   4.536   2.896   8.187  2.5111 -0.0934  0.5931
 7574SOL    HW234356   4.632   2.991   8.109 -0.5635  0.6920 -0.4266
 7575SOL     OW34357   0.987   3.111   4.272 -0.0213  0.4810 -0.5797
 7575SOL    HW134358   0.954   3.054   4.342  0.6071  0.7801 -0.0340
 7575SOL    HW234359   1.076   3.077   4.261 -0.1555 -0.7226  2.0272
 7576SOL     OW34360   1.542   0.633   0.092  0.0807 -0.0167 -0.4066
 7576SOL    HW134361   1.588   0.695   0.148  1.9416  0.1396 -2.0900
 7576SOL    HW234362   1.488   0.586   0.155 -1.2060  1.7637 -0.1908
 7577SOL     OW34363   3.658   0.751   6.961  0.0141  0.0802 -0.0627
 7577SOL    HW134364   3.703   0.698   6.895 -0.0953 -1.9886  1.5211
 7577SOL    HW234365   3.724   0.743   7.029  0.3028 -1.3982 -0.5188
 7578SOL     OW34366   2.905   1.794   1.236  0.7362 -0.0766  0.1073
 7578SOL    HW134367   2.809   1.791   1.234  0.7281  0.1940  0.1915
 7578SOL    HW234368   2.933   1.706   1.210  0.8388 -0.6022  1.9978
 7579SOL     OW34369   4.424   4.424   9.628 -0.3233 -0.4062  0.3792
 7579SOL    HW134370   4.493   4.393   9.569  1.2114  1.6809  1.0725
 7579SOL    HW234371   4.447   4.516   9.614 -3.0191  0.6058  2.4754
 7580SOL     OW34372   3.115   3.532   9.089 -0.0978  0.7420  0.1727
 7580SOL    HW134373   3.071   3.447   9.084  1.6283 -0.1670  0.4748
 7580SOL    HW234374   3.078   3.580   9.164  1.7308 -0.7172  2.0235
 7581SOL     OW34375   2.241   4.313   0.578  0.6547  0.1210 -0.7249
 7581SOL    HW134376   2.297   4.383   0.611 -0.0865  1.4883 -2.3606
 7581SOL    HW234377   2.171   4.314   0.644  1.3686  0.1518  0.0283
 7582SOL     OW34378   0.533   3.775   6.541 -0.1021 -0.2545 -0.4191
 7582SOL    HW134379   0.582   3.706   6.586  0.1520  0.4374  0.3726
 7582SOL    HW234380   0.446   3.776   6.581  1.3376  0.1266  2.7089
 7583SOL     OW34381   2.899   2.035   6.756 -0.0613  0.1887 -0.1269
 7583SOL    HW134382   2.837   2.104   6.780  0.4237  0.5079  0.2315
 7583SOL    HW234383   2.895   2.045   6.661  1.0700  1.5564 -0.0392
 7584SOL     OW34384   2.214   2.458   3.268 -0.0639 -0.7906 -0.6394
 7584SOL    HW134385   2.235   2.524   3.202 -0.4922 -1.8726 -1.8630
 7584SOL    HW234386   2.194   2.390   3.203 -0.0525  0.1575 -1.6293
 7585SOL     OW34387   0.559   0.703   8.395  0.2531 -0.4230  0.6632
 7585SOL    HW134388   0.598   0.630   8.442  1.1439 -0.5958 -0.3535
 7585SOL    HW234389   0.522   0.653   8.322  1.5982  0.6098 -0.7079
 7586SOL     OW34390   1.814   3.861   1.459 -0.3394  0.0467  0.0462
 7586SOL    HW134391   1.731   3.877   1.415 -0.7341 -1.6225  0.1676
 7586SOL    HW234392   1.862   3.940   1.433 -1.3257  0.7501  0.3986
 7587SOL     OW34393   0.892   1.344   7.694 -0.5238  0.1278 -0.0091
 7587SOL    HW134394   0.805   1.356   7.732 -0.6620 -3.0148  0.6688
 7587SOL    HW234395   0.944   1.311   7.768 -0.8639 -1.4484 -0.4824
 7588SOL     OW34396   2.963   3.427  11.021 -0.3010 -0.5287  0.1741
 7588SOL    HW134397   2.981   3.338  11.051 -0.6060 -1.0863 -1.2880
 7588SOL    HW234398   2.871   3.412  10.999 -0.2144 -1.4091  0.4256
 7589SOL     OW34399   0.138   1.373  12.161  0.1914 -0.2498  0.1995
 7589SOL    HW134400   0.072   1.441  12.146  0.7722  0.6817  1.7794
 7589SOL    HW234401   0.200   1.406  12.226  1.1497 -2.4867  0.3962
 7590SOL     OW34402   3.630   2.939   7.527 -0.4131  0.3626  0.2548
 7590SOL    HW134403   3.562   2.872   7.527  0.7831 -0.8722 -1.6977
 7590SOL    HW234404   3.610   2.989   7.605 -0.2086 -1.7695  1.6619
 7591SOL     OW34405   4.213   2.191   8.836 -0.1620 -0.2362  0.2167
 7591SOL    HW134406   4.262   2.259   8.882  0.1572 -0.2036 -0.1718
 7591SOL    HW234407   4.202   2.122   8.901  0.2177  1.6331  2.2631
 7592SOL     OW34408   2.604   2.508  12.997 -0.0531 -0.5360 -0.4257
 7592SOL    HW134409   2.553   2.431  12.974 -2.2110  1.6259 -2.9486
 7592SOL    HW234410   2.605   2.572  12.925 -2.8659 -0.0477 -0.0239
 7593SOL     OW34411   0.601   3.160   3.392  0.1079 -0.0791  0.1097
 7593SOL    HW134412   0.649   3.084   3.425  4.0708  0.1810 -4.9088
 7593SOL    HW234413   0.629   3.219   3.462 -1.7675  0.1395  0.6874
 7594SOL     OW34414   1.125   3.640   1.955  0.0115  0.1259  0.4916
 7594SOL    HW134415   1.181   3.575   1.998 -0.3479  0.3260  1.2552
 7594SOL    HW234416   1.176   3.644   1.874  0.1043  0.6030  0.5784
 7595SOL     OW34417   1.090   4.312   5.759  0.1108  0.1020 -0.3078
 7595SOL    HW134418   1.053   4.251   5.695 -0.3582 -1.1989  1.2041
 7595SOL    HW234419   1.023   4.298   5.826  0.4705  0.3018  0.0937
 7596SOL     OW34420   2.755   1.769  13.474  0.5898  0.0399 -0.3905
 7596SOL    HW134421   2.846   1.744  13.489  1.3068  3.4673  0.9948
 7596SOL    HW234422   2.743   1.776  13.379  0.3351  1.7917 -0.2239
 7597SOL     OW34423   2.035   0.088   6.501 -0.4531 -0.1150 -0.1719
 7597SOL    HW134424   1.982   0.014   6.532 -0.9823  0.4184  0.1761
 7597SOL    HW234425   2.073   0.045   6.424  0.3203 -0.1031  0.1950
 7598SOL     OW34426   3.397   2.572   8.222  0.4297  0.0091 -0.1550
 7598SOL    HW134427   3.309   2.599   8.250  0.2640 -0.5093 -0.1721
 7598SOL    HW234428   3.451   2.599   8.296 -0.3476 -1.6975  1.0309
 7599SOL     OW34429   3.720   2.510   6.132 -0.1508 -0.1093  0.0378
 7599SOL    HW134430   3.799   2.525   6.183  2.1682 -2.1267 -2.9872
 7599SOL    HW234431   3.762   2.498   6.047  1.6755  0.2458  0.9040
 7600SOL     OW34432   3.212   1.567   5.478 -0.3581 -0.2448  0.3657
 7600SOL    HW134433   3.288   1.597   5.428 -0.7951 -1.3788 -0.9875
 7600SOL    HW234434   3.141   1.591   5.419 -0.9060 -1.6187  0.4652
 7601SOL     OW34435   3.696   0.637  17.215  0.0602 -0.2925 -0.0315
 7601SOL    HW134436   3.699   0.699  17.143  1.4965  0.1377  0.4053
 7601SOL    HW234437   3.714   0.690  17.293  0.6951  0.2363 -0.5468
 7602SOL     OW34438   2.889   3.551   6.852 -0.5100  0.0757  0.1566
 7602SOL    HW134439   2.859   3.550   6.761  1.4950 -1.7350 -0.4997
 7602SOL    HW234440   2.847   3.634   6.873 -0.8068  0.1148 -0.5585
 7603SOL     OW34441   0.784   3.992   9.141  0.0998  0.4411  0.0825
 7603SOL    HW134442   0.789   4.061   9.207 -2.7460 -1.0802  1.8702
 7603SOL    HW234443   0.749   3.930   9.205  0.5139  0.3376  0.2085
 7604SOL     OW34444   0.830   4.236   7.517  0.0705  0.8240  0.4668
 7604SOL    HW134445   0.840   4.301   7.447  0.2373  0.1157 -0.1604
 7604SOL    HW234446   0.925   4.227   7.529  0.1528 -0.6127 -1.3533
 7605SOL     OW34447   0.160   2.874   4.007 -0.0737 -0.2961  0.6406
 7605SOL    HW134448   0.206   2.809   3.954 -0.6137 -0.2255  0.0969
 7605SOL    HW234449   0.184   2.953   3.958  4.0907  0.2669  3.5459
 7606SOL     OW34450   1.799   4.040   2.159  0.7364  0.2163  0.3120
 7606SOL    HW134451   1.811   4.051   2.065  1.1119 -0.4001  0.2907
 7606SOL    HW234452   1.760   3.953   2.169  3.9628 -1.3747 -1.0357
 7607SOL     OW34453   2.417   0.348   1.427 -0.7084 -0.2862  0.2305
 7607SOL    HW134454   2.365   0.273   1.398 -0.5600  0.2638 -1.4499
 7607SOL    HW234455   2.348   0.414   1.442 -1.6410 -0.8843 -1.4208
 7608SOL     OW34456   3.288   4.041  17.133 -0.2426 -0.3091  1.4488
 7608SOL    HW134457   3.224   4.112  17.127 -0.5683 -0.7888 -0.8423
 7608SOL    HW234458   3.365   4.098  17.140  1.2401 -2.4660  2.6359
 7609SOL     OW34459   3.685   1.244   2.729  0.1913  0.3560  0.4946
 7609SOL    HW134460   3.680   1.199   2.644  1.1818  1.1085  0.0415
 7609SOL    HW234461   3.769   1.286   2.713 -1.3666  3.7892  1.3893
 7610SOL     OW34462   2.231   0.742   4.906 -0.2861  0.2226  0.5718
 7610SOL    HW134463   2.164   0.681   4.936 -0.1770 -0.3273 -0.3047
 7610SOL    HW234464   2.284   0.686   4.850  0.3875  0.2591  1.1645
 7611SOL     OW34465   3.888   1.610   2.946 -0.0153  0.0776 -0.5172
 7611SOL    HW134466   3.808   1.662   2.938 -0.0212  0.2883  0.7875
 7611SOL    HW234467   3.842   1.530   2.970  1.1818 -0.0497  1.4372
 7612SOL     OW34468   4.401   1.717  12.026  0.3634 -0.1600 -0.4732
 7612SOL    HW134469   4.354   1.650  11.977 -0.6539  0.2308 -0.0319
 7612SOL    HW234470   4.439   1.766  11.953  0.4089  1.7050  0.8046
 7613SOL     OW34471   0.123   2.743  13.436 -0.2647 -0.0976  0.4702
 7613SOL    HW134472   0.140   2.728  13.529  0.0545 -0.3625  0.3672
 7613SOL    HW234473   0.083   2.830  13.443  0.6382  0.2931  0.8213
 7614SOL     OW34474   2.609   2.405  17.279 -0.3585  0.5200  0.2310
 7614SOL    HW134475   2.564   2.486  17.254 -0.0048 -0.2132 -2.8120
 7614SOL    HW234476   2.695   2.437  17.250  1.1074 -2.9135  0.7733
 7615SOL     OW34477   2.003   2.673   5.429  0.1760 -0.1549  0.4030
 7615SOL    HW134478   2.084   2.722   5.413 -0.2534  0.4889  0.1884
 7615SOL    HW234479   1.941   2.746   5.433  0.2891 -0.1157  1.4081
 7616SOL     OW34480   3.585   3.305   5.676  1.0766 -0.5833 -0.1864
 7616SOL    HW134481   3.573   3.227   5.730 -1.2042  0.2457  0.5256
 7616SOL    HW234482   3.599   3.372   5.743 -0.2782 -0.5979  0.1104
 7617SOL     OW34483   1.521   3.071   4.712 -0.3420  0.6277  0.4032
 7617SOL    HW134484   1.517   3.097   4.804  2.4818  2.2119  0.0587
 7617SOL    HW234485   1.464   3.139   4.676 -0.2884  0.6762  0.4110
 7618SOL     OW34486   3.355   3.496   5.868  0.6078 -0.0237 -0.0744
 7618SOL    HW134487   3.342   3.442   5.946  0.3698 -0.2844 -0.2911
 7618SOL    HW234488   3.266   3.524   5.846  1.6615  2.3694 -1.3479
 7619SOL     OW34489   1.135   0.333   6.631 -0.1279  0.0585  0.2647
 7619SOL    HW134490   1.130   0.425   6.657  2.2192  0.3825 -0.4292
 7619SOL    HW234491   1.073   0.285   6.687 -1.3136  0.0678 -1.0311
 7620SOL     OW34492   3.728   0.349   3.983  0.3570 -0.6240  0.7262
 7620SOL    HW134493   3.733   0.443   3.998  1.1810 -0.4225 -0.8594
 7620SOL    HW234494   3.815   0.319   3.959  1.3724  1.1675  2.2028
 7621SOL     OW34495   3.835   4.159   2.554  0.5513  0.0337  0.4142
 7621SOL    HW134496   3.855   4.182   2.645  0.9510  0.2145  0.2809
 7621SOL    HW234497   3.764   4.099   2.574  0.5626  0.1381  0.7694
 7622SOL     OW34498   1.355   2.484   7.748  0.0327  0.4611  0.5193
 7622SOL    HW134499   1.444   2.456   7.770  0.0964  0.2657  0.0269
 7622SOL    HW234500   1.377   2.526   7.665  1.1751  1.5716  1.4045
 7623SOL     OW34501   1.161   0.012   2.099  0.3524  1.1237  0.1075
 7623SOL    HW134502   1.080   0.039   2.056  0.0699  0.8538  0.4693
 7623SOL    HW234503   1.213   0.091   2.088  1.8698 -0.0818 -1.2912
 7624SOL     OW34504   2.423   3.210   4.410 -0.3307  0.4189  0.7690
 7624SOL    HW134505   2.339   3.232   4.450 -0.8432 -0.0704 -0.0407
 7624SOL    HW234506   2.429   3.279   4.343 -1.9575 -0.4060 -0.2295
 7625SOL     OW34507   3.302   1.438   2.541 -0.3078  0.3369 -0.2588
 7625SOL    HW134508   3.346   1.355   2.561 -2.2301 -0.9770 -1.5294
 7625SOL    HW234509   3.237   1.396   2.485  0.2964  0.3544 -0.9730
 7626SOL     OW34510   2.617   0.832   3.420 -0.3042  0.1135  0.0634
 7626SOL    HW134511   2.666   0.759   3.381 -0.7689  0.2839 -0.8297
 7626SOL    HW234512   2.598   0.891   3.347  1.6755 -0.6233 -1.0723
 7627SOL     OW34513   1.404   0.535   7.842  0.7476  0.0932  0.3037
 7627SOL    HW134514   1.378   0.607   7.900  1.6437  0.1858  0.5923
 7627SOL    HW234515   1.343   0.467   7.871  2.1958 -1.6162 -0.7017
 7628SOL     OW34516   1.932   3.942   3.707  0.6642 -0.2868  0.0373
 7628SOL    HW134517   1.991   4.007   3.668 -1.7411  1.0801 -1.3386
 7628SOL    HW234518   1.874   3.930   3.631  0.2950 -2.3987  0.6714
 7629SOL     OW34519   4.086   4.194   4.489 -0.0543  0.1595 -0.0996
 7629SOL    HW134520   4.158   4.228   4.542  0.7795  0.6006 -1.5409
 7629SOL    HW234521   4.043   4.140   4.556 -0.1464  3.1827  2.3367
 7630SOL     OW34522   0.731   0.948   6.610  0.5114  0.1204  0.1194
 7630SOL    HW134523   0.761   1.037   6.590 -0.2967  0.7645  1.8322
 7630SOL    HW234524   0.684   0.916   6.533  0.0177 -1.2653  1.0032
 7631SOL     OW34525   1.317   3.586  15.367  0.0913  0.3441  0.1553
 7631SOL    HW134526   1.262   3.664  15.366  0.3105  0.4840 -0.8495
 7631SOL    HW234527   1.401   3.626  15.391  1.5971 -2.0678 -1.0385
 7632SOL     OW34528   0.352   0.006   3.110  0.6131 -0.2705  0.2802
 7632SOL    HW134529   0.425   0.032   3.167  1.5246 -1.3188 -0.3994
 7632SOL    HW234530   0.291   4.734   3.184  1.2733  2.0396  1.0966
 7633SOL     OW34531   4.080   0.479   3.623  0.0944 -0.1723  0.2156
 7633SOL    HW134532   3.989   0.447   3.621  0.2283 -0.6038  1.4161
 7633SOL    HW234533   4.060   0.571   3.605  1.7355  0.1346 -0.0281
 7634SOL     OW34534   3.053   4.356   2.826  0.0716  0.0594  0.0667
 7634SOL    HW134535   3.124   4.406   2.784 -0.8168  0.3524 -1.0843
 7634SOL    HW234536   3.062   4.377   2.919 -1.9289 -1.3819  0.5762
 7635SOL     OW34537   2.537   1.915   4.355 -0.0197 -0.5699  0.1687
 7635SOL    HW134538   2.536   1.850   4.426 -2.6586 -2.5957 -1.7268
 7635SOL    HW234539   2.572   1.995   4.395 -2.6075  1.8000 -2.3859
 7636SOL     OW34540   4.491   1.435   6.411 -0.0655 -0.1253 -0.5498
 7636SOL    HW134541   4.435   1.507   6.382  0.5567  0.1059 -1.1742
 7636SOL    HW234542   4.432   1.375   6.456  0.7637 -0.6813 -0.2115
 7637SOL     OW34543   0.508   1.653   8.922 -0.2938  0.5632 -0.0418
 7637SOL    HW134544   0.426   1.681   8.880  1.3754  0.8125 -3.1332
 7637SOL    HW234545   0.555   1.734   8.941  3.2739 -1.5154  0.0025
 7638SOL     OW34546   3.732   0.978  14.139 -0.3260 -0.1920  0.4429
 7638SOL    HW134547   3.798   0.991  14.071  0.2206  0.5455  1.1183
 7638SOL    HW234548   3.701   1.068  14.152 -1.1596 -0.5216  0.7205
 7639SOL     OW34549   2.340   1.645   3.202  0.0324  0.5019 -0.2031
 7639SOL    HW134550   2.306   1.564   3.165  2.7999  0.9082 -3.6411
 7639SOL    HW234551   2.430   1.616   3.212  0.6389  1.1381 -3.6484
 7640SOL     OW34552   0.316   3.747   8.259 -0.0883 -0.0796 -0.1679
 7640SOL    HW134553   0.308   3.829   8.309  0.8945 -0.5317  0.7304
 7640SOL    HW234554   0.412   3.738   8.253 -0.3808 -1.8778 -2.0324
 7641SOL     OW34555   3.052   3.774   6.400  0.6232  0.2072  0.2008
 7641SOL    HW134556   3.088   3.702   6.451 -0.0188  1.2743  2.1544
 7641SOL    HW234557   2.970   3.748   6.357  0.6398  0.8711 -0.2332
 7642SOL     OW34558   2.896   1.498   4.541  0.0860  0.2171 -0.3664
 7642SOL    HW134559   2.847   1.465   4.466  0.3808  1.7831 -1.2413
 7642SOL    HW234560   2.850   1.445   4.607  0.4510 -2.1295 -2.0090
 7643SOL     OW34561   3.172   2.839  14.716  0.2251  0.3408 -0.0895
 7643SOL    HW134562   3.114   2.897  14.765  3.6995  1.9910  2.0566
 7643SOL    HW234563   3.118   2.808  14.643  0.6444 -0.1466 -0.1962
 7644SOL     OW34564   2.869   2.828  17.295  0.5175 -0.3613  0.4171
 7644SOL    HW134565   2.883   2.862  17.207 -0.8545 -0.5819  0.1080
 7644SOL    HW234566   2.899   2.908  17.338  4.3107 -2.2340  1.2186
 7645SOL     OW34567   3.826   4.666   3.693  0.0562 -0.0783  0.6452
 7645SOL    HW134568   3.790   0.000   3.746 -3.2386  0.5106 -2.3956
 7645SOL    HW234569   3.879   4.695   3.620 -0.5303  1.0922  0.6819
 7646SOL     OW34570   1.834   3.211  15.452  0.5239 -0.4857  0.2293
 7646SOL    HW134571   1.766   3.186  15.515 -2.6324  0.4808 -2.8613
 7646SOL    HW234572   1.907   3.234  15.510  1.5741  0.2414 -1.3931
 7647SOL     OW34573   0.050   1.883   4.533  0.0939  0.4362 -0.3455
 7647SOL    HW134574   4.696   1.861   4.553  0.2805  0.2427  0.2784
 7647SOL    HW234575   0.109   1.833   4.590  0.2045  0.2117 -0.6595
 7648SOL     OW34576   1.572   2.100   6.503  0.1005 -0.4927 -0.0997
 7648SOL    HW134577   1.633   2.104   6.430 -0.1207 -1.6869 -0.3443
 7648SOL    HW234578   1.597   2.020   6.550  3.1473 -0.6426 -1.9917
 7649SOL     OW34579   4.301   4.094   6.601 -0.0005  0.0029  0.4385
 7649SOL    HW134580   4.247   4.028   6.559 -0.0290  0.4808 -0.2686
 7649SOL    HW234581   4.251   4.111   6.681 -2.7340 -0.3994 -1.2146
 7650SOL     OW34582   0.280   3.123   8.238 -0.6007  0.4565  0.0578
 7650SOL    HW134583   0.335   3.200   8.244  1.7119 -1.1685 -0.1716
 7650SOL    HW234584   0.234   3.126   8.322 -1.5686 -1.7248 -0.3814
 7651SOL     OW34585   1.308   1.542  13.858  0.7434  0.2313  0.0785
 7651SOL    HW134586   1.316   1.560  13.952 -2.9823  0.2435  0.3582
 7651SOL    HW234587   1.321   1.630  13.820 -0.5498 -0.6680 -2.4518
 7652SOL     OW34588   0.751   3.761  16.580 -0.7807  0.3119 -0.6985
 7652SOL    HW134589   0.743   3.828  16.648 -3.2732 -0.3797 -0.3102
 7652SOL    HW234590   0.730   3.680  16.627  2.3754 -0.1144 -0.0391
 7653SOL     OW34591   2.650   3.044   1.332 -0.4315  0.3197  0.0039
 7653SOL    HW134592   2.684   3.115   1.278  2.6381 -0.7896  0.4717
 7653SOL    HW234593   2.675   3.082   1.416  1.9146  0.1472 -0.6135
 7654SOL     OW34594   2.109   0.467   6.172 -0.1807  0.2877  0.8017
 7654SOL    HW134595   2.122   0.380   6.133 -0.9454  0.0492  1.0862
 7654SOL    HW234596   2.022   0.491   6.140  0.1983  0.6746  0.0525
 7655SOL     OW34597   3.466   4.254  17.146  0.2241 -0.3236  0.3072
 7655SOL    HW134598   3.557   4.283  17.154 -0.2373  1.7409 -2.1599
 7655SOL    HW234599   3.432   4.289  17.228  2.5152 -1.1842  1.6301
 7656SOL     OW34600   1.595   0.387  13.975  1.1641 -0.1525 -0.0585
 7656SOL    HW134601   1.620   0.334  14.051 -0.5844 -0.7241  0.1203
 7656SOL    HW234602   1.677   0.417  13.936  1.1265  1.3610  0.9981
 7657SOL     OW34603   2.957   2.585  13.228 -0.3470 -0.1938  0.3422
 7657SOL    HW134604   3.016   2.660  13.232  0.1334 -0.5322 -0.3506
 7657SOL    HW234605   3.007   2.520  13.178 -1.7111 -0.2575 -0.9150
 7658SOL     OW34606   2.910   0.806   4.629 -0.0697  0.4443 -0.0556
 7658SOL    HW134607   2.854   0.854   4.690  0.3246  0.9839 -0.1186
 7658SOL    HW234608   2.984   0.772   4.679 -1.1704 -0.3030  1.0690
 7659SOL     OW34609   0.556   1.969   2.829 -0.4621  1.1836 -0.3060
 7659SOL    HW134610   0.485   2.012   2.781 -2.0259  0.0369  0.9722
 7659SOL    HW234611   0.607   2.042   2.864 -0.3200  0.2414  1.4603
 7660SOL     OW34612   3.924   3.785   3.466 -0.4012  0.1617 -0.0548
 7660SOL    HW134613   3.844   3.749   3.506  0.8881 -0.6862  1.7733
 7660SOL    HW234614   3.890   3.807   3.380 -2.4911 -0.4776  0.5931
 7661SOL     OW34615   3.989   4.382   6.580  0.0041 -0.3741 -0.8014
 7661SOL    HW134616   3.912   4.410   6.530  1.0824  1.8120 -1.2564
 7661SOL    HW234617   3.962   4.425   6.660 -0.3513  0.4842 -1.3841
 7662SOL     OW34618   2.121   2.566   0.547 -0.1608 -0.3324 -0.0885
 7662SOL    HW134619   2.159   2.596   0.629 -2.0836 -1.4479  1.2158
 7662SOL    HW234620   2.051   2.626   0.520 -1.1754 -0.7895  1.5558
 7663SOL     OW34621   4.569   0.793   8.403  0.3692  0.5767 -0.2300
 7663SOL    HW134622   4.661   0.816   8.391  0.6610 -1.6163 -2.1753
 7663SOL    HW234623   4.528   0.832   8.325 -3.2947 -1.1580  0.8478
 7664SOL     OW34624   0.525   0.427  16.149 -0.7050  0.0569  0.6759
 7664SOL    HW134625   0.547   0.479  16.071  0.8802 -2.0473 -0.2848
 7664SOL    HW234626   0.440   0.388  16.130 -1.1411  1.2284  0.1930
 7665SOL     OW34627   2.992   0.960   4.114 -0.5448 -0.4279 -1.0573
 7665SOL    HW134628   3.080   0.992   4.132 -0.9672 -1.8220  3.7395
 7665SOL    HW234629   2.944   0.986   4.193 -1.1891  0.5645 -1.7773
 7666SOL     OW34630   2.546   3.614   3.092 -0.1490  0.0742 -0.4656
 7666SOL    HW134631   2.620   3.604   3.032  0.9376  1.7640  0.6067
 7666SOL    HW234632   2.483   3.547   3.067  2.5971 -2.1514 -1.4350
 7667SOL     OW34633   3.533   4.218  14.559 -0.6082 -0.6249 -0.1230
 7667SOL    HW134634   3.522   4.219  14.654  1.7330 -0.8700  0.1465
 7667SOL    HW234635   3.458   4.253  14.510 -0.7279  0.7514  1.0396
 7668SOL     OW34636   1.831   2.479   7.494 -0.4788 -0.3683 -0.0016
 7668SOL    HW134637   1.789   2.392   7.497  2.2360 -1.6162  1.3522
 7668SOL    HW234638   1.814   2.507   7.404  2.5335  1.4189  0.0028
 7669SOL     OW34639   4.135   4.024   9.639 -0.5082  0.0233 -0.0533
 7669SOL    HW134640   4.055   4.049   9.594 -0.5113  0.2369  0.0730
 7669SOL    HW234641   4.102   3.986   9.720  1.4420  0.4506  0.9680
 7670SOL     OW34642   3.807   2.050  11.198 -0.1718  0.0759  0.3751
 7670SOL    HW134643   3.876   2.039  11.133  0.4426 -1.7804  1.3618
 7670SOL    HW234644   3.829   1.989  11.268  0.0899 -0.2916 -0.0292
 7671SOL     OW34645   3.473   4.031  13.698  0.2138  0.3133  0.1357
 7671SOL    HW134646   3.460   4.068  13.785  0.1120 -1.3049  0.8141
 7671SOL    HW234647   3.448   3.943  13.724  3.5337  0.2641  3.2147
 7672SOL     OW34648   2.433   1.815   2.926 -0.0170 -0.3439 -0.5340
 7672SOL    HW134649   2.439   1.724   2.953 -0.6036 -0.2086  0.0550
 7672SOL    HW234650   2.516   1.832   2.881  1.1959 -0.0578  1.7706
 7673SOL     OW34651   0.353   3.600  13.322  0.3500  0.0550 -0.6477
 7673SOL    HW134652   0.326   3.686  13.289  0.7669  0.5559  0.3075
 7673SOL    HW234653   0.419   3.609  13.391  1.0151  1.5820 -1.4841
 7674SOL     OW34654   3.342   2.489   1.044  0.1116 -0.1132 -0.7922
 7674SOL    HW134655   3.297   2.406   1.060  0.2791 -0.1426 -0.4641
 7674SOL    HW234656   3.421   2.477   1.097 -0.5603 -0.6086  0.1085
 7675SOL     OW34657   0.249   1.906   3.540  0.1533  0.6259  0.6497
 7675SOL    HW134658   0.184   1.852   3.495  0.9888  0.2460 -0.1041
 7675SOL    HW234659   0.326   1.848   3.542  0.2564  0.6890 -0.8733
 7676SOL     OW34660   1.657   3.258   8.555 -0.0928 -0.1240  0.1905
 7676SOL    HW134661   1.727   3.323   8.552 -1.2457  1.0410 -1.1823
 7676SOL    HW234662   1.685   3.192   8.492 -3.8792 -1.5796  0.0460
 7677SOL     OW34663   3.234   3.012   9.852 -0.1138  0.0259 -0.0547
 7677SOL    HW134664   3.258   3.047   9.938 -2.9949 -0.2031  0.8678
 7677SOL    HW234665   3.278   2.928   9.856  0.1835  0.2218  0.6973
 7678SOL     OW34666   3.856   2.536  11.019 -0.0075 -0.0921 -0.4059
 7678SOL    HW134667   3.827   2.625  11.037  1.4290  0.4274 -0.6509
 7678SOL    HW234668   3.838   2.543  10.925  0.1358  0.6601 -0.3793
 7679SOL     OW34669   0.958   1.491   7.067 -0.0317  0.1309 -0.3783
 7679SOL    HW134670   0.936   1.539   6.987 -1.4934 -1.0869 -0.7104
 7679SOL    HW234671   0.935   1.404   7.035  1.9209  0.0281 -1.4701
 7680SOL     OW34672   2.687   2.985   2.446 -0.2540  0.0426  0.0757
 7680SOL    HW134673   2.700   3.035   2.366 -1.8331  0.3745  0.0224
 7680SOL    HW234674   2.737   2.908   2.419  0.8529  0.9570 -0.4630
 7681SOL     OW34675   1.864   4.490   3.049  0.6461  0.4990  0.0844
 7681SOL    HW134676   1.801   4.421   3.071  1.8239 -0.6609 -0.1665
 7681SOL    HW234677   1.897   4.470   2.961 -0.3920 -0.1329 -0.1685
 7682SOL     OW34678   2.585   4.401  11.512 -0.4583 -0.3964 -0.5589
 7682SOL    HW134679   2.501   4.418  11.553  0.7314  0.3633  1.5978
 7682SOL    HW234680   2.614   4.338  11.579 -2.7179 -0.5630  0.2641
 7683SOL     OW34681   4.191   3.775   9.571 -0.0222 -0.4968 -0.0940
 7683SOL    HW134682   4.161   3.860   9.605  1.1131 -0.1354 -0.0014
 7683SOL    HW234683   4.279   3.765   9.607 -0.3169 -0.1306  0.7425
 7684SOL     OW34684   0.498   3.718   4.963 -0.1908 -0.0345  0.4603
 7684SOL    HW134685   0.559   3.762   5.024 -0.6200  1.5181 -0.2204
 7684SOL    HW234686   0.477   3.637   5.010 -0.7398 -0.4915 -0.5851
 7685SOL     OW34687   3.981   0.195  11.821  0.5578  0.3452 -0.0414
 7685SOL    HW134688   4.036   0.246  11.881  0.0777  0.8537 -0.0358
 7685SOL    HW234689   3.907   0.162  11.873 -0.4643 -0.9541 -2.3109
 7686SOL     OW34690   0.904   0.609   3.955  0.2156 -0.2600 -0.2117
 7686SOL    HW134691   0.900   0.530   3.901 -1.6772 -1.0449  1.0932
 7686SOL    HW234692   0.815   0.638   3.939  0.5679  1.6303  1.2769
 7687SOL     OW34693   4.532   1.926   8.660 -0.1207  0.7085 -0.0184
 7687SOL    HW134694   4.508   1.973   8.741  0.8300 -0.7404  1.1036
 7687SOL    HW234695   4.517   1.835   8.684  0.6184  1.1647  2.2232
 7688SOL     OW34696   4.621   2.722   6.973  0.7888 -0.3953 -0.1901
 7688SOL    HW134697   4.698   2.725   7.029 -0.3683 -2.6514  1.5332
 7688SOL    HW234698   4.656   2.737   6.885 -0.6194  0.3377 -0.6289
 7689SOL     OW34699   3.295   0.369   7.755 -0.7930  0.3405  0.1479
 7689SOL    HW134700   3.282   0.287   7.707 -0.5007  0.4275 -0.0762
 7689SOL    HW234701   3.209   0.372   7.798  1.3967 -0.7277  4.5932
 7690SOL     OW34702   4.661   2.280   8.748  0.1991 -0.1834  0.1405
 7690SOL    HW134703   4.645   2.191   8.781 -0.7967 -0.0194  0.0926
 7690SOL    HW234704   0.019   2.273   8.750  0.2711  0.7880 -0.1953
 7691SOL     OW34705   3.111   4.149   7.688 -0.0622 -0.4276 -0.1447
 7691SOL    HW134706   3.159   4.157   7.605  0.9879  0.1105  0.5139
 7691SOL    HW234707   3.086   4.057   7.692 -0.9353 -0.1566  0.7990
 7692SOL     OW34708   2.633   4.095   5.308 -0.4668 -0.3579 -0.3924
 7692SOL    HW134709   2.673   4.050   5.382  1.9818  0.5598 -1.1719
 7692SOL    HW234710   2.579   4.024   5.274  0.6272 -1.8343  0.9765
 7693SOL     OW34711   0.599   1.102   9.366  0.9662  0.2490  0.0070
 7693SOL    HW134712   0.526   1.150   9.406  0.5744 -0.2352 -0.1336
 7693SOL    HW234713   0.602   1.138   9.277 -0.6677  0.4809  0.0480
 7694SOL     OW34714   3.835   3.068   2.484 -0.3114 -0.4418 -0.0349
 7694SOL    HW134715   3.825   3.141   2.422  0.2238  1.1725  1.7707
 7694SOL    HW234716   3.892   3.010   2.434  1.4510  1.5986 -0.4288
 7695SOL     OW34717   1.037   1.646   9.682 -0.0041  0.0369  0.7106
 7695SOL    HW134718   1.057   1.638   9.589 -0.3498 -0.7055  0.7025
 7695SOL    HW234719   1.116   1.693   9.711  1.8202 -2.0295 -0.9302
 7696SOL     OW34720   4.734   3.431   5.216  0.0383 -0.2878 -0.0106
 7696SOL    HW134721   0.018   3.337   5.216 -0.0150 -0.3111  2.5407
 7696SOL    HW234722   4.705   3.449   5.127  2.2022  1.5249 -0.3267
 7697SOL     OW34723   4.467   1.295   2.284  0.6143 -0.2518  0.8172
 7697SOL    HW134724   4.531   1.242   2.237  0.5806 -0.0210  0.5124
 7697SOL    HW234725   4.490   1.387   2.268 -0.9243 -0.0099 -0.0570
 7698SOL     OW34726   4.081   4.213   8.743 -0.2503  0.6479 -0.0340
 7698SOL    HW134727   4.046   4.266   8.815  1.2160  1.4837  0.0595
 7698SOL    HW234728   4.173   4.237   8.741  0.4026 -1.9234 -0.1705
 7699SOL     OW34729   4.668   4.128   5.637  0.4430  0.2422 -0.7051
 7699SOL    HW134730   0.015   4.164   5.667  1.8997 -1.3176 -2.9311
 7699SOL    HW234731   4.640   4.093   5.721 -0.5118 -0.8528 -1.4937
 7700SOL     OW34732   3.529   4.635   5.382  0.4964  0.2737  0.2287
 7700SOL    HW134733   3.479   4.599   5.456 -0.1292 -0.2013 -0.4330
 7700SOL    HW234734   3.607   4.663   5.430 -0.0708 -0.3842  1.5299
 7701SOL     OW34735   3.525   1.234  11.465 -0.3829 -0.0609 -0.0852
 7701SOL    HW134736   3.575   1.197  11.392 -2.7270  0.6254 -2.0460
 7701SOL    HW234737   3.558   1.178  11.535 -2.0029  0.4150  1.0683
 7702SOL     OW34738   2.609   3.256  13.557 -0.3725  0.7767  0.9395
 7702SOL    HW134739   2.564   3.286  13.478  0.5342 -0.7158 -0.1460
 7702SOL    HW234740   2.597   3.161  13.561 -0.8791  0.7624 -1.0235
 7703SOL     OW34741   1.397   2.281   7.277  0.2023 -0.2295 -0.3957
 7703SOL    HW134742   1.379   2.371   7.249 -0.4822 -0.7561 -1.6508
 7703SOL    HW234743   1.324   2.267   7.337 -0.9204 -0.4003 -1.7884
 7704SOL     OW34744   0.893   1.659   7.488 -0.5807 -0.3302 -0.3235
 7704SOL    HW134745   0.942   1.657   7.406 -1.1720 -0.4597 -0.6735
 7704SOL    HW234746   0.840   1.738   7.483  1.9625  1.3476 -0.6780
 7705SOL     OW34747   1.492   0.915   8.519  0.1093 -0.3088 -0.0120
 7705SOL    HW134748   1.538   0.910   8.435 -1.1853 -2.1835 -0.5972
 7705SOL    HW234749   1.417   0.964   8.483 -1.3568 -1.1648  1.9176
 7706SOL     OW34750   2.096   3.155   1.778 -0.4110  0.7616  0.0441
 7706SOL    HW134751   2.142   3.163   1.861  1.9499 -0.7019 -1.1306
 7706SOL    HW234752   2.142   3.081   1.738 -1.2266  0.4891 -0.3882
 7707SOL     OW34753   0.457   0.050   9.118  0.0543 -0.1797  0.3613
 7707SOL    HW134754   0.548   0.025   9.103 -0.1621 -0.4547 -0.4965
 7707SOL    HW234755   0.464   0.117   9.187 -2.2165 -0.1011  0.5223
 7708SOL     OW34756   3.345   0.341  10.473 -0.0831  0.1428 -0.1664
 7708SOL    HW134757   3.363   0.417  10.528 -0.6901  0.1290  0.0484
 7708SOL    HW234758   3.381   0.273  10.531 -1.3433 -1.2861 -1.0797
 7709SOL     OW34759   0.185   2.487   6.019 -0.8396  0.1617 -0.1149
 7709SOL    HW134760   0.240   2.446   5.953  0.2778  0.1530  0.8174
 7709SOL    HW234761   0.096   2.456   6.001 -1.3308 -0.1283  2.8063
 7710SOL     OW34762   0.114   3.144   8.472  0.3502 -0.2973  0.4204
 7710SOL    HW134763   0.019   3.138   8.467  0.2262  0.9252  1.2337
 7710SOL    HW234764   0.132   3.065   8.523  0.2208  0.0663  1.0317
 7711SOL     OW34765   0.843   3.723   8.194 -0.4085 -0.0803  0.1826
 7711SOL    HW134766   0.806   3.694   8.111  1.6166  1.7389 -1.3856
 7711SOL    HW234767   0.905   3.785   8.155  0.7950 -0.8477  0.8875
 7712SOL     OW34768   3.548   0.770   0.223 -0.3828 -0.0900  0.2684
 7712SOL    HW134769   3.502   0.836   0.172 -0.2793 -1.2801 -1.3521
 7712SOL    HW234770   3.539   0.813   0.308 -0.5634  0.9655 -0.2802
 7713SOL     OW34771   0.674   2.468   8.452 -0.1819 -0.0609 -0.5327
 7713SOL    HW134772   0.656   2.476   8.545 -2.0555  0.2496 -0.9185
 7713SOL    HW234773   0.765   2.498   8.447 -0.0910 -0.6485 -2.5800
 7714SOL     OW34774   3.491   0.706  10.555  0.2392  0.0803  0.1126
 7714SOL    HW134775   3.398   0.725  10.546  0.6927  1.3616 -1.9564
 7714SOL    HW234776   3.484   0.634  10.617  2.0412 -0.9295 -0.8466
 7715SOL     OW34777   3.459   0.943   2.221 -0.1358 -0.5405 -0.0808
 7715SOL    HW134778   3.367   0.918   2.212 -0.2214 -0.2219 -0.0728
 7715SOL    HW234779   3.499   0.856   2.225  3.1401  1.0215  1.2300
 7716SOL     OW34780   0.649   1.941  10.377 -0.6799 -0.1298  0.1386
 7716SOL    HW134781   0.719   1.979  10.324 -0.7583  0.4004  0.4189
 7716SOL    HW234782   0.636   1.863  10.321 -1.3391 -0.5838  0.9215
 7717SOL     OW34783   0.141   0.513   3.697  0.8369 -0.0864  0.0223
 7717SOL    HW134784   0.101   0.521   3.610  0.7406 -1.0757 -0.0231
 7717SOL    HW234785   0.153   0.607   3.711  3.9686 -0.5931  0.7827
 7718SOL     OW34786   0.929   4.103  15.143  0.3972 -0.1733  0.2220
 7718SOL    HW134787   0.849   4.135  15.101  0.2393 -1.6085 -0.5602
 7718SOL    HW234788   0.889   4.083  15.228  0.1456  1.4902  0.4942
 7719SOL     OW34789   3.598   0.120   6.403 -0.8448 -0.5036 -0.1721
 7719SOL    HW134790   3.553   0.127   6.318 -1.8311  1.2598  0.5020
 7719SOL    HW234791   3.564   0.202   6.440  1.5078 -0.3050  1.5267
 7720SOL     OW34792   3.263   0.229   2.353 -0.7212  0.9027 -0.0267
 7720SOL    HW134793   3.353   0.246   2.324  0.0466  0.4335  2.0776
 7720SOL    HW234794   3.218   0.279   2.285 -3.4011 -1.6410 -0.1022
 7721SOL     OW34795   3.572   2.934   4.358 -1.0247 -0.0659 -0.1601
 7721SOL    HW134796   3.607   2.992   4.290  1.3231  1.7123  2.5673
 7721SOL    HW234797   3.553   2.995   4.429  1.1310  2.5941 -1.8590
 7722SOL     OW34798   3.776   3.380  16.087  0.0803 -0.5266  0.0747
 7722SOL    HW134799   3.823   3.367  16.005  0.0511  1.4254 -0.2551
 7722SOL    HW234800   3.693   3.353  16.049 -0.3665 -0.9957  1.3824
 7723SOL     OW34801   2.574   3.228   6.050 -0.7713 -0.2503  0.5428
 7723SOL    HW134802   2.645   3.291   6.037 -0.4257 -0.8707 -0.6298
 7723SOL    HW234803   2.620   3.143   6.054  0.5464  0.5865  3.2301
 7724SOL     OW34804   1.859   0.380   2.563 -0.2762 -0.3461  0.3710
 7724SOL    HW134805   1.819   0.293   2.569  1.4218 -1.1523 -0.1133
 7724SOL    HW234806   1.865   0.405   2.656 -1.3568 -0.7879  0.5530
 7725SOL     OW34807   0.315   4.094   7.607 -0.3329  0.2580  0.1115
 7725SOL    HW134808   0.336   4.035   7.679  0.5556  0.0084 -0.3588
 7725SOL    HW234809   0.393   4.149   7.606  0.6286 -1.1322 -1.1770
 7726SOL     OW34810   0.808   3.342  16.107 -0.1930  0.2655  0.3329
 7726SOL    HW134811   0.769   3.426  16.129 -3.1031 -0.6757 -1.2752
 7726SOL    HW234812   0.838   3.307  16.191  0.5947 -1.5868 -0.7200
 7727SOL     OW34813   2.434   2.296   3.941  0.3930  0.8787 -0.0698
 7727SOL    HW134814   2.391   2.313   3.858  0.4962  0.8967 -0.1198
 7727SOL    HW234815   2.527   2.314   3.927  1.5223 -3.2628  2.0786
 7728SOL     OW34816   3.223   3.586  17.191 -0.1203 -0.2903  0.4439
 7728SOL    HW134817   3.260   3.666  17.228  0.7154 -0.2641 -0.4612
 7728SOL    HW234818   3.138   3.582  17.235  0.1096 -1.1589  0.8193
 7729SOL     OW34819   0.218   1.442   6.393  0.2038 -0.4831 -0.1096
 7729SOL    HW134820   0.244   1.402   6.311  1.2498 -0.2398  0.1057
 7729SOL    HW234821   0.260   1.382   6.455 -2.0992 -1.4641  0.4996
 7730SOL     OW34822   0.274   4.168   8.929 -0.4115  0.4369  0.5614
 7730SOL    HW134823   0.207   4.205   8.986 -1.0932  0.3502 -0.1820
 7730SOL    HW234824   0.301   4.093   8.982  1.3304  1.8183  1.5988
 7731SOL     OW34825   2.157   1.277  11.786  0.0159 -0.1863 -0.5303
 7731SOL    HW134826   2.233   1.263  11.843 -0.0570 -1.2112 -0.6917
 7731SOL    HW234827   2.199   1.319  11.712  1.7075  0.9818  1.0835
 7732SOL     OW34828   3.347   1.675   7.539  0.7830 -0.0833 -0.8472
 7732SOL    HW134829   3.432   1.634   7.555  2.5739  3.4624 -1.2134
 7732SOL    HW234830   3.308   1.695   7.625  1.5651  0.5652 -0.6426
 7733SOL     OW34831   1.056   4.563  16.101 -0.1795  0.2784  0.1101
 7733SOL    HW134832   0.988   4.583  16.165 -0.3969  1.3616 -0.4746
 7733SOL    HW234833   1.060   4.644  16.051  1.5160 -1.0431 -1.8967
 7734SOL     OW34834   2.396   3.799  11.889  0.3465 -0.1038 -0.2630
 7734SOL    HW134835   2.489   3.798  11.865  0.1347 -0.7390 -1.0574
 7734SOL    HW234836   2.406   3.778  11.982 -3.3476  0.1283  0.1693
 7735SOL     OW34837   4.178   0.433   6.884  0.0423  0.1133  0.1043
 7735SOL    HW134838   4.188   0.499   6.953  1.8168  0.4816 -0.5154
 7735SOL    HW234839   4.108   0.376   6.916  1.2753 -0.1136  2.3753
 7736SOL     OW34840   4.235   3.560   5.625 -0.1444 -0.1830 -0.0011
 7736SOL    HW134841   4.230   3.513   5.709  2.4318  1.4675  1.0787
 7736SOL    HW234842   4.172   3.628   5.647 -1.1082 -1.1257  0.1858
 7737SOL     OW34843   3.673   4.071   3.697  0.7539 -0.6167 -0.4488
 7737SOL    HW134844   3.765   4.061   3.721 -0.1814  0.4757  3.6419
 7737SOL    HW234845   3.634   4.023   3.770 -0.6759  1.6011  0.2565
 7738SOL     OW34846   1.725   1.035   0.963  0.6467 -0.2782  0.3526
 7738SOL    HW134847   1.650   0.984   0.993 -0.2257 -0.2644 -1.8484
 7738SOL    HW234848   1.715   1.126   0.989 -0.1745 -0.1725 -0.3455
 7739SOL     OW34849   2.601   1.977   5.041  0.0294  0.3046  0.0352
 7739SOL    HW134850   2.691   1.980   5.010  1.1953 -0.1606  3.3520
 7739SOL    HW234851   2.612   1.955   5.134 -0.0609  0.2394  0.0306
 7740SOL     OW34852   3.207   0.538  14.925  0.0136  0.3626  0.4163
 7740SOL    HW134853   3.201   0.456  14.974  1.0729 -0.2328 -0.4533
 7740SOL    HW234854   3.116   0.544  14.898 -1.0912  0.1603  4.1112
 7741SOL     OW34855   1.453   3.820   0.256 -0.3804  0.0260  0.2583
 7741SOL    HW134856   1.490   3.735   0.231  0.6356  0.6724 -0.4738
 7741SOL    HW234857   1.361   3.797   0.258 -1.0762  2.9786  2.2424
 7742SOL     OW34858   3.972   3.949  13.311  0.4496 -0.2875 -0.4138
 7742SOL    HW134859   3.877   3.940  13.318  0.3254 -0.0196 -1.7042
 7742SOL    HW234860   4.007   3.947  13.400 -1.3598  0.8227  0.3168
 7743SOL     OW34861   2.226   3.114   2.826 -0.1745  0.0997 -0.8577
 7743SOL    HW134862   2.197   3.183   2.767 -3.6410 -0.7324 -0.0856
 7743SOL    HW234863   2.285   3.163   2.883 -0.8838 -1.7392  1.4679
 7744SOL     OW34864   0.570   4.376   1.274  0.9463  0.2341  0.4426
 7744SOL    HW134865   0.520   4.299   1.303  1.5034 -0.2024  0.2365
 7744SOL    HW234866   0.512   4.448   1.299  1.3159  0.4599  0.6312
 7745SOL     OW34867   3.496   3.169   2.518  0.2946 -0.5429  0.7710
 7745SOL    HW134868   3.546   3.154   2.438 -0.3970  1.7570 -0.1153
 7745SOL    HW234869   3.478   3.078   2.541 -0.8244 -0.2683  0.9868
 7746SOL     OW34870   2.185   2.240   4.492  0.4923  0.3362 -0.3903
 7746SOL    HW134871   2.253   2.257   4.427  1.0678  0.1830  0.1622
 7746SOL    HW234872   2.142   2.324   4.506  0.2492  0.0367  0.6386
 7747SOL     OW34873   0.827   2.198   3.930 -0.0960  0.3017  0.0996
 7747SOL    HW134874   0.917   2.164   3.933 -0.0611  0.2979 -1.1445
 7747SOL    HW234875   0.823   2.240   4.016  1.6517 -0.8221  0.7501
 7748SOL     OW34876   4.690   3.907   7.336  0.2536  0.4196  0.0648
 7748SOL    HW134877   4.717   3.843   7.269 -0.8175 -1.5298  1.5034
 7748SOL    HW234878   4.726   3.873   7.418  1.0498  0.8467 -0.1061
 7749SOL     OW34879   0.674   0.080   5.303  0.0964  0.1177 -0.2558
 7749SOL    HW134880   0.748   0.120   5.257 -1.6274  1.2148 -2.1045
 7749SOL    HW234881   0.660   0.155   5.361 -0.8192  0.7561 -1.3053
 7750SOL     OW34882   4.147   4.689   1.525  0.5490 -0.7566  0.3018
 7750SOL    HW134883   4.057   4.721   1.519  0.0998 -1.5908  2.4405
 7750SOL    HW234884   4.135   4.649   1.438  0.8385  0.6140 -0.3688
 7751SOL     OW34885   1.667   3.931   0.023  0.2485  0.1248  0.2954
 7751SOL    HW134886   1.713   4.002  17.724 -1.0171  0.8846  0.1912
 7751SOL    HW234887   1.644   3.975   0.105  0.2439 -0.3075  0.5246
 7752SOL     OW34888   4.555   2.950   4.827  0.1699  0.1218 -0.6548
 7752SOL    HW134889   4.639   2.981   4.860 -0.1804  1.7949 -1.3591
 7752SOL    HW234890   4.581   2.872   4.778  2.9154  0.0665  0.8885
 7753SOL     OW34891   2.367   2.001  11.043  0.3839 -0.4752 -0.6749
 7753SOL    HW134892   2.424   2.060  10.993 -1.9772  2.3959  0.0650
 7753SOL    HW234893   2.317   2.069  11.087 -0.1198 -1.8700  0.8744
 7754SOL     OW34894   4.497   4.699   9.781 -0.1021  0.2184  0.3650
 7754SOL    HW134895   4.567   0.003   9.731 -1.8690  0.6443 -1.7571
 7754SOL    HW234896   4.545   4.620   9.807  0.3709  0.5943  0.6343
 7755SOL     OW34897   3.263   0.430   8.136  0.2962 -0.2100 -0.0605
 7755SOL    HW134898   3.302   0.417   8.222 -0.9457 -0.0269  0.5298
 7755SOL    HW234899   3.172   0.407   8.151  0.3934 -0.8971 -0.5421
 7756SOL     OW34900   3.196   1.413   0.045  0.3117 -0.0272  0.0699
 7756SOL    HW134901   3.165   1.454   0.126 -2.2452  0.6122 -1.2055
 7756SOL    HW234902   3.178   1.484  17.728 -1.4732 -0.2611  0.3219
 7757SOL     OW34903   1.905   2.238   9.173  0.5532 -0.4753 -0.1362
 7757SOL    HW134904   1.913   2.252   9.268  1.6149  0.0525 -0.3058
 7757SOL    HW234905   1.955   2.314   9.144 -0.3656  0.2898  0.2659
 7758SOL     OW34906   0.902   1.931   5.673  0.8981 -0.4551  0.2686
 7758SOL    HW134907   0.997   1.930   5.673  0.9070  1.8205 -1.2843
 7758SOL    HW234908   0.896   1.997   5.742  0.6655 -1.4152  1.1799
 7759SOL     OW34909   2.838   4.283   0.169 -0.2043 -0.3367 -0.3830
 7759SOL    HW134910   2.907   4.247   0.115  1.2682 -1.1026  2.0002
 7759SOL    HW234911   2.803   4.201   0.207 -0.7035 -0.3685 -0.9065
 7760SOL     OW34912   3.405   2.388   8.011  0.0063  0.2698  0.5409
 7760SOL    HW134913   3.431   2.467   8.059 -2.1042 -0.2141  2.4759
 7760SOL    HW234914   3.487   2.338   8.015  0.5447  1.2487  1.6978
 7761SOL     OW34915   4.458   0.887   8.181 -0.0128 -0.1968 -0.0324
 7761SOL    HW134916   4.466   0.797   8.148 -1.4802  0.0369 -1.0520
 7761SOL    HW234917   4.370   0.884   8.217 -0.2500  2.0655 -0.4267
 7762SOL     OW34918   4.191   2.001   4.801 -0.0303 -0.4486 -0.4040
 7762SOL    HW134919   4.139   2.068   4.757 -0.0995  0.4584  1.0634
 7762SOL    HW234920   4.121   1.970   4.858 -0.8044  2.2859  0.1239
 7763SOL     OW34921   1.349   0.073  11.997 -0.0490  0.4689 -0.6750
 7763SOL    HW134922   1.396   0.005  12.046 -0.4759  0.6575 -0.0152
 7763SOL    HW234923   1.312   0.121  12.070 -0.7201 -0.9422 -0.0785
 7764SOL     OW34924   0.943   3.248   7.282  0.0186  0.2811 -0.2460
 7764SOL    HW134925   0.961   3.323   7.226 -0.2489  0.8820  0.4770
 7764SOL    HW234926   0.988   3.178   7.234 -0.1255 -1.0644  1.5928
 7765SOL     OW34927   4.195   2.669   9.575  0.3731  0.2625 -0.5534
 7765SOL    HW134928   4.237   2.614   9.509 -0.9702 -1.0357 -0.3267
 7765SOL    HW234929   4.262   2.686   9.642 -1.0514  1.4703  0.5797
 7766SOL     OW34930   4.593   1.388   2.897 -0.2139 -0.3486  0.0973
 7766SOL    HW134931   4.679   1.394   2.938  0.8251  0.1299 -2.1118
 7766SOL    HW234932   4.575   1.478   2.868  2.9369  0.1438 -0.3432
 7767SOL     OW34933   4.104   2.633   1.935  0.6642  0.4465  0.2847
 7767SOL    HW134934   4.110   2.540   1.915 -0.6816  0.0186  1.8473
 7767SOL    HW234935   4.120   2.630   2.029  3.0961  1.7915 -0.0831
 7768SOL     OW34936   2.415   4.490   9.058  0.1562 -0.3285  0.1714
 7768SOL    HW134937   2.458   4.442   9.129 -0.9811 -0.3427  0.8619
 7768SOL    HW234938   2.490   4.544   9.035  0.5207 -0.5279  0.9088
 7769SOL     OW34939   2.104   4.318   5.608  0.6217 -0.4766 -0.4956
 7769SOL    HW134940   2.185   4.358   5.577  0.2648  1.2388  0.7492
 7769SOL    HW234941   2.139   4.277   5.687  0.6654 -0.4040 -0.4774
 7770SOL     OW34942   0.230   3.333  16.806  0.0233 -0.3023 -0.4943
 7770SOL    HW134943   0.298   3.386  16.765 -0.3295  0.3380 -0.2492
 7770SOL    HW234944   0.220   3.379  16.889 -1.0929  0.5773 -1.1213
 7771SOL     OW34945   1.360   1.086  11.945 -0.4293  0.2481  0.2223
 7771SOL    HW134946   1.322   1.079  11.858 -1.4418  2.6509  0.4746
 7771SOL    HW234947   1.443   1.133  11.931 -0.8782  0.6545 -1.0518
 7772SOL     OW34948   4.030   0.218   7.019 -0.6544  0.1265 -0.3097
 7772SOL    HW134949   4.058   0.146   7.076 -1.6760 -0.0203  0.0139
 7772SOL    HW234950   3.960   0.249   7.077  0.1646 -1.6443  1.6521
 7773SOL     OW34951   2.441   3.850   5.346  0.3705 -0.4674  0.4128
 7773SOL    HW134952   2.411   3.822   5.260  0.1698  0.1325  0.2875
 7773SOL    HW234953   2.455   3.762   5.382 -3.6403 -1.2542  0.0141
 7774SOL     OW34954   1.130   3.749   5.276 -0.4525  0.4002  0.3915
 7774SOL    HW134955   1.074   3.775   5.349 -2.7283 -0.8370 -0.9245
 7774SOL    HW234956   1.075   3.683   5.234  1.0093  0.5728 -1.7674
 7775SOL     OW34957   1.383   1.518   9.028  0.3758 -0.1164 -0.2491
 7775SOL    HW134958   1.337   1.520   9.112 -2.8364  0.1178 -2.0505
 7775SOL    HW234959   1.362   1.430   8.996  0.2724  0.3751 -1.5140
 7776SOL     OW34960   2.391   1.000  11.791  0.1428 -0.2814  1.0185
 7776SOL    HW134961   2.403   1.050  11.872  2.1088 -0.2769  0.7092
 7776SOL    HW234962   2.298   1.020  11.784  0.2411  0.3317  1.4725
 7777SOL     OW34963   2.241   4.636   5.213  0.0839 -0.2041 -0.3389
 7777SOL    HW134964   2.282   4.650   5.298  0.1809 -2.1636 -0.0652
 7777SOL    HW234965   2.189   4.715   5.196 -0.8660 -0.7520  0.0346
 7778SOL     OW34966   1.207   2.348   6.768  0.5548  0.1263 -0.4573
 7778SOL    HW134967   1.199   2.339   6.863 -0.4461 -1.1320 -0.6686
 7778SOL    HW234968   1.138   2.405   6.733 -0.0877 -1.6939 -2.1065
 7779SOL     OW34969   0.253   4.029   4.916 -0.2888 -0.3075 -0.0968
 7779SOL    HW134970   0.271   3.968   4.845 -1.9446  0.3396 -1.0664
 7779SOL    HW234971   0.287   3.987   4.996  1.6441 -0.3511 -0.9532
 7780SOL     OW34972   0.310   3.738  16.761 -0.3188 -0.0886  0.6815
 7780SOL    HW134973   0.278   3.681  16.831 -0.5863 -0.2207  0.4490
 7780SOL    HW234974   0.246   3.808  16.777  0.6215  0.8602  0.3506
 7781SOL     OW34975   0.860   3.486   3.658  0.3327  0.3371  0.2440
 7781SOL    HW134976   0.878   3.570   3.700  0.6747  1.8100 -2.8509
 7781SOL    HW234977   0.943   3.466   3.615  0.7678 -2.5476  2.4442
 7782SOL     OW34978   1.166   0.018   5.329 -0.0034  0.5900 -0.3225
 7782SOL    HW134979   1.088   0.011   5.385  0.9164 -3.4642  0.4123
 7782SOL    HW234980   1.228   4.730   5.397 -1.5656 -0.8701  0.5542
 7783SOL     OW34981   1.451   3.907  15.726  0.3056  0.4692 -0.1712
 7783SOL    HW134982   1.540   3.944  15.724  0.0192  1.3219  2.6021
 7783SOL    HW234983   1.427   3.932  15.815 -0.1885  0.3131 -0.2619
 7784SOL     OW34984   2.786   2.394   8.450  0.1830  0.4268  0.0386
 7784SOL    HW134985   2.774   2.414   8.358  1.0855 -1.7556 -0.5466
 7784SOL    HW234986   2.837   2.470   8.477 -0.0354  1.2908 -2.0745
 7785SOL     OW34987   2.511   1.898  17.368 -0.2033 -0.2882  0.0543
 7785SOL    HW134988   2.445   1.967  17.374 -1.5945 -1.7810  1.6711
 7785SOL    HW234989   2.586   1.936  17.413 -0.2560 -0.2977  0.1500
 7786SOL     OW34990   0.269   0.774   9.725 -0.1980 -0.7510 -0.0980
 7786SOL    HW134991   0.242   0.865   9.735  2.2578 -0.0921  0.6799
 7786SOL    HW234992   0.208   0.739   9.660 -0.9158  2.1570 -0.9704
 7787SOL     OW34993   0.989   0.605   3.282  0.2529  0.0315 -0.4917
 7787SOL    HW134994   0.948   0.682   3.321 -2.1073 -2.1151  1.2650
 7787SOL    HW234995   0.927   0.539   3.313  1.9740 -1.1231  0.4608
 7788SOL     OW34996   3.034   2.894   6.983  1.0405  0.1294 -0.3674
 7788SOL    HW134997   3.042   2.859   7.071  0.5556  3.3717  0.9303
 7788SOL    HW234998   3.052   2.986   6.999  2.8772 -0.3697  0.3714
 7789SOL     OW34999   3.942   2.563   9.670  0.0953  0.7377  0.3749
 7789SOL    HW135000   3.971   2.472   9.668 -1.2062  0.3283 -0.0412
 7789SOL    HW235001   4.025   2.608   9.655  1.0171 -1.3739 -0.7608
 7790SOL     OW35002   1.058   1.592  10.343  0.0303 -0.0910 -0.7464
 7790SOL    HW135003   1.049   1.590  10.439  0.4042  0.6752 -0.6945
 7790SOL    HW235004   1.133   1.651  10.335 -0.7348  0.6887 -2.1537
 7791SOL     OW35005   4.358   4.656  12.826  0.0931 -0.3147  0.0616
 7791SOL    HW135006   4.310   4.733  12.796  1.1189 -0.3108 -1.5665
 7791SOL    HW235007   4.297   4.616  12.888  1.8801  2.6823  3.7229
 7792SOL     OW35008   2.014   0.741  12.130  0.2356 -0.4911 -0.0180
 7792SOL    HW135009   2.096   0.784  12.103 -0.5332  1.2283  0.3761
 7792SOL    HW235010   1.963   0.771  12.055 -0.0281 -1.5698 -0.2614
 7793SOL     OW35011   3.565   0.224  16.799 -0.0127  0.0715 -0.1402
 7793SOL    HW135012   3.657   0.208  16.817 -0.1721  0.6630  1.1527
 7793SOL    HW235013   3.527   0.215  16.886 -1.2080 -0.1391 -0.6781
 7794SOL     OW35014   0.381   1.189   2.512 -0.5982 -0.2602  0.2861
 7794SOL    HW135015   0.365   1.177   2.606 -1.9733 -0.6697  0.0105
 7794SOL    HW235016   0.314   1.134   2.471  0.0237 -0.1610 -0.8375
 7795SOL     OW35017   3.689   0.148   3.792  0.1925  0.1531  0.5344
 7795SOL    HW135018   3.608   0.128   3.746  0.7557  2.7785 -1.6143
 7795SOL    HW235019   3.666   0.231   3.835 -0.0551  0.7458 -0.7325
 7796SOL     OW35020   0.006   1.182   5.481  0.7450  0.6074 -0.3099
 7796SOL    HW135021   4.681   1.253   5.501 -0.3438 -1.2801  3.1608
 7796SOL    HW235022   0.075   1.209   5.541 -0.0022 -0.5422  1.0737
 7797SOL     OW35023   2.079   0.116   8.234 -0.3851  0.3217  0.1909
 7797SOL    HW135024   2.038   0.170   8.167 -0.0864  0.2499 -0.0473
 7797SOL    HW235025   2.029   0.036   8.218 -0.1815  0.1613  0.3573
 7798SOL     OW35026   3.191   0.004   3.209 -1.0685 -0.5331  0.6949
 7798SOL    HW135027   3.100   4.720   3.188 -1.1604  1.2908 -0.6849
 7798SOL    HW235028   3.203   4.680   3.282 -1.1553 -0.9958  0.3223
 7799SOL     OW35029   4.352   0.728   3.703  0.3425  0.1295  0.3763
 7799SOL    HW135030   4.344   0.809   3.653  1.9528 -0.4512 -0.7989
 7799SOL    HW235031   4.446   0.711   3.712 -0.1037 -1.8531  1.2749
 7800SOL     OW35032   0.524   2.250   6.233  0.0354 -0.0505  0.1019
 7800SOL    HW135033   0.486   2.309   6.298 -1.7079 -0.5139 -0.4958
 7800SOL    HW235034   0.477   2.169   6.253  0.7636 -0.9174 -1.7571
 7801SOL     OW35035   1.715   2.308   9.442  0.0004 -0.2030  0.5706
 7801SOL    HW135036   1.800   2.352   9.438 -0.4210  0.6842  1.3661
 7801SOL    HW235037   1.719   2.270   9.530  1.1924 -1.3184  0.0566
 7802SOL     OW35038   4.678   2.398   2.545 -0.3372 -0.1783  0.0912
 7802SOL    HW135039   4.650   2.485   2.517 -3.2780 -1.6705 -1.6458
 7802SOL    HW235040   4.642   2.392   2.634  1.1738  3.4514  0.9503
 7803SOL     OW35041   2.973   4.187   8.939 -0.4356 -0.4727 -0.0352
 7803SOL    HW135042   2.889   4.179   8.985  0.1171 -0.9413  0.8927
 7803SOL    HW235043   2.952   4.272   8.901 -0.2981 -0.8233 -0.8836
 7804SOL     OW35044   3.300   0.661   1.894 -0.1662  0.0275  0.0758
 7804SOL    HW135045   3.297   0.724   1.822 -1.7407 -1.7297 -1.3818
 7804SOL    HW235046   3.390   0.658   1.926 -0.2567  1.5641  0.4722
 7805SOL     OW35047   1.658   0.531  12.929 -0.3552 -0.0396  0.5158
 7805SOL    HW135048   1.605   0.521  13.008  0.9965  3.0241  1.8341
 7805SOL    HW235049   1.700   0.445  12.926 -2.4778 -1.0643  0.6263
 7806SOL     OW35050   0.420   0.460   0.619 -0.3093 -0.1035 -0.2771
 7806SOL    HW135051   0.378   0.396   0.560 -1.5656  0.7890 -0.3489
 7806SOL    HW235052   0.339   0.510   0.628 -1.1908 -1.3107 -1.3412
 7807SOL     OW35053   3.027   1.838   7.852  0.2244  0.1313 -0.5080
 7807SOL    HW135054   2.938   1.858   7.823  0.9258  1.5428 -1.6890
 7807SOL    HW235055   3.060   1.776   7.787  2.0535  0.5035  0.0554
 7808SOL     OW35056   4.079   0.661   6.032  0.1808 -0.1274  0.0412
 7808SOL    HW135057   3.994   0.679   6.073  0.5061  0.3922  0.4789
 7808SOL    HW235058   4.127   0.743   6.039  0.0338 -0.1127  0.9734
 7809SOL     OW35059   1.315   2.910   8.219  0.4354 -0.5141  0.1952
 7809SOL    HW135060   1.244   2.931   8.159  0.2269  1.5307  1.1825
 7809SOL    HW235061   1.332   2.988   8.271 -0.5554  0.0326 -0.2950
 7810SOL     OW35062   0.992   0.915   5.518 -0.5428 -0.7508 -0.2644
 7810SOL    HW135063   0.900   0.901   5.493 -0.0582  0.3958 -2.6386
 7810SOL    HW235064   1.002   1.002   5.480  0.8288  0.2313  2.3217
 7811SOL     OW35065   0.954   0.309   1.785 -0.1290 -0.1727 -0.3570
 7811SOL    HW135066   0.963   0.215   1.773 -1.1153 -0.2012 -0.8156
 7811SOL    HW235067   0.872   0.332   1.741 -0.1890  0.6043  0.1613
 7812SOL     OW35068   3.255   2.696   5.802 -0.3393  0.5557  0.1353
 7812SOL    HW135069   3.251   2.685   5.897  0.2195 -1.9422 -0.1336
 7812SOL    HW235070   3.161   2.696   5.783 -0.4506 -1.1674  0.6467
 7813SOL     OW35071   0.168   3.422   1.821 -0.1729 -0.3508  0.3792
 7813SOL    HW135072   0.103   3.473   1.870 -0.1427  0.5581 -0.5475
 7813SOL    HW235073   0.138   3.334   1.845 -1.1510 -0.0216  0.3627
 7814SOL     OW35074   3.103   4.111   1.979 -0.2458  0.2878 -0.3403
 7814SOL    HW135075   3.033   4.168   1.948 -0.6079 -0.5027 -0.9485
 7814SOL    HW235076   3.167   4.125   1.910 -1.1440 -1.7461 -1.5742
 7815SOL     OW35077   2.819   1.070   5.436 -0.4624  0.3782  0.2158
 7815SOL    HW135078   2.879   1.011   5.391 -1.6031  0.4606 -1.4339
 7815SOL    HW235079   2.890   1.121   5.476 -3.1715  5.7742 -1.8463
 7816SOL     OW35080   1.630   4.182  14.863 -0.6098  0.3113  0.1572
 7816SOL    HW135081   1.537   4.186  14.843 -0.5258 -1.3733 -0.4845
 7816SOL    HW235082   1.670   4.218  14.784 -1.0507  0.7380  0.1285
 7817SOL     OW35083   4.580   1.180   4.760 -0.1581 -0.7260  0.3545
 7817SOL    HW135084   4.631   1.146   4.686  0.6172 -0.2191  0.6553
 7817SOL    HW235085   4.515   1.110   4.771  1.3839 -2.4822 -1.7616
 7818SOL     OW35086   1.915   1.899   9.832  0.0350  0.2096 -0.4223
 7818SOL    HW135087   1.961   1.947   9.901  0.4221  0.4249 -0.8298
 7818SOL    HW235088   1.841   1.872   9.887  0.4566  1.4554  0.7635
 7819SOL     OW35089   1.189   0.797   7.042 -0.2476  0.3312 -0.3995
 7819SOL    HW135090   1.140   0.870   7.003 -0.0706  0.1599 -0.9461
 7819SOL    HW235091   1.113   0.745   7.065 -0.6991  0.3025 -1.9145
 7820SOL     OW35092   1.699   1.161   5.075  0.7601 -0.7628  0.6344
 7820SOL    HW135093   1.786   1.195   5.097 -0.4284  1.3554  2.1151
 7820SOL    HW235094   1.655   1.199   5.151 -0.5918  1.8589 -1.4443
 7821SOL     OW35095   2.576   2.431  16.114 -0.1465  0.4265 -0.6353
 7821SOL    HW135096   2.667   2.399  16.114  0.2811  1.6459  0.6676
 7821SOL    HW235097   2.577   2.526  16.109  0.4982  0.4891  0.5248
 7822SOL     OW35098   1.487   2.030   5.452  0.0629 -0.4258 -0.1319
 7822SOL    HW135099   1.546   2.047   5.378 -0.4811  0.7014 -0.3178
 7822SOL    HW235100   1.550   2.024   5.523 -2.6587 -3.5494  2.0165
 7823SOL     OW35101   0.324   3.806   0.803  0.2356  0.0233  0.4030
 7823SOL    HW135102   0.307   3.821   0.896  0.3811  1.8206  0.1435
 7823SOL    HW235103   0.318   3.711   0.800 -0.2054  0.0176  1.3451
 7824SOL     OW35104   3.385   2.102   1.439 -0.0554 -0.6481 -0.6502
 7824SOL    HW135105   3.479   2.120   1.436 -0.4372  1.1943 -1.2116
 7824SOL    HW235106   3.358   2.171   1.378 -0.0556 -0.3642 -0.3263
 7825SOL     OW35107   2.125   1.579   5.956  0.4981 -0.4745  0.4115
 7825SOL    HW135108   2.105   1.507   5.896 -1.1293  0.1992  0.1576
 7825SOL    HW235109   2.220   1.569   5.950  0.7211  1.6009  0.7312
 7826SOL     OW35110   3.676   1.209   0.025 -0.6418 -0.1752  0.1644
 7826SOL    HW135111   3.608   1.218   0.092 -0.6738 -2.4313  0.4273
 7826SOL    HW235112   3.628   1.229  17.690 -1.6458  0.5447  0.9451
 7827SOL     OW35113   1.440   3.454   8.455  0.4200  0.2177  0.2611
 7827SOL    HW135114   1.351   3.430   8.480  0.7671  0.5751  1.8197
 7827SOL    HW235115   1.499   3.388   8.491 -1.4344 -2.3263 -1.4002
 7828SOL     OW35116   3.690   4.428   3.751  0.2283 -0.2382 -0.1092
 7828SOL    HW135117   3.720   4.516   3.727 -0.2187 -0.1422 -0.3039
 7828SOL    HW235118   3.773   4.401   3.791  0.6230  0.9594 -0.1136
 7829SOL     OW35119   1.516   2.353   0.019  0.2709  0.0572 -0.2972
 7829SOL    HW135120   1.575   2.418   0.057  3.0271 -1.6695 -1.5718
 7829SOL    HW235121   1.453   2.333   0.089 -1.7057  2.3901 -1.4163
 7830SOL     OW35122   4.200   2.549  13.473 -0.5622 -0.4078 -0.4846
 7830SOL    HW135123   4.241   2.529  13.389 -2.2121  1.2162 -1.6769
 7830SOL    HW235124   4.202   2.644  13.467 -1.6478 -0.3344  0.2985
 7831SOL     OW35125   0.463   1.212   7.339 -0.6433  0.0472 -0.1260
 7831SOL    HW135126   0.513   1.227   7.419 -1.2849  2.7090 -0.2304
 7831SOL    HW235127   0.392   1.151   7.360 -1.5972  0.8727 -0.9777
 7832SOL     OW35128   4.013   1.517   3.438 -0.1190 -0.5023  0.1070
 7832SOL    HW135129   3.928   1.562   3.445 -0.9042 -2.0143  0.2903
 7832SOL    HW235130   4.080   1.573   3.399 -0.6344 -0.4004 -0.6284
 7833SOL     OW35131   1.220   3.837   0.819  0.1743 -0.1638  0.0475
 7833SOL    HW135132   1.250   3.869   0.735 -0.5061 -1.1736 -0.5753
 7833SOL    HW235133   1.158   3.905   0.845  0.4840 -0.0828  0.5760
 7834SOL     OW35134   3.801   0.061  17.135 -0.1470 -0.0564 -0.7359
 7834SOL    HW135135   3.834   0.006  17.206  2.7378  1.6863 -0.7646
 7834SOL    HW235136   3.743   0.117  17.186  0.2747 -0.8711  0.6267
 7835SOL     OW35137   2.232   1.178   6.221  0.4274  0.6181 -0.3476
 7835SOL    HW135138   2.288   1.161   6.146 -1.7837 -2.7076 -1.2085
 7835SOL    HW235139   2.174   1.102   6.222  0.0654  0.9055  0.7500
 7836SOL     OW35140   1.851   0.505  16.924  0.0377 -0.0077  0.4577
 7836SOL    HW135141   1.916   0.574  16.910 -0.0817  0.0815  0.3485
 7836SOL    HW235142   1.790   0.522  16.853  2.9935 -0.4472 -2.1627
 7837SOL     OW35143   0.257   0.645   7.530 -0.1173 -0.3714 -0.6782
 7837SOL    HW135144   0.193   0.581   7.497  0.3160 -1.4317  0.5402
 7837SOL    HW235145   0.211   0.723   7.500 -0.5827 -0.3301  0.1311
 7838SOL     OW35146   3.647   1.699   7.474  0.4815 -0.0764  0.4083
 7838SOL    HW135147   3.594   1.711   7.395 -0.3676 -2.6968  0.5818
 7838SOL    HW235148   3.688   1.613   7.463  2.3734  0.9319 -0.4582
 7839SOL     OW35149   3.639   3.708   0.669  0.5580  0.3671 -0.4213
 7839SOL    HW135150   3.623   3.731   0.577 -1.8179 -0.1936 -0.1399
 7839SOL    HW235151   3.554   3.666   0.662  0.2284  0.4898  3.1684
 7840SOL     OW35152   4.604   0.341   9.278  0.3442  0.2607 -0.1927
 7840SOL    HW135153   4.684   0.315   9.232  0.7753  1.5974 -0.2185
 7840SOL    HW235154   4.637   0.375   9.361  1.4824  1.6131 -1.1899
 7841SOL     OW35155   2.721   3.883   2.647  0.1305 -0.4070  0.2736
 7841SOL    HW135156   2.773   3.823   2.700  1.4235 -0.3728 -0.9482
 7841SOL    HW235157   2.788   3.939   2.607  0.5356 -1.7261 -0.8662
 7842SOL     OW35158   1.695   2.810   7.207  0.0750 -0.2192  0.2959
 7842SOL    HW135159   1.738   2.724   7.205 -3.3331 -1.8793 -1.1397
 7842SOL    HW235160   1.770   2.867   7.187 -0.7274  0.4059 -0.9210
 7843SOL     OW35161   3.566   3.556   8.747 -0.0984  0.3561 -0.0704
 7843SOL    HW135162   3.646   3.583   8.792  0.2859 -2.2120  0.7971
 7843SOL    HW235163   3.504   3.561   8.820 -2.4806 -1.0661 -1.9989
 7844SOL     OW35164   0.773   3.683   4.255 -0.0239 -0.1041 -0.1141
 7844SOL    HW135165   0.805   3.640   4.334 -2.5651 -1.7046  0.0476
 7844SOL    HW235166   0.849   3.734   4.228 -0.7009  0.4508 -0.9900
 7845SOL     OW35167   3.959   2.244   1.542  0.2180 -0.2783 -0.2367
 7845SOL    HW135168   4.027   2.308   1.562  0.1289 -0.1693 -0.2810
 7845SOL    HW235169   3.874   2.287   1.556  0.9142  1.2110 -0.5384
 7846SOL     OW35170   0.453   2.119  17.499  0.2695 -0.4239  0.9751
 7846SOL    HW135171   0.536   2.128  17.451 -0.7713 -1.0846 -0.9335
 7846SOL    HW235172   0.396   2.070  17.439  1.1589  0.5440 -0.6483
 7847SOL     OW35173   4.391   1.381  11.658 -0.3501 -0.1063  0.1881
 7847SOL    HW135174   4.358   1.356  11.571  0.7958 -0.0068 -0.2744
 7847SOL    HW235175   4.485   1.362  11.663 -0.3004  0.6097  1.7144
 7848SOL     OW35176   0.233   1.184  11.550  0.3082  0.0821 -0.3443
 7848SOL    HW135177   0.152   1.235  11.541  1.4340  1.8227 -0.6025
 7848SOL    HW235178   0.298   1.255  11.547  0.3548  0.1217  1.1175
 7849SOL     OW35179   0.096   3.360  12.754  0.4167  0.4800  0.1570
 7849SOL    HW135180   0.025   3.301  12.728 -0.3991  1.4756  0.1113
 7849SOL    HW235181   0.048   3.428  12.801  0.9104  1.0645 -0.1724
 7850SOL     OW35182   3.196   2.098   5.186  0.3811  0.1263  0.7979
 7850SOL    HW135183   3.270   2.051   5.225 -0.4518 -3.3163 -1.7157
 7850SOL    HW235184   3.125   2.033   5.187  0.4505  0.0598  1.1487
 7851SOL     OW35185   2.428   0.748   1.252 -0.3384 -0.1092 -0.2731
 7851SOL    HW135186   2.410   0.700   1.171  1.7062 -0.4021 -0.5660
 7851SOL    HW235187   2.414   0.839   1.227 -0.1262 -0.2463 -0.8952
 7852SOL     OW35188   4.281   4.718   6.865  0.2216  0.0296 -0.5495
 7852SOL    HW135189   4.311   4.629   6.846 -0.9008 -0.5734  0.4841
 7852SOL    HW235190   4.194   4.722   6.826  1.0221  0.6857 -2.2728
 7853SOL     OW35191   4.092   4.642   0.476 -0.3746 -0.1243  0.1020
 7853SOL    HW135192   4.091   4.546   0.469  1.1996 -0.1267 -0.0974
 7853SOL    HW235193   3.998   4.659   0.471  0.3515  3.3754 -2.0317
 7854SOL     OW35194   4.256   0.810   0.246 -0.7926 -0.2685  0.0082
 7854SOL    HW135195   4.251   0.781   0.337  0.9830 -0.4672  0.0355
 7854SOL    HW235196   4.289   0.730   0.208  0.1778  0.2287 -0.1920
 7855SOL     OW35197   1.641   3.691   4.398  0.4713  0.0814 -0.0010
 7855SOL    HW135198   1.678   3.774   4.428 -0.5485 -0.3786  2.5334
 7855SOL    HW235199   1.619   3.707   4.306  1.3597  0.7503 -0.0964
 7856SOL     OW35200   1.644   2.134   6.004 -1.2426  0.0442  0.0507
 7856SOL    HW135201   1.661   2.131   5.910 -0.8053 -1.6596  0.1907
 7856SOL    HW235202   1.558   2.177   6.002 -1.8828 -1.2250  0.2475
 7857SOL     OW35203   4.392   0.994   4.672 -0.4827  0.1555  0.2130
 7857SOL    HW135204   4.357   0.939   4.743  1.0934 -3.0497 -1.4861
 7857SOL    HW235205   4.333   1.069   4.658  0.3122  0.5200 -1.1495
 7858SOL     OW35206   4.209   0.346  17.585 -0.0693 -0.3360 -0.2272
 7858SOL    HW135207   4.299   0.369  17.563  0.1860  0.2986  1.4801
 7858SOL    HW235208   4.171   0.400  17.515  0.0646  1.4749  1.0808
 7859SOL     OW35209   1.561   2.557   1.754 -0.4644 -0.5477 -0.9980
 7859SOL    HW135210   1.568   2.648   1.785  0.2608 -1.8851  2.7900
 7859SOL    HW235211   1.647   2.549   1.713 -1.0907 -1.3908 -2.1465
 7860SOL     OW35212   1.043   4.592   3.956 -0.2231  0.4499 -0.1724
 7860SOL    HW135213   1.067   4.684   3.949 -0.4657  0.5938  0.8766
 7860SOL    HW235214   1.128   4.550   3.971 -0.1882 -0.2565 -2.3191
 7861SOL     OW35215   4.482   3.156   2.481  0.3296 -0.3366  0.6553
 7861SOL    HW135216   4.545   3.159   2.409  0.3374  1.2804  0.7239
 7861SOL    HW235217   4.454   3.245   2.502 -0.6391 -1.2884  3.4396
 7862SOL     OW35218   2.436   2.824   1.912 -0.0188 -0.4338  0.5796
 7862SOL    HW135219   2.463   2.913   1.933 -2.3359  0.4713 -0.3113
 7862SOL    HW235220   2.382   2.835   1.834  0.6591  1.0617  0.3171
 7863SOL     OW35221   4.061   4.009  13.571 -0.0141 -0.0602  0.0524
 7863SOL    HW135222   4.083   4.070  13.642  0.8724 -1.4632  1.0011
 7863SOL    HW235223   3.967   4.026  13.583  0.4337  1.2283  1.8589
 7864SOL     OW35224   4.483   2.761  16.111 -0.7136 -0.7154  0.1560
 7864SOL    HW135225   4.481   2.832  16.047  1.3101  1.2509  2.2847
 7864SOL    HW235226   4.555   2.703  16.087  0.9403  1.1561  0.6481
 7865SOL     OW35227   0.586   3.375   2.835 -0.6744 -0.0357  0.2488
 7865SOL    HW135228   0.597   3.329   2.918 -2.3962  0.7231  0.9026
 7865SOL    HW235229   0.510   3.425   2.864 -0.9711 -0.3132 -0.0481
 7866SOL     OW35230   2.919   2.678  16.072 -0.2666 -0.1551 -0.0409
 7866SOL    HW135231   2.917   2.584  16.053  1.2368  0.0199 -1.0100
 7866SOL    HW235232   2.836   2.714  16.040 -0.7746 -0.9453  0.3699
 7867SOL     OW35233   3.753   2.970   4.865 -0.0099  0.7247  0.0242
 7867SOL    HW135234   3.834   2.924   4.888  0.0693  0.4467 -0.7968
 7867SOL    HW235235   3.711   2.905   4.809  0.0418  1.3051 -0.6898
 7868SOL     OW35236   3.337   0.823   8.340 -0.2147  1.2576  0.1970
 7868SOL    HW135237   3.330   0.773   8.259 -3.4375  0.3706  1.0518
 7868SOL    HW235238   3.248   0.841   8.369  0.2513  1.0422  1.7567
 7869SOL     OW35239   0.408   3.509   2.997 -0.1723 -0.4858 -0.5233
 7869SOL    HW135240   0.313   3.513   3.003 -0.1483 -2.0083  0.7774
 7869SOL    HW235241   0.429   3.456   3.074 -1.7740 -0.4740 -0.0817
 7870SOL     OW35242   2.716   1.768   7.326 -0.0083  0.5032 -0.0879
 7870SOL    HW135243   2.737   1.822   7.250 -1.0490 -0.4788 -1.0818
 7870SOL    HW235244   2.780   1.808   7.384  0.0014 -1.6663  1.3958
 7871SOL     OW35245   3.787   0.972   2.617  0.2800  0.4627  0.1306
 7871SOL    HW135246   3.846   0.998   2.689  2.6431  0.6865 -1.9017
 7871SOL    HW235247   3.843   0.991   2.542 -0.1711  1.8189  0.1389
 7872SOL     OW35248   3.827   0.756  12.689  0.2708  0.1410  0.6084
 7872SOL    HW135249   3.916   0.721  12.681  1.3540  3.0324  0.1268
 7872SOL    HW235250   3.774   0.677  12.674 -0.0581  0.8910 -2.2292
 7873SOL     OW35251   4.071   2.886   8.940  0.0899  0.2144 -0.6848
 7873SOL    HW135252   4.102   2.801   8.906  1.1449 -0.0125  0.8302
 7873SOL    HW235253   4.089   2.952   8.873  3.6579  0.3292  0.3801
 7874SOL     OW35254   0.503   2.000   5.684 -0.0415 -0.2967  0.9967
 7874SOL    HW135255   0.557   2.071   5.718  1.9978 -0.2670 -2.3059
 7874SOL    HW235256   0.414   2.033   5.693  0.0980 -0.0085  1.3215
 7875SOL     OW35257   2.457   2.415   2.705  0.5283  0.2318 -0.0265
 7875SOL    HW135258   2.473   2.415   2.799  2.6334 -0.1314 -0.3999
 7875SOL    HW235259   2.370   2.376   2.698  1.1272 -1.0575 -0.2369
 7876SOL     OW35260   3.630   3.916   3.944 -0.1867  0.1625  0.9830
 7876SOL    HW135261   3.600   3.843   3.890  0.4848 -0.9724  2.1610
 7876SOL    HW235262   3.575   3.912   4.022  1.6614  2.2824  2.3968
 7877SOL     OW35263   3.090   0.313   2.129  0.2998 -0.2624  0.2941
 7877SOL    HW135264   3.018   0.374   2.114 -0.2531 -1.0145 -0.1616
 7877SOL    HW235265   3.060   0.248   2.065  0.4342 -0.6136  0.5906
 7878SOL     OW35266   2.593   3.315   4.934  0.0770 -0.0796  0.0921
 7878SOL    HW135267   2.647   3.395   4.931 -1.7128  1.1667  0.9310
 7878SOL    HW235268   2.564   3.308   4.842 -1.0688  0.8078  0.3829
 7879SOL     OW35269   1.710   2.035  10.214 -0.1337 -0.2395  0.4781
 7879SOL    HW135270   1.617   2.024  10.233 -0.6786 -0.0196 -2.0108
 7879SOL    HW235271   1.711   2.121  10.171 -0.4073 -1.0198 -1.0722
 7880SOL     OW35272   0.408   4.460  12.548  0.0701  0.7026 -0.0923
 7880SOL    HW135273   0.395   4.368  12.572  3.0310  0.1183 -0.6583
 7880SOL    HW235274   0.322   4.501  12.559 -0.0091  0.7548 -0.8937
 7881SOL     OW35275   4.114   1.257   5.780 -0.5015  0.4664 -0.3190
 7881SOL    HW135276   4.192   1.277   5.729 -0.0295 -0.5778 -0.0084
 7881SOL    HW235277   4.065   1.339   5.770  0.4311  0.7733 -2.5298
 7882SOL     OW35278   3.001   3.425  16.320  0.6997  0.0792 -0.3467
 7882SOL    HW135279   2.912   3.457  16.335  1.2975  1.4840  0.2887
 7882SOL    HW235280   3.018   3.477  16.241 -2.2784  1.2429 -0.2155
 7883SOL     OW35281   4.062   1.656   6.395 -0.1818  0.3187  0.0671
 7883SOL    HW135282   4.061   1.743   6.357  0.3460 -0.1581 -1.0407
 7883SOL    HW235283   3.968   1.643   6.399 -0.2430  0.5484 -0.6695
 7884SOL     OW35284   1.220   2.343   4.647  0.0259 -0.2956  0.0232
 7884SOL    HW135285   1.154   2.294   4.598  1.3848 -0.0657 -2.0403
 7884SOL    HW235286   1.232   2.280   4.718  0.2835  0.0709  0.3080
 7885SOL     OW35287   0.737   1.918   2.179 -0.2998  0.0719 -0.6553
 7885SOL    HW135288   0.814   1.896   2.126 -0.5647  0.4064 -1.1688
 7885SOL    HW235289   0.704   1.832   2.206  0.2382  0.3966  1.0542
 7886SOL     OW35290   1.111   0.766   3.943 -0.2214  0.4324  0.4198
 7886SOL    HW135291   1.041   0.702   3.942 -1.2180  1.5538 -0.8481
 7886SOL    HW235292   1.190   0.712   3.947 -0.2941  0.2853 -0.2095
 7887SOL     OW35293   1.850   4.113   4.806  0.3602  0.1273 -0.2700
 7887SOL    HW135294   1.772   4.109   4.750 -0.6168  0.5687  1.0548
 7887SOL    HW235295   1.871   4.205   4.790  1.0622  0.1123  0.5830
 7888SOL     OW35296   4.143   3.649   3.880 -0.5130  0.2076  0.3511
 7888SOL    HW135297   4.204   3.687   3.816 -1.3898  1.1988  0.0893
 7888SOL    HW235298   4.057   3.669   3.842  0.4651 -0.4937 -2.2283
 7889SOL     OW35299   3.272   3.672   8.581  0.2578 -0.0002 -0.0074
 7889SOL    HW135300   3.238   3.723   8.507  0.3157  1.7047  1.1460
 7889SOL    HW235301   3.232   3.715   8.656 -0.0505  3.5489 -2.2075
 7890SOL     OW35302   0.127   0.680  16.647 -0.2563  0.0737  0.2355
 7890SOL    HW135303   0.157   0.625  16.719  0.1065 -0.2096 -0.1405
 7890SOL    HW235304   0.032   0.667  16.650 -0.3809  1.1802  1.5010
 7891SOL     OW35305   2.095   3.102  13.229 -1.0073 -0.0884 -0.5143
 7891SOL    HW135306   2.122   3.111  13.137 -3.2439  0.0738 -1.1403
 7891SOL    HW235307   2.175   3.134  13.270 -2.4422 -0.4267  2.5069
 7892SOL     OW35308   3.734   0.956  17.043  0.1811  0.0485  0.3460
 7892SOL    HW135309   3.748   0.882  16.984 -4.8099 -0.8911  0.4107
 7892SOL    HW235310   3.826   0.978  17.061 -0.6468  1.9783  2.1656
 7893SOL     OW35311   2.308   1.698   4.684  0.0195 -0.1797  0.3604
 7893SOL    HW135312   2.222   1.667   4.712 -0.5204  0.1626 -0.9170
 7893SOL    HW235313   2.329   1.746   4.765  0.6937  2.3009 -1.2825
 7894SOL     OW35314   1.421   2.320   4.863  0.4870 -0.0809 -0.0191
 7894SOL    HW135315   1.440   2.393   4.803  0.8071 -0.2878 -0.1715
 7894SOL    HW235316   1.336   2.347   4.897 -0.5734  0.9278 -3.3835
 7895SOL     OW35317   4.005   2.267   5.015 -0.0020 -0.1119  0.4868
 7895SOL    HW135318   4.095   2.251   5.043 -1.1838 -4.0653  2.0999
 7895SOL    HW235319   4.025   2.333   4.949  0.5961 -0.0644  0.7140
 7896SOL     OW35320   1.668   4.296   4.612  0.0836 -0.0006  0.5242
 7896SOL    HW135321   1.721   4.255   4.544 -1.3025  1.9198 -1.7215
 7896SOL    HW235322   1.736   4.351   4.651  0.5191  0.2150 -0.5342
 7897SOL     OW35323   4.147   2.422  17.689  0.6693  0.4674 -0.5480
 7897SOL    HW135324   4.150   2.345  17.631 -0.2370  0.5051 -0.6463
 7897SOL    HW235325   4.163   2.488  17.622  0.2255  0.7094 -0.4150
 7898SOL     OW35326   1.828   1.933   8.934 -0.3373 -0.4285 -0.2405
 7898SOL    HW135327   1.914   1.974   8.929  0.2475 -1.5884  0.4501
 7898SOL    HW235328   1.859   1.847   8.961 -1.1666 -1.4342 -2.4818
 7899SOL     OW35329   1.280   0.221  14.042 -0.3424 -0.1611  0.0341
 7899SOL    HW135330   1.325   0.161  13.983  0.9937  0.8685  0.0060
 7899SOL    HW235331   1.302   0.304  14.000  1.2821 -0.9961 -0.7451
 7900SOL     OW35332   0.405   1.368   8.200  0.2323 -0.2488  0.9914
 7900SOL    HW135333   0.476   1.326   8.248 -2.3682 -4.4533  1.2057
 7900SOL    HW235334   0.343   1.295   8.205  0.7249 -0.7622 -0.4302
 7901SOL     OW35335   2.112   3.463  13.126 -0.1183  0.5350  0.1329
 7901SOL    HW135336   2.164   3.510  13.192  1.5411 -0.6990 -0.2909
 7901SOL    HW235337   2.173   3.458  13.052  1.1283 -3.1813  1.4004
 7902SOL     OW35338   2.670   1.206   7.747 -0.3504  0.3764  0.4319
 7902SOL    HW135339   2.752   1.251   7.770 -0.7044 -0.1175  2.6548
 7902SOL    HW235340   2.624   1.284   7.715 -1.9973 -0.3714  0.9834
 7903SOL     OW35341   2.943   3.694   3.380 -0.7521 -0.2114  0.5873
 7903SOL    HW135342   2.941   3.620   3.441 -1.0550 -0.3152  0.4473
 7903SOL    HW235343   2.853   3.724   3.368 -0.2545  1.1114  0.2027
 7904SOL     OW35344   2.155   2.379   0.243 -0.4307  0.0903 -0.3525
 7904SOL    HW135345   2.188   2.297   0.280 -0.7483 -0.2852 -0.8940
 7904SOL    HW235346   2.224   2.400   0.180  2.8453 -0.1666  3.1770
 7905SOL     OW35347   4.381   0.359  16.477  0.0472 -0.3885 -0.4887
 7905SOL    HW135348   4.322   0.416  16.428 -0.6574 -0.9935 -0.3315
 7905SOL    HW235349   4.353   0.276  16.440 -0.2190 -0.6244  0.2528
 7906SOL     OW35350   4.600   2.494   3.321  0.6519 -0.2378 -0.5124
 7906SOL    HW135351   4.619   2.468   3.231  2.9489  2.6180 -0.8653
 7906SOL    HW235352   4.528   2.553   3.297 -2.0345 -3.0359  0.5856
 7907SOL     OW35353   1.911   1.956   2.495 -0.1747  0.1000 -0.4307
 7907SOL    HW135354   1.847   1.984   2.429  0.2688  1.2005 -0.3775
 7907SOL    HW235355   1.870   1.874   2.526 -1.1610  0.4615 -0.7825
 7908SOL     OW35356   1.325   2.233   1.501  0.0935 -0.1511  0.1930
 7908SOL    HW135357   1.394   2.274   1.554  1.5365 -0.7656 -1.2223
 7908SOL    HW235358   1.258   2.250   1.568 -1.4262  1.0491 -1.6244
 7909SOL     OW35359   1.987   2.647   3.874 -0.3179  0.1416 -0.3468
 7909SOL    HW135360   1.948   2.675   3.957  0.7819  0.6149  0.0079
 7909SOL    HW235361   2.068   2.606   3.903 -1.3103 -0.3734  1.7272
 7910SOL     OW35362   4.580   2.950   5.334  0.6953 -0.2594  0.1838
 7910SOL    HW135363   4.516   3.017   5.360  0.7127 -0.1699  0.0008
 7910SOL    HW235364   4.519   2.879   5.311  0.0271  0.2226  0.4556
 7911SOL     OW35365   1.536   4.618   2.024 -0.5098  0.1194  0.2951
 7911SOL    HW135366   1.471   4.667   1.973 -0.2977  1.8969  1.7730
 7911SOL    HW235367   1.567   4.567   1.948 -2.4499 -1.3848  0.4863
 7912SOL     OW35368   3.162   0.630  11.086  0.2525 -0.4448  0.6769
 7912SOL    HW135369   3.080   0.659  11.125 -0.8756 -1.6875 -0.7592
 7912SOL    HW235370   3.196   0.555  11.136 -0.3529  1.0077  3.2694
 7913SOL     OW35371   3.658   4.401   7.948  0.3875 -0.1669 -0.7975
 7913SOL    HW135372   3.692   4.482   7.986  0.7218 -0.9443  0.5883
 7913SOL    HW235373   3.622   4.363   8.028 -0.4255 -0.2874 -1.2257
 7914SOL     OW35374   2.956   1.819   7.467 -0.0871  0.1129 -0.5530
 7914SOL    HW135375   3.050   1.800   7.468 -0.3925 -1.5141 -2.8859
 7914SOL    HW235376   2.965   1.910   7.438 -0.7952 -0.4106 -2.3812
 7915SOL     OW35377   0.217   4.198   8.546  0.2111 -0.3861  0.7952
 7915SOL    HW135378   0.148   4.252   8.583 -0.5446 -0.6991 -0.1491
 7915SOL    HW235379   0.278   4.271   8.537 -1.9220  1.3254  0.2356
 7916SOL     OW35380   2.785   1.047   1.012 -0.0103  0.3171 -0.3511
 7916SOL    HW135381   2.787   0.952   1.020 -2.4156  0.2606 -0.4614
 7916SOL    HW235382   2.817   1.050   0.923  2.1608 -1.7276  0.3841
 7917SOL     OW35383   2.125   2.043   4.109 -0.8508  0.0192  0.1785
 7917SOL    HW135384   2.099   2.012   4.022  1.9769 -1.4249 -0.1729
 7917SOL    HW235385   2.180   1.969   4.137  0.6947  0.3964 -1.7960
 7918SOL     OW35386   4.563   0.380  10.823 -0.8340  0.4881  0.3196
 7918SOL    HW135387   4.572   0.434  10.745 -1.0321  3.1706  2.1358
 7918SOL    HW235388   4.598   0.301  10.782 -0.4905  1.5972 -1.5417
 7919SOL     OW35389   2.948   2.133  12.888 -0.2023 -0.2446 -0.3015
 7919SOL    HW135390   2.890   2.064  12.857  0.2502 -1.0576  0.6751
 7919SOL    HW235391   2.985   2.156  12.803  1.4466 -0.1661  0.4443
 7920SOL     OW35392   4.189   4.547   1.273  0.2135  0.0663 -0.0378
 7920SOL    HW135393   4.272   4.558   1.227 -0.2152 -0.8860 -1.0497
 7920SOL    HW235394   4.198   4.459   1.311 -1.1380 -0.4967 -0.9960
 7921SOL     OW35395   2.588   1.301   1.417 -0.0106 -0.2231 -1.0464
 7921SOL    HW135396   2.581   1.282   1.324 -0.2810 -0.2690 -1.0153
 7921SOL    HW235397   2.635   1.384   1.415 -0.6776  0.2172  1.4364
 7922SOL     OW35398   3.463   1.547   3.059  0.6825 -0.7018 -0.0070
 7922SOL    HW135399   3.464   1.462   3.016  1.9555 -0.4367 -0.5219
 7922SOL    HW235400   3.506   1.590   2.984 -0.1461 -0.3062 -0.2519
 7923SOL     OW35401   4.142   2.139   2.463  0.5570 -0.1216 -0.3064
 7923SOL    HW135402   4.087   2.201   2.511  0.8431 -1.3073  1.5592
 7923SOL    HW235403   4.143   2.181   2.377  1.3027 -0.8185 -0.6424
 7924SOL     OW35404   0.013   0.803   4.303 -0.2835  0.2453 -0.4055
 7924SOL    HW135405   4.698   0.760   4.372 -1.3694 -0.4904 -1.6774
 7924SOL    HW235406   0.085   0.741   4.306 -0.3389  0.2004  0.0109
 7925SOL     OW35407   0.789   0.188   8.664 -0.3188 -0.3121 -0.0110
 7925SOL    HW135408   0.829   0.271   8.638  0.7017 -1.4160 -1.9697
 7925SOL    HW235409   0.860   0.137   8.625  0.9191  1.1551  0.3569
 7926SOL     OW35410   0.782   4.054   5.594  0.2390  0.2775 -0.2089
 7926SOL    HW135411   0.868   4.086   5.620  0.6494 -1.5608  0.7072
 7926SOL    HW235412   0.741   4.140   5.587  0.1332  0.2938  0.6315
 7927SOL     OW35413   2.593   1.090   7.506 -0.1523 -0.1329 -0.3243
 7927SOL    HW135414   2.608   1.105   7.599  2.4557  1.7492 -1.0625
 7927SOL    HW235415   2.668   1.140   7.476 -2.8266  3.6764 -0.7484
 7928SOL     OW35416   0.123   2.647   1.947  0.1236 -0.8255  0.1049
 7928SOL    HW135417   0.059   2.577   1.940 -1.7895  0.9207  0.0360
 7928SOL    HW235418   0.204   2.608   1.914 -0.9717 -1.0023 -2.4033
 7929SOL     OW35419   3.824   2.074   7.175 -0.8221  0.3148 -0.5853
 7929SOL    HW135420   3.753   2.080   7.110 -0.6041 -0.6611 -0.9072
 7929SOL    HW235421   3.894   2.084   7.111  1.7676  0.6340  2.3093
 7930SOL     OW35422   4.611   4.665   7.705 -0.1322 -0.0875 -0.2306
 7930SOL    HW135423   4.650   4.579   7.713  2.2918  1.1519  1.1352
 7930SOL    HW235424   4.630   4.701   7.791 -2.0191  0.6843 -0.1277
 7931SOL     OW35425   2.908   0.160   1.574 -0.2156  0.0437  0.0373
 7931SOL    HW135426   2.901   0.241   1.624 -0.3549  0.1422 -0.1421
 7931SOL    HW235427   2.831   0.119   1.613 -0.5490  1.2435  0.6553
 7932SOL     OW35428   2.886   4.490   4.111  0.2222  0.6094 -0.0865
 7932SOL    HW135429   2.893   4.584   4.125 -1.3870  0.5372  1.2306
 7932SOL    HW235430   2.805   4.491   4.059  0.9396  3.7237 -1.1664
 7933SOL     OW35431   4.527   2.172  12.693 -0.2830  0.0400 -0.5550
 7933SOL    HW135432   4.445   2.137  12.727  0.5873 -0.2452  1.2731
 7933SOL    HW235433   4.540   2.251  12.746 -0.4616 -1.4918  1.8070
 7934SOL     OW35434   0.508   2.273   9.073  0.1244  0.2732  0.5146
 7934SOL    HW135435   0.513   2.339   9.141 -1.1546  0.6094  0.2829
 7934SOL    HW235436   0.595   2.287   9.035 -0.0840  0.1974  0.0000
 7935SOL     OW35437   2.485   1.571  11.002  0.0047  0.1793 -0.3346
 7935SOL    HW135438   2.451   1.657  10.978 -0.4350  0.4059  1.0588
 7935SOL    HW235439   2.580   1.582  10.997  0.3078 -1.7189  1.3452
 7936SOL     OW35440   0.149   2.678   3.378  0.1427  0.2738 -0.2857
 7936SOL    HW135441   0.089   2.653   3.449 -1.2689  2.0431 -0.8320
 7936SOL    HW235442   0.227   2.652   3.427  0.9939  2.4729 -0.4369
 7937SOL     OW35443   1.268   4.261   3.351 -0.7191 -0.5898 -0.4658
 7937SOL    HW135444   1.175   4.266   3.371 -0.2436  0.8772  1.4123
 7937SOL    HW235445   1.292   4.306   3.432  0.2848 -2.1700  0.1182
 7938SOL     OW35446   2.139   3.687   6.551 -0.6419 -0.0503 -0.3829
 7938SOL    HW135447   2.133   3.592   6.566  3.8660 -0.1753  0.6558
 7938SOL    HW235448   2.141   3.714   6.643 -0.7412 -1.1165 -0.0647
 7939SOL     OW35449   0.315   2.563  12.927 -0.5723 -0.2368 -0.1437
 7939SOL    HW135450   0.302   2.534  13.018 -2.1918  0.7257 -0.0702
 7939SOL    HW235451   0.409   2.579  12.934 -0.7911  0.7320  0.6268
 7940SOL     OW35452   1.684   0.513   7.805 -0.2212 -0.4144 -0.1617
 7940SOL    HW135453   1.738   0.561   7.867  0.5165  0.0930 -1.1926
 7940SOL    HW235454   1.599   0.527   7.848  0.7563 -0.5367  1.7970
 7941SOL     OW35455   0.005   2.178   2.095  0.1958  0.5421  0.0091
 7941SOL    HW135456   0.063   2.188   2.171  0.3892  0.2340 -0.0959
 7941SOL    HW235457   0.015   2.086   2.071 -0.9208 -0.4385  3.3492
 7942SOL     OW35458   0.775   3.098   2.674 -0.3229 -0.0951 -0.1210
 7942SOL    HW135459   0.746   3.070   2.761  1.3927  1.1901  0.8670
 7942SOL    HW235460   0.869   3.106   2.689 -0.7761  0.9634  2.1804
 7943SOL     OW35461   2.982   0.766  17.343  0.6840 -0.1384 -0.9387
 7943SOL    HW135462   2.934   0.773  17.426  0.2987  0.3845 -1.1991
 7943SOL    HW235463   3.026   0.682  17.352  0.6003  0.2436  3.0711
 7944SOL     OW35464   2.286   0.078   8.623  0.7300 -0.3400 -0.4685
 7944SOL    HW135465   2.194   0.052   8.613  0.5889  0.2964 -0.7829
 7944SOL    HW235466   2.288   0.104   8.531 -0.5111 -0.1205 -0.4401
 7945SOL     OW35467   0.031   4.640   6.630  0.2871 -0.5346  0.3309
 7945SOL    HW135468   4.696   4.663   6.689 -0.1577 -2.1112  0.4016
 7945SOL    HW235469   0.006   4.554   6.595 -1.4769  0.8145 -1.7284
 7946SOL     OW35470   3.821   3.379   3.545 -0.0450 -0.0468 -0.0848
 7946SOL    HW135471   3.799   3.286   3.551 -3.2007  0.5807 -2.0961
 7946SOL    HW235472   3.748   3.417   3.594  0.1691  0.0399  0.1663
 7947SOL     OW35473   3.567   3.288   4.715 -0.1231  0.5389 -0.8493
 7947SOL    HW135474   3.552   3.251   4.802  1.3320  0.8528 -0.4625
 7947SOL    HW235475   3.662   3.283   4.707 -0.0108  1.0655  0.2048
 7948SOL     OW35476   4.275   3.306  13.315  0.8183 -0.1055  0.2517
 7948SOL    HW135477   4.261   3.368  13.387  2.0134  0.2984  0.1347
 7948SOL    HW235478   4.363   3.335  13.292  1.0381 -2.1133 -1.3526
 7949SOL     OW35479   3.208   1.095   7.757  0.3111 -0.2951  0.0956
 7949SOL    HW135480   3.268   1.030   7.794  1.4913  1.0973  0.5950
 7949SOL    HW235481   3.134   1.070   7.813  0.1732  2.7142  1.2507
 7950SOL     OW35482   1.765   2.771   4.481 -0.1861  0.5506  0.2846
 7950SOL    HW135483   1.720   2.855   4.490 -0.4719  0.2530  1.7040
 7950SOL    HW235484   1.743   2.733   4.567 -0.7871 -0.0602 -0.1398
 7951SOL     OW35485   4.722   3.994   8.657 -0.3357  0.3139 -0.4232
 7951SOL    HW135486   0.035   3.943   8.721 -2.7936 -2.6461 -0.8872
 7951SOL    HW235487   0.058   4.041   8.616 -2.4004  1.2558 -3.0111
 7952SOL     OW35488   1.385   3.666   1.223 -0.4784 -0.0401  0.7865
 7952SOL    HW135489   1.456   3.715   1.183 -0.1224 -0.5595  0.7783
 7952SOL    HW235490   1.309   3.711   1.188 -0.3812 -0.4347  0.0659
 7953SOL     OW35491   1.924   3.313  12.268  0.0510 -0.1778  0.1311
 7953SOL    HW135492   2.015   3.284  12.260 -0.3047 -1.1494 -0.3037
 7953SOL    HW235493   1.909   3.282  12.358  0.4782  1.3239  0.7162
 7954SOL     OW35494   1.558   0.075   3.822  0.3177 -0.5147 -0.1602
 7954SOL    HW135495   1.497   0.008   3.793  0.5336  0.1150 -2.1427
 7954SOL    HW235496   1.592   0.050   3.908  1.1696  2.3245  0.3400
 7955SOL     OW35497   3.778   3.908   2.336 -0.7209 -0.3548 -0.2368
 7955SOL    HW135498   3.807   3.818   2.349 -1.3304 -0.6246 -0.7181
 7955SOL    HW235499   3.686   3.911   2.365 -0.7374 -0.1632 -0.3077
 7956SOL     OW35500   2.017   4.710   9.095  0.4948 -0.2322 -0.0127
 7956SOL    HW135501   2.084   4.651   9.061 -0.2253 -0.9438 -0.1954
 7956SOL    HW235502   2.063   0.026   9.160  1.3986 -1.4103  0.2962
 7957SOL     OW35503   3.559   3.496   7.456 -0.2598 -0.1015  0.4390
 7957SOL    HW135504   3.526   3.427   7.400 -0.8974  0.6682 -0.1367
 7957SOL    HW235505   3.525   3.566   7.400 -0.6413 -0.9339 -0.3634
 7958SOL     OW35506   3.764   0.687  15.632 -0.3753  0.0777  0.7692
 7958SOL    HW135507   3.698   0.619  15.643  0.8120 -1.2103 -0.0090
 7958SOL    HW235508   3.715   0.767  15.648  3.3280  2.7989 -1.4904
 7959SOL     OW35509   0.133   3.621   7.741  0.1195 -0.1183  0.0153
 7959SOL    HW135510   0.070   3.557   7.774  0.8851 -0.2355  1.2333
 7959SOL    HW235511   0.198   3.630   7.811 -0.6687  2.2610  0.4245
 7960SOL     OW35512   1.748   3.327   7.781 -0.5665 -0.2815  0.2294
 7960SOL    HW135513   1.720   3.388   7.849  0.7874 -1.1484  1.5735
 7960SOL    HW235514   1.668   3.277   7.767  0.5271 -1.9459 -0.0908
 7961SOL     OW35515   3.625   2.877  16.563  0.0351 -0.0176 -0.2653
 7961SOL    HW135516   3.704   2.928  16.546 -0.2624  0.3937 -0.4290
 7961SOL    HW235517   3.608   2.897  16.655  0.8778  3.0494 -0.7665
 7962SOL     OW35518   2.273   2.631   3.058 -0.0944  0.2762  0.5804
 7962SOL    HW135519   2.277   2.726   3.065 -2.4243  0.4795 -1.0476
 7962SOL    HW235520   2.352   2.617   3.006 -1.2637  0.1530 -1.1704
 7963SOL     OW35521   4.247   0.507   8.011  0.1528  0.1830  0.3788
 7963SOL    HW135522   4.176   0.521   7.949  0.4811 -0.5700 -0.1533
 7963SOL    HW235523   4.188   0.511   8.086 -0.0707 -0.7590  0.2483
 7964SOL     OW35524   0.126   4.358   2.487  0.1056  0.5591 -0.2211
 7964SOL    HW135525   0.222   4.360   2.495 -0.0288 -2.4507  2.0311
 7964SOL    HW235526   0.108   4.276   2.442 -0.4596 -0.7264  2.3354
 7965SOL     OW35527   0.278   3.409   3.962  0.1439  0.0985  0.3923
 7965SOL    HW135528   0.225   3.458   3.899 -0.6428 -0.0436  0.9406
 7965SOL    HW235529   0.214   3.412   4.033  0.3732 -1.2044  0.6665
 7966SOL     OW35530   2.679   3.458  11.016 -0.1918 -0.1733 -0.3269
 7966SOL    HW135531   2.695   3.546  11.051 -0.5961 -0.0985 -0.3274
 7966SOL    HW235532   2.632   3.481  10.936  0.1586  0.2432 -0.4113
 7967SOL     OW35533   0.469   4.088   3.030  0.2377 -0.5646 -0.3311
 7967SOL    HW135534   0.431   4.029   3.095  0.9141 -0.9541 -0.2852
 7967SOL    HW235535   0.440   4.041   2.952 -1.7612  0.3802 -0.1427
 7968SOL     OW35536   3.716   3.984  10.725 -0.5934 -0.7252 -0.0252
 7968SOL    HW135537   3.626   3.994  10.754  0.6222  1.6919  2.9317
 7968SOL    HW235538   3.762   4.040  10.788 -2.1609 -0.2430  0.6723
 7969SOL     OW35539   1.474   1.579   9.352  0.0935 -1.3618  0.6251
 7969SOL    HW135540   1.442   1.667   9.373 -1.5366 -1.4459 -1.4848
 7969SOL    HW235541   1.397   1.522   9.355 -1.3774  0.5725 -0.0030
 7970SOL     OW35542   0.340   3.909   2.349 -0.3229 -0.3932  0.2678
 7970SOL    HW135543   0.431   3.884   2.333  0.3924  1.3084  1.5607
 7970SOL    HW235544   0.335   3.978   2.283  1.8600  2.1382  2.7012
 7971SOL     OW35545   1.730   1.844   6.372 -0.0504 -0.0643  0.5686
 7971SOL    HW135546   1.701   1.838   6.463  1.6332  0.5023  1.1447
 7971SOL    HW235547   1.646   1.820   6.333  0.2257  2.2312 -1.4450
 7972SOL     OW35548   3.582   0.637  16.079  0.3546  0.1900 -0.2910
 7972SOL    HW135549   3.670   0.653  16.115  0.3400 -4.1687  1.6719
 7972SOL    HW235550   3.556   0.562  16.133  0.3176  1.4334  1.4330
 7973SOL     OW35551   4.709   0.700   4.775 -0.5189 -0.3509 -0.6051
 7973SOL    HW135552   4.620   0.702   4.811 -0.1021 -3.0281  0.5415
 7973SOL    HW235553   0.026   0.760   4.826 -0.8552  0.8703 -1.6791
 7974SOL     OW35554   3.884   0.489   8.216  0.3193 -0.3809  0.4585
 7974SOL    HW135555   3.896   0.416   8.277  0.2991 -0.5433  0.2661
 7974SOL    HW235556   3.968   0.534   8.228 -0.1997  0.6368  0.2630
 7975SOL     OW35557   2.966   1.387   3.587 -0.4034  0.1414 -0.2084
 7975SOL    HW135558   2.905   1.324   3.548  0.2981  0.0128 -1.0808
 7975SOL    HW235559   3.002   1.426   3.507  0.9157 -1.7431 -0.5253
 7976SOL     OW35560   0.213   2.998   1.503 -0.2654  0.1151 -0.2280
 7976SOL    HW135561   0.217   2.904   1.525  0.7761  0.3823  0.7081
 7976SOL    HW235562   0.286   3.030   1.555 -0.4206  0.9624 -0.5327
 7977SOL     OW35563   1.280   3.702   7.016  0.4836  0.2446  0.0969
 7977SOL    HW135564   1.217   3.710   6.944 -0.1487  2.4520  0.9141
 7977SOL    HW235565   1.313   3.790   7.032  1.0795 -0.1296  0.9165
 7978SOL     OW35566   2.998   2.301   4.507  0.6295  0.1112 -0.0592
 7978SOL    HW135567   3.065   2.239   4.533  1.4745 -0.2731 -3.2676
 7978SOL    HW235568   2.971   2.277   4.419  2.7931 -0.3575 -0.5775
 7979SOL     OW35569   0.739   4.180   8.272 -0.5145  0.3013  0.2109
 7979SOL    HW135570   0.704   4.252   8.219  0.1718  1.4485  1.2996
 7979SOL    HW235571   0.833   4.199   8.264 -1.1579  3.0141 -0.9690
 7980SOL     OW35572   2.786   0.661  16.639  0.3786 -0.4809 -0.2033
 7980SOL    HW135573   2.692   0.655  16.657 -0.5581  3.0287 -3.8432
 7980SOL    HW235574   2.831   0.586  16.676 -0.3193 -1.6889 -1.8381
 7981SOL     OW35575   2.978   1.218   1.096 -0.6876 -0.1565 -0.0742
 7981SOL    HW135576   2.987   1.200   1.190 -0.3914  2.5647  0.4151
 7981SOL    HW235577   2.911   1.154   1.070  0.5848 -1.3135 -0.5098
 7982SOL     OW35578   0.962   1.219  13.041 -0.3776  0.4371 -0.3784
 7982SOL    HW135579   0.923   1.188  13.123  2.6978  0.9913  1.2760
 7982SOL    HW235580   0.944   1.147  12.979  0.9191 -1.6083  1.6148
 7983SOL     OW35581   4.490   0.894   7.898 -0.2717 -0.9477 -0.1693
 7983SOL    HW135582   4.396   0.880   7.886 -0.2253 -0.0618 -1.5310
 7983SOL    HW235583   4.489   0.928   7.987 -0.2329 -0.8755 -0.1971
 7984SOL     OW35584   2.582   1.191   0.012 -0.0279 -0.0331 -0.5344
 7984SOL    HW135585   2.554   1.186  17.666 -3.5804 -0.9693  0.5864
 7984SOL    HW235586   2.502   1.183   0.064 -0.6615  0.9276 -1.3491
 7985SOL     OW35587   4.333   0.810   2.171 -0.1241 -0.2095  0.1276
 7985SOL    HW135588   4.265   0.742   2.170  1.4123 -1.7589 -0.3163
 7985SOL    HW235589   4.300   0.879   2.227  1.7704 -0.0695  1.0730
 7986SOL     OW35590   0.804   1.841   6.960 -0.2845 -0.5144  0.3020
 7986SOL    HW135591   0.731   1.872   6.906  0.9925 -1.2346 -1.8230
 7986SOL    HW235592   0.854   1.777   6.910  0.2550  1.6439 -1.9712
 7987SOL     OW35593   1.711   0.961   7.000  0.3714 -0.0749 -0.2264
 7987SOL    HW135594   1.777   1.029   7.018  0.3942  0.1519 -1.1901
 7987SOL    HW235595   1.637   1.015   6.973 -0.5457 -0.2530  1.9535
 7988SOL     OW35596   3.485   3.890   4.462 -0.7605  0.0772  0.3823
 7988SOL    HW135597   3.501   3.906   4.369  1.1384 -0.5145  0.5941
 7988SOL    HW235598   3.578   3.891   4.485 -0.1714 -1.9747 -1.8749
 7989SOL     OW35599   3.881   4.512   6.814  0.0776 -0.4038  0.1609
 7989SOL    HW135600   3.787   4.524   6.807 -0.3537 -2.7473  1.7415
 7989SOL    HW235601   3.869   4.473   6.901 -2.0385 -1.5725 -0.6783
 7990SOL     OW35602   4.254   4.200   8.253 -0.6130  0.1428 -0.4099
 7990SOL    HW135603   4.205   4.215   8.333  0.6101  0.8872  0.2086
 7990SOL    HW235604   4.194   4.137   8.213 -2.0818  1.6866 -0.6346
 7991SOL     OW35605   4.081   3.342   3.234 -0.3218 -0.1265  0.3570
 7991SOL    HW135606   4.120   3.272   3.180 -0.2896 -0.8599  1.3226
 7991SOL    HW235607   4.105   3.427   3.197 -2.3238  0.2592 -0.0062
 7992SOL     OW35608   4.628   3.503   2.109  0.3776  0.1441  0.1624
 7992SOL    HW135609   4.558   3.554   2.068  0.3052 -0.7595 -0.8293
 7992SOL    HW235610   4.602   3.412   2.104 -0.0315  0.2306  0.7450
 7993SOL     OW35611   4.485   2.472   3.883  0.5994 -0.8950  0.0617
 7993SOL    HW135612   4.526   2.388   3.863 -0.2177 -0.4550 -3.4499
 7993SOL    HW235613   4.398   2.437   3.898 -1.2834  3.3920 -0.8043
 7994SOL     OW35614   4.613   0.838   1.385  0.2956 -0.1066  0.0854
 7994SOL    HW135615   4.546   0.773   1.409 -2.3107  1.7176 -2.3274
 7994SOL    HW235616   4.572   0.893   1.319 -1.7799 -1.7920 -0.0717
 7995SOL     OW35617   0.394   4.404   8.548  0.1615  0.1296 -0.2586
 7995SOL    HW135618   0.482   4.382   8.518 -0.0259  1.8998 -2.0477
 7995SOL    HW235619   0.371   4.479   8.495  0.3663 -1.1681 -2.1787
 7996SOL     OW35620   2.259   2.935   3.067  0.1127  0.0031 -0.3369
 7996SOL    HW135621   2.176   2.953   3.112  1.1831  0.9108  1.2555
 7996SOL    HW235622   2.236   2.971   2.981 -1.4036 -0.3500 -0.0856
 7997SOL     OW35623   4.254   1.766  12.250 -0.6589 -0.8030  0.6216
 7997SOL    HW135624   4.248   1.671  12.262  2.8696 -1.0644  0.2866
 7997SOL    HW235625   4.306   1.762  12.170 -0.0107 -1.0141  1.0559
 7998SOL     OW35626   4.608   3.323   0.504 -0.1911 -0.0886  0.2421
 7998SOL    HW135627   4.593   3.232   0.530 -1.8584 -0.1328 -0.8797
 7998SOL    HW235628   4.701   3.321   0.482  0.1079  1.5673  1.2929
 7999SOL     OW35629   2.300   2.813   6.632  0.4519  0.3094 -0.3124
 7999SOL    HW135630   2.383   2.847   6.598  1.4814  1.7343  3.5439
 7999SOL    HW235631   2.290   2.740   6.572  0.4823  0.0268  0.0255
 8000SOL     OW35632   3.762   4.700   6.278  0.1782 -0.3401 -0.0333
 8000SOL    HW135633   3.718   4.653   6.208  0.3205 -0.3548 -0.1139
 8000SOL    HW235634   3.716   0.047   6.280 -0.0278 -0.5063  2.6168
 8001SOL     OW35635   3.162   2.822   5.374 -0.5886  0.1774 -0.2865
 8001SOL    HW135636   3.132   2.887   5.310  0.4804 -0.1028 -1.0870
 8001SOL    HW235637   3.258   2.825   5.363 -0.4864 -0.7266  0.3674
 8002SOL     OW35638   3.327   3.225   3.341  0.4871 -0.0788 -0.2634
 8002SOL    HW135639   3.357   3.307   3.302  3.2347 -1.3350 -0.7759
 8002SOL    HW235640   3.349   3.243   3.432 -3.4249  1.0121  0.4774
 8003SOL     OW35641   1.227   4.446  14.630 -0.2424  0.5433 -0.3736
 8003SOL    HW135642   1.221   4.358  14.594  1.6600 -0.1257  0.9775
 8003SOL    HW235643   1.185   4.437  14.715 -0.5176  0.6849 -0.4909
 8004SOL     OW35644   2.494   0.773   5.928 -0.5434  0.5350  0.0004
 8004SOL    HW135645   2.500   0.680   5.948 -2.7051  0.4541  0.2658
 8004SOL    HW235646   2.402   0.789   5.949 -0.7903  0.0692 -0.7450
 8005SOL     OW35647   0.160   1.809   7.766 -0.6273 -0.0817  0.2048
 8005SOL    HW135648   0.104   1.743   7.806  0.3154 -1.7113 -1.1605
 8005SOL    HW235649   0.087   1.862   7.733 -0.8455  0.4780  1.5855
 8006SOL     OW35650   0.679   0.347   1.797  0.3677  0.4583 -0.4813
 8006SOL    HW135651   0.584   0.335   1.805  0.5813 -0.9737 -0.1962
 8006SOL    HW235652   0.709   0.325   1.885 -1.2157 -0.4621 -0.1667
 8007SOL     OW35653   3.936   3.856   9.798 -0.4969  1.0714 -0.0735
 8007SOL    HW135654   3.874   3.783   9.788  2.1441 -1.0616 -0.9052
 8007SOL    HW235655   3.876   3.930   9.787 -0.1444  1.6487  1.8554
 8008SOL     OW35656   4.585   0.367  15.825 -0.3469 -0.3901  0.3848
 8008SOL    HW135657   4.588   0.301  15.757 -0.8377 -0.4095  0.3801
 8008SOL    HW235658   4.492   0.392  15.818  0.2089  1.3071 -0.9170
 8009SOL     OW35659   3.079   2.922   6.692 -0.1025 -0.2578 -0.2743
 8009SOL    HW135660   3.035   2.871   6.760  2.1544 -0.8690  0.7392
 8009SOL    HW235661   3.052   3.010   6.716 -1.7152 -0.9476  0.4375
 8010SOL     OW35662   1.550   1.010   3.005 -0.0599 -0.0933 -0.3215
 8010SOL    HW135663   1.613   1.047   2.943 -0.1065  2.2860  1.0238
 8010SOL    HW235664   1.495   0.964   2.942 -1.5867  1.4470 -0.1188
 8011SOL     OW35665   3.348   4.492  17.723 -0.4020  0.3671 -0.1288
 8011SOL    HW135666   3.303   4.418   0.018  0.7116 -0.7510 -0.9363
 8011SOL    HW235667   3.311   4.568   0.021  1.2409  1.3274 -0.4000
 8012SOL     OW35668   1.265   3.334   1.847 -0.4248  0.1705  0.3443
 8012SOL    HW135669   1.290   3.380   1.767 -0.5686 -1.5767 -0.7272
 8012SOL    HW235670   1.325   3.380   1.906 -0.2886  1.0458 -0.4920
 8013SOL     OW35671   0.686   1.540   9.207 -0.5285 -1.1879  0.5746
 8013SOL    HW135672   0.614   1.602   9.200  0.5972  0.0466  0.0565
 8013SOL    HW235673   0.682   1.507   9.117 -1.8244  0.3895  0.0646
 8014SOL     OW35674   2.263   1.058   1.910 -0.7887 -0.6515 -0.5055
 8014SOL    HW135675   2.298   0.993   1.849 -0.0024  0.0776 -0.8273
 8014SOL    HW235676   2.257   0.999   1.985  0.8461 -0.1535  0.0202
 8015SOL     OW35677   3.296   4.430   9.957  0.4887  0.2736 -0.0166
 8015SOL    HW135678   3.278   4.376  10.033  0.8648  0.0746 -0.0693
 8015SOL    HW235679   3.212   4.425   9.911  1.5551  0.5154 -1.9982
 8016SOL     OW35680   3.328   2.823  13.980 -0.4562 -0.1120  0.3380
 8016SOL    HW135681   3.247   2.779  13.956 -0.7366  0.9918 -0.7272
 8016SOL    HW235682   3.388   2.750  13.995  0.8924  1.1474  1.1530
 8017SOL     OW35683   1.562   2.524   4.712 -0.4603  0.1254 -0.1205
 8017SOL    HW135684   1.532   2.589   4.648 -1.3607 -0.4042 -0.2395
 8017SOL    HW235685   1.650   2.555   4.729 -0.2938 -0.7255  0.5877
 8018SOL     OW35686   0.504   4.168   4.617 -0.6346 -0.6621  0.0245
 8018SOL    HW135687   0.569   4.108   4.653  0.6199  1.2665  0.9095
 8018SOL    HW235688   0.520   4.174   4.523 -0.5721 -0.2418  0.0614
 8019SOL     OW35689   3.560   2.645   6.744  0.1246 -0.4172 -0.0116
 8019SOL    HW135690   3.468   2.624   6.732  0.6866 -1.7282 -1.9967
 8019SOL    HW235691   3.606   2.562   6.755  1.1260 -0.2625 -2.8961
 8020SOL     OW35692   3.345   0.324   3.045 -0.0220  0.1078  0.0278
 8020SOL    HW135693   3.282   0.289   3.107  1.1431  0.8445  1.6125
 8020SOL    HW235694   3.326   0.414   3.070  1.4513  0.0435  1.3628
 8021SOL     OW35695   1.202   2.337   1.738 -0.3279  0.0498  0.4751
 8021SOL    HW135696   1.222   2.430   1.741  1.9965 -0.4307 -0.6365
 8021SOL    HW235697   1.203   2.312   1.831  0.3151 -0.5185  0.3116
 8022SOL     OW35698   2.186   2.451   8.615 -0.1049  0.3858 -0.6144
 8022SOL    HW135699   2.198   2.383   8.680 -0.7394 -2.0503 -3.0297
 8022SOL    HW235700   2.112   2.502   8.647 -0.7419 -1.8182  1.4182
 8023SOL     OW35701   4.018   2.219   3.879 -0.6305 -0.7149 -0.1448
 8023SOL    HW135702   3.972   2.237   3.797  1.2283 -2.1261 -1.5081
 8023SOL    HW235703   4.105   2.191   3.853  0.3998  1.6574  0.7497
 8024SOL     OW35704   1.923   2.228  16.265 -0.0922  0.5496  0.6995
 8024SOL    HW135705   1.897   2.230  16.357  0.7549 -1.0473  0.9792
 8024SOL    HW235706   1.846   2.267  16.223  0.4281  0.2526 -0.5295
 8025SOL     OW35707   0.532   2.627  15.124  0.5173  0.0584  0.2164
 8025SOL    HW135708   0.469   2.614  15.054  1.0080 -2.8560  0.3055
 8025SOL    HW235709   0.588   2.549  15.119  0.1457 -0.2005  0.1375
 8026SOL     OW35710   1.670   4.057  13.551 -0.1837 -0.2687 -0.6197
 8026SOL    HW135711   1.755   4.021  13.526 -0.5989 -0.2768 -2.0493
 8026SOL    HW235712   1.629   4.056  13.464 -1.7270 -0.1704  0.1080
 8027SOL     OW35713   2.142   1.890   6.813  0.2834 -0.4801  0.4138
 8027SOL    HW135714   2.188   1.886   6.729  2.9986  0.2096  1.8594
 8027SOL    HW235715   2.054   1.920   6.792  0.2951 -1.0855 -0.4792
 8028SOL     OW35716   1.338   2.610   6.456 -0.1334  0.1411 -0.1293
 8028SOL    HW135717   1.248   2.576   6.453  0.7313 -2.3093  1.2712
 8028SOL    HW235718   1.363   2.582   6.544  0.2247  3.3810  0.7818
 8029SOL     OW35719   2.732   2.284   3.406 -0.0638  0.2932  0.1025
 8029SOL    HW135720   2.800   2.326   3.458 -2.2116 -0.1959  3.3223
 8029SOL    HW235721   2.789   2.230   3.351 -0.1828 -0.0742  0.3400
 8030SOL     OW35722   3.480   4.136   9.249  0.2260  0.5808  0.2187
 8030SOL    HW135723   3.443   4.060   9.204 -2.0292  1.8317 -0.0473
 8030SOL    HW235724   3.506   4.196   9.180  2.8165  0.5642  1.1512
 8031SOL     OW35725   3.897   4.249   0.417 -0.0484 -0.1620 -0.1580
 8031SOL    HW135726   3.987   4.270   0.440  0.9179 -2.1676 -2.0989
 8031SOL    HW235727   3.870   4.335   0.383  1.7778 -0.5263 -2.5747
 8032SOL     OW35728   2.335   1.794   3.520  0.2953  0.4214 -0.1443
 8032SOL    HW135729   2.252   1.836   3.497  0.7020  1.7565  0.8296
 8032SOL    HW235730   2.312   1.702   3.509 -0.5368  0.6512 -0.3594
 8033SOL     OW35731   1.197   2.328   7.433  0.0894  0.1692  0.1398
 8033SOL    HW135732   1.224   2.401   7.487  1.1231 -0.5959  0.6571
 8033SOL    HW235733   1.165   2.272   7.504 -3.6309  0.0956 -1.5975
 8034SOL     OW35734   3.502   1.424   1.102  0.5074 -0.1782  0.2095
 8034SOL    HW135735   3.528   1.516   1.099 -0.9867  0.2057 -1.1422
 8034SOL    HW235736   3.547   1.403   1.184 -1.9438 -3.8566  0.6166
 8035SOL     OW35737   2.268   2.736   3.640 -0.6490 -0.1426 -0.2706
 8035SOL    HW135738   2.202   2.670   3.615  0.9942 -1.9728  0.2094
 8035SOL    HW235739   2.243   2.806   3.580 -0.1866 -1.3864 -1.9307
 8036SOL     OW35740   0.770   0.168  13.912 -0.4969 -0.2359 -0.8769
 8036SOL    HW135741   0.746   0.132  13.998  4.5776 -1.8488 -0.1440
 8036SOL    HW235742   0.861   0.190  13.929 -0.8499  1.8694 -1.7666
 8037SOL     OW35743   2.494   2.192   7.035 -0.4200  0.4405 -0.0424
 8037SOL    HW135744   2.405   2.189   7.000 -0.7400  0.5397  0.7590
 8037SOL    HW235745   2.531   2.240   6.961  2.4452 -3.2249 -0.9620
 8038SOL     OW35746   3.113   4.577  10.175  0.1986  0.6432  0.4309
 8038SOL    HW135747   3.095   4.609  10.086 -0.1119 -0.2153  0.1826
 8038SOL    HW235748   3.187   4.630  10.204 -0.5204  0.8021  1.9644
 8039SOL     OW35749   2.862   2.637   3.932  0.2851  0.0468  0.4055
 8039SOL    HW135750   2.955   2.617   3.943  0.5882  0.7031 -0.9243
 8039SOL    HW235751   2.827   2.610   4.017 -3.0390 -0.1505 -1.0230
 8040SOL     OW35752   0.067   3.233   7.845  0.6075 -0.0798  0.3171
 8040SOL    HW135753   0.127   3.269   7.910  1.6048 -0.0122 -0.6424
 8040SOL    HW235754   4.732   3.295   7.835  0.6002 -0.0825  0.3533
 8041SOL     OW35755   2.828   1.962  16.295  0.2175  0.0896  0.7915
 8041SOL    HW135756   2.752   2.016  16.315  0.3814  1.1664 -1.6065
 8041SOL    HW235757   2.800   1.892  16.235 -1.9391 -0.0558  1.9644
 8042SOL     OW35758   1.609   0.953  10.382 -0.9839  0.3723 -0.1116
 8042SOL    HW135759   1.635   1.037  10.418 -0.0428  0.2410 -0.5023
 8042SOL    HW235760   1.635   0.976  10.293  2.5074  0.5014  0.9737
 8043SOL     OW35761   2.391   0.645   5.561  0.0567  0.0489 -0.5435
 8043SOL    HW135762   2.375   0.610   5.473  2.5246 -0.6409 -0.7227
 8043SOL    HW235763   2.481   0.617   5.580  0.1875  1.1408  0.3861
 8044SOL     OW35764   3.988   3.539  12.833 -0.2527  0.0176  0.1119
 8044SOL    HW135765   3.907   3.578  12.800  0.5477  2.7043  1.2982
 8044SOL    HW235766   4.054   3.598  12.797 -0.3435  1.1499  1.8029
 8045SOL     OW35767   1.258   2.828   9.629  0.0890 -0.0058 -0.0929
 8045SOL    HW135768   1.302   2.907   9.658 -0.6533  0.4878 -0.2999
 8045SOL    HW235769   1.166   2.852   9.614  0.8797  4.3287  1.9922
 8046SOL     OW35770   1.204   4.695   0.564  0.0624  0.3222  0.1408
 8046SOL    HW135771   1.146   4.626   0.532 -0.2581  1.2565 -1.3010
 8046SOL    HW235772   1.289   4.666   0.530  0.2893  0.4757  0.5758
 8047SOL     OW35773   1.262   0.915   6.172  0.2489  0.3533  0.4548
 8047SOL    HW135774   1.228   0.976   6.106  2.9468  0.9934 -0.3617
 8047SOL    HW235775   1.254   0.837   6.118  1.3525  2.2769 -2.5201
 8048SOL     OW35776   1.532   3.607  16.947 -0.1295 -0.1353  0.3685
 8048SOL    HW135777   1.575   3.566  17.022  0.8834 -1.0987 -0.7543
 8048SOL    HW235778   1.502   3.693  16.977  0.0736  0.4583 -1.1353
 8049SOL     OW35779   3.382   1.403  10.021  0.3267  0.2870  0.2685
 8049SOL    HW135780   3.470   1.364  10.014  0.2719  0.1017  0.5873
 8049SOL    HW235781   3.411   1.494  10.029 -3.2155  1.1951  2.8246
 8050SOL     OW35782   4.545   3.015   7.054  0.4388  0.7763 -0.0751
 8050SOL    HW135783   4.529   3.036   6.961 -1.4191  1.8856  0.4947
 8050SOL    HW235784   4.464   3.044   7.096 -0.2064 -0.4217 -0.4768
 8051SOL     OW35785   0.368   3.674   6.072  0.1879  0.1012  0.1350
 8051SOL    HW135786   0.463   3.674   6.057  0.0434 -1.7895 -0.8120
 8051SOL    HW235787   0.344   3.581   6.065 -0.7080  0.2091  1.8317
 8052SOL     OW35788   1.930   3.412   0.362 -0.1068  0.5400 -0.8457
 8052SOL    HW135789   1.958   3.463   0.286 -0.0856 -0.0143 -1.2183
 8052SOL    HW235790   1.941   3.471   0.436  0.0787  0.9173 -1.1757
 8053SOL     OW35791   4.007   3.096   6.100  0.4725  0.6544 -0.0626
 8053SOL    HW135792   4.029   3.164   6.164 -0.4896 -0.0218  0.9833
 8053SOL    HW235793   4.022   3.018   6.153  1.3514 -1.8204 -4.0248
 8054SOL     OW35794   0.247   2.918  10.217 -0.1605  0.4820  0.6434
 8054SOL    HW135795   0.221   2.939  10.307  0.7029 -2.3605  1.5581
 8054SOL    HW235796   0.164   2.925  10.170 -0.2282  1.1513  0.8567
 8055SOL     OW35797   2.650   3.947   8.816  0.2823  0.0502  0.0587
 8055SOL    HW135798   2.576   3.894   8.844 -1.0445  2.1846  0.5848
 8055SOL    HW235799   2.651   3.937   8.721  0.3687  0.4386  0.0172
 8056SOL     OW35800   2.823   2.704   2.791  0.7071  0.4077 -0.9957
 8056SOL    HW135801   2.848   2.623   2.747 -0.2099  0.0439 -0.8441
 8056SOL    HW235802   2.811   2.681   2.883 -1.0960 -1.3845 -1.6929
 8057SOL     OW35803   3.445   3.542   4.377  0.2874 -1.0962  0.4213
 8057SOL    HW135804   3.496   3.607   4.329  3.6753 -3.7750  0.3851
 8057SOL    HW235805   3.510   3.518   4.443 -1.3968 -1.1014  2.0698
 8058SOL     OW35806   3.272   3.333   2.530 -0.3808 -0.5614  0.1834
 8058SOL    HW135807   3.348   3.279   2.553 -1.3989 -2.8010 -1.7031
 8058SOL    HW235808   3.237   3.351   2.618  0.6096 -1.7662  0.8278
 8059SOL     OW35809   1.959   0.735  15.306 -0.2796 -0.5056  0.2663
 8059SOL    HW135810   2.040   0.710  15.262  0.2620 -0.0371  1.0025
 8059SOL    HW235811   1.973   0.737  15.400 -1.4596  1.9597  0.3694
 8060SOL     OW35812   2.896   0.317   2.395 -0.3443  0.1676  0.2906
 8060SOL    HW135813   2.852   0.401   2.382 -1.5348 -0.8227 -2.0354
 8060SOL    HW235814   2.929   0.314   2.305  1.0883  0.7183  0.7960
 8061SOL     OW35815   0.534   0.597   7.588  0.3299 -0.0841  0.3352
 8061SOL    HW135816   0.507   0.509   7.616 -0.0617 -0.1057 -0.1100
 8061SOL    HW235817   0.450   0.633   7.561  0.4465 -0.5366 -0.6679
 8062SOL     OW35818   3.740   0.765   7.742 -0.8308  0.1519  0.1350
 8062SOL    HW135819   3.810   0.822   7.774 -2.0912  1.6311  0.2133
 8062SOL    HW235820   3.706   0.817   7.669 -2.2153  0.2655  0.8723
 8063SOL     OW35821   2.232   3.779   1.740  0.0132  0.2477  0.1468
 8063SOL    HW135822   2.234   3.830   1.659  2.1158  0.5848  0.4168
 8063SOL    HW235823   2.144   3.790   1.774 -0.2034 -2.5243  0.4567
 8064SOL     OW35824   3.052   3.178  11.096  0.7891 -0.1392  0.6350
 8064SOL    HW135825   3.034   3.084  11.088  0.9872 -0.0032 -1.2633
 8064SOL    HW235826   3.018   3.189  11.185  3.7705  0.8290  1.6284
 8065SOL     OW35827   2.766   1.661   6.216  0.1106 -0.2225  0.0538
 8065SOL    HW135828   2.793   1.671   6.307 -1.6163  1.3847  0.4092
 8065SOL    HW235829   2.714   1.740   6.200  0.0579  0.0957  1.7672
 8066SOL     OW35830   4.599   3.267  13.896  0.0945  0.5010 -0.0918
 8066SOL    HW135831   4.561   3.179  13.905  0.6090  0.2688 -0.1865
 8066SOL    HW235832   4.567   3.290  13.809  0.5308  0.7973 -0.1693
 8067SOL     OW35833   0.377   1.336   5.404  0.5155 -0.0844 -0.8560
 8067SOL    HW135834   0.329   1.400   5.353 -0.1012  1.5319  1.7521
 8067SOL    HW235835   0.328   1.353   5.485 -0.5254 -2.4052 -0.9799
 8068SOL     OW35836   2.630   1.615   0.840 -0.4467 -1.2922 -0.4584
 8068SOL    HW135837   2.591   1.692   0.882  0.8398 -2.3109  2.5941
 8068SOL    HW235838   2.550   1.575   0.804 -0.7834  0.1464 -1.3308
 8069SOL     OW35839   1.476   2.550  16.778  0.1397 -0.6539  0.0521
 8069SOL    HW135840   1.544   2.493  16.744  0.2722 -1.7879  2.2045
 8069SOL    HW235841   1.531   2.621  16.810 -0.9793  0.2034  0.1105
 8070SOL     OW35842   4.630   3.290   7.339 -0.0488 -0.3178  0.8109
 8070SOL    HW135843   4.630   3.219   7.403  2.5328 -1.6107 -0.6384
 8070SOL    HW235844   4.660   3.366   7.389  1.2759 -0.1376 -0.2620
 8071SOL     OW35845   3.410   0.491   1.351 -0.6257 -0.3840 -0.6633
 8071SOL    HW135846   3.439   0.458   1.266 -0.1531 -0.9014 -0.3020
 8071SOL    HW235847   3.337   0.545   1.320  0.4877  1.9715  0.8065
 8072SOL     OW35848   1.396   3.274  13.279 -0.1552 -0.3343  0.3779
 8072SOL    HW135849   1.314   3.296  13.324 -0.6036  0.2361 -0.7125
 8072SOL    HW235850   1.401   3.349  13.220  1.7920 -1.0353 -0.3329
 8073SOL     OW35851   2.119   2.863   4.458  0.8074  0.3114 -0.6008
 8073SOL    HW135852   2.177   2.896   4.389  0.2078  1.9235 -0.3494
 8073SOL    HW235853   2.047   2.922   4.433  0.1625  0.3192  1.2554
 8074SOL     OW35854   4.167   2.212   2.211  0.1936 -0.1971 -0.4050
 8074SOL    HW135855   4.096   2.241   2.153  0.4627 -0.2866 -0.7799
 8074SOL    HW235856   4.224   2.160   2.154 -0.0402  0.4609 -1.2292
 8075SOL     OW35857   1.981   1.725   3.584  0.2060  0.1203  0.2705
 8075SOL    HW135858   2.022   1.766   3.508  1.6753 -0.1903  0.8981
 8075SOL    HW235859   2.053   1.669   3.613  0.5495  0.8464  0.8264
 8076SOL     OW35860   0.683   3.505  16.662  0.2635 -0.0104 -0.3167
 8076SOL    HW135861   0.588   3.493  16.665  0.2948  0.2583  1.4077
 8076SOL    HW235862   0.712   3.430  16.714  0.7320 -0.2979 -0.9912
 8077SOL     OW35863   1.475   0.945   4.362  0.5971 -0.3794 -0.0541
 8077SOL    HW135864   1.389   0.907   4.343 -0.5129  2.6867 -1.1378
 8077SOL    HW235865   1.486   1.001   4.285  0.5076  1.3799  1.2300
 8078SOL     OW35866   4.350   3.863   8.507 -0.1034 -0.6983 -0.2810
 8078SOL    HW135867   4.359   3.955   8.532  1.0815 -1.2303  1.2583
 8078SOL    HW235868   4.404   3.826   8.577 -2.0192  0.0923  1.5933
 8079SOL     OW35869   4.543   0.126   5.299  0.1611 -0.3645  0.5115
 8079SOL    HW135870   4.448   0.123   5.313  0.2447  0.5832  1.2910
 8079SOL    HW235871   4.554   0.203   5.355 -2.8007 -0.3323  1.0926
 8080SOL     OW35872   4.654   3.492   7.852 -0.2651 -0.2859 -0.2617
 8080SOL    HW135873   4.576   3.447   7.820 -1.1317  1.7755 -1.0969
 8080SOL    HW235874   4.618   3.560   7.909 -2.7869 -1.4276 -0.5040
 8081SOL     OW35875   3.027   0.427   6.738 -0.1526  0.4300  0.0753
 8081SOL    HW135876   3.005   0.403   6.648 -0.9935 -0.0949  0.4215
 8081SOL    HW235877   3.037   0.343   6.781  1.5392 -0.2087 -1.5811
 8082SOL     OW35878   0.651   4.155   0.342  0.5604 -0.3729 -0.2015
 8082SOL    HW135879   0.711   4.220   0.304  0.1030 -0.1693 -0.5721
 8082SOL    HW235880   0.597   4.124   0.269  4.6177 -2.8812 -2.0989
 8083SOL     OW35881   3.518   1.086   8.443 -0.0456  0.3144 -0.1638
 8083SOL    HW135882   3.458   1.067   8.371  0.0090 -0.6750  0.0512
 8083SOL    HW235883   3.601   1.083   8.397 -0.6703  0.6165 -1.3077
 8084SOL     OW35884   1.521   2.563  15.417 -0.8510  0.2052 -0.3367
 8084SOL    HW135885   1.564   2.498  15.473  0.3486 -0.1577 -1.6572
 8084SOL    HW235886   1.598   2.598  15.372 -0.1620 -0.7552  0.1026
 8085SOL     OW35887   3.111   0.041   8.577  0.2250  0.2562 -0.2423
 8085SOL    HW135888   3.105   0.116   8.635  2.4309  0.4759 -0.2906
 8085SOL    HW235889   3.116   0.067   8.485 -0.3726 -3.6913 -1.4110
 8086SOL     OW35890   2.321   4.184  13.084 -0.5191  0.5538  0.5111
 8086SOL    HW135891   2.274   4.234  13.017  0.3599  2.2588  1.1842
 8086SOL    HW235892   2.408   4.223  13.080 -1.1858  2.2223  2.3556
 8087SOL     OW35893   0.214   4.139   0.272  0.4252 -0.2084 -0.4060
 8087SOL    HW135894   0.265   4.217   0.248 -0.6661  1.0253  1.2573
 8087SOL    HW235895   0.189   4.140   0.364 -1.2652 -0.0819 -0.8675
 8088SOL     OW35896   1.750   2.209   9.691 -0.0879 -0.1507  0.4160
 8088SOL    HW135897   1.703   2.161   9.760  1.9742  1.2747  2.8154
 8088SOL    HW235898   1.827   2.227   9.745 -0.7132 -0.0562  1.2736
 8089SOL     OW35899   0.718   0.711   9.496  0.3540 -0.5398  0.2286
 8089SOL    HW135900   0.689   0.662   9.418  0.4484 -0.3795  0.0935
 8089SOL    HW235901   0.673   0.657   9.561 -2.2965 -0.0254 -1.1903
 8090SOL     OW35902   2.862   0.208   7.754  0.0838 -0.5537  0.4736
 8090SOL    HW135903   2.793   0.154   7.714  0.6906  0.5564 -2.0877
 8090SOL    HW235904   2.889   0.243   7.669 -1.2524 -0.7135 -0.0239
 8091SOL     OW35905   4.633   0.113   3.680 -0.0760  0.3539 -0.3959
 8091SOL    HW135906   4.574   0.180   3.644  1.0171  1.8706  0.6399
 8091SOL    HW235907   4.613   0.034   3.630  0.5285  1.2729 -2.1135
 8092SOL     OW35908   0.087   3.722   1.546 -0.3618  0.0359 -0.3153
 8092SOL    HW135909   0.031   3.671   1.605  1.9282  0.3588  2.1752
 8092SOL    HW235910   0.172   3.695   1.583 -1.6066 -1.5796  1.3729
 8093SOL     OW35911   1.325   2.572   6.149  1.2516  0.4922  0.4214
 8093SOL    HW135912   1.343   2.573   6.243  1.9584 -1.5136  0.3062
 8093SOL    HW235913   1.230   2.562   6.147  1.2477  0.4272  0.9440
 8094SOL     OW35914   2.738   0.636   1.939  0.0603 -0.6437  0.3116
 8094SOL    HW135915   2.664   0.620   1.881  0.3376  0.0785 -0.2360
 8094SOL    HW235916   2.730   0.732   1.941  0.4783 -0.6095  0.3559
 8095SOL     OW35917   0.455   3.443   1.439 -0.3055 -0.1980  0.4602
 8095SOL    HW135918   0.409   3.385   1.378 -0.0014 -1.5280  1.5169
 8095SOL    HW235919   0.500   3.382   1.496  1.0528  0.5779  0.2239
 8096SOL     OW35920   2.784   4.213   1.242 -0.3398  0.4744  0.4111
 8096SOL    HW135921   2.869   4.188   1.206  0.3846  3.3243  0.0975
 8096SOL    HW235922   2.725   4.193   1.169  2.2324 -0.7773 -1.3398
 8097SOL     OW35923   1.622   1.186   9.216 -0.2742  0.2411 -0.8999
 8097SOL    HW135924   1.594   1.180   9.124 -1.8994  1.1937 -0.4817
 8097SOL    HW235925   1.706   1.230   9.205 -0.7549  0.7528 -2.6698
 8098SOL     OW35926   1.922   1.475   6.081 -0.4998 -0.0260 -0.2294
 8098SOL    HW135927   1.993   1.527   6.044  1.2655 -1.6946  0.7613
 8098SOL    HW235928   1.966   1.444   6.161 -0.3535  0.7276 -0.0193
 8099SOL     OW35929   3.139   2.230  15.799  0.6538 -0.3261 -0.2897
 8099SOL    HW135930   3.233   2.224  15.781  0.8051  1.3684 -0.0388
 8099SOL    HW235931   3.124   2.139  15.824  0.7286 -0.3665 -0.3912
 8100SOL     OW35932   0.087   2.029   8.618  0.0710  0.2402  0.3328
 8100SOL    HW135933   0.001   2.028   8.575  0.3802  0.9604 -0.2954
 8100SOL    HW235934   0.082   1.947   8.668 -1.4435 -0.4147 -0.8900
 8101SOL     OW35935   1.770   0.887   4.784 -0.4974  0.0977 -0.5034
 8101SOL    HW135936   1.858   0.923   4.777 -0.6457  0.8888  1.5079
 8101SOL    HW235937   1.721   0.912   4.706 -0.2802  0.9266 -0.3727
 8102SOL     OW35938   0.507   1.494   0.766 -0.4953  0.4425  0.3883
 8102SOL    HW135939   0.538   1.548   0.693 -0.5835  0.7151  0.5501
 8102SOL    HW235940   0.485   1.565   0.826 -2.2964 -0.3611  0.6782
 8103SOL     OW35941   0.436   0.639   8.153  0.5759  0.2115  0.1689
 8103SOL    HW135942   0.419   0.605   8.065  0.6263  2.4031 -0.7045
 8103SOL    HW235943   0.356   0.608   8.197  0.2919 -0.5942 -0.9157
 8104SOL     OW35944   0.905   4.468  12.290 -0.3661  0.2711  0.4005
 8104SOL    HW135945   0.943   4.555  12.275  3.4358 -1.4478 -0.0816
 8104SOL    HW235946   0.858   4.485  12.371 -0.6428 -1.5995  0.6282
 8105SOL     OW35947   0.984   2.461  16.273  0.2504  0.0113  0.3527
 8105SOL    HW135948   0.981   2.554  16.253  0.7773  0.1363  0.8489
 8105SOL    HW235949   0.895   2.436  16.248 -0.0533 -0.3039  1.7389
 8106SOL     OW35950   1.120   2.458  10.273  0.9526  0.4887 -0.0342
 8106SOL    HW135951   1.205   2.414  10.269 -1.1069 -3.4152 -0.9261
 8106SOL    HW235952   1.077   2.402  10.338  2.4575 -0.4872  0.1155
 8107SOL     OW35953   0.222   3.675  14.487 -0.5488  0.3860  0.0394
 8107SOL    HW135954   0.145   3.729  14.506  0.2991  2.5252 -2.6146
 8107SOL    HW235955   0.247   3.715  14.404  1.3294 -0.0808  0.3831
 8108SOL     OW35956   4.284   3.665   7.901  0.1367  0.1480 -0.3792
 8108SOL    HW135957   4.221   3.738   7.903 -0.3357 -0.2315 -1.1415
 8108SOL    HW235958   4.283   3.636   7.809  2.1286 -0.7318 -0.1017
 8109SOL     OW35959   3.996   2.522  13.041 -0.0597  0.3049  0.1789
 8109SOL    HW135960   3.967   2.458  12.977 -1.6988 -0.6900  1.9199
 8109SOL    HW235961   3.920   2.554  13.090  0.4653 -0.1656  1.2882
 8110SOL     OW35962   2.203   2.420   3.748 -0.0173  0.4494 -0.2158
 8110SOL    HW135963   2.158   2.452   3.670 -1.1077  1.2442  0.7521
 8110SOL    HW235964   2.290   2.459   3.739  0.0240  0.0080 -1.7979
 8111SOL     OW35965   0.569   2.457   4.209  0.5552  0.1826 -0.0727
 8111SOL    HW135966   0.633   2.386   4.206 -0.8115 -1.0373 -0.6743
 8111SOL    HW235967   0.487   2.411   4.224  0.6987 -0.6839 -2.0194
 8112SOL     OW35968   0.846   3.048   3.200  0.5215  0.2690  0.2915
 8112SOL    HW135969   0.772   3.030   3.258  0.7678 -1.3115  0.1180
 8112SOL    HW235970   0.900   3.101   3.259  0.9280  0.8800 -0.6342
 8113SOL     OW35971   4.611   1.525   6.019  0.7180  0.3672  0.2571
 8113SOL    HW135972   4.668   1.567   6.084  3.1025 -0.5656 -1.2136
 8113SOL    HW235973   4.531   1.577   6.027  1.2242  1.1706  0.1084
 8114SOL     OW35974   3.096   3.217   5.999  0.4554 -0.5976  0.1767
 8114SOL    HW135975   3.043   3.261   5.934 -1.5505  1.1386  2.9876
 8114SOL    HW235976   3.146   3.293   6.028  2.0782 -1.8459  0.6905
 8115SOL     OW35977   1.956   2.060   4.787  0.8273 -0.1718  0.2830
 8115SOL    HW135978   2.050   2.074   4.780  0.7802  0.0923  0.1564
 8115SOL    HW235979   1.920   2.041   4.700  0.4542  2.0180 -0.0332
 8116SOL     OW35980   2.433   0.926  10.172 -0.4708 -0.2788 -0.0759
 8116SOL    HW135981   2.517   0.910  10.215  0.4060  1.3134 -1.1935
 8116SOL    HW235982   2.437   1.020  10.157  1.4728 -0.2396  0.6078
 8117SOL     OW35983   0.712   1.057   1.958  0.0272  0.3391 -0.0352
 8117SOL    HW135984   0.769   1.032   1.885 -0.9880  1.7120 -1.3071
 8117SOL    HW235985   0.677   0.972   1.987  0.7013  0.5746  1.4517
 8118SOL     OW35986   1.966   2.313   8.183 -0.0359 -0.4785  0.8478
 8118SOL    HW135987   2.022   2.263   8.123  0.5631  2.5007 -1.1006
 8118SOL    HW235988   1.877   2.278   8.184 -0.6586  1.1270  1.2925
 8119SOL     OW35989   1.404   3.115   6.148  0.1319 -0.4187  0.3059
 8119SOL    HW135990   1.354   3.101   6.229 -0.4827  0.7275  0.1168
 8119SOL    HW235991   1.490   3.139   6.182  0.0315  1.0166 -0.4883
 8120SOL     OW35992   3.779   3.962   7.242  0.0670 -0.1088 -0.0842
 8120SOL    HW135993   3.867   3.935   7.217  0.6447  0.8004  0.9541
 8120SOL    HW235994   3.734   3.938   7.161 -0.8332 -1.6825  0.8826
 8121SOL     OW35995   3.518   3.166   8.544  0.4611 -0.1084 -0.6088
 8121SOL    HW135996   3.554   3.254   8.530  0.5339 -0.5141 -2.9811
 8121SOL    HW235997   3.437   3.186   8.591  1.7555  0.6720  1.3099
 8122SOL     OW35998   3.828   2.027   5.441 -0.4998  0.1790 -0.5240
 8122SOL    HW135999   3.791   1.952   5.396  1.3473 -1.1060  0.0888
 8122SOL    HW236000   3.745   2.073   5.451 -0.5151  0.2306 -0.9204
 8123SOL     OW36001   4.540   2.018   6.084  0.2818  0.3134  0.9808
 8123SOL    HW136002   4.603   1.964   6.131  0.7324 -0.6197 -0.7153
 8123SOL    HW236003   4.595   2.029   6.006  0.7110 -1.1611  1.0887
 8124SOL     OW36004   2.604   2.118  16.378 -0.6223  0.1347 -0.3443
 8124SOL    HW136005   2.562   2.049  16.328  0.6698 -1.0227  0.1524
 8124SOL    HW236006   2.527   2.174  16.383  0.6103  1.8801 -0.8815
 8125SOL     OW36007   4.683   1.885  10.191  0.2091  0.0055  0.2809
 8125SOL    HW136008   4.616   1.878  10.259  0.4073  2.2021  0.7143
 8125SOL    HW236009   0.025   1.901  10.242  0.6346  2.5988 -1.1886
 8126SOL     OW36010   1.132   3.816  13.325 -0.0704 -0.0705  0.3771
 8126SOL    HW136011   1.204   3.757  13.303 -0.7449 -0.7396 -0.0529
 8126SOL    HW236012   1.088   3.749  13.378 -0.5131 -0.9037 -1.0350
 8127SOL     OW36013   2.242   0.997  14.991 -0.2478  0.4111 -0.7507
 8127SOL    HW136014   2.213   0.927  14.933 -2.8640 -0.9850  2.2418
 8127SOL    HW236015   2.321   0.953  15.023 -0.7885 -0.4284 -0.5537
 8128SOL     OW36016   4.056   3.845   9.089 -0.2423 -0.1186  0.1534
 8128SOL    HW136017   4.027   3.886   9.007  2.1432  2.5284  0.6234
 8128SOL    HW236018   3.984   3.866   9.148 -1.3670  0.7460 -1.4972
 8129SOL     OW36019   1.778   0.809   2.927  0.3285  0.0310  0.7236
 8129SOL    HW136020   1.833   0.887   2.940 -0.1810  0.2502  1.5873
 8129SOL    HW236021   1.793   0.758   3.006 -0.4435 -0.8862  0.2723
 8130SOL     OW36022   2.110   3.395   1.192  0.8104 -0.4949  0.3697
 8130SOL    HW136023   2.134   3.304   1.210 -0.9916 -1.0193  0.1711
 8130SOL    HW236024   2.020   3.383   1.162  1.0806 -2.0772  0.2061
 8131SOL     OW36025   3.126   2.586   3.922  0.1798  0.2129  0.5913
 8131SOL    HW136026   3.154   2.534   3.846 -1.5105 -0.2154  0.2548
 8131SOL    HW236027   3.181   2.664   3.917  0.5113  0.0063  1.0229
 8132SOL     OW36028   4.135   2.922   9.463  0.1103 -0.5601  0.5507
 8132SOL    HW136029   4.149   2.830   9.484 -1.4895 -0.7859  0.6956
 8132SOL    HW236030   4.176   2.963   9.540 -3.8615  2.5662  1.0414
 8133SOL     OW36031   1.080   0.053   5.082  0.3639  0.4449  0.3841
 8133SOL    HW136032   1.119   0.045   5.170  0.1703 -0.4544  0.3831
 8133SOL    HW236033   1.092   4.703   5.043 -1.9245 -0.1450  1.0372
 8134SOL     OW36034   0.813   0.007   6.370  0.3255 -0.1475  0.5904
 8134SOL    HW136035   0.824   0.077   6.306 -1.2938 -0.9795 -0.6045
 8134SOL    HW236036   0.898   4.700   6.367  0.1493 -0.4312 -0.1683
 8135SOL     OW36037   4.544   1.124   3.129 -0.2883  0.1248 -0.0589
 8135SOL    HW136038   4.490   1.135   3.050 -0.2899  0.2473 -0.0407
 8135SOL    HW236039   4.500   1.048   3.167 -2.3921  1.7090  0.6605
 8136SOL     OW36040   4.730   3.711   7.149  0.4067 -0.1763 -0.5815
 8136SOL    HW136041   0.007   3.617   7.141  1.1407 -0.0771 -0.4670
 8136SOL    HW236042   4.657   3.720   7.088 -0.5844  0.6973  0.7220
 8137SOL     OW36043   1.496   1.490   6.370 -0.1298  0.0184 -0.3806
 8137SOL    HW136044   1.517   1.568   6.317 -0.0041  0.8050  0.8321
 8137SOL    HW236045   1.543   1.418   6.329  0.7014  1.1683 -1.4655
 8138SOL     OW36046   1.997   0.514  14.393 -0.7676 -0.1864  0.1891
 8138SOL    HW136047   1.906   0.535  14.374 -1.3133 -2.8851 -0.2436
 8138SOL    HW236048   2.042   0.567  14.328  0.2391  0.8272  1.7158
 8139SOL     OW36049   3.814   4.191   1.463  0.3642 -0.0458  0.1303
 8139SOL    HW136050   3.852   4.233   1.386  1.0451  2.4223  1.7832
 8139SOL    HW236051   3.799   4.101   1.436  1.5409 -0.2417  0.1350
 8140SOL     OW36052   0.996   3.626   4.694 -0.3215  0.1382 -0.7118
 8140SOL    HW136053   1.016   3.537   4.724 -1.4154  0.8429  2.0830
 8140SOL    HW236054   0.947   3.670   4.764 -0.6278 -0.1203 -0.7679
 8141SOL     OW36055   0.580   0.791  12.881  0.0410 -0.0184  0.0005
 8141SOL    HW136056   0.570   0.699  12.854  0.3606 -1.2078  3.9442
 8141SOL    HW236057   0.599   0.828  12.795 -1.9247  1.5922  0.2785
 8142SOL     OW36058   3.414   1.813   5.888  0.2753 -0.3282  0.0716
 8142SOL    HW136059   3.431   1.862   5.807 -0.6765 -1.7323 -0.9693
 8142SOL    HW236060   3.319   1.799   5.889  0.4270 -1.2184  2.6058
 8143SOL     OW36061   2.043   0.928   7.878 -0.2137  0.6380  0.0462
 8143SOL    HW136062   1.969   0.988   7.886 -0.5810 -0.1011  2.4129
 8143SOL    HW236063   2.051   0.924   7.783 -2.0186  0.9658 -0.1235
 8144SOL     OW36064   0.877   4.407   4.047  0.4702 -0.3850  0.0395
 8144SOL    HW136065   0.793   4.454   4.050  1.0740  0.4820  2.9685
 8144SOL    HW236066   0.941   4.474   4.025 -0.1257 -0.8704 -3.1918
 8145SOL     OW36067   2.911   4.671   0.491 -0.7885  0.0745  0.2710
 8145SOL    HW136068   2.846   4.676   0.561 -1.5333  0.6582 -0.4573
 8145SOL    HW236069   2.866   0.011   0.457  2.1033  0.6676 -2.2501
 8146SOL     OW36070   2.400   2.862   8.579  0.5468 -0.4362  0.3410
 8146SOL    HW136071   2.313   2.833   8.554  0.7153  0.1198 -0.8836
 8146SOL    HW236072   2.396   2.876   8.673  0.5513 -0.6483  0.3727
 8147SOL     OW36073   1.867   3.251   6.524  0.0011 -0.4795 -0.1629
 8147SOL    HW136074   1.848   3.340   6.495 -1.3933 -0.8869 -0.4676
 8147SOL    HW236075   1.873   3.203   6.441 -1.2372  0.9768 -1.0900
 8148SOL     OW36076   4.694   3.030  15.730 -0.2697  0.2502 -0.4389
 8148SOL    HW136077   0.002   2.956  15.691 -0.8398 -0.4256  0.1994
 8148SOL    HW236078   4.687   3.073  15.644  0.9386  1.1755 -0.0700
 8149SOL     OW36079   1.642   3.649  16.510 -0.0075  0.0939 -0.2625
 8149SOL    HW136080   1.721   3.598  16.526 -0.1805  0.6970  2.6039
 8149SOL    HW236081   1.679   3.729  16.473  0.6482 -0.9949 -1.9270
 8150SOL     OW36082   0.966   1.228  10.939 -0.3219  0.3183  0.2948
 8150SOL    HW136083   0.951   1.185  11.023  0.0200  0.9398  0.6739
 8150SOL    HW236084   0.931   1.164  10.877  1.2660 -0.7495  0.4938
 8151SOL     OW36085   3.267   3.766   9.521  0.2241  0.0811  0.0021
 8151SOL    HW136086   3.302   3.804   9.602 -1.6560  2.0605 -0.1201
 8151SOL    HW236087   3.340   3.714   9.487  1.5053  1.0769  1.2483
 8152SOL     OW36088   3.803   1.803  11.860 -0.6087  0.1023 -0.1124
 8152SOL    HW136089   3.836   1.877  11.911  1.7917 -0.5191 -0.7607
 8152SOL    HW236090   3.886   1.755  11.855 -0.6140  0.0768  0.0346
 8153SOL     OW36091   1.271   4.466   4.065  0.2196  0.2342 -0.6598
 8153SOL    HW136092   1.246   4.456   4.157  0.2998  1.2849 -0.5293
 8153SOL    HW236093   1.333   4.538   4.070  0.0695  0.3891 -1.0183
 8154SOL     OW36094   3.911   4.485   6.173 -0.0351  0.2342 -0.1658
 8154SOL    HW136095   3.844   4.490   6.104 -0.1338  0.5714 -0.0438
 8154SOL    HW236096   3.869   4.522   6.251  0.2914  0.6102 -0.1733
 8155SOL     OW36097   0.031   3.898   9.688 -0.1555  0.3822  0.1556
 8155SOL    HW136098   0.011   3.821   9.635  0.8102  0.5583 -0.4625
 8155SOL    HW236099   0.028   3.957   9.613 -1.0839 -0.0944 -0.1919
 8156SOL     OW36100   0.282   3.671   5.235  0.1139  0.8375  0.0334
 8156SOL    HW136101   0.270   3.602   5.170  1.9526  0.0327  0.5536
 8156SOL    HW236102   0.281   3.609   5.308 -1.2765  0.3615 -0.3846
 8157SOL     OW36103   2.092   3.406   5.054 -0.0943  0.1358 -0.2123
 8157SOL    HW136104   2.135   3.390   4.970 -0.2257 -0.0859 -0.2348
 8157SOL    HW236105   2.011   3.449   5.027 -0.7433  0.3566  2.0219
 8158SOL     OW36106   4.365   2.281   7.268 -0.2620  0.7017 -0.1807
 8158SOL    HW136107   4.426   2.350   7.238 -0.8674  0.4311 -2.0363
 8158SOL    HW236108   4.393   2.218   7.201  1.2790 -0.2211  1.3405
 8159SOL     OW36109   0.001   4.088   7.946  0.2622  0.1239 -0.0629
 8159SOL    HW136110   4.716   4.077   7.853 -1.4662 -0.0549  0.3666
 8159SOL    HW236111   0.006   3.997   7.976 -0.1989 -0.3637 -1.4418
 8160SOL     OW36112   3.991   4.692   9.712  0.2098 -0.0298 -0.0101
 8160SOL    HW136113   3.993   4.598   9.692 -0.9717 -0.5579  2.3180
 8160SOL    HW236114   4.062   4.709   9.774  0.1065 -1.3419  0.4682
 8161SOL     OW36115   0.007   3.772  12.160 -0.4993  0.2883  0.5584
 8161SOL    HW136116   4.720   3.864  12.148  0.3872  0.6676  1.7305
 8161SOL    HW236117   4.727   3.736  12.073  0.3829 -1.1857  0.9879
 8162SOL     OW36118   0.546   2.664   3.117  0.0712  0.2757  0.1429
 8162SOL    HW136119   0.548   2.753   3.151  1.7294  0.8689 -1.5230
 8162SOL    HW236120   0.639   2.644   3.120  0.3235  1.1397 -2.0399
 8163SOL     OW36121   2.658   2.885   3.517  0.7733 -0.0866 -0.7094
 8163SOL    HW136122   2.730   2.948   3.520 -1.5516  2.4228  2.0496
 8163SOL    HW236123   2.589   2.950   3.529  0.6412 -0.8982  3.0922
 8164SOL     OW36124   2.970   0.183  14.458 -0.1590 -0.1037 -0.1042
 8164SOL    HW136125   3.057   0.220  14.441  1.0110 -2.0729  1.5989
 8164SOL    HW236126   2.922   0.265  14.443 -1.2746 -1.1533 -2.2473
 8165SOL     OW36127   1.681   3.622   0.531  0.3180 -0.2177 -0.0429
 8165SOL    HW136128   1.594   3.581   0.526  1.5155 -2.6721 -0.7759
 8165SOL    HW236129   1.670   3.671   0.612 -2.0215 -2.5293  1.0579
 8166SOL     OW36130   1.191   1.301   7.645  0.0204 -0.2615 -0.1327
 8166SOL    HW136131   1.206   1.237   7.575 -0.6203  0.1638 -0.6618
 8166SOL    HW236132   1.180   1.246   7.722 -1.2696  0.2498  0.0412
 8167SOL     OW36133   4.435   4.356  14.469 -0.6400 -0.0258 -0.4025
 8167SOL    HW136134   4.429   4.440  14.422  0.9341  2.3580  3.6335
 8167SOL    HW236135   4.391   4.375  14.552  3.3803 -2.1346  2.2171
 8168SOL     OW36136   1.467   3.036  14.975 -0.3884 -0.7148 -0.5946
 8168SOL    HW136137   1.534   3.103  14.957  0.7715 -1.9566 -0.9087
 8168SOL    HW236138   1.516   2.974  14.921  0.1930 -0.6367 -0.1648
 8169SOL     OW36139   3.242   2.376   7.803  0.1363  0.4976  0.6231
 8169SOL    HW136140   3.285   2.389   7.888 -1.4267 -1.7510  1.7361
 8169SOL    HW236141   3.304   2.407   7.736  0.1913  1.3045  1.0504
 8170SOL     OW36142   4.358   3.321  15.263  0.6307 -0.3264  0.0576
 8170SOL    HW136143   4.329   3.238  15.227  1.6515  0.5138 -2.7055
 8170SOL    HW236144   4.343   3.370  15.183  2.3297  0.6095  0.3006
 8171SOL     OW36145   4.509   1.646   7.335 -0.0113 -0.2698 -0.0995
 8171SOL    HW136146   4.463   1.646   7.251 -0.8797  1.3653  0.3754
 8171SOL    HW236147   4.571   1.719   7.324 -1.1858  0.3587 -2.5828
 8172SOL     OW36148   3.049   1.123   3.015  0.4640 -0.0995  0.6953
 8172SOL    HW136149   3.128   1.178   3.013  0.4933 -0.1116  1.5095
 8172SOL    HW236150   3.061   1.084   3.101  4.0711  1.3546  0.8793
 8173SOL     OW36151   0.886   2.651   0.579 -0.0503  0.2325 -0.3178
 8173SOL    HW136152   0.865   2.629   0.669 -1.2201 -0.1385 -0.6682
 8173SOL    HW236153   0.861   2.562   0.553  0.4828 -1.1138  3.7781
 8174SOL     OW36154   2.357   4.399   3.005 -0.1597  0.3133  0.5722
 8174SOL    HW136155   2.273   4.440   2.983  0.1642 -0.8274 -2.7334
 8174SOL    HW236156   2.376   4.361   2.919  1.6040  2.2257  0.1124
 8175SOL     OW36157   1.241   4.185   7.981  0.3019  0.3656  0.2878
 8175SOL    HW136158   1.162   4.170   7.929  0.6194  3.9236 -1.2246
 8175SOL    HW236159   1.284   4.100   7.968 -0.0554 -0.0356  1.8373
 8176SOL     OW36160   2.759   0.071  16.713  0.2053 -0.1945  0.3263
 8176SOL    HW136161   2.726   0.138  16.653  0.4059 -0.7954 -0.4616
 8176SOL    HW236162   2.755   4.732  16.654 -0.0474 -0.5698  0.8340
 8177SOL     OW36163   1.972   4.081   1.321 -0.1345 -0.5400 -0.6480
 8177SOL    HW136164   2.057   4.124   1.332  0.2651 -1.5330  0.1670
 8177SOL    HW236165   1.976   4.032   1.239  1.3926 -0.8173 -0.3998
 8178SOL     OW36166   3.106   0.956  16.892  0.5783  1.3982 -0.1264
 8178SOL    HW136167   3.016   0.962  16.862  0.3846 -0.3949  0.0965
 8178SOL    HW236168   3.093   0.966  16.986 -1.2411  0.3584 -0.2823
 8179SOL     OW36169   4.416   4.354   2.061  0.5690 -0.1154  0.2494
 8179SOL    HW136170   4.433   4.375   2.153 -0.6244 -1.5867  0.8005
 8179SOL    HW236171   4.371   4.271   2.080 -0.0218  0.4804  1.4614
 8180SOL     OW36172   3.131   3.412   6.847 -0.5051 -0.1050  0.6705
 8180SOL    HW136173   3.102   3.339   6.792  0.4907 -1.3893  1.8307
 8180SOL    HW236174   3.043   3.438   6.874 -1.0628 -0.3758 -0.9429
 8181SOL     OW36175   0.156   4.535  11.228 -0.2964  0.1465  0.4919
 8181SOL    HW136176   0.203   4.555  11.147  1.1210  1.6547  1.6944
 8181SOL    HW236177   0.225   4.528  11.295 -1.3732 -0.9385  1.5024
 8182SOL     OW36178   3.660   2.604   1.620 -0.1192  0.2913  0.0194
 8182SOL    HW136179   3.727   2.623   1.686 -1.6402  1.1333  1.3441
 8182SOL    HW236180   3.587   2.664   1.638  1.4631  1.5790  2.1977
 8183SOL     OW36181   1.748   4.179   4.354 -0.5589  0.7377 -0.0608
 8183SOL    HW136182   1.655   4.200   4.338 -0.8415 -0.4496  0.0498
 8183SOL    HW236183   1.784   4.189   4.266 -0.1493 -1.7590 -0.1520
 8184SOL     OW36184   0.208   2.884   9.834  0.5097  0.3729  0.1024
 8184SOL    HW136185   0.164   2.817   9.783  1.2622 -0.4607  0.5518
 8184SOL    HW236186   0.228   2.947   9.765 -0.8536  1.1422  0.4136
 8185SOL     OW36187   0.078   2.009   9.564 -0.1279 -0.0529 -0.4423
 8185SOL    HW136188   0.015   2.031   9.495  0.8110  0.5112 -1.1296
 8185SOL    HW236189   0.057   2.079   9.627  0.9654  1.5459 -1.8632
 8186SOL     OW36190   4.196   2.811   3.122 -0.7545 -0.0523  0.2338
 8186SOL    HW136191   4.145   2.786   3.044 -0.7460 -0.8191  0.4693
 8186SOL    HW236192   4.242   2.733   3.154 -0.4870 -0.8185 -2.0173
 8187SOL     OW36193   2.443   3.403   5.676 -0.1036 -0.6866 -0.0514
 8187SOL    HW136194   2.393   3.482   5.694  0.2694 -0.5938  0.5940
 8187SOL    HW236195   2.373   3.338   5.670 -0.8322  0.1453 -0.4475
 8188SOL     OW36196   4.330   3.771   4.203 -0.6580 -0.6635 -0.0225
 8188SOL    HW136197   4.247   3.756   4.248 -1.7398  1.0318 -1.4405
 8188SOL    HW236198   4.310   3.709   4.133  0.5652 -1.6293  0.4725
 8189SOL     OW36199   3.694   4.035  11.246 -0.1400 -0.5692 -0.2854
 8189SOL    HW136200   3.780   4.018  11.284  0.4939  2.7824 -0.2485
 8189SOL    HW236201   3.712   4.044  11.152  0.3129 -1.5445 -0.2988
 8190SOL     OW36202   1.391   0.515   0.298 -0.4557  0.4407 -0.2818
 8190SOL    HW136203   1.318   0.484   0.244  0.5101 -0.9259 -0.8087
 8190SOL    HW236204   1.432   0.433   0.327 -1.7103  0.2324  0.9312
 8191SOL     OW36205   2.755   4.381   3.227  0.3044 -0.4237  0.1292
 8191SOL    HW136206   2.671   4.346   3.198 -0.2415  0.9243  0.0744
 8191SOL    HW236207   2.732   4.472   3.250  1.2708 -0.5581  1.6014
 8192SOL     OW36208   3.603   0.406   9.849  0.0672  0.1619  0.1490
 8192SOL    HW136209   3.542   0.476   9.875  0.6641  2.1524 -3.8305
 8192SOL    HW236210   3.554   0.338   9.895  1.9771 -0.6677  0.9479
 8193SOL     OW36211   0.006   0.321  12.156  0.5434  0.1335 -1.0995
 8193SOL    HW136212   4.707   0.237  12.127  0.2007  0.6507 -2.2081
 8193SOL    HW236213   4.706   0.318  12.244  1.1943  3.2604 -0.7085
 8194SOL     OW36214   3.480   1.407  14.555  0.3613  0.1125 -0.6173
 8194SOL    HW136215   3.450   1.488  14.513  2.3179  0.3659 -1.5371
 8194SOL    HW236216   3.423   1.345  14.509 -0.2149 -0.9432  1.5432
 8195SOL     OW36217   1.641   3.621   8.666  0.6037  0.3257 -0.5022
 8195SOL    HW136218   1.643   3.693   8.729  0.4117  0.3987 -0.5794
 8195SOL    HW236219   1.596   3.663   8.593 -1.7346 -0.8382  0.2829
 8196SOL     OW36220   3.251   3.008   8.883 -1.1295  0.2965  0.4375
 8196SOL    HW136221   3.302   3.044   8.957 -0.0590  0.3621 -0.3306
 8196SOL    HW236222   3.312   2.968   8.821  0.6166  4.2717 -0.4019
 8197SOL     OW36223   1.627   2.730   3.095  0.1237 -0.0270 -0.3025
 8197SOL    HW136224   1.716   2.766   3.090  0.2819  0.1292  3.6573
 8197SOL    HW236225   1.577   2.801   3.054  0.5826  0.7532  0.4850
 8198SOL     OW36226   2.127   1.208   2.830  0.7672  0.4610 -0.1153
 8198SOL    HW136227   2.080   1.139   2.783  0.1936 -1.0458  2.7018
 8198SOL    HW236228   2.190   1.235   2.763  0.5246  1.0804 -0.1037
 8199SOL     OW36229   1.486   3.123   0.375  0.6306  0.4029 -0.2127
 8199SOL    HW136230   1.575   3.142   0.344  0.6739  1.0687  0.3131
 8199SOL    HW236231   1.462   3.194   0.435 -0.3824 -1.2640  1.3428
 8200SOL     OW36232   2.859   0.049  17.540 -0.4938  0.2931 -0.1473
 8200SOL    HW136233   2.894   0.106  17.472 -0.0798  3.1190  2.3902
 8200SOL    HW236234   2.803   0.099  17.600 -0.1859  0.8615 -0.3376
 8201SOL     OW36235   0.169   2.917   8.648  0.1916  0.2237 -0.4345
 8201SOL    HW136236   0.240   2.912   8.713 -2.1540  2.3639  2.3097
 8201SOL    HW236237   0.101   2.959   8.701  1.4240 -1.1856  2.2449
 8202SOL     OW36238   1.202   3.217   5.256  0.0569 -0.1572  0.5600
 8202SOL    HW136239   1.153   3.183   5.181  0.1520 -0.4271  0.6190
 8202SOL    HW236240   1.156   3.187   5.334 -0.9835  1.9622  0.7453
 8203SOL     OW36241   0.595   2.431  17.394 -0.3447 -0.3365  0.5013
 8203SOL    HW136242   0.647   2.428  17.314 -0.0640 -0.1382  0.6759
 8203SOL    HW236243   0.643   2.360  17.437  1.0883  0.0632 -0.4511
 8204SOL     OW36244   4.637   0.431  16.598  0.0377  0.5092  0.1244
 8204SOL    HW136245   4.616   0.522  16.617 -2.6288  0.0587 -0.7327
 8204SOL    HW236246   4.564   0.402  16.543  0.2526 -1.3000  0.7924
 8205SOL     OW36247   3.775   1.144   6.343  0.5039  0.2006  0.2902
 8205SOL    HW136248   3.862   1.113   6.319  0.9717  3.4347 -2.0836
 8205SOL    HW236249   3.782   1.117   6.435 -0.2851  1.5154  0.7253
 8206SOL     OW36250   1.514   4.282  12.404 -0.3084 -0.1239  0.3803
 8206SOL    HW136251   1.566   4.203  12.388 -0.0077  0.0620  0.4431
 8206SOL    HW236252   1.456   4.265  12.478  0.6399  0.2213  1.2185
 8207SOL     OW36253   1.911   2.960  13.555  0.1556 -0.3541  0.3759
 8207SOL    HW136254   1.947   2.871  13.565 -2.0595 -1.4923 -1.6631
 8207SOL    HW236255   1.907   2.973  13.650  0.2588  0.9715  0.1902
 8208SOL     OW36256   0.074   3.819   1.292  0.3158  0.1885  0.1522
 8208SOL    HW136257   0.079   3.821   1.387  0.4461  0.6818  0.1343
 8208SOL    HW236258   0.026   3.899   1.271 -1.1628 -0.9856 -0.9392
 8209SOL     OW36259   3.933   0.687   3.506  0.2660 -0.1218  0.1093
 8209SOL    HW136260   3.909   0.710   3.416 -2.5235 -0.6249  0.7251
 8209SOL    HW236261   3.868   0.735   3.558  2.3302  1.3834  1.2849
 8210SOL     OW36262   3.357   3.521   8.934  0.1327 -0.3596  0.6134
 8210SOL    HW136263   3.420   3.533   9.005 -0.3020  2.2351  0.5689
 8210SOL    HW236264   3.274   3.515   8.981  0.9950 -2.8040  1.7924
 8211SOL     OW36265   2.249   3.091   7.502 -0.1542  0.2432  0.2315
 8211SOL    HW136266   2.199   3.154   7.554  1.1999  1.8816 -0.4491
 8211SOL    HW236267   2.171   3.037   7.496  0.2337 -0.0262 -2.1478
 8212SOL     OW36268   1.286   3.417   3.045 -0.4959 -0.0930  0.0015
 8212SOL    HW136269   1.296   3.335   2.996 -0.2719 -0.4988  0.7228
 8212SOL    HW236270   1.208   3.455   3.006  0.0034  0.1446 -0.7651
 8213SOL     OW36271   3.000   4.298   3.880 -0.4836  0.1253  0.0511
 8213SOL    HW136272   2.949   4.258   3.810 -2.2384 -2.3459  2.7502
 8213SOL    HW236273   2.956   4.263   3.958 -0.4953  2.4510  1.0701
 8214SOL     OW36274   4.429   2.949   3.642  0.1823 -0.0653  0.3711
 8214SOL    HW136275   4.409   3.016   3.577 -0.5578 -0.2808  0.3716
 8214SOL    HW236276   4.505   2.912   3.597 -0.2112  0.6300 -0.8483
 8215SOL     OW36277   1.133   3.632   7.300 -0.3196  0.5786  0.0016
 8215SOL    HW136278   1.154   3.610   7.209 -0.0062  2.1950 -0.3167
 8215SOL    HW236279   1.040   3.612   7.311 -0.3274  0.2490 -0.6605
 8216SOL     OW36280   3.148   0.264  11.171  0.0938 -0.5235 -0.4144
 8216SOL    HW136281   3.202   0.204  11.120  0.3382 -0.3446 -0.3640
 8216SOL    HW236282   3.057   0.234  11.164  0.2270 -0.0686 -4.0556
 8217SOL     OW36283   4.639   3.977   7.717 -0.0337 -0.7295 -0.7542
 8217SOL    HW136284   4.666   3.897   7.671 -0.8349 -2.2706  1.4753
 8217SOL    HW236285   4.660   4.039   7.647 -0.4540 -0.5251 -0.6971
 8218SOL     OW36286   2.670   2.690  13.523  0.0195 -0.3932  0.9482
 8218SOL    HW136287   2.662   2.675  13.429  0.0495  1.5904  0.6411
 8218SOL    HW236288   2.765   2.693  13.527  0.0959  0.7960 -1.8667
 8219SOL     OW36289   4.206   2.649   8.869  0.1478 -0.0724  0.6266
 8219SOL    HW136290   4.239   2.584   8.931  1.7884  0.7190  0.5676
 8219SOL    HW236291   4.275   2.640   8.804 -0.0189  0.4987  0.3727
 8220SOL     OW36292   2.111   2.391  11.100 -0.4328  0.5640 -0.4232
 8220SOL    HW136293   2.086   2.472  11.144  0.0281  0.8520 -0.6974
 8220SOL    HW236294   2.105   2.423  11.010  1.0118  0.4238 -0.5631
 8221SOL     OW36295   4.308   1.323   7.030 -0.2876 -0.0940 -0.0592
 8221SOL    HW136296   4.220   1.360   7.015  0.7545  2.0058 -0.9879
 8221SOL    HW236297   4.293   1.248   7.087 -0.0029 -0.6218 -0.6826
 8222SOL     OW36298   0.354   2.603   3.528  0.5433 -0.5516  0.1141
 8222SOL    HW136299   0.443   2.636   3.515  0.8130 -1.4639 -0.3508
 8222SOL    HW236300   0.377   2.513   3.554 -1.0005 -0.7694  0.7239
 8223SOL     OW36301   2.079   3.681   3.788  0.0637  0.0160 -0.6474
 8223SOL    HW136302   2.046   3.766   3.817 -0.6969 -0.8905  1.1392
 8223SOL    HW236303   2.170   3.678   3.816  0.1665  0.9943 -0.8603
 8224SOL     OW36304   4.105   1.997   5.501  0.1378  0.4653 -0.0708
 8224SOL    HW136305   4.016   1.973   5.474  0.6092  0.6528 -1.7791
 8224SOL    HW236306   4.088   2.044   5.583 -0.8269  0.0210 -0.0188
 8225SOL     OW36307   2.141   4.483   9.038 -0.0862  0.1871  0.0169
 8225SOL    HW136308   2.112   4.418   8.974 -0.7538  0.2324  0.2721
 8225SOL    HW236309   2.236   4.467   9.040 -0.3453 -1.2833  0.3687
 8226SOL     OW36310   2.174   3.894   5.738 -0.1932 -0.2498 -0.5629
 8226SOL    HW136311   2.242   3.929   5.681  1.0200 -0.6638  0.5973
 8226SOL    HW236312   2.207   3.915   5.826  1.1238 -3.0999 -0.3530
 8227SOL     OW36313   3.191   0.441  15.985  0.3746 -0.0752  0.4477
 8227SOL    HW136314   3.225   0.497  15.915 -1.5702 -0.0685 -0.5013
 8227SOL    HW236315   3.158   0.493  16.058  1.8256 -1.6167  2.2231
 8228SOL     OW36316   1.784   1.882   1.870 -0.3250  0.3916  0.6532
 8228SOL    HW136317   1.808   1.809   1.927 -1.0769  1.0565  1.8114
 8228SOL    HW236318   1.706   1.913   1.916 -0.1449  0.6470  0.7832
 8229SOL     OW36319   0.608   4.192   0.616 -0.1141 -0.1269  0.4533
 8229SOL    HW136320   0.649   4.197   0.529  0.9537 -0.8897  0.9066
 8229SOL    HW236321   0.532   4.247   0.599  0.9325  1.2770  0.2883
 8230SOL     OW36322   1.952   1.308  14.925  0.3812 -0.0191  0.3450
 8230SOL    HW136323   1.986   1.246  14.990 -0.8642  0.9610  1.9346
 8230SOL    HW236324   1.942   1.379  14.988 -0.4388  0.8997 -0.8471
 8231SOL     OW36325   0.596   1.559  14.461 -0.0505 -0.2788 -0.6060
 8231SOL    HW136326   0.583   1.500  14.388 -0.0808  0.2433 -1.0232
 8231SOL    HW236327   0.633   1.636  14.417 -0.1651  0.3846  0.4337
 8232SOL     OW36328   3.232   3.504  12.162  0.1524  0.2137  0.7307
 8232SOL    HW136329   3.228   3.599  12.154 -3.4000  0.0437  0.2393
 8232SOL    HW236330   3.140   3.484  12.181 -0.3750  0.9250 -1.0475
 8233SOL     OW36331   4.556   0.175   4.864 -0.4419 -0.0162 -0.2526
 8233SOL    HW136332   4.627   0.111   4.860  0.2686  0.8568 -1.6435
 8233SOL    HW236333   4.482   0.126   4.899 -0.5810  0.6105  0.3189
 8234SOL     OW36334   3.378   0.560   8.491  0.3001  0.1637  0.0282
 8234SOL    HW136335   3.308   0.623   8.472  0.0464 -0.1288 -0.0039
 8234SOL    HW236336   3.459   0.610   8.477 -0.0060  0.6508 -0.0080
 8235SOL     OW36337   3.752   0.687  16.856 -0.3734 -0.2800 -0.7142
 8235SOL    HW136338   3.657   0.681  16.850 -0.6080  1.5776  1.2913
 8235SOL    HW236339   3.774   0.594  16.864  0.2870 -0.0456  0.2863
 8236SOL     OW36340   2.719   2.921   6.012 -0.2947  0.0365  0.2909
 8236SOL    HW136341   2.804   2.899   6.050 -1.8876 -2.4552  2.4033
 8236SOL    HW236342   2.756   2.946   5.928  0.2509 -1.2227  0.1546
 8237SOL     OW36343   2.610   3.721   3.664 -0.5032  1.1027 -0.0781
 8237SOL    HW136344   2.548   3.675   3.608  1.3727  1.9584 -2.8793
 8237SOL    HW236345   2.653   3.646   3.704  0.1331  1.7677  0.5014
 8238SOL     OW36346   1.416   1.536   2.993  0.4633 -0.4845 -0.0049
 8238SOL    HW136347   1.485   1.527   2.927  2.5883  0.6214  2.0708
 8238SOL    HW236348   1.356   1.546   2.920  0.5697 -0.6859 -0.1227
 8239SOL     OW36349   2.945   0.277   6.944 -0.1235  0.1923  0.1465
 8239SOL    HW136350   2.872   0.321   6.902 -0.4307 -0.2037  0.2692
 8239SOL    HW236351   2.989   0.356   6.977 -0.4316  0.6459 -0.5322
 8240SOL     OW36352   4.205   3.471   5.882 -0.2630 -0.2016  0.5590
 8240SOL    HW136353   4.175   3.383   5.858 -2.9049  0.6914  0.5823
 8240SOL    HW236354   4.132   3.510   5.931 -0.3578  2.4330 -1.6590
 8241SOL     OW36355   3.455   2.353   7.322 -0.3845 -0.0934  0.0824
 8241SOL    HW136356   3.361   2.365   7.337 -0.1158  1.0860  0.8097
 8241SOL    HW236357   3.463   2.259   7.340 -1.3169 -0.2923 -0.4957
 8242SOL     OW36358   0.244   1.390   3.747  0.5313 -1.0709  0.0852
 8242SOL    HW136359   0.212   1.442   3.821  3.2112  0.3161  0.2481
 8242SOL    HW236360   0.259   1.306   3.791  0.2164  0.4888  3.2045
 8243SOL     OW36361   3.889   1.017   5.184  0.1285 -0.6039  0.5052
 8243SOL    HW136362   3.829   1.064   5.241  0.9503 -0.3987  1.2006
 8243SOL    HW236363   3.973   1.021   5.229  1.1573 -1.3287 -1.3349
 8244SOL     OW36364   0.813   1.515   4.195  0.1034  0.7832  0.2292
 8244SOL    HW136365   0.879   1.517   4.126 -1.8516  0.3241 -1.6801
 8244SOL    HW236366   0.852   1.459   4.262 -0.1650  0.5253  0.1688
 8245SOL     OW36367   0.703   3.125   5.696  0.5062 -0.5126 -0.1607
 8245SOL    HW136368   0.755   3.200   5.665  1.1988 -0.5117  0.9917
 8245SOL    HW236369   0.733   3.132   5.787 -2.2497 -3.0277  0.9562
 8246SOL     OW36370   1.673   3.471   8.049 -0.0770 -0.4132  0.2332
 8246SOL    HW136371   1.644   3.384   8.075  1.2370 -2.0691 -3.8968
 8246SOL    HW236372   1.672   3.515   8.135 -3.4839  0.1649 -0.0988
 8247SOL     OW36373   4.135   4.318   1.422 -0.5590  0.1051  0.0817
 8247SOL    HW136374   4.047   4.328   1.386 -0.9139 -0.1347  0.8796
 8247SOL    HW236375   4.137   4.223   1.433 -3.0634 -0.0086 -0.4756
 8248SOL     OW36376   2.664   0.986   3.685  0.5033  0.4233 -0.6713
 8248SOL    HW136377   2.660   0.979   3.589 -0.9586  3.1145 -0.8059
 8248SOL    HW236378   2.739   1.043   3.702  1.1916 -0.4051 -0.8863
 8249SOL     OW36379   3.181   3.800   2.475  0.2335 -0.5141  0.2613
 8249SOL    HW136380   3.108   3.860   2.461 -1.1884 -2.1688  0.6093
 8249SOL    HW236381   3.259   3.853   2.458  0.0114 -0.3314 -0.1939
 8250SOL     OW36382   0.435   1.779   2.047 -0.3880  0.5075 -0.4670
 8250SOL    HW136383   0.452   1.872   2.057  1.5791 -0.0405  1.3372
 8250SOL    HW236384   0.496   1.745   2.113 -0.5639  1.4628  0.1862
 8251SOL     OW36385   3.276   1.029   5.022 -0.3387  0.4144  0.1070
 8251SOL    HW136386   3.347   1.035   4.957  0.3914 -0.4937  0.8197
 8251SOL    HW236387   3.305   0.944   5.054  0.9036  1.2084  1.1183
 8252SOL     OW36388   2.845   1.960   4.919  0.0191 -0.2051 -0.0851
 8252SOL    HW136389   2.937   1.966   4.895 -0.0483 -1.1502 -0.5798
 8252SOL    HW236390   2.806   1.964   4.832  0.9696  0.2343 -0.4779
 8253SOL     OW36391   3.136   3.901   5.650  0.3275  0.6909  0.0325
 8253SOL    HW136392   3.162   3.922   5.560 -1.6284 -1.5944 -1.0693
 8253SOL    HW236393   3.116   3.988   5.684  1.2573  0.0335  2.2573
 8254SOL     OW36394   3.827   1.604   1.974  0.5476 -0.1212  0.2655
 8254SOL    HW136395   3.894   1.616   1.907 -0.2164  0.8492 -0.3253
 8254SOL    HW236396   3.777   1.527   1.948 -2.5364  1.5596  1.2062
 8255SOL     OW36397   1.909   3.864   4.928  0.0233 -0.3247 -0.6487
 8255SOL    HW136398   1.924   3.808   4.852 -0.5369  0.2177 -1.1601
 8255SOL    HW236399   1.896   3.951   4.890  2.2627  0.7479  0.9660
 8256SOL     OW36400   3.259   4.357   1.769 -0.2457  0.0457  0.3502
 8256SOL    HW136401   3.330   4.421   1.762 -1.3026  1.3459  1.7460
 8256SOL    HW236402   3.220   4.407   1.840 -2.0690  1.1464 -1.4407
 8257SOL     OW36403   2.435   3.493  16.381  0.1057  0.0134  0.3243
 8257SOL    HW136404   2.415   3.428  16.313  2.4256  0.4621 -0.7623
 8257SOL    HW236405   2.520   3.461  16.411 -0.0113 -0.9502 -0.3420
 8258SOL     OW36406   3.446   3.885   5.867 -0.1688  0.1638  0.2296
 8258SOL    HW136407   3.449   3.979   5.881  1.9125  0.1054  0.2276
 8258SOL    HW236408   3.369   3.878   5.811  0.8654 -1.5065 -0.9888
 8259SOL     OW36409   0.813   0.245   9.469 -0.1916 -0.8085 -0.2763
 8259SOL    HW136410   0.820   0.211   9.380 -0.2938 -1.4538 -0.0307
 8259SOL    HW236411   0.722   0.274   9.473 -0.6554 -2.4788  1.0284
 8260SOL     OW36412   0.646   0.350   4.674 -0.8312 -0.1623 -0.0138
 8260SOL    HW136413   0.659   0.410   4.747  1.8056 -1.3671  0.4957
 8260SOL    HW236414   0.647   0.266   4.721  0.2895 -0.1557 -0.0390
 8261SOL     OW36415   3.548   2.562   2.083 -0.3937 -0.0128  0.0698
 8261SOL    HW136416   3.469   2.507   2.083  1.1268 -2.1966  0.5824
 8261SOL    HW236417   3.550   2.581   2.177 -0.3398  0.0816  0.0496
 8262SOL     OW36418   1.344   2.750   8.893 -0.4019  0.3372  0.2189
 8262SOL    HW136419   1.412   2.686   8.913 -0.2560  0.0766 -1.0798
 8262SOL    HW236420   1.377   2.802   8.820  2.2253  0.4908  1.5103
 8263SOL     OW36421   1.244   1.697   0.051 -0.2656 -0.0620  0.1918
 8263SOL    HW136422   1.323   1.677   0.102  0.4530 -1.1810 -1.3583
 8263SOL    HW236423   1.296   1.719  17.719  0.1397  0.0041  0.4829
 8264SOL     OW36424   2.326   2.764   9.644  0.3353  0.3063 -0.1905
 8264SOL    HW136425   2.317   2.785   9.737 -2.0231 -0.0358 -0.3603
 8264SOL    HW236426   2.357   2.848   9.612  1.2736  0.9052  2.2303
 8265SOL     OW36427   0.038   3.446  17.238  0.6020 -0.2818  0.0946
 8265SOL    HW136428   0.060   3.477  17.326 -0.4442 -1.5509  0.8111
 8265SOL    HW236429   4.703   3.503  17.209  0.0514 -1.1149 -0.1887
 8266SOL     OW36430   0.577   3.399   6.175  0.3754 -0.1050 -0.4692
 8266SOL    HW136431   0.496   3.421   6.130 -1.3725  1.9618  3.6994
 8266SOL    HW236432   0.629   3.467   6.131 -0.9348  0.9643 -0.3615
 8267SOL     OW36433   2.804   4.732   5.060  0.2571 -0.4378 -0.4734
 8267SOL    HW136434   2.896   0.013   5.083 -0.3175  1.3990  0.3673
 8267SOL    HW236435   2.811   4.638   5.080  0.8871 -0.5765 -1.3200
 8268SOL     OW36436   0.800   3.007   2.089  0.3574 -0.6437 -0.3933
 8268SOL    HW136437   0.790   2.963   2.005  0.2949  1.8543 -1.6923
 8268SOL    HW236438   0.828   2.936   2.147  2.1362 -0.3666 -0.8981
 8269SOL     OW36439   4.597   2.754   8.697  1.0873  0.3188 -0.1037
 8269SOL    HW136440   4.601   2.730   8.790 -2.2331  3.0555  0.7411
 8269SOL    HW236441   4.628   2.669   8.666 -1.5742 -1.1330  1.1779
 8270SOL     OW36442   0.757   1.001   4.685  0.0681 -0.5755 -0.9456
 8270SOL    HW136443   0.835   1.054   4.701 -0.5015  0.4396 -1.5296
 8270SOL    HW236444   0.767   0.944   4.761 -1.8676 -0.0340 -0.2974
 8271SOL     OW36445   1.277   1.092   8.736 -1.2525 -0.4763  0.1437
 8271SOL    HW136446   1.260   1.131   8.650  0.6884  0.6436  0.2795
 8271SOL    HW236447   1.230   1.008   8.734 -0.1311 -1.1579  3.0573
 8272SOL     OW36448   0.573   1.486   4.315  0.0994  0.4859 -0.2375
 8272SOL    HW136449   0.654   1.471   4.266  0.2069 -1.1073  0.4283
 8272SOL    HW236450   0.570   1.408   4.370 -0.7673  1.1267  0.6207
 8273SOL     OW36451   0.779   4.184  14.770 -0.3008 -0.3992  0.2999
 8273SOL    HW136452   0.731   4.177  14.853  1.9238  1.2853  1.7592
 8273SOL    HW236453   0.856   4.239  14.787 -0.3112 -1.0253  2.3803
 8274SOL     OW36454   3.265   1.606   4.075 -0.4621 -0.3032 -0.6184
 8274SOL    HW136455   3.240   1.523   4.115 -0.2726 -0.2318 -0.3533
 8274SOL    HW236456   3.255   1.582   3.982  0.9400 -1.3075 -0.5219
 8275SOL     OW36457   3.863   3.012   7.706 -0.0642 -1.0576  0.0431
 8275SOL    HW136458   3.771   3.032   7.695 -0.0726 -0.2904  1.5488
 8275SOL    HW236459   3.883   3.052   7.790 -0.5371 -0.3821 -0.1699
 8276SOL     OW36460   1.306   2.393   5.393 -0.4692 -0.3917  0.7124
 8276SOL    HW136461   1.381   2.440   5.357 -0.2652 -0.5796  0.8922
 8276SOL    HW236462   1.236   2.427   5.338 -0.6575  0.4473  1.4820
 8277SOL     OW36463   2.049   0.909  13.705 -0.0722  0.1806 -0.6751
 8277SOL    HW136464   2.108   0.946  13.640  0.2425 -1.4154 -1.3034
 8277SOL    HW236465   1.971   0.965  13.706  0.0788  0.3898 -0.8329
 8278SOL     OW36466   4.525   1.790  14.824 -0.5254 -0.1068 -0.3485
 8278SOL    HW136467   4.510   1.718  14.884 -2.5388 -0.5514 -1.3564
 8278SOL    HW236468   4.547   1.753  14.738  0.0009 -1.8799  0.5540
 8279SOL     OW36469   4.114   2.105   9.160  0.1473  0.4625  0.4165
 8279SOL    HW136470   4.041   2.107   9.098  1.6976 -0.0469 -1.4302
 8279SOL    HW236471   4.069   2.052   9.226 -3.2332  2.9914  0.1418
 8280SOL     OW36472   3.582   1.290   0.760  0.4920  0.1258  0.4637
 8280SOL    HW136473   3.541   1.229   0.822 -0.8653  1.0861  0.5255
 8280SOL    HW236474   3.663   1.307   0.808  0.6769 -2.0539  0.9255
 8281SOL     OW36475   2.223   3.477   0.952  0.3879  0.1339  0.1835
 8281SOL    HW136476   2.315   3.474   0.980 -0.1747 -0.3765  1.9145
 8281SOL    HW236477   2.178   3.444   1.030 -0.5651  0.4366 -0.2436
 8282SOL     OW36478   0.110   3.760   3.537  0.0089  0.8250  0.0315
 8282SOL    HW136479   0.141   3.734   3.450 -0.4927  0.0040  0.0936
 8282SOL    HW236480   0.017   3.745   3.519  1.0927 -2.4818 -2.8033
 8283SOL     OW36481   2.602   3.209  16.477  0.3210  0.3628  0.1576
 8283SOL    HW136482   2.603   3.231  16.384 -2.6592  3.0937  0.7781
 8283SOL    HW236483   2.531   3.146  16.480  3.0188 -2.6169  1.3866
 8284SOL     OW36484   4.194   1.652  15.567 -0.1894 -0.0080 -0.7725
 8284SOL    HW136485   4.241   1.718  15.618 -2.7123  0.0121  1.5052
 8284SOL    HW236486   4.134   1.699  15.510  0.3918 -1.5397 -2.6322
 8285SOL     OW36487   1.628   4.571   9.441 -0.2015  0.3442 -0.0784
 8285SOL    HW136488   1.678   4.624   9.379 -0.3856 -1.4139 -1.7307
 8285SOL    HW236489   1.616   4.490   9.392  1.7265  1.3043 -2.1450
 8286SOL     OW36490   1.189   0.146   3.000  0.4836  0.1271 -0.1910
 8286SOL    HW136491   1.165   0.220   2.945 -2.6890 -0.3196  0.5693
 8286SOL    HW236492   1.284   0.142   3.001  0.4123 -0.9137  2.2675
 8287SOL     OW36493   0.582   3.480   4.170  0.2595 -0.0310  0.3538
 8287SOL    HW136494   0.638   3.548   4.207 -1.2292  1.4068 -0.0782
 8287SOL    HW236495   0.496   3.520   4.181 -1.6599 -3.4199 -2.2601
 8288SOL     OW36496   3.506   0.309  11.586  0.0919  0.3255  0.1639
 8288SOL    HW136497   3.415   0.313  11.614 -0.4251  1.2559 -1.6346
 8288SOL    HW236498   3.549   0.325  11.670  0.1894 -0.2071  0.2125
 8289SOL     OW36499   3.389   0.079   4.836  1.0132 -0.6738  0.0998
 8289SOL    HW136500   3.430   0.051   4.754 -1.6611 -0.7853 -1.2235
 8289SOL    HW236501   3.459   0.068   4.899 -0.0250 -1.4526  1.1150
 8290SOL     OW36502   3.236   2.156   3.317  1.1409  0.0866 -0.6737
 8290SOL    HW136503   3.319   2.111   3.333  1.8003  1.3464 -0.5849
 8290SOL    HW236504   3.241   2.204   3.234 -0.1121  1.8642  0.2761
 8291SOL     OW36505   4.029   3.697   4.430 -0.3381 -0.8068 -0.0529
 8291SOL    HW136506   4.078   3.769   4.390  3.0696 -1.3700  3.1194
 8291SOL    HW236507   4.100   3.646   4.470 -0.6747 -0.3488  1.1283
 8292SOL     OW36508   0.563   1.216   9.117  0.0263  0.2730 -0.2337
 8292SOL    HW136509   0.608   1.148   9.066  0.8808  1.3478 -0.9293
 8292SOL    HW236510   0.574   1.285   9.051 -1.4702 -1.8414 -2.6750
 8293SOL     OW36511   3.634   3.545   5.803 -0.2047  0.6577  0.3040
 8293SOL    HW136512   3.538   3.546   5.807 -0.1974 -0.2445  0.6003
 8293SOL    HW236513   3.639   3.628   5.755 -1.3932  0.6649  0.1800
 8294SOL     OW36514   3.030   3.844   7.769  0.1028  0.2332  0.0079
 8294SOL    HW136515   3.025   3.797   7.852  1.0596 -0.1768 -0.1710
 8294SOL    HW236516   3.083   3.783   7.718 -0.3018  0.4750 -0.6952
 8295SOL     OW36517   1.254   4.099  15.368  0.6976  0.0277 -0.2511
 8295SOL    HW136518   1.247   4.195  15.363  0.0569  0.1011  1.9114
 8295SOL    HW236519   1.210   4.098  15.453  2.1315 -0.1507  0.4909
 8296SOL     OW36520   2.928   2.677   1.452 -0.0458 -0.4799 -0.0153
 8296SOL    HW136521   2.992   2.621   1.408 -2.2386 -1.3975 -2.0017
 8296SOL    HW236522   2.864   2.683   1.381  0.1041  1.7215  0.0534
 8297SOL     OW36523   4.356   1.241   4.884 -0.3698 -0.1348  0.0628
 8297SOL    HW136524   4.333   1.313   4.826  0.8123  0.2412  0.0601
 8297SOL    HW236525   4.448   1.237   4.858 -1.0846 -0.6114 -2.4449
 8298SOL     OW36526   1.870   1.184  12.247 -0.1560  0.0897  0.3904
 8298SOL    HW136527   1.889   1.122  12.177  2.4208  1.8048 -0.4419
 8298SOL    HW236528   1.955   1.226  12.262  0.2626 -0.2601 -1.0588
 8299SOL     OW36529   2.119   0.556  16.272  0.1594 -0.0710 -0.0463
 8299SOL    HW136530   2.180   0.605  16.327  0.2010  0.2088 -0.3416
 8299SOL    HW236531   2.130   0.593  16.184 -1.0608 -2.1413 -1.0688
 8300SOL     OW36532   1.974   3.212   6.789  0.4390 -0.4769 -0.5352
 8300SOL    HW136533   1.916   3.240   6.719 -1.3543  0.5106  1.3197
 8300SOL    HW236534   2.022   3.136   6.758  0.2082 -0.9263  0.2074
 8301SOL     OW36535   4.080   1.454   0.017  0.7279  0.5947 -0.1555
 8301SOL    HW136536   4.016   1.517  17.728  1.8246  1.1203 -1.2716
 8301SOL    HW236537   4.047   1.452   0.107 -0.4005  1.1607 -0.5573
 8302SOL     OW36538   3.145   3.224  10.822  0.0552 -0.0856  0.1220
 8302SOL    HW136539   3.125   3.220  10.916 -0.3345  1.3723  0.1037
 8302SOL    HW236540   3.241   3.220  10.816  0.0982  0.8526  0.1569
 8303SOL     OW36541   2.305   2.105  17.350  0.2869 -0.1453 -0.1989
 8303SOL    HW136542   2.291   2.199  17.345  0.0277 -0.1601  0.2334
 8303SOL    HW236543   2.216   2.070  17.357 -0.3612  1.3215 -1.0014
 8304SOL     OW36544   4.069   3.062  13.821 -0.8012  0.1103  0.0589
 8304SOL    HW136545   4.077   3.061  13.916 -0.4031  1.4159  0.0380
 8304SOL    HW236546   3.994   3.004  13.805 -0.3335 -0.4246 -0.1850
 8305SOL     OW36547   4.332   0.140   3.872  0.0418  0.2182  0.1293
 8305SOL    HW136548   4.379   0.125   3.953 -0.1733  1.7413  0.5319
 8305SOL    HW236549   4.317   0.048   3.851 -1.5163  0.6139 -0.5534
 8306SOL     OW36550   3.841   2.185   3.069  0.0875  0.5325  0.1136
 8306SOL    HW136551   3.879   2.181   2.981  0.0999 -0.5879  0.1734
 8306SOL    HW236552   3.915   2.158   3.123  0.8591  0.2045 -1.1147
 8307SOL     OW36553   4.666   0.825   2.915 -0.2782 -0.3840 -0.3102
 8307SOL    HW136554   0.024   0.837   2.915 -0.3763  0.4068 -0.7072
 8307SOL    HW236555   4.640   0.817   2.823  0.6469  0.0902 -0.6119
 8308SOL     OW36556   1.228   2.991  13.980  0.0473 -0.2013  0.9324
 8308SOL    HW136557   1.257   3.057  14.043 -0.5037  0.4462  0.5175
 8308SOL    HW236558   1.302   2.996  13.919 -0.9860  1.8740 -0.1872
 8309SOL     OW36559   0.150   1.497   9.569  0.3200 -0.7167 -0.3557
 8309SOL    HW136560   0.158   1.437   9.643 -0.3217  1.8329  1.7861
 8309SOL    HW236561   0.236   1.483   9.530  0.6604 -0.5982  0.3524
 8310SOL     OW36562   3.963   2.922   6.371  0.2789  0.3383  0.3583
 8310SOL    HW136563   4.005   2.902   6.455  2.0779  1.4452 -0.2629
 8310SOL    HW236564   3.888   2.863   6.378  0.7823 -0.3802 -0.2747
 8311SOL     OW36565   2.136   3.637  10.105 -0.0781  1.0379 -0.0649
 8311SOL    HW136566   2.042   3.617  10.111  0.1405  0.3595  1.1670
 8311SOL    HW236567   2.128   3.730  10.127 -0.5836  1.1135 -0.5544
 8312SOL     OW36568   3.542   4.510  12.341 -0.0234  0.2858 -0.3676
 8312SOL    HW136569   3.525   4.494  12.434 -1.2791 -3.7759 -1.2770
 8312SOL    HW236570   3.619   4.566  12.331  0.1758 -0.1832 -1.4323
 8313SOL     OW36571   0.776   3.233  11.227  0.3099  0.1644  0.6446
 8313SOL    HW136572   0.806   3.324  11.227 -0.7607  0.5172  2.5987
 8313SOL    HW236573   0.793   3.217  11.134 -0.2528  0.4324  0.4976
 8314SOL     OW36574   4.111   0.774  15.875  0.2588  0.2054  0.3847
 8314SOL    HW136575   4.180   0.711  15.856  2.2781  3.3668 -2.7568
 8314SOL    HW236576   4.156   0.859  15.880  1.1600 -0.1657 -1.6297
 8315SOL     OW36577   3.523   0.134  15.338 -0.4001  0.1527 -0.3304
 8315SOL    HW136578   3.514   0.222  15.372  0.0091  0.7873 -1.8580
 8315SOL    HW236579   3.430   0.115  15.325 -0.8677  2.8975 -1.0330
 8316SOL     OW36580   2.854   3.471  12.355  0.1162  0.5459 -0.3360
 8316SOL    HW136581   2.829   3.381  12.335  3.7355 -0.5363  0.0093
 8316SOL    HW236582   2.776   3.520  12.381 -2.1085 -3.3669  0.3103
 8317SOL     OW36583   0.925   0.437  11.315  0.0517 -0.0755  0.1631
 8317SOL    HW136584   0.965   0.411  11.398  1.5048  0.3640 -0.4106
 8317SOL    HW236585   0.921   0.350  11.275 -3.5338  0.3298 -0.3571
 8318SOL     OW36586   1.453   2.296   6.297 -0.1159 -0.1120  0.0359
 8318SOL    HW136587   1.504   2.222   6.328 -2.4327 -0.9008  1.9725
 8318SOL    HW236588   1.375   2.287   6.351 -1.4639  0.2904 -1.8425
 8319SOL     OW36589   3.824   3.860   4.279 -0.2405 -0.4652 -0.1212
 8319SOL    HW136590   3.887   3.828   4.214 -1.4621  1.5900 -2.3358
 8319SOL    HW236591   3.842   3.954   4.286  0.9652 -0.4754 -3.0256
 8320SOL     OW36592   3.864   3.127  16.242  0.4864  0.3250 -0.1537
 8320SOL    HW136593   3.814   3.200  16.207 -0.9921 -0.7416 -0.3125
 8320SOL    HW236594   3.891   3.081  16.162 -1.7182 -0.5776 -0.3846
 8321SOL     OW36595   0.617   3.604   2.482 -0.1514 -0.4954  0.6621
 8321SOL    HW136596   0.685   3.612   2.549 -0.9155  0.9133  1.2584
 8321SOL    HW236597   0.663   3.557   2.411  1.1839  0.6429  0.7775
 8322SOL     OW36598   1.723   4.656  11.933  0.8390 -0.6095 -0.1438
 8322SOL    HW136599   1.773   4.574  11.930  2.7603  0.4911  2.0148
 8322SOL    HW236600   1.750   4.705  11.856  3.2047  0.4509  1.3484
 8323SOL     OW36601   0.964   1.245   2.674 -0.2171  0.2387  0.1677
 8323SOL    HW136602   0.925   1.305   2.736  0.4742  0.0150  0.8241
 8323SOL    HW236603   0.919   1.271   2.594  2.3871  2.6330 -0.5059
 8324SOL     OW36604   0.306   3.758   8.587 -0.3560 -0.4056 -0.3051
 8324SOL    HW136605   0.394   3.744   8.551 -0.1240 -2.0797  0.9472
 8324SOL    HW236606   0.294   3.841   8.542 -0.8387 -0.6365 -0.6049
 8325SOL     OW36607   3.463   2.856   2.052  0.5764  0.5834 -0.2737
 8325SOL    HW136608   3.432   2.940   2.086  1.1265 -0.2507  2.2633
 8325SOL    HW236609   3.414   2.800   2.112  2.0954  0.1862  0.5920
 8326SOL     OW36610   1.271   1.934   8.918  0.2753 -0.2333  0.0540
 8326SOL    HW136611   1.191   1.986   8.930 -1.1940 -1.9198 -2.5266
 8326SOL    HW236612   1.330   1.993   8.870 -1.9717  1.5285 -0.5517
 8327SOL     OW36613   2.367   0.174   1.067 -0.0959  0.0384  0.1349
 8327SOL    HW136614   2.400   0.256   1.105 -2.2904  0.9228  0.1258
 8327SOL    HW236615   2.346   0.204   0.979  1.1218  1.3797  0.2944
 8328SOL     OW36616   0.096   1.076   4.369 -0.2804 -1.0077  0.0792
 8328SOL    HW136617   0.087   0.993   4.322  1.3818 -0.6317 -0.8754
 8328SOL    HW236618   0.026   1.056   4.431 -3.4968 -0.9813 -3.5085
 8329SOL     OW36619   0.714   4.436   2.881 -0.3618 -0.3284 -0.0771
 8329SOL    HW136620   0.771   4.360   2.867  0.6537  0.1542  1.4264
 8329SOL    HW236621   0.636   4.389   2.913  0.2033 -1.4754 -0.3897
 8330SOL     OW36622   4.723   1.943   0.150 -0.2367  1.1080 -0.0925
 8330SOL    HW136623   4.706   1.904   0.065 -1.0314  3.1140 -0.8436
 8330SOL    HW236624   4.720   1.863   0.203  0.7757  1.3958  0.4052
 8331SOL     OW36625   0.354   2.086   2.703 -0.0860  0.3313  0.0801
 8331SOL    HW136626   0.275   2.048   2.740 -0.1965 -1.2004 -1.6778
 8331SOL    HW236627   0.355   2.171   2.746 -1.4602 -0.0395  0.8158
 8332SOL     OW36628   3.375   3.680   6.481 -0.2931 -0.3115  0.4774
 8332SOL    HW136629   3.338   3.746   6.422  0.6540 -0.0977  0.1063
 8332SOL    HW236630   3.291   3.645   6.510 -0.1279 -0.9816  0.1407
 8333SOL     OW36631   0.580   4.256   7.610  0.2196 -0.1238 -0.4315
 8333SOL    HW136632   0.569   4.299   7.695  3.9587 -0.6252  0.3033
 8333SOL    HW236633   0.673   4.235   7.610  0.1155 -0.5529  0.6568
 8334SOL     OW36634   2.362   0.735  12.789 -0.2055  0.3848 -0.3126
 8334SOL    HW136635   2.309   0.689  12.855 -1.6628  2.4531 -0.0604
 8334SOL    HW236636   2.354   0.827  12.814 -1.7790  0.1266  0.2008
 8335SOL     OW36637   0.063   1.034   3.966 -0.4749 -0.1673 -0.0884
 8335SOL    HW136638   0.048   1.046   3.872  3.0548 -2.4902 -0.9535
 8335SOL    HW236639   4.715   1.056   4.005 -1.5430 -2.0210 -1.3811
 8336SOL     OW36640   1.639   1.618   3.911  0.3099 -0.1858  0.6073
 8336SOL    HW136641   1.690   1.681   3.860 -0.7471 -1.3289 -1.8798
 8336SOL    HW236642   1.613   1.558   3.840  1.1885  3.1187 -2.5083
 8337SOL     OW36643   0.930   0.542   5.046 -0.2490  0.6675 -0.0660
 8337SOL    HW136644   0.982   0.622   5.057  0.6738  0.4089 -2.5604
 8337SOL    HW236645   0.979   0.489   5.109  0.3118  0.8438 -0.3534
 8338SOL     OW36646   0.260   2.089  11.038  0.2427  0.2341 -0.3557
 8338SOL    HW136647   0.254   2.109  11.131  1.2623  0.2810 -0.2981
 8338SOL    HW236648   0.351   2.108  11.014 -0.0610  1.5478 -0.4399
 8339SOL     OW36649   1.255   1.723   5.150 -0.8140 -0.3431  0.1900
 8339SOL    HW136650   1.305   1.670   5.213  1.1194  1.3197  0.0657
 8339SOL    HW236651   1.316   1.747   5.080 -0.1954 -1.0262  0.4883
 8340SOL     OW36652   3.219   4.056  14.049 -0.5279 -1.1727  0.3609
 8340SOL    HW136653   3.300   4.074  14.001 -0.3777  0.2103  1.1347
 8340SOL    HW236654   3.252   4.045  14.138 -1.6968 -0.7860  0.8453
 8341SOL     OW36655   1.479   2.132   2.798  0.6422  0.2220 -0.1827
 8341SOL    HW136656   1.531   2.167   2.870 -0.1542 -1.3396  1.1379
 8341SOL    HW236657   1.412   2.199   2.782  0.2419 -0.2622 -0.5188
 8342SOL     OW36658   0.873   2.015   1.491 -0.3736 -0.5927 -0.2634
 8342SOL    HW136659   0.824   1.933   1.483 -2.4462  0.4953  1.2951
 8342SOL    HW236660   0.936   1.988   1.558  0.2108  0.5393 -0.3598
 8343SOL     OW36661   1.778   0.117   7.342 -0.0231  0.0903 -0.2082
 8343SOL    HW136662   1.781   0.094   7.249 -2.5025 -1.2161  0.0318
 8343SOL    HW236663   1.711   0.184   7.351 -2.7306 -2.6485  0.0127
 8344SOL     OW36664   0.705   0.285  16.298 -0.1545  0.2873 -0.0115
 8344SOL    HW136665   0.690   0.345  16.372 -0.1310  2.5482 -1.8372
 8344SOL    HW236666   0.648   0.326  16.233 -0.8122  0.6027  0.7628
 8345SOL     OW36667   4.469   3.305   0.842  0.0670 -0.7347  0.2925
 8345SOL    HW136668   4.499   3.239   0.904  1.0441 -0.5845 -0.0111
 8345SOL    HW236669   4.433   3.258   0.767  2.8377 -2.4548  0.0543
 8346SOL     OW36670   2.747   4.386  16.361 -0.5381  0.1491  0.0906
 8346SOL    HW136671   2.799   4.437  16.299 -1.6899  1.6566  0.3581
 8346SOL    HW236672   2.670   4.371  16.306 -0.1843  0.8125 -0.5951
 8347SOL     OW36673   0.109   1.352  17.297 -0.2006 -0.5143 -0.2148
 8347SOL    HW136674   0.156   1.344  17.214  2.1252  0.6865  0.9782
 8347SOL    HW236675   0.169   1.322  17.365 -0.7589 -0.3967  0.3346
 8348SOL     OW36676   0.568   0.769   5.833  0.1137  0.3619 -0.1192
 8348SOL    HW136677   0.507   0.721   5.888  0.5733  1.1811  1.1168
 8348SOL    HW236678   0.621   0.811   5.901 -0.1968  1.3313 -0.4758
 8349SOL     OW36679   1.324   0.525   6.171 -0.2003 -0.3994  0.4486
 8349SOL    HW136680   1.285   0.444   6.138  2.0809 -1.6960  0.9350
 8349SOL    HW236681   1.286   0.591   6.113 -0.7254 -0.8326  0.3056
 8350SOL     OW36682   2.145   4.313   4.158  0.1126 -0.6229  0.1638
 8350SOL    HW136683   2.050   4.307   4.146  0.1919 -0.4316 -0.5855
 8350SOL    HW236684   2.142   4.399   4.201  1.7570 -0.9346  0.9046
 8351SOL     OW36685   0.261   2.069   2.194 -0.4178 -0.6632 -0.2742
 8351SOL    HW136686   0.228   2.111   2.273  0.4633  0.2071 -0.3614
 8351SOL    HW236687   0.353   2.095   2.204 -0.8082  1.2787 -1.7809
 8352SOL     OW36688   3.233   0.725   8.101 -0.2046  0.2843 -0.1159
 8352SOL    HW136689   3.272   0.689   8.022 -1.1269  0.5437 -0.6871
 8352SOL    HW236690   3.142   0.743   8.080 -0.5494  0.1591  1.2952
 8353SOL     OW36691   2.719   1.065   4.548 -0.2231  0.2024  1.1424
 8353SOL    HW136692   2.682   1.089   4.632 -0.6252  1.7891  0.5038
 8353SOL    HW236693   2.738   1.154   4.517  0.1854 -0.2338  0.1402
 8354SOL     OW36694   0.045   3.514   2.513 -0.3507  0.5686 -0.3274
 8354SOL    HW136695   4.706   3.539   2.461 -0.2718 -1.7647 -1.5752
 8354SOL    HW236696   0.056   3.582   2.579 -0.5403 -2.1037  2.4326
 8355SOL     OW36697   1.677   1.144   8.584  0.5196 -0.4221 -0.3906
 8355SOL    HW136698   1.726   1.176   8.660  0.8126  2.2800 -1.7149
 8355SOL    HW236699   1.737   1.084   8.539  0.4423 -0.8419  0.0592
 8356SOL     OW36700   4.369   1.453   5.812 -0.4781  0.2990  0.2279
 8356SOL    HW136701   4.287   1.467   5.765  1.4894 -0.8395 -3.5427
 8356SOL    HW236702   4.375   1.532   5.865  1.4973 -1.8166  3.1828
 8357SOL     OW36703   4.435   0.321   7.931  0.0305 -0.5240  0.0283
 8357SOL    HW136704   4.376   0.389   7.962 -0.1909 -0.9498  0.5469
 8357SOL    HW236705   4.372   0.262   7.890 -0.3707 -1.0307  1.3669
 8358SOL     OW36706   3.866   1.487   7.755  0.0348 -0.0451 -0.2753
 8358SOL    HW136707   3.809   1.553   7.796  1.2120  0.6092  0.3094
 8358SOL    HW236708   3.899   1.538   7.680  0.9878 -0.5710 -0.2159
 8359SOL     OW36709   0.776   1.394   4.843 -0.2237  0.1092  0.3248
 8359SOL    HW136710   0.867   1.391   4.871  0.7237  0.4782 -2.6628
 8359SOL    HW236711   0.736   1.314   4.878 -0.3061 -0.1345 -0.3271
 8360SOL     OW36712   1.711   1.624   3.262 -0.3113  0.3647  0.2468
 8360SOL    HW136713   1.743   1.708   3.297 -0.1463  0.4500 -0.1044
 8360SOL    HW236714   1.619   1.642   3.246 -0.2236  1.2890  0.8207
 8361SOL     OW36715   3.175   1.317   6.041 -0.4333 -0.5041  0.8118
 8361SOL    HW136716   3.217   1.290   5.959 -1.3324  2.1450 -0.5307
 8361SOL    HW236717   3.141   1.402   6.014  2.3511  0.9509  1.8743
 8362SOL     OW36718   2.160   3.026   2.497  0.5617  0.5920  0.1131
 8362SOL    HW136719   2.196   2.944   2.463 -0.1120  0.6505 -0.7325
 8362SOL    HW236720   2.236   3.053   2.549  1.8578 -0.0910 -1.4114
 8363SOL     OW36721   3.660   2.462   7.734  0.8479 -0.1435  0.5139
 8363SOL    HW136722   3.692   2.460   7.644  1.5163  1.5215  0.7125
 8363SOL    HW236723   3.596   2.532   7.724  2.4196  1.2187  0.0104
 8364SOL     OW36724   2.301   3.020  13.521 -0.3738  0.2356 -0.7455
 8364SOL    HW136725   2.296   3.072  13.441  0.6201 -0.6518 -1.3863
 8364SOL    HW236726   2.393   2.996  13.513 -0.3488  0.2413 -0.4967
 8365SOL     OW36727   1.524   1.744   8.089  0.0039 -0.5780 -0.1735
 8365SOL    HW136728   1.438   1.738   8.131 -0.5476  0.1483 -1.1905
 8365SOL    HW236729   1.567   1.812   8.140 -1.7407  0.2646  0.1778
 8366SOL     OW36730   4.380   0.965   3.507  1.1436 -0.3547 -0.5591
 8366SOL    HW136731   4.311   0.986   3.444  1.8983 -1.1423 -1.6341
 8366SOL    HW236732   4.392   1.053   3.542  2.4424 -0.4444 -0.8109
 8367SOL     OW36733   3.888   1.136   9.837  0.1779  0.0270  0.3296
 8367SOL    HW136734   3.851   1.080   9.905  0.7172 -1.0730 -0.2780
 8367SOL    HW236735   3.821   1.142   9.769  0.2107 -2.7671  0.0395
 8368SOL     OW36736   3.883   1.264   6.654 -0.2094 -0.1728 -0.1746
 8368SOL    HW136737   3.805   1.297   6.699 -0.8369 -1.3094 -0.4567
 8368SOL    HW236738   3.962   1.311   6.683  0.1544 -0.8069 -0.1377
 8369SOL     OW36739   2.424   1.911  15.912 -0.0149  0.0134 -0.1285
 8369SOL    HW136740   2.420   1.886  15.820  1.7905 -1.2985  0.1395
 8369SOL    HW236741   2.516   1.936  15.907 -0.2559  1.0211  0.3822
 8370SOL     OW36742   4.463   2.831  13.278 -0.0727  0.3449  0.0130
 8370SOL    HW136743   4.448   2.826  13.184  0.3947 -0.5686 -0.0167
 8370SOL    HW236744   4.418   2.911  13.306 -1.4097 -0.8803  1.3283
 8371SOL     OW36745   2.580   2.324   8.586  0.3006 -0.9868  0.0498
 8371SOL    HW136746   2.508   2.368   8.540  1.9592 -1.1054 -2.6345
 8371SOL    HW236747   2.646   2.343   8.520  0.8928 -0.4765  0.7833
 8372SOL     OW36748   4.344   3.761   9.077 -0.3679 -0.1065  0.0596
 8372SOL    HW136749   4.253   3.790   9.076 -0.2797  0.1781  0.5236
 8372SOL    HW236750   4.341   3.666   9.065 -0.3728 -0.0831 -0.1169
 8373SOL     OW36751   3.722   0.927  10.288 -0.5092  0.2339 -0.6987
 8373SOL    HW136752   3.718   0.841  10.331  1.8594  1.1220  1.3011
 8373SOL    HW236753   3.738   0.993  10.355 -0.6573 -0.8704  0.4181
 8374SOL     OW36754   3.832   3.052   7.970  0.3401 -0.0253  0.3467
 8374SOL    HW136755   3.774   3.086   8.038  0.3499  1.1048 -0.1965
 8374SOL    HW236756   3.915   3.067   8.015 -0.7998 -0.2545  2.4908
 8375SOL     OW36757   4.000   2.034   1.722  0.4165  0.1084  0.0735
 8375SOL    HW136758   3.983   2.111   1.669  2.2350  1.4511  1.4537
 8375SOL    HW236759   3.943   1.970   1.679  0.8137  0.0033 -0.2904
 8376SOL     OW36760   4.261   3.760  11.234  0.5769 -0.1762 -0.7157
 8376SOL    HW136761   4.169   3.763  11.208  0.1480 -0.2672  0.7904
 8376SOL    HW236762   4.301   3.786  11.151 -0.3335 -0.2836 -1.1971
 8377SOL     OW36763   3.254   3.279   8.627 -0.4794 -0.0611  0.2146
 8377SOL    HW136764   3.213   3.199   8.594 -1.0443  0.0327  0.6972
 8377SOL    HW236765   3.218   3.296   8.713 -0.5534  0.4583  0.0779
 8378SOL     OW36766   1.978   1.162   3.698 -0.7575  0.5281 -0.5522
 8378SOL    HW136767   1.917   1.226   3.733  0.0697  0.5379  0.8697
 8378SOL    HW236768   1.951   1.078   3.736 -0.3839  0.5193 -0.3029
 8379SOL     OW36769   1.244   2.506   5.812  0.0959  0.1235  1.0795
 8379SOL    HW136770   1.330   2.534   5.844  1.0002  0.1028 -1.3196
 8379SOL    HW236771   1.235   2.561   5.734 -2.7080 -0.7574  0.8012
 8380SOL     OW36772   1.409   4.510   5.246 -0.1420  0.1245 -0.5571
 8380SOL    HW136773   1.441   4.520   5.335 -1.1837 -1.2447 -0.0388
 8380SOL    HW236774   1.460   4.580   5.204  0.0172  0.1292 -0.3596
 8381SOL     OW36775   4.095   1.326  17.011 -0.4031  0.1075  0.6033
 8381SOL    HW136776   4.045   1.344  17.091 -0.5668 -1.6813  0.9010
 8381SOL    HW236777   4.136   1.412  16.999 -0.7255  0.0414 -0.8796
 8382SOL     OW36778   1.884   4.410   4.728 -0.1234 -0.2616 -0.8663
 8382SOL    HW136779   1.879   4.504   4.709 -1.0465  0.0552  0.8659
 8382SOL    HW236780   1.977   4.393   4.744  0.5938  3.9340 -0.5974
 8383SOL     OW36781   1.081   1.886  10.133 -0.4256 -0.7605 -0.3679
 8383SOL    HW136782   1.116   1.917  10.050  0.1985  0.6567  0.4351
 8383SOL    HW236783   1.163   1.875  10.182 -0.3912 -0.8297 -0.4419
 8384SOL     OW36784   2.554   0.174   6.651  0.4318 -0.2379  0.0190
 8384SOL    HW136785   2.504   0.190   6.572 -1.4581 -0.1023  1.2412
 8384SOL    HW236786   2.618   0.245   6.642 -0.4857  0.7083  1.0603
 8385SOL     OW36787   4.625   4.095  14.962 -0.3808  0.7130 -0.5317
 8385SOL    HW136788   4.601   4.142  15.042  0.5631  0.8340 -0.3241
 8385SOL    HW236789   4.672   4.020  14.999 -1.5220  0.0166 -0.4984
 8386SOL     OW36790   2.051   0.490   3.620  0.5190  0.2139 -0.0572
 8386SOL    HW136791   2.007   0.573   3.600  2.2736  1.5216  1.4197
 8386SOL    HW236792   2.129   0.487   3.566  0.4835 -1.8672  0.0028
 8387SOL     OW36793   1.565   4.048   8.036  0.5914 -0.0820  0.4145
 8387SOL    HW136794   1.487   4.016   7.991  0.6705 -1.2119  1.0937
 8387SOL    HW236795   1.595   3.964   8.069  1.3783 -0.5037 -1.3704
 8388SOL     OW36796   0.485   3.357   3.217 -0.4042 -0.5338 -0.0904
 8388SOL    HW136797   0.494   3.278   3.271  1.1523  0.2375  0.7632
 8388SOL    HW236798   0.478   3.424   3.284 -1.2838  1.6586 -2.3958
 8389SOL     OW36799   0.039   3.943   1.687  0.1254  0.4058  0.2259
 8389SOL    HW136800   4.687   3.970   1.663 -0.1361 -2.2460 -1.7665
 8389SOL    HW236801   0.049   3.858   1.645  0.1902  0.4020  0.2489
 8390SOL     OW36802   0.575   0.367  13.916  0.0077  0.2339 -0.1784
 8390SOL    HW136803   0.617   0.399  13.996  1.0720 -0.8196 -0.2976
 8390SOL    HW236804   0.640   0.301  13.889  0.8572  0.5513  1.0800
 8391SOL     OW36805   4.628   0.846   3.464  0.4581 -0.4500 -0.3907
 8391SOL    HW136806   4.541   0.882   3.480 -0.3556 -2.2256 -0.8666
 8391SOL    HW236807   4.639   0.827   3.371 -2.2103  0.7170 -0.9329
 8392SOL     OW36808   3.259   2.048  11.442 -0.1804  0.1346  0.6434
 8392SOL    HW136809   3.165   2.038  11.453 -0.3980  1.2710 -0.1442
 8392SOL    HW236810   3.286   2.099  11.519 -2.0403  2.0311  0.0358
 8393SOL     OW36811   0.074   0.350  11.877  0.3490 -1.0863 -0.1503
 8393SOL    HW136812   0.050   0.338  11.968  1.1358 -0.1661  0.1820
 8393SOL    HW236813   0.156   0.389  11.906 -0.0904  1.0856 -1.7297
 8394SOL     OW36814   0.381   4.510   1.438  0.0945  0.0537 -0.1285
 8394SOL    HW136815   0.289   4.525   1.459 -0.8038 -2.3005 -2.3599
 8394SOL    HW236816   0.411   4.468   1.518  0.7043  2.7940  1.1060
 8395SOL     OW36817   0.842   3.141   9.579  0.1503 -0.3043 -0.6398
 8395SOL    HW136818   0.922   3.111   9.536  0.1548  0.0306 -0.8669
 8395SOL    HW236819   0.813   3.058   9.615 -0.4773 -0.1243 -0.7290
 8396SOL     OW36820   0.555   0.627   4.613  0.4553 -0.1546 -0.1481
 8396SOL    HW136821   0.483   0.595   4.667  1.0585 -0.5212  0.4418
 8396SOL    HW236822   0.628   0.606   4.671 -1.4412  0.3380  2.4098
 8397SOL     OW36823   3.209   3.030   9.524  0.5107 -0.7654 -0.7125
 8397SOL    HW136824   3.249   3.112   9.499  1.0373 -0.9109 -0.3473
 8397SOL    HW236825   3.198   3.055   9.616 -1.9867  0.3659 -1.3105
 8398SOL     OW36826   3.582   3.264  17.384 -0.5678 -0.3480 -0.1950
 8398SOL    HW136827   3.496   3.242  17.348 -0.2561 -0.7648 -0.6748
 8398SOL    HW236828   3.567   3.356  17.405 -2.6692  0.2025 -4.0441
 8399SOL     OW36829   4.350   2.363   5.917  0.1773 -0.0497  0.6907
 8399SOL    HW136830   4.321   2.290   5.972 -3.2379  0.8920  0.1415
 8399SOL    HW236831   4.271   2.416   5.923 -0.2549 -0.6059 -0.0688
 8400SOL     OW36832   3.157   4.157   5.728  0.0386  0.1372 -0.5960
 8400SOL    HW136833   3.147   4.253   5.724  1.0212  0.2187 -1.1254
 8400SOL    HW236834   3.235   4.152   5.784 -0.5774 -2.3679  0.0204
 8401SOL     OW36835   1.017   2.447   9.422 -0.4444 -0.2918  0.2547
 8401SOL    HW136836   1.006   2.353   9.435  0.8465 -0.4558  0.0656
 8401SOL    HW236837   1.060   2.471   9.503  1.6108 -1.7953 -0.4150
 8402SOL     OW36838   1.110   3.144   7.578 -1.1834  0.1092 -0.4757
 8402SOL    HW136839   1.179   3.109   7.521 -1.6989  0.0426 -1.0653
 8402SOL    HW236840   1.032   3.088   7.573 -0.5758 -0.8347  0.6464
 8403SOL     OW36841   2.093   3.118   7.090  0.7457 -0.4068 -0.7389
 8403SOL    HW136842   2.158   3.129   7.021  1.9227 -0.5636  0.3468
 8403SOL    HW236843   2.057   3.206   7.090  0.8187 -0.3881  1.3972
 8404SOL     OW36844   0.625   1.946   3.201  0.2972 -0.2017 -0.8411
 8404SOL    HW136845   0.656   1.975   3.287  1.7517 -0.5130 -1.2579
 8404SOL    HW236846   0.622   2.026   3.149  2.2656  0.3489 -0.0985
 8405SOL     OW36847   0.477   1.200   4.091 -0.3686  0.3682 -0.1647
 8405SOL    HW136848   0.446   1.287   4.065 -0.2133  1.1965  2.4795
 8405SOL    HW236849   0.573   1.201   4.088 -0.3503 -0.2681  0.1454
 8406SOL     OW36850   0.931   4.190  17.369  0.1823  0.2453  0.0140
 8406SOL    HW136851   0.852   4.229  17.331 -0.5745 -0.9160  0.4185
 8406SOL    HW236852   0.960   4.269  17.415 -1.1449  0.2290  0.8977
 8407SOL     OW36853   0.968   2.961   8.904  0.5815  0.1486 -0.5559
 8407SOL    HW136854   1.005   2.986   8.819  0.6421  0.5691 -0.4082
 8407SOL    HW236855   0.876   2.973   8.883  0.7128  1.4299 -0.4086
 8408SOL     OW36856   0.648   2.008   8.202 -0.2250  0.1253 -0.6460
 8408SOL    HW136857   0.742   1.996   8.214 -0.4016  0.8863  1.3624
 8408SOL    HW236858   0.617   1.999   8.292 -1.1425 -0.1372 -0.9850
 8409SOL     OW36859   2.776   4.563  16.574  0.3636 -0.4795 -0.8217
 8409SOL    HW136860   2.768   4.492  16.639 -0.8644  1.3519  1.0268
 8409SOL    HW236861   2.780   4.509  16.495 -0.9055  0.2386 -1.3609
 8410SOL     OW36862   1.259   1.021   8.403  0.0227 -0.0410 -0.5188
 8410SOL    HW136863   1.234   1.035   8.312 -1.6610 -2.8548 -0.4949
 8410SOL    HW236864   1.256   1.109   8.441  0.4117  0.6329 -2.0673
 8411SOL     OW36865   0.557   4.148   1.840  0.0532  0.0034 -0.5293
 8411SOL    HW136866   0.577   4.081   1.905  0.9477  1.2068  0.4256
 8411SOL    HW236867   0.477   4.112   1.801 -0.8627  1.8402 -0.3586
 8412SOL     OW36868   2.756   1.907  12.838  0.3705  0.1528 -0.0777
 8412SOL    HW136869   2.761   1.822  12.880 -0.5710 -0.6128 -1.5208
 8412SOL    HW236870   2.681   1.941  12.887 -0.0837  0.4986 -1.0096
 8413SOL     OW36871   0.641   0.036   4.093 -0.1629  0.2837 -0.5919
 8413SOL    HW136872   0.613   0.110   4.039 -0.1520  0.4622 -0.3529
 8413SOL    HW236873   0.653   4.707   4.025  0.2197 -1.1546  0.8841
 8414SOL     OW36874   3.588   2.273   3.040 -0.6056  0.3464 -0.2508
 8414SOL    HW136875   3.675   2.237   3.057 -1.4828 -1.3842  0.6639
 8414SOL    HW236876   3.561   2.306   3.126 -0.3074  1.0763 -0.4404
 8415SOL     OW36877   4.166   0.587   2.203 -0.2600  0.0936 -0.0633
 8415SOL    HW136878   4.213   0.558   2.125 -1.0859 -2.4601  0.4016
 8415SOL    HW236879   4.157   0.507   2.254 -0.8192  0.5887  0.6181
 8416SOL     OW36880   0.576   0.624  16.342  0.3611  0.2969  0.0002
 8416SOL    HW136881   0.561   0.573  16.262  0.8663  2.5008 -1.5013
 8416SOL    HW236882   0.511   0.586  16.402  1.6141  1.5281  2.1317
 8417SOL     OW36883   4.174   0.416   4.458  0.1564 -0.0727 -0.1758
 8417SOL    HW136884   4.153   0.428   4.365 -0.1584  1.2314  0.0596
 8417SOL    HW236885   4.269   0.408   4.469  0.3853  2.6122 -0.1676
 8418SOL     OW36886   2.561   0.027  10.846  0.5141 -0.0036 -0.4118
 8418SOL    HW136887   2.639   0.007  10.794  1.3773  1.5010  0.3064
 8418SOL    HW236888   2.595   0.099  10.899 -2.3778  1.4676 -0.5644
 8419SOL     OW36889   4.671   2.707   9.941 -0.1001  0.8175  0.1450
 8419SOL    HW136890   4.662   2.615   9.962 -2.0783  0.5592 -1.8183
 8419SOL    HW236891   4.690   2.744  10.027  2.3881 -0.5205  0.1767
 8420SOL     OW36892   4.236   1.045   2.290 -0.8009  0.5381 -0.6816
 8420SOL    HW136893   4.269   1.131   2.264 -0.3063  1.3310  2.4842
 8420SOL    HW236894   4.143   1.065   2.301 -1.0224 -0.5830 -0.4820
 8421SOL     OW36895   2.182   4.193   1.467  0.3603  0.4775  0.0472
 8421SOL    HW136896   2.144   4.271   1.508  0.8036  0.0123  1.3355
 8421SOL    HW236897   2.275   4.199   1.488  0.6234  0.5405 -1.1798
 8422SOL     OW36898   0.758   1.483   1.569 -0.5453 -0.5093  0.4993
 8422SOL    HW136899   0.704   1.457   1.495  0.9895 -0.8591 -0.4971
 8422SOL    HW236900   0.695   1.492   1.640 -0.2536  1.2884  0.5312
 8423SOL     OW36901   0.590   0.282   3.958 -0.6145 -0.2020  0.5422
 8423SOL    HW136902   0.595   0.374   3.932  1.4638  0.0069  1.6254
 8423SOL    HW236903   0.499   0.280   3.989 -0.5069  0.6689  0.9259
 8424SOL     OW36904   2.756   0.139   4.444  0.6001  0.2733 -0.4167
 8424SOL    HW136905   2.680   0.163   4.390 -0.1855 -1.5216 -0.1109
 8424SOL    HW236906   2.813   0.215   4.443  0.3813  0.4460  0.8787
 8425SOL     OW36907   1.576   3.122   1.769  0.7140 -0.7819  0.6941
 8425SOL    HW136908   1.662   3.122   1.729 -0.3458 -0.7240 -1.5640
 8425SOL    HW236909   1.589   3.103   1.862 -0.4302  0.2690  1.0683
 8426SOL     OW36910   1.966   2.081   4.331  0.2316  0.4216 -0.3531
 8426SOL    HW136911   2.008   2.076   4.245  0.5418  2.6330 -0.3278
 8426SOL    HW236912   2.015   2.149   4.377  1.2192  0.7662 -1.9066
 8427SOL     OW36913   1.480   4.228   4.321  0.5245 -0.0523 -0.3308
 8427SOL    HW136914   1.463   4.157   4.383  0.6075  1.6130  1.5952
 8427SOL    HW236915   1.440   4.302   4.365 -1.5429 -0.3937 -1.6632
 8428SOL     OW36916   0.027   3.099   8.091  0.3141 -0.2949  0.3779
 8428SOL    HW136917   0.086   3.079   8.018  0.1510 -0.3774  0.2685
 8428SOL    HW236918   0.091   3.146   8.144  0.1647  0.0396  0.2584
 8429SOL     OW36919   2.052   1.575   5.034  0.5160  0.7291  0.0434
 8429SOL    HW136920   2.058   1.559   4.940 -1.5127 -0.7303  0.1613
 8429SOL    HW236921   2.053   1.670   5.041  0.0257  0.7145  0.3198
 8430SOL     OW36922   2.640   4.397  17.146 -0.5021  0.1231  0.0809
 8430SOL    HW136923   2.635   4.474  17.089  0.7644  0.4921  0.4635
 8430SOL    HW236924   2.619   4.322  17.092 -0.1762 -1.7219  2.5341
 8431SOL     OW36925   2.162   3.793   3.445  0.2495 -0.2076  1.1852
 8431SOL    HW136926   2.239   3.738   3.429 -0.2110 -0.8928  1.3041
 8431SOL    HW236927   2.113   3.748   3.514  1.9193  0.0319  2.5027
 8432SOL     OW36928   4.183   3.211   8.315  0.6206  0.4908  0.2439
 8432SOL    HW136929   4.251   3.162   8.362 -0.2099 -2.7784 -1.9426
 8432SOL    HW236930   4.222   3.227   8.229 -0.2110 -0.3571 -0.2895
 8433SOL     OW36931   2.616   4.168  11.652  0.0718  0.3108  0.2559
 8433SOL    HW136932   2.543   4.112  11.627  0.4293 -0.4763  0.9657
 8433SOL    HW236933   2.689   4.118  11.617  0.1949 -0.2781  1.3700
 8434SOL     OW36934   2.551   4.089   4.069 -0.2941 -0.2858 -0.4378
 8434SOL    HW136935   2.563   4.067   4.161 -0.1425 -0.8927 -0.6021
 8434SOL    HW236936   2.463   4.124   4.054 -0.5116 -0.6780 -0.0618
 8435SOL     OW36937   1.115   0.610   6.732  0.4095  0.6304 -0.1312
 8435SOL    HW136938   1.128   0.582   6.823  2.2389  2.3046  0.1146
 8435SOL    HW236939   1.142   0.701   6.740  1.5235  0.4880 -2.4569
 8436SOL     OW36940   3.814   1.268   8.494 -0.5089  0.1968  0.2683
 8436SOL    HW136941   3.736   1.291   8.444  0.1396  0.8737 -0.4311
 8436SOL    HW236942   3.875   1.262   8.421 -0.8129  0.0306  0.0266
 8437SOL     OW36943   0.338   3.617   7.950 -0.1134  0.0833 -0.2747
 8437SOL    HW136944   0.349   3.524   7.966  0.7340 -0.1130 -1.9490
 8437SOL    HW236945   0.394   3.653   8.019 -1.3867  0.1920  0.6962
 8438SOL     OW36946   2.489   0.117   5.269  0.0029  0.0062  0.0854
 8438SOL    HW136947   2.571   0.140   5.313 -0.0115  0.7560 -0.2812
 8438SOL    HW236948   2.432   0.091   5.341 -2.9325 -0.9466 -2.5857
 8439SOL     OW36949   3.463   3.814   8.794 -0.4254 -0.0437 -0.0512
 8439SOL    HW136950   3.442   3.742   8.734  0.0567 -1.0121  0.9544
 8439SOL    HW236951   3.394   3.810   8.859 -1.8059 -0.4350 -1.5473
 8440SOL     OW36952   2.276   2.944  10.929  0.0159 -0.4601 -0.0560
 8440SOL    HW136953   2.241   3.016  10.981 -0.5023 -1.5391  1.1048
 8440SOL    HW236954   2.255   2.862  10.975 -2.0724  1.0844  1.7314
 8441SOL     OW36955   0.475   2.316   7.908 -0.2191  0.0375  0.6306
 8441SOL    HW136956   0.523   2.240   7.941 -0.8104 -1.0371 -0.9411
 8441SOL    HW236957   0.542   2.383   7.913  0.7002 -0.7795 -0.6924
 8442SOL     OW36958   0.693   0.590   7.370  0.4927 -0.1197  0.3147
 8442SOL    HW136959   0.647   0.550   7.296  0.3889  3.8711 -1.7603
 8442SOL    HW236960   0.624   0.587   7.436 -0.6879  0.9786 -0.8679
 8443SOL     OW36961   2.858   2.455   5.316 -0.2335 -0.0407 -0.2277
 8443SOL    HW136962   2.778   2.505   5.328  0.7985  1.1573  1.6859
 8443SOL    HW236963   2.911   2.489   5.388 -0.7822  1.2671 -0.4469
 8444SOL     OW36964   2.035   4.117  13.734  0.0617 -0.3713 -0.4229
 8444SOL    HW136965   2.014   4.204  13.766  1.8913  0.2810 -0.9819
 8444SOL    HW236966   2.048   4.115  13.639 -0.8884  1.9238 -0.5991
 8445SOL     OW36967   4.607   2.825  16.415  0.5363 -0.0967  0.1841
 8445SOL    HW136968   4.695   2.863  16.418 -0.6136  2.6179 -0.3799
 8445SOL    HW236969   4.598   2.807  16.321 -0.4888  1.9691 -0.1022
 8446SOL     OW36970   2.150   0.240  15.863 -0.3730 -0.2959  0.1540
 8446SOL    HW136971   2.065   0.280  15.878 -1.1327 -1.9809  0.2938
 8446SOL    HW236972   2.197   0.257  15.945 -0.4148 -1.3650  0.3998
 8447SOL     OW36973   1.679   4.544   2.234 -0.9315 -0.6761  0.1508
 8447SOL    HW136974   1.617   4.561   2.163  0.4021  1.2678 -0.5563
 8447SOL    HW236975   1.643   4.609   2.296  0.7115 -1.1173  1.5772
 8448SOL     OW36976   1.783   3.102   3.682 -0.0124  0.4547  0.5035
 8448SOL    HW136977   1.737   3.161   3.741  0.1585  1.3707 -0.2805
 8448SOL    HW236978   1.830   3.046   3.744 -0.7081 -1.6441 -0.8207
 8449SOL     OW36979   3.166   4.095   3.024  0.2801  0.1034 -0.7296
 8449SOL    HW136980   3.224   4.067   3.095 -0.2644 -0.7052 -0.6113
 8449SOL    HW236981   3.106   4.146   3.078  2.0433 -0.3711  1.6565
 8450SOL     OW36982   1.863   0.343   4.109 -0.0282 -0.1587 -0.5582
 8450SOL    HW136983   1.933   0.377   4.165 -0.2491 -0.0664 -0.3393
 8450SOL    HW236984   1.893   0.375   4.023 -1.1800  0.5591 -0.6839
 8451SOL     OW36985   1.779   4.201   7.249  0.4130  0.1249 -0.3766
 8451SOL    HW136986   1.796   4.286   7.206 -0.7057  1.1131  1.1349
 8451SOL    HW236987   1.739   4.238   7.328  1.6010 -1.9488  1.1899
 8452SOL     OW36988   2.147   3.083   4.715  0.9030 -0.0906  0.0309
 8452SOL    HW136989   2.058   3.054   4.731  0.1330  1.4785 -1.4216
 8452SOL    HW236990   2.189   2.997   4.718 -1.1591 -1.1910 -3.4307
 8453SOL     OW36991   0.348   1.646  10.660  0.1512  0.0649  0.2594
 8453SOL    HW136992   0.277   1.684  10.711 -0.5590 -2.2288  0.9537
 8453SOL    HW236993   0.328   1.648  10.567  1.9814 -0.8099 -0.1617
 8454SOL     OW36994   1.670   3.769   5.864  0.0904  0.0007  0.0584
 8454SOL    HW136995   1.580   3.799   5.849  0.3400  0.0928 -1.2953
 8454SOL    HW236996   1.725   3.811   5.797 -0.7074  0.5677 -0.2379
 8455SOL     OW36997   3.932   4.334   3.843 -0.6831  0.0589  0.0949
 8455SOL    HW136998   4.013   4.323   3.892 -0.0290 -1.4262 -1.3039
 8455SOL    HW236999   3.878   4.264   3.881  1.2122 -2.0923 -1.1988
 8456SOL     OW37000   1.976   3.107   4.110 -0.1821 -0.1269 -0.3733
 8456SOL    HW137001   1.990   3.161   4.032  1.2208  0.0278 -0.0055
 8456SOL    HW237002   1.885   3.079   4.099 -0.1535 -0.6964  0.8926
 8457SOL     OW37003   0.877   2.508   8.112 -0.3214  0.2036 -0.4358
 8457SOL    HW137004   0.917   2.591   8.089 -0.2920  0.1567 -0.5499
 8457SOL    HW237005   0.782   2.518   8.106 -0.1438 -0.4063 -4.1936
 8458SOL     OW37006   2.166   4.458  12.606  0.1637 -0.4814 -0.7627
 8458SOL    HW137007   2.195   4.408  12.530  0.9380  1.8002 -1.9664
 8458SOL    HW237008   2.205   4.544  12.590 -1.1380  0.5102  1.3369
 8459SOL     OW37009   4.503   2.677   6.449  0.0792 -0.5919 -0.2031
 8459SOL    HW137010   4.458   2.661   6.532  0.4100 -1.9655 -0.2946
 8459SOL    HW237011   4.587   2.705   6.485  0.9262 -1.2231 -1.7089
 8460SOL     OW37012   1.703   3.836   0.693 -0.1313  0.0554 -0.4173
 8460SOL    HW137013   1.786   3.877   0.669  0.3388 -0.8377 -0.3294
 8460SOL    HW237014   1.659   3.920   0.706 -3.7933 -2.0404  0.7088
 8461SOL     OW37015   4.115   3.287  17.202 -0.5816  0.1143 -0.3701
 8461SOL    HW137016   4.034   3.248  17.169 -0.8956 -1.1864  1.9401
 8461SOL    HW237017   4.140   3.207  17.248 -2.2093  0.9637  2.0202
 8462SOL     OW37018   2.735   4.385  10.731 -0.4670  0.3699 -0.1505
 8462SOL    HW137019   2.641   4.369  10.724 -0.2501  0.3727 -3.2068
 8462SOL    HW237020   2.740   4.447  10.804  1.1232  2.1319 -1.7481
 8463SOL     OW37021   2.315   2.760  15.017 -0.2226 -0.2838 -0.7956
 8463SOL    HW137022   2.336   2.686  15.074 -0.0464 -1.7067 -2.7193
 8463SOL    HW237023   2.293   2.716  14.935 -3.4575 -3.4293  1.7325
 8464SOL     OW37024   3.686   2.446   4.982 -0.0833  0.4335  0.3970
 8464SOL    HW137025   3.686   2.391   5.061 -1.3698 -0.6674 -0.3548
 8464SOL    HW237026   3.738   2.520   5.013 -0.2927  1.2936 -1.3324
 8465SOL     OW37027   3.897   1.867   6.911  0.2945 -0.9476 -0.8114
 8465SOL    HW137028   3.819   1.877   6.856 -0.9730 -0.6700  1.0346
 8465SOL    HW237029   3.898   1.771   6.917 -1.1592 -1.1096 -3.0997
 8466SOL     OW37030   2.327   3.253   3.976  0.0037  0.3139 -0.3266
 8466SOL    HW137031   2.238   3.244   3.941 -0.2681 -2.6885  1.1161
 8466SOL    HW237032   2.373   3.180   3.934  0.6183  1.0312 -0.9086
 8467SOL     OW37033   2.749   0.793   7.321  0.5900 -0.3269  0.2914
 8467SOL    HW137034   2.817   0.760   7.380  0.8695 -0.2666 -0.0017
 8467SOL    HW237035   2.690   0.831   7.386 -0.9039 -1.1004 -0.6202
 8468SOL     OW37036   1.612   4.674   2.458 -0.0826  0.1826 -0.4058
 8468SOL    HW137037   1.609   4.617   2.535  3.2796 -0.0161 -0.4414
 8468SOL    HW237038   1.593   0.021   2.503  0.3012  0.5230 -0.8812
 8469SOL     OW37039   1.231   1.599   1.093  0.4422 -0.4028 -0.5292
 8469SOL    HW137040   1.207   1.613   1.002 -0.7378  1.6848  0.1078
 8469SOL    HW237041   1.148   1.623   1.134  0.7695  2.4836 -1.5771
 8470SOL     OW37042   0.372   0.452  11.507 -0.2994 -0.1899  0.2502
 8470SOL    HW137043   0.329   0.537  11.513 -0.4773 -0.2731  0.1256
 8470SOL    HW237044   0.456   0.491  11.482  0.5317 -2.5567 -0.6484
 8471SOL     OW37045   1.351   4.397   1.793 -0.1461 -0.2208  0.1953
 8471SOL    HW137046   1.320   4.435   1.875  2.1377 -0.6026  1.2285
 8471SOL    HW237047   1.446   4.407   1.800 -0.3137  0.2674  1.8600
 8472SOL     OW37048   0.153   2.986  10.445  0.1442 -0.0681  0.4474
 8472SOL    HW137049   0.152   3.027  10.531 -0.2987  2.3056 -0.6843
 8472SOL    HW237050   0.066   2.946  10.445  0.6665 -1.1852  1.1597
 8473SOL     OW37051   1.455   3.621   9.224  0.5331 -0.2254  0.6820
 8473SOL    HW137052   1.386   3.681   9.251  0.3169  0.6406 -1.7692
 8473SOL    HW237053   1.421   3.599   9.138  0.5841  2.5779 -0.0612
 8474SOL     OW37054   1.524   3.401   4.079  0.2474  0.0817  0.3286
 8474SOL    HW137055   1.505   3.488   4.115  0.3549  0.4018 -0.3821
 8474SOL    HW237056   1.451   3.402   4.017  0.5887 -1.1610 -0.0816
 8475SOL     OW37057   0.101   3.984   3.688 -0.1655  0.2003 -0.1255
 8475SOL    HW137058   0.041   4.049   3.651 -0.4016  0.7469  1.1956
 8475SOL    HW237059   0.119   3.929   3.612  1.3256  1.1442 -0.4668
 8476SOL     OW37060   4.488   1.741   3.389  0.1838  0.4953 -0.1106
 8476SOL    HW137061   4.396   1.766   3.384  0.6602  1.9120 -1.4923
 8476SOL    HW237062   4.493   1.687   3.310 -0.2117 -1.0235  0.9031
 8477SOL     OW37063   2.453   1.122  17.515 -0.5409  0.3889 -0.3025
 8477SOL    HW137064   2.499   1.038  17.506  1.5780  1.4904  0.2689
 8477SOL    HW237065   2.477   1.157  17.430  1.4023  0.5211  0.3024
 8478SOL     OW37066   0.444   3.534   8.412 -0.3406  0.5972  0.3074
 8478SOL    HW137067   0.389   3.554   8.336 -2.1324 -0.2586  1.3669
 8478SOL    HW237068   0.383   3.479   8.462  1.8376 -1.1295  1.0628
 8479SOL     OW37069   2.270   4.001   7.663  0.0690 -0.2523  0.2612
 8479SOL    HW137070   2.279   3.958   7.578  1.2675 -1.9981  1.2573
 8479SOL    HW237071   2.186   4.045   7.649  0.0919  0.0222  1.0077
 8480SOL     OW37072   2.548   2.866   7.871 -0.6736 -0.2278  1.1841
 8480SOL    HW137073   2.575   2.924   7.943  1.9128 -0.0695  0.0776
 8480SOL    HW237074   2.481   2.919   7.829  1.5189  1.7134  0.0999
 8481SOL     OW37075   1.530   2.113   0.827  0.4979 -0.0084  0.0186
 8481SOL    HW137076   1.610   2.124   0.878  0.1688  1.4883  0.2008
 8481SOL    HW237077   1.460   2.122   0.892  1.1947 -0.7776  0.8760
 8482SOL     OW37078   1.237   1.828   8.083 -0.0305 -0.3362 -0.2437
 8482SOL    HW137079   1.247   1.919   8.055 -0.2387 -0.5326 -0.9542
 8482SOL    HW237080   1.143   1.818   8.064 -0.9548  1.9084  3.1768
 8483SOL     OW37081   2.627   2.125   2.920 -0.0648 -0.0084 -0.7549
 8483SOL    HW137082   2.594   2.094   2.835  0.8319 -0.4841 -0.9253
 8483SOL    HW237083   2.546   2.173   2.938 -0.3121 -1.0777  0.9454
 8484SOL     OW37084   4.075   1.921   6.293  0.2433  0.1716 -0.4751
 8484SOL    HW137085   4.129   1.896   6.219 -1.8777 -2.0458 -1.2658
 8484SOL    HW237086   4.132   1.990   6.326 -0.2647 -0.7696  2.4487
 8485SOL     OW37087   4.434   0.973   2.498 -0.0979 -0.2968  0.0831
 8485SOL    HW137088   4.387   1.049   2.534  1.2018 -1.0609  3.4642
 8485SOL    HW237089   4.378   0.969   2.421 -0.6664 -1.9972  0.5833
 8486SOL     OW37090   0.632   1.392   6.937  0.5281 -0.1611 -0.4006
 8486SOL    HW137091   0.708   1.438   6.975  0.9357  0.7226 -2.2714
 8486SOL    HW237092   0.631   1.321   7.001  0.6932 -0.8782 -1.2050
 8487SOL     OW37093   1.812   2.241  16.536  0.3480 -0.2136 -0.3210
 8487SOL    HW137094   1.730   2.231  16.585 -0.0370  1.2206 -0.6566
 8487SOL    HW237095   1.864   2.301  16.590  0.0047  0.4415 -0.7131
 8488SOL     OW37096   3.859   3.616   8.446 -0.0906 -0.0714  0.2871
 8488SOL    HW137097   3.932   3.667   8.481  0.8007 -0.2699 -1.2810
 8488SOL    HW237098   3.907   3.535   8.427  1.6698  0.4642  2.4630
 8489SOL     OW37099   0.905   3.505   5.643 -0.0375 -0.0084  0.3251
 8489SOL    HW137100   0.998   3.528   5.640 -0.5117  1.8714  0.0927
 8489SOL    HW237101   0.890   3.483   5.734 -1.6489 -2.2480 -0.4688
 8490SOL     OW37102   3.413   0.739  15.891  0.1726  0.5968 -0.1693
 8490SOL    HW137103   3.373   0.801  15.953  0.8097  1.2613 -0.4164
 8490SOL    HW237104   3.467   0.693  15.955  0.3142 -0.0119 -0.7200
 8491SOL     OW37105   1.404   3.437   5.730 -0.1942 -0.3160  0.3689
 8491SOL    HW137106   1.334   3.469   5.787  0.2171  0.8764  0.1995
 8491SOL    HW237107   1.374   3.461   5.643  1.3940  1.0409  0.1951
 8492SOL     OW37108   0.907   0.240   6.254 -0.6676 -0.0310 -0.2769
 8492SOL    HW137109   0.978   0.302   6.268  0.1407 -1.2571  0.9768
 8492SOL    HW237110   0.828   0.294   6.246 -0.6397 -0.1951 -1.7490
 8493SOL     OW37111   1.700   1.443   7.496  0.7095  0.6631 -0.4139
 8493SOL    HW137112   1.636   1.424   7.565  0.5191  2.9889  0.0507
 8493SOL    HW237113   1.761   1.370   7.508  0.2416  0.0164 -1.9523
 8494SOL     OW37114   0.399   0.169  16.321 -0.2089 -0.3803 -0.6290
 8494SOL    HW137115   0.361   0.117  16.249 -0.8561 -1.7175  0.6837
 8494SOL    HW237116   0.354   0.129  16.395  0.0486  1.2790  0.4084
 8495SOL     OW37117   4.090   4.138   2.946 -0.0726 -0.0823 -0.3573
 8495SOL    HW137118   4.181   4.162   2.968 -0.9529  2.3260  0.6254
 8495SOL    HW237119   4.053   4.171   3.028 -1.0868  0.0813 -0.8847
 8496SOL     OW37120   1.397   4.535   0.384 -0.4879  0.1842 -0.5112
 8496SOL    HW137121   1.385   4.443   0.360  1.9816  0.0262 -1.1199
 8496SOL    HW237122   1.344   4.580   0.319 -0.6190 -1.0469 -1.2533
 8497SOL     OW37123   1.375   3.580   7.790 -0.5497 -0.0837  0.0020
 8497SOL    HW137124   1.367   3.566   7.885 -0.5302 -2.3971 -0.3455
 8497SOL    HW237125   1.467   3.560   7.777 -0.4546  0.0657  0.4317
 8498SOL     OW37126   2.499   4.096  17.298  0.3204 -0.1109  0.3730
 8498SOL    HW137127   2.575   4.058  17.253  0.6489 -1.4084  2.0281
 8498SOL    HW237128   2.530   4.182  17.328  1.1697 -0.5906  0.8690
 8499SOL     OW37129   2.013   2.274   6.425  0.4732  0.2252 -0.3005
 8499SOL    HW137130   1.939   2.251   6.481 -0.3167  1.1499 -0.9886
 8499SOL    HW237131   2.003   2.202   6.363 -0.7579  0.0067  0.1542
 8500SOL     OW37132   1.970   1.742   8.242 -0.1367 -0.5445  0.2902
 8500SOL    HW137133   1.958   1.661   8.193 -2.4627 -0.1185  0.1470
 8500SOL    HW237134   1.909   1.729   8.315 -0.6438  0.3522  0.0219
 8501SOL     OW37135   3.585   3.351   2.684 -0.2381  0.3137  0.4759
 8501SOL    HW137136   3.673   3.314   2.673  1.1160  3.7724 -0.5376
 8501SOL    HW237137   3.536   3.284   2.637 -1.7675  2.0642 -0.4416
 8502SOL     OW37138   3.201   1.363  10.207  0.3148  0.0047 -0.2664
 8502SOL    HW137139   3.145   1.437  10.184  1.4645  1.7024  2.3886
 8502SOL    HW237140   3.266   1.377  10.139  2.2306  2.7440  2.1437
 8503SOL     OW37141   4.577   3.173   4.597  0.2625 -0.0956 -0.2399
 8503SOL    HW137142   4.597   3.098   4.652 -0.4549 -1.1155 -1.3749
 8503SOL    HW237143   4.606   3.154   4.507 -0.2889  1.8687 -0.8472
 8504SOL     OW37144   2.368   2.307   4.302  0.3846  0.7624  0.3706
 8504SOL    HW137145   2.460   2.309   4.275  0.6459 -0.0778  1.1617
 8504SOL    HW237146   2.320   2.322   4.221  1.4329  1.9031 -0.0267
 8505SOL     OW37147   3.902   0.084   1.394 -0.1212  0.0120  0.0337
 8505SOL    HW137148   3.819   0.090   1.440  0.5217  1.7417  0.9615
 8505SOL    HW237149   3.893   0.003   1.344 -0.8216 -1.4105  2.4841
 8506SOL     OW37150   2.270   1.225   9.791 -0.2260  0.2364 -0.0042
 8506SOL    HW137151   2.311   1.283   9.727 -0.2645  0.7229  0.4060
 8506SOL    HW237152   2.258   1.281   9.868  1.3353  0.5754 -0.0071
 8507SOL     OW37153   4.590   2.767   4.647 -0.1726 -0.3633 -0.3729
 8507SOL    HW137154   4.670   2.714   4.653 -0.4640 -0.4808  2.2271
 8507SOL    HW237155   4.565   2.769   4.554  1.2873 -0.3411 -0.7665
 8508SOL     OW37156   0.806   0.742   8.274 -0.5860  0.5920 -0.1103
 8508SOL    HW137157   0.759   0.723   8.193 -1.5042 -0.0315  0.5766
 8508SOL    HW237158   0.730   0.763   8.327 -0.5098  0.6033 -0.0059
 8509SOL     OW37159   1.192   2.412   4.971  0.0041  0.3148  0.4945
 8509SOL    HW137160   1.166   2.357   5.044 -0.0149 -0.4018 -0.0575
 8509SOL    HW237161   1.154   2.499   4.987 -0.6790  0.0554  0.2746
 8510SOL     OW37162   2.317   3.118   5.963  0.3283  0.1662  0.1088
 8510SOL    HW137163   2.392   3.173   5.984 -0.1830  1.2054 -0.8217
 8510SOL    HW237164   2.280   3.171   5.893 -2.1250 -0.2717  1.0636
 8511SOL     OW37165   3.538   2.132  11.152 -0.1713  0.4055 -0.1189
 8511SOL    HW137166   3.542   2.139  11.057  1.2324 -0.2712 -0.1236
 8511SOL    HW237167   3.628   2.101  11.165 -0.0751  0.4826 -0.6415
 8512SOL     OW37168   0.442   0.084   4.293  0.1748 -0.3328  0.2987
 8512SOL    HW137169   0.438   0.053   4.383 -0.7090 -2.7687 -0.5736
 8512SOL    HW237170   0.504   0.023   4.253  1.5257  1.4654 -0.3523
 8513SOL     OW37171   4.462   3.075   3.376  0.1679  0.4053 -0.0127
 8513SOL    HW137172   4.437   3.053   3.286  1.1131  1.1153 -0.4531
 8513SOL    HW237173   4.395   3.138   3.402 -1.3970 -1.7108  1.0484
 8514SOL     OW37174   1.097   1.814  17.530 -0.1566  0.2962 -0.2952
 8514SOL    HW137175   1.122   1.721  17.528 -0.2247  0.2777 -0.2594
 8514SOL    HW237176   1.002   1.823  17.537  0.0004 -0.0230  2.2307
 8515SOL     OW37177   0.509   2.860  10.164 -0.6319  0.3727  0.5204
 8515SOL    HW137178   0.492   2.799  10.092 -1.3581  0.7591  0.3732
 8515SOL    HW237179   0.422   2.886  10.193 -0.4492 -0.1141  1.4966
 8516SOL     OW37180   0.112   3.957   2.769  0.0037  0.0732 -0.0872
 8516SOL    HW137181   0.111   3.866   2.738  0.0275  0.2959 -0.7306
 8516SOL    HW237182   0.098   4.000   2.685 -0.3229 -0.2136 -0.1824
 8517SOL     OW37183   0.675   2.948   3.509  0.1687 -0.1677 -0.3294
 8517SOL    HW137184   0.736   2.885   3.546  0.6385  0.6211  0.2371
 8517SOL    HW237185   0.596   2.935   3.561 -0.1665  1.5199 -0.4146
 8518SOL     OW37186   2.985   0.757   2.099 -0.1126 -0.2076 -0.2568
 8518SOL    HW137187   2.916   0.812   2.061  0.0067 -0.6940 -1.1721
 8518SOL    HW237188   2.936   0.692   2.149  1.0846 -0.6287  0.3395
 8519SOL     OW37189   0.466   0.390   8.713  0.0331  0.1403  0.3667
 8519SOL    HW137190   0.555   0.354   8.705  0.7729  1.8880  0.9067
 8519SOL    HW237191   0.403   0.317   8.706 -0.3784  0.5438 -0.1725
 8520SOL     OW37192   2.435   1.397   6.782  0.3205 -0.0159  0.2412
 8520SOL    HW137193   2.484   1.322   6.815 -1.7962 -2.6403 -2.5805
 8520SOL    HW237194   2.427   1.455   6.858  1.4202 -1.0891  1.1698
 8521SOL     OW37195   1.547   0.203   4.981 -0.0117  0.3249  0.7648
 8521SOL    HW137196   1.511   0.210   4.893  1.8201 -1.1079 -0.0943
 8521SOL    HW237197   1.617   0.268   4.990  0.3883 -0.0306  0.2109
 8522SOL     OW37198   4.521   3.082   0.584 -0.0969  0.3196  0.5761
 8522SOL    HW137199   4.429   3.107   0.573 -0.1848 -0.6460 -0.9381
 8522SOL    HW237200   4.536   3.010   0.524  0.4628 -0.9197  2.2170
 8523SOL     OW37201   1.199   0.472   8.391  0.1171  0.1423 -0.1233
 8523SOL    HW137202   1.266   0.422   8.346  0.6821  0.0628  0.8205
 8523SOL    HW237203   1.238   0.509   8.470  1.8019 -1.0907 -0.4063
 8524SOL     OW37204   3.921   2.138  12.356 -0.3719  0.7543  0.3446
 8524SOL    HW137205   3.969   2.192  12.293 -0.7961  1.6107  0.7691
 8524SOL    HW237206   3.937   2.055  12.311  0.0654  1.5137 -0.8999
 8525SOL     OW37207   0.169   2.545   6.283 -0.1996 -0.1925  0.0254
 8525SOL    HW137208   0.213   2.522   6.201  2.9253  2.1172  1.0596
 8525SOL    HW237209   0.081   2.516   6.258 -0.7472  0.8236  0.7628
 8526SOL     OW37210   2.463   2.692   8.995 -0.1738 -0.5077  0.0588
 8526SOL    HW137211   2.556   2.709   8.980  0.3742 -1.5330  2.2645
 8526SOL    HW237212   2.465   2.647   9.079 -0.3589  1.0384  0.8934
 8527SOL     OW37213   1.227   3.281  12.350 -0.1554  0.5313 -0.2652
 8527SOL    HW137214   1.288   3.353  12.333  0.7518  0.0255  0.8564
 8527SOL    HW237215   1.246   3.226  12.275  1.3261  1.5860 -0.6625
 8528SOL     OW37216   3.811   4.078  13.628 -0.2400 -0.6734 -0.4322
 8528SOL    HW137217   3.745   4.009  13.627 -0.0269 -0.8664 -1.0756
 8528SOL    HW237218   3.800   4.121  13.543 -0.3001  0.5287  0.1798
 8529SOL     OW37219   1.458   0.280  11.827  0.3436  0.3765 -0.0265
 8529SOL    HW137220   1.471   0.232  11.908  1.1500  0.0480 -0.3549
 8529SOL    HW237221   1.419   0.360  11.862  0.2232 -1.0083  2.9877
 8530SOL     OW37222   1.077   0.733   2.490 -0.2325 -0.2644  0.3222
 8530SOL    HW137223   1.080   0.812   2.435 -0.2368 -0.8030 -0.4489
 8530SOL    HW237224   0.991   0.742   2.531  0.7253  2.4102  1.7750
 8531SOL     OW37225   2.397   4.168   6.313 -0.3908 -0.4276  0.1697
 8531SOL    HW137226   2.318   4.127   6.280 -1.0931  1.4936 -0.5593
 8531SOL    HW237227   2.366   4.247   6.357  1.3336 -0.6413  1.7460
 8532SOL     OW37228   0.873   4.181   0.766 -0.1204 -0.1090  0.5933
 8532SOL    HW137229   0.811   4.121   0.726 -1.5008  1.0340  1.0283
 8532SOL    HW237230   0.808   4.249   0.781  0.7333  0.4401  1.8411
 8533SOL     OW37231   0.432   0.402  16.905 -0.2114  0.5802  0.2596
 8533SOL    HW137232   0.479   0.371  16.982 -0.2039 -0.8910 -0.3429
 8533SOL    HW237233   0.474   0.341  16.844 -1.6573 -2.1031  1.9345
 8534SOL     OW37234   0.566   0.828   4.168  0.0656 -0.0392  0.6462
 8534SOL    HW137235   0.499   0.829   4.237  0.5958  1.9389  1.1302
 8534SOL    HW237236   0.606   0.746   4.195  1.2916 -0.0260 -1.1598
 8535SOL     OW37237   1.242   4.644  12.309 -0.1144  0.0198 -0.1625
 8535SOL    HW137238   1.302   4.687  12.371 -1.1661 -0.2814  1.0620
 8535SOL    HW237239   1.241   4.555  12.344  1.0858 -0.2188 -0.7255
 8536SOL     OW37240   2.771   2.667  14.762 -0.2561  0.1106 -0.3122
 8536SOL    HW137241   2.771   2.746  14.708 -1.4320 -0.0675 -0.5907
 8536SOL    HW237242   2.753   2.604  14.692 -0.3814  0.9924 -1.0787
 8537SOL     OW37243   3.810   0.578   7.479 -0.0961 -0.4165  0.2897
 8537SOL    HW137244   3.801   0.483   7.476  0.4652 -0.4563 -0.1300
 8537SOL    HW237245   3.762   0.595   7.560 -0.2543  1.6610 -0.2398
 8538SOL     OW37246   1.798   3.063   6.957  0.3700  0.2377 -0.5541
 8538SOL    HW137247   1.781   3.005   6.883 -0.8663 -0.7637  0.4927
 8538SOL    HW237248   1.865   3.122   6.925  2.2407 -0.5080  2.0169
 8539SOL     OW37249   1.438   1.645   3.240 -0.0246 -0.1635  0.5126
 8539SOL    HW137250   1.371   1.713   3.234  1.5933  1.2410 -1.7859
 8539SOL    HW237251   1.445   1.618   3.149  0.1424  0.0863  0.4506
 8540SOL     OW37252   4.693   1.689   0.203 -0.1911  0.1524 -0.6826
 8540SOL    HW137253   0.009   1.642   0.138  3.1776 -0.0381  2.2198
 8540SOL    HW237254   4.634   1.614   0.214 -0.0081  0.4426  2.3246
 8541SOL     OW37255   0.242   2.730   2.636  1.1799  0.3002 -0.1303
 8541SOL    HW137256   0.266   2.660   2.697 -1.7766  0.8543  1.6780
 8541SOL    HW237257   0.149   2.736   2.656  0.8908 -0.0117 -1.4032
 8542SOL     OW37258   2.029   0.199  16.813  0.2357  0.2343  0.1490
 8542SOL    HW137259   1.971   0.258  16.764 -0.3859 -0.9126 -0.4918
 8542SOL    HW237260   2.117   0.213  16.778 -0.4774 -0.7623 -2.0258
 8543SOL     OW37261   0.399   1.783   5.865  0.2902 -0.0365  0.3293
 8543SOL    HW137262   0.456   1.840   5.814  0.9314 -1.3253 -0.4066
 8543SOL    HW237263   0.325   1.840   5.886 -1.7780 -2.0270 -1.4915
 8544SOL     OW37264   1.768   1.828   5.212  0.3221 -0.0903 -0.1875
 8544SOL    HW137265   1.713   1.750   5.219 -0.9194  0.8492  0.4871
 8544SOL    HW237266   1.699   1.891   5.236 -0.2161 -0.5505 -0.5420
 8545SOL     OW37267   4.540   4.143   4.644 -0.7017 -0.2039  0.0234
 8545SOL    HW137268   4.493   4.071   4.688  0.2010 -0.6833  0.1981
 8545SOL    HW237269   4.587   4.093   4.577 -0.5424  1.9311 -1.4534
 8546SOL     OW37270   4.183   1.196   7.475 -0.7689  0.1767  0.1740
 8546SOL    HW137271   4.156   1.285   7.496  1.6432  1.0922 -0.5919
 8546SOL    HW237272   4.174   1.159   7.563 -3.6560  0.5458  0.0233
 8547SOL     OW37273   4.697   4.734   0.925  0.1185 -0.6039  0.0530
 8547SOL    HW137274   4.640   0.032   0.857  0.4018 -1.4399 -0.6111
 8547SOL    HW237275   0.052   0.012   0.904 -0.2014  0.9284 -0.2520
 8548SOL     OW37276   0.262   2.032   6.322  0.1173  0.2810 -0.4981
 8548SOL    HW137277   0.255   2.115   6.275  1.5273  0.2342 -0.7927
 8548SOL    HW237278   0.286   2.068   6.408  0.3619 -0.8843 -0.0779
 8549SOL     OW37279   1.829   4.140  17.696 -0.3762  0.2247 -0.0624
 8549SOL    HW137280   1.853   4.219  17.744 -0.0693 -0.1551  0.4147
 8549SOL    HW237281   1.818   4.178  17.609 -1.2922 -0.7188 -0.3643
 8550SOL     OW37282   4.058   2.961   7.457  0.4335 -0.1738  0.3340
 8550SOL    HW137283   4.128   3.027   7.454 -1.0120  1.3976  1.0784
 8550SOL    HW237284   4.040   2.934   7.547 -2.7534 -0.3358 -0.3594
 8551SOL     OW37285   0.830   1.849   4.085 -0.3715  0.4356  0.2175
 8551SOL    HW137286   0.764   1.856   4.153 -0.3131 -1.3654  0.4639
 8551SOL    HW237287   0.909   1.830   4.136 -0.9560 -0.1787  0.9015
 8552SOL     OW37288   3.229   3.861  15.214  0.1910 -0.5270 -0.0538
 8552SOL    HW137289   3.310   3.813  15.195 -0.7257 -2.3012  0.5614
 8552SOL    HW237290   3.203   3.854  15.306 -1.1266 -4.4611 -0.7355
 8553SOL     OW37291   1.765   2.654   8.352 -0.5237  0.3860  0.0760
 8553SOL    HW137292   1.692   2.677   8.409 -0.3848  1.1649 -0.0608
 8553SOL    HW237293   1.786   2.567   8.385 -1.3359  0.3407  0.4779
 8554SOL     OW37294   1.584   3.323   2.720  0.2077  0.2342 -0.3843
 8554SOL    HW137295   1.584   3.368   2.804 -0.1695 -1.0598  0.3159
 8554SOL    HW237296   1.638   3.383   2.669 -0.6624  1.9009  0.6942
 8555SOL     OW37297   4.339   4.185   3.064  0.2810  0.4385 -0.1494
 8555SOL    HW137298   4.404   4.255   3.058 -0.9866  1.5685 -0.8053
 8555SOL    HW237299   4.399   4.111   3.065 -0.4255 -0.1230  0.4752
 8556SOL     OW37300   3.129   0.323   2.835  0.5163  0.2457 -0.0085
 8556SOL    HW137301   3.052   0.362   2.876  0.8702  0.4322  0.4964
 8556SOL    HW237302   3.197   0.340   2.901 -0.6423  2.8839  0.5357
 8557SOL     OW37303   1.386   3.998   3.330 -0.1941  0.0035  0.4887
 8557SOL    HW137304   1.477   4.023   3.312 -0.8829  1.6233 -0.7575
 8557SOL    HW237305   1.337   4.079   3.317  1.5238  1.1694  1.3371
 8558SOL     OW37306   1.162   3.632   3.762 -0.3959 -0.4997  0.0993
 8558SOL    HW137307   1.204   3.711   3.728 -0.2782 -0.4103  0.4531
 8558SOL    HW237308   1.076   3.661   3.791  0.1022  1.7494 -0.6937
 8559SOL     OW37309   1.908   3.556   9.152 -0.1831 -0.4305  0.0456
 8559SOL    HW137310   1.879   3.465   9.148  0.2043 -0.5001 -1.2894
 8559SOL    HW237311   1.997   3.547   9.119 -0.9820  1.8349 -2.7214
 8560SOL     OW37312   0.912   2.646   5.646 -0.5241  0.4308 -0.7202
 8560SOL    HW137313   0.904   2.558   5.610 -2.3680  0.6114 -0.7613
 8560SOL    HW237314   1.004   2.663   5.625  0.2282 -1.8161  0.8377
 8561SOL     OW37315   3.750   0.424  10.724  0.0640  0.3691 -0.3938
 8561SOL    HW137316   3.685   0.395  10.788  1.2701  2.1327  1.6718
 8561SOL    HW237317   3.781   0.338  10.699 -0.5124  0.7141 -2.2639
 8562SOL     OW37318   4.490   4.573   6.438 -0.2484 -0.0691 -0.0431
 8562SOL    HW137319   4.524   4.556   6.526  1.4021 -0.8562 -0.8264
 8562SOL    HW237320   4.440   4.494   6.417 -0.0468 -0.2703  0.2203
 8563SOL     OW37321   4.376   2.600   1.689  0.5440 -0.1984 -0.1973
 8563SOL    HW137322   4.378   2.696   1.683  2.3940 -0.2635 -0.5714
 8563SOL    HW237323   4.469   2.580   1.692  0.6956  0.7803  1.8568
 8564SOL     OW37324   0.564   3.208   9.508 -0.8051  0.1811 -0.1386
 8564SOL    HW137325   0.541   3.212   9.601  1.7376  2.5369  0.3902
 8564SOL    HW237326   0.659   3.200   9.510 -0.8036  0.0266 -0.7944
 8565SOL     OW37327   2.029   2.498   4.812  0.2705 -0.0354  0.2496
 8565SOL    HW137328   2.056   2.502   4.720 -0.0572  0.6054  0.1847
 8565SOL    HW237329   2.108   2.458   4.849  0.4952  0.9009  0.7668
 8566SOL     OW37330   0.201   1.940   5.955  0.1759  0.1535  0.4491
 8566SOL    HW137331   0.154   1.882   5.894  0.0977  1.0758 -0.3520
 8566SOL    HW237332   0.129   1.995   5.988 -1.1649 -0.6909 -1.0586
 8567SOL     OW37333   1.126   1.805   1.900  0.0389  0.5144 -0.5555
 8567SOL    HW137334   1.106   1.852   1.981  0.4537 -2.5842  1.3719
 8567SOL    HW237335   1.208   1.761   1.921  0.8273  0.7542 -3.2078
 8568SOL     OW37336   0.626   0.023   1.279  0.3964 -0.1033 -0.0496
 8568SOL    HW137337   0.699   4.724   1.229  1.7452 -1.3193  2.7995
 8568SOL    HW237338   0.647   4.722   1.364 -0.8717  0.5271  0.5544
 8569SOL     OW37339   0.991   0.262   2.077 -0.9729  0.1137 -0.3148
 8569SOL    HW137340   0.899   0.269   2.101 -1.3902  0.9800 -2.2302
 8569SOL    HW237341   0.993   0.261   1.982  1.9824 -0.3646 -0.2762
 8570SOL     OW37342   3.832   3.050   7.358 -0.0754 -0.7071  0.4069
 8570SOL    HW137343   3.768   3.006   7.414 -0.1035  0.1779  1.0679
 8570SOL    HW237344   3.907   3.014   7.406  1.3859  2.4974  0.5130
 8571SOL     OW37345   2.557   4.434   2.088 -0.3031 -0.0219 -0.0002
 8571SOL    HW137346   2.566   4.476   2.173  0.4806 -2.0018  0.8814
 8571SOL    HW237347   2.531   4.344   2.107 -0.4910  0.4113  1.7448
 8572SOL     OW37348   2.023   0.828   5.865  0.0917 -0.6027  0.2011
 8572SOL    HW137349   1.991   0.805   5.953 -0.2959 -1.2170 -0.1025
 8572SOL    HW237350   1.975   0.763   5.813  0.1188 -0.4626  0.0037
 8573SOL     OW37351   4.022   4.358   2.186 -0.1489  0.3616  0.2210
 8573SOL    HW137352   4.104   4.312   2.206 -0.6535 -0.6532 -0.0263
 8573SOL    HW237353   3.980   4.294   2.128 -0.3828 -0.9870  1.8777
 8574SOL     OW37354   4.267   1.078  12.877 -0.3182  0.5945 -0.0143
 8574SOL    HW137355   4.284   1.078  12.972  0.4351  1.5027 -0.1478
 8574SOL    HW237356   4.184   1.032  12.867 -0.4228  1.6716 -3.9285
 8575SOL     OW37357   3.118   0.120   4.913  0.3215  0.0734 -0.2879
 8575SOL    HW137358   3.208   0.088   4.901  1.2916  2.8850 -0.6276
 8575SOL    HW237359   3.124   0.122   5.008 -0.7268 -1.7203 -0.1906
 8576SOL     OW37360   4.165   2.151   8.521 -0.1012  0.8705  0.5772
 8576SOL    HW137361   4.151   2.086   8.591  1.5378  0.5461  0.5946
 8576SOL    HW237362   4.078   2.186   8.501 -0.5837 -0.3389  0.5749
 8577SOL     OW37363   4.172   4.245  14.377 -0.1013  1.0962  0.6094
 8577SOL    HW137364   4.117   4.291  14.441  0.6585  0.7529  1.5053
 8577SOL    HW237365   4.256   4.285  14.399 -0.1115  0.2476  2.2256
 8578SOL     OW37366   0.993   1.139   5.382 -0.0265 -0.2592  0.8012
 8578SOL    HW137367   0.979   1.150   5.288  0.3453 -0.6827  0.6924
 8578SOL    HW237368   0.939   1.208   5.419  0.7300  0.8405 -0.1502
 8579SOL     OW37369   0.271   2.552   5.535 -0.2280 -0.0113 -0.1413
 8579SOL    HW137370   0.301   2.610   5.466  0.0731 -0.0645 -0.0545
 8579SOL    HW237371   0.342   2.557   5.599  0.2323  0.9432 -0.7399
 8580SOL     OW37372   0.487   0.687   5.552  0.1356 -0.6491  0.0292
 8580SOL    HW137373   0.437   0.768   5.563 -0.5050 -0.8229 -1.6543
 8580SOL    HW237374   0.531   0.677   5.636 -1.7364  0.5974  1.1726
 8581SOL     OW37375   2.281   0.655   3.857  0.3684  0.2635  0.3345
 8581SOL    HW137376   2.352   0.668   3.920  0.7983  0.0332 -0.1024
 8581SOL    HW237377   2.319   0.605   3.784 -1.3673  0.3741 -0.6481
 8582SOL     OW37378   3.091   0.384   0.038  0.0256  0.3064 -0.3482
 8582SOL    HW137379   3.097   0.398  17.689  1.1904 -0.1081 -0.3318
 8582SOL    HW237380   3.118   0.470   0.072 -2.1802  0.0160  2.1300
 8583SOL     OW37381   1.184   0.810   7.869  0.4614 -0.0832 -0.1162
 8583SOL    HW137382   1.247   0.763   7.924 -0.3249 -0.1579  0.7200
 8583SOL    HW237383   1.228   0.892   7.848 -0.7816  1.1962  2.3088
 8584SOL     OW37384   4.035   4.356   8.968  0.0842  0.0554  0.0644
 8584SOL    HW137385   4.101   4.298   9.005  0.2437 -0.1511 -0.5370
 8584SOL    HW237386   3.959   4.334   9.022 -0.3877  2.4225  0.3832
 8585SOL     OW37387   3.314   0.747   7.097  0.4786  0.4881  0.5788
 8585SOL    HW137388   3.385   0.714   7.043 -0.3552 -1.5458  0.7450
 8585SOL    HW237389   3.245   0.686   7.071  0.2495 -0.0222  2.3709
 8586SOL     OW37390   4.359   4.095   1.225  0.1662  0.6459  0.1880
 8586SOL    HW137391   4.270   4.062   1.230  0.8735 -1.6278 -2.7145
 8586SOL    HW237392   4.359   4.190   1.242 -1.5022  0.6215  0.3498
 8587SOL     OW37393   1.468   1.448   8.529 -0.4902 -0.0821 -0.5618
 8587SOL    HW137394   1.498   1.474   8.616 -2.1255  0.1807 -0.0775
 8587SOL    HW237395   1.549   1.438   8.480  0.8255  0.4884  1.5213
 8588SOL     OW37396   3.216   1.359   4.875 -0.0160  0.3175 -0.7709
 8588SOL    HW137397   3.187   1.341   4.785  0.1492  1.3557 -1.0245
 8588SOL    HW237398   3.199   1.272   4.911  2.0882  0.3696  0.3277
 8589SOL     OW37399   3.428   1.940   7.779 -0.1524 -0.2559  0.0162
 8589SOL    HW137400   3.496   1.903   7.724 -0.3801 -2.1801  1.0086
 8589SOL    HW237401   3.464   2.028   7.784 -0.7784  0.1028 -1.8953
 8590SOL     OW37402   0.576   3.031   8.543 -0.4611 -0.1735 -0.2985
 8590SOL    HW137403   0.547   2.955   8.492 -1.9840  1.1794 -1.4230
 8590SOL    HW237404   0.518   3.027   8.619  0.4733  0.2424  0.4294
 8591SOL     OW37405   1.353   2.109   4.501  0.3248 -0.5642  0.1016
 8591SOL    HW137406   1.334   2.198   4.531 -1.9808 -0.9139 -0.3125
 8591SOL    HW237407   1.392   2.124   4.415 -0.0262 -3.2724 -0.5234
 8592SOL     OW37408   0.576   3.418   7.863 -0.0106  0.2495 -0.1071
 8592SOL    HW137409   0.572   3.444   7.955 -2.3410 -1.6614  0.3245
 8592SOL    HW237410   0.665   3.448   7.844  0.6895 -0.1803  2.4867
 8593SOL     OW37411   1.381   3.135   8.334 -0.1689  0.0305 -0.0620
 8593SOL    HW137412   1.457   3.165   8.285  0.6438  1.4979  2.1277
 8593SOL    HW237413   1.388   3.183   8.416 -2.0221  1.3580 -0.6680
 8594SOL     OW37414   1.361   1.471  14.156 -0.3097  0.0046 -0.7142
 8594SOL    HW137415   1.385   1.395  14.103 -1.1228 -0.6099 -0.1875
 8594SOL    HW237416   1.446   1.504  14.185 -0.7908  1.6215 -1.1427
 8595SOL     OW37417   1.754   2.743  15.385  0.3626 -0.0454  0.2655
 8595SOL    HW137418   1.699   2.802  15.333  2.1036  2.0112  0.7904
 8595SOL    HW237419   1.765   2.792  15.467 -0.1118  1.7630 -0.7467
 8596SOL     OW37420   0.026   0.449   6.742  0.0704  0.5580  0.0812
 8596SOL    HW137421   0.034   0.363   6.783  0.7567  0.7846  0.4268
 8596SOL    HW237422   4.687   0.438   6.685 -1.9065  0.3747  2.7351
 8597SOL     OW37423   0.379   4.569   7.595  0.2839 -0.1312  0.6768
 8597SOL    HW137424   0.404   4.517   7.672 -0.7485 -0.6276  0.6878
 8597SOL    HW237425   0.459   4.608   7.561  0.3025 -0.1831  0.6613
 8598SOL     OW37426   2.185   4.290   2.038  0.1832  0.0608 -0.2287
 8598SOL    HW137427   2.155   4.356   2.101  1.5085  2.3489 -1.9848
 8598SOL    HW237428   2.180   4.213   2.094  1.1127  1.5147  1.8521
 8599SOL     OW37429   2.246   2.505   7.647 -0.0301  0.2276  0.1955
 8599SOL    HW137430   2.293   2.425   7.669  2.2832  0.8993 -2.3639
 8599SOL    HW237431   2.182   2.510   7.718  1.0813 -0.5054  1.2505
 8600SOL     OW37432   2.079   0.580   6.580 -0.4145 -0.5412  0.0564
 8600SOL    HW137433   2.062   0.496   6.620 -2.3059 -0.2847 -0.2093
 8600SOL    HW237434   2.099   0.626   6.662 -2.0147  0.4624 -0.1193
 8601SOL     OW37435   1.828   2.557   7.236 -0.2698 -0.1316  0.5318
 8601SOL    HW137436   1.903   2.539   7.179 -1.2274 -0.7533 -0.5117
 8601SOL    HW237437   1.770   2.499   7.187 -1.7887  1.8757 -0.0243
 8602SOL     OW37438   3.477   1.749   4.515 -0.2633 -0.4777 -0.0128
 8602SOL    HW137439   3.541   1.749   4.587  1.6018 -0.0249 -1.6626
 8602SOL    HW237440   3.486   1.842   4.495 -1.0447 -0.2389  0.7619
 8603SOL     OW37441   1.090   2.704  10.159  0.0131  0.2174 -0.2494
 8603SOL    HW137442   1.068   2.731  10.069  2.6482  0.1506 -0.9138
 8603SOL    HW237443   1.083   2.609  10.151 -0.4540  0.2546 -0.2859
 8604SOL     OW37444   3.030   0.763   9.651  0.1684  0.2744  0.6424
 8604SOL    HW137445   3.090   0.823   9.696  1.2854 -0.1009 -0.3721
 8604SOL    HW237446   3.064   0.683   9.690 -1.0793 -0.1497  0.8649
 8605SOL     OW37447   4.547   3.772   4.646 -0.1420  0.0647 -0.1688
 8605SOL    HW137448   4.627   3.787   4.696 -0.1886 -0.4766  0.0725
 8605SOL    HW237449   4.487   3.801   4.714  2.0718  2.2159  0.8593
 8606SOL     OW37450   2.555   0.694   6.648 -0.0414 -0.0938  0.8115
 8606SOL    HW137451   2.506   0.632   6.702  0.1086 -0.3608  0.6415
 8606SOL    HW237452   2.500   0.772   6.655  0.0846  0.0421  0.2530
 8607SOL     OW37453   1.236   1.672   3.575  0.2433 -0.0152  0.4682
 8607SOL    HW137454   1.185   1.667   3.494 -1.0818 -0.1449  1.3073
 8607SOL    HW237455   1.169   1.684   3.643  0.2036  2.0082  0.0877
 8608SOL     OW37456   2.865   3.060   3.555 -0.1049 -0.5682  0.3873
 8608SOL    HW137457   2.853   3.097   3.642 -1.6833 -1.0662  0.3768
 8608SOL    HW237458   2.941   3.115   3.534 -0.7772  0.7550  1.4311
 8609SOL     OW37459   4.025   1.181  11.955 -0.1297  0.4223 -0.0789
 8609SOL    HW137460   4.003   1.233  11.877 -0.4257 -0.1564 -0.3801
 8609SOL    HW237461   4.100   1.128  11.927 -0.3947  0.2390 -0.4566
 8610SOL     OW37462   4.436   3.918   6.240 -0.6196  0.1721 -0.5485
 8610SOL    HW137463   4.442   4.011   6.264 -3.0156  0.4488 -0.9956
 8610SOL    HW237464   4.344   3.899   6.258 -0.5360  1.1290  0.8804
 8611SOL     OW37465   3.738   1.740   4.076  0.4863 -0.6902  0.1702
 8611SOL    HW137466   3.801   1.709   4.141  0.9270  0.1038  0.1308
 8611SOL    HW237467   3.657   1.726   4.124  0.0603  1.4270  0.0988
 8612SOL     OW37468   4.464   4.119   2.530 -0.4748  0.6167  0.5220
 8612SOL    HW137469   4.401   4.188   2.548 -0.8541  0.0147  1.5323
 8612SOL    HW237470   4.489   4.088   2.618  0.8926 -1.6359 -0.6508
 8613SOL     OW37471   1.903   4.603   6.616  0.4990  0.0691 -0.0201
 8613SOL    HW137472   1.942   4.645   6.693 -0.3567 -0.7583  0.8542
 8613SOL    HW237473   1.868   4.525   6.659  3.0376 -0.4507  1.0849
 8614SOL     OW37474   3.194   4.343   0.138 -0.0061 -0.3975 -0.8510
 8614SOL    HW137475   3.258   4.295   0.189 -0.2306 -1.0736 -1.2028
 8614SOL    HW237476   3.168   4.409   0.202  0.7688 -1.4679  0.5601
 8615SOL     OW37477   4.590   2.390  12.825 -0.7636  0.6573 -0.4780
 8615SOL    HW137478   4.563   2.475  12.790  0.5844  0.4497 -2.0139
 8615SOL    HW237479   4.685   2.403  12.816 -0.4649  0.5990  2.4001
 8616SOL     OW37480   1.857   0.325   5.839  0.0674 -0.0887  0.0191
 8616SOL    HW137481   1.790   0.359   5.780  0.6925 -0.8132 -1.1373
 8616SOL    HW237482   1.865   0.241   5.793  1.5707 -0.3866  0.7998
 8617SOL     OW37483   0.622   4.123  10.402 -0.0101 -0.0687 -0.3644
 8617SOL    HW137484   0.664   4.209  10.397  0.7381 -0.3275  1.5932
 8617SOL    HW237485   0.695   4.068  10.430  1.7616  1.6144 -1.7111
 8618SOL     OW37486   3.394   0.663   7.749  0.2240  0.5330  0.2201
 8618SOL    HW137487   3.340   0.694   7.676 -0.4452  0.4121  0.6574
 8618SOL    HW237488   3.352   0.577   7.761 -1.2303  1.0506 -1.1142
 8619SOL     OW37489   0.077   1.053   2.419 -0.0566 -0.3359  0.1785
 8619SOL    HW137490   0.055   0.960   2.408  1.6333 -0.8212  0.9013
 8619SOL    HW237491   0.068   1.070   2.513 -1.4910  1.1127 -0.2303
 8620SOL     OW37492   1.862   3.027   5.031  0.6188 -0.2675 -0.0591
 8620SOL    HW137493   1.894   3.021   4.941 -2.5809 -0.9406 -1.1684
 8620SOL    HW237494   1.918   3.089   5.076  1.0199 -2.1071  1.9654
 8621SOL     OW37495   2.779   3.125   3.819 -0.3220 -0.1893  0.1163
 8621SOL    HW137496   2.823   3.207   3.842 -0.1403 -0.5264  0.9531
 8621SOL    HW237497   2.820   3.069   3.884 -0.4989  0.7465  1.0332
 8622SOL     OW37498   3.043   3.846  10.237  0.3435  0.1640 -0.4095
 8622SOL    HW137499   2.999   3.761  10.234 -0.9858  0.8429 -0.2776
 8622SOL    HW237500   3.062   3.853  10.331  0.9799 -0.2850 -0.5079
 8623SOL     OW37501   3.646   0.289  11.804  0.0594 -0.0041  0.8006
 8623SOL    HW137502   3.666   0.200  11.834 -1.5375 -0.7228 -0.3123
 8623SOL    HW237503   3.690   0.340  11.871  0.0455  1.3619 -0.2510
 8624SOL     OW37504   2.805   3.336   2.546  0.2665 -0.3810 -0.2079
 8624SOL    HW137505   2.819   3.256   2.496 -0.0319 -0.9395  0.6057
 8624SOL    HW237506   2.808   3.403   2.478  2.1903 -0.6249 -0.3799
 8625SOL     OW37507   0.330   0.894   2.052  0.8576  0.5473  0.7936
 8625SOL    HW137508   0.411   0.843   2.044  0.2955 -0.5451  2.2435
 8625SOL    HW237509   0.323   0.920   2.143 -0.3690 -1.0297  1.1559
 8626SOL     OW37510   2.028   2.454   7.104  0.0096 -0.3762 -0.3422
 8626SOL    HW137511   2.055   2.366   7.131  0.1497 -1.0790 -2.7122
 8626SOL    HW237512   2.108   2.483   7.060  0.6311  1.6117  2.1489
 8627SOL     OW37513   1.354   2.340  10.291  0.3392 -0.5411  0.0731
 8627SOL    HW137514   1.382   2.255  10.258  1.2318 -0.9651  1.8843
 8627SOL    HW237515   1.439   2.377  10.315  0.6339 -1.2185  0.0779
 8628SOL     OW37516   4.325   0.185   7.058 -0.1916 -0.3378  0.1162
 8628SOL    HW137517   4.236   0.199   7.025 -0.7462  0.7366  2.0510
 8628SOL    HW237518   4.368   0.122   7.000 -1.6424 -2.3184  1.1939
 8629SOL     OW37519   3.753   1.825  10.501  0.4030 -0.4008 -0.2391
 8629SOL    HW137520   3.783   1.790  10.418  0.4502 -2.7159  0.7574
 8629SOL    HW237521   3.828   1.882  10.516 -1.2268  1.6070  0.2826
 8630SOL     OW37522   3.870   2.462  15.506 -0.2578  0.3685  0.1259
 8630SOL    HW137523   3.892   2.382  15.554 -0.2315 -0.9047 -2.0116
 8630SOL    HW237524   3.923   2.434  15.431 -1.6015 -1.1991 -0.2353
 8631SOL     OW37525   1.973   2.989   2.066  0.7031 -0.1887 -0.3071
 8631SOL    HW137526   2.068   2.981   2.065  0.8058  0.9110  1.4102
 8631SOL    HW237527   1.953   2.908   2.114  1.5722  0.8588  1.8202
 8632SOL     OW37528   3.589   3.605  15.702  0.6103  0.1895 -0.1710
 8632SOL    HW137529   3.681   3.603  15.728  0.5769  1.1874  0.0451
 8632SOL    HW237530   3.557   3.558  15.779 -0.8267 -1.1224 -1.5910
 8633SOL     OW37531   3.301   0.305   9.041  0.2599  0.0928  0.4924
 8633SOL    HW137532   3.335   0.276   8.956  0.4137  2.2972 -0.2180
 8633SOL    HW237533   3.291   0.221   9.085 -0.3904  0.7967  1.6873
 8634SOL     OW37534   0.459   3.275   9.785  0.1622  0.1431  0.1000
 8634SOL    HW137535   0.429   3.212   9.850 -2.7736 -0.0418 -1.4103
 8634SOL    HW237536   0.493   3.336   9.850 -0.9267 -0.0730  0.8734
 8635SOL     OW37537   2.162   2.744   8.607 -0.2217 -1.1537 -0.0322
 8635SOL    HW137538   2.070   2.720   8.619 -0.1354 -0.7810  1.3122
 8635SOL    HW237539   2.207   2.685   8.667 -0.2052 -0.8593  0.2413
 8636SOL     OW37540   2.314   1.007   9.284 -0.5193  0.4649  0.2806
 8636SOL    HW137541   2.399   0.987   9.245 -0.1928  1.8127  0.2978
 8636SOL    HW237542   2.335   1.056   9.363 -1.0126  4.3293 -1.9424
 8637SOL     OW37543   1.601   3.728   7.490  0.1367  0.2324  0.1318
 8637SOL    HW137544   1.637   3.646   7.455 -1.7398 -1.1861  1.5235
 8637SOL    HW237545   1.629   3.801   7.435 -0.8934  1.3381  1.0770
 8638SOL     OW37546   2.690   0.817  17.173 -0.7821 -1.0326 -0.0503
 8638SOL    HW137547   2.770   0.818  17.226 -0.0217  0.0963 -1.2131
 8638SOL    HW237548   2.721   0.769  17.096  0.1772 -0.3815 -0.0827
 8639SOL     OW37549   2.857   3.204  15.702  0.6389  0.1957  0.1511
 8639SOL    HW137550   2.817   3.246  15.626  0.4870 -1.9997 -0.9686
 8639SOL    HW237551   2.943   3.187  15.662  1.3554 -0.6345  2.0313
 8640SOL     OW37552   2.430   0.633   7.939 -0.1028  0.2735  0.6581
 8640SOL    HW137553   2.388   0.708   7.981 -1.1474  1.1102 -1.8993
 8640SOL    HW237554   2.444   0.568   8.008 -0.6862 -0.7848 -0.2138
 8641SOL     OW37555   1.686   1.974   8.205 -0.4113  0.1588 -0.4563
 8641SOL    HW137556   1.682   2.067   8.186  0.0392  0.6476  1.7705
 8641SOL    HW237557   1.777   1.950   8.187 -0.1096  1.5138 -0.7042
 8642SOL     OW37558   3.390   2.316   8.366 -0.5121 -0.6842  0.1534
 8642SOL    HW137559   3.324   2.300   8.433 -0.8756  3.0751  0.7116
 8642SOL    HW237560   3.409   2.410   8.366 -1.3854 -0.5164  2.7016
 8643SOL     OW37561   4.165   2.382   9.371  0.1545 -0.4564 -0.1263
 8643SOL    HW137562   4.239   2.440   9.388  0.1700 -0.6096  0.3326
 8643SOL    HW237563   4.097   2.447   9.350  2.0588  0.9577 -1.9425
 8644SOL     OW37564   4.080   2.044  11.020 -0.2560  0.7009  0.2311
 8644SOL    HW137565   4.086   2.013  11.111  2.3162  0.3155 -0.0737
 8644SOL    HW237566   4.167   2.083  11.017  1.1387 -2.3755  0.8866
 8645SOL     OW37567   4.221   2.433  12.010  0.3226 -0.0458 -0.1486
 8645SOL    HW137568   4.143   2.436  12.065  0.6713 -0.8964  0.4021
 8645SOL    HW237569   4.196   2.496  11.943  0.0969  0.8600  0.8016
 8646SOL     OW37570   1.572   3.194   9.222 -0.6535  0.6709 -0.5467
 8646SOL    HW137571   1.489   3.221   9.184 -0.3473  2.7746  0.2601
 8646SOL    HW237572   1.548   3.121   9.280  2.6163  1.4088  1.7529
 8647SOL     OW37573   1.102   3.428   3.558  0.3556 -0.0251 -1.1486
 8647SOL    HW137574   1.170   3.469   3.504  3.5950 -1.1895  1.9957
 8647SOL    HW237575   1.155   3.400   3.633 -0.7948 -0.1214 -0.3783
 8648SOL     OW37576   2.317   4.522   4.964  0.8513  0.3400 -0.0188
 8648SOL    HW137577   2.307   4.598   5.022 -0.4181  0.4993 -0.4527
 8648SOL    HW237578   2.409   4.497   4.974  0.6940  0.4535  1.7191
 8649SOL     OW37579   3.315   3.746  12.366 -0.6961  0.0951  0.0127
 8649SOL    HW137580   3.308   3.782  12.277 -0.6265 -0.6613 -0.3020
 8649SOL    HW237581   3.374   3.814  12.397 -0.7091 -0.6875  1.7382
 8650SOL     OW37582   0.559   1.278   1.936 -0.0376 -0.1851 -0.1034
 8650SOL    HW137583   0.619   1.353   1.943 -1.1999  1.0031 -2.7051
 8650SOL    HW237584   0.615   1.201   1.939 -1.6562 -1.3293  0.4911
 8651SOL     OW37585   1.542   2.032   9.463 -0.3404  0.5086 -0.0584
 8651SOL    HW137586   1.620   1.995   9.504  0.1916  1.5322 -0.1403
 8651SOL    HW237587   1.593   2.069   9.390 -1.3171 -3.8017 -2.9542
 8652SOL     OW37588   2.530   2.898   5.234 -0.1273 -0.2990 -0.0578
 8652SOL    HW137589   2.441   2.922   5.257 -0.1273  1.0962 -1.5143
 8652SOL    HW237590   2.564   2.962   5.171  0.3634 -0.4126  0.0884
 8653SOL     OW37591   1.266   1.282   8.953 -0.2949  0.7803 -0.0120
 8653SOL    HW137592   1.230   1.233   8.879  1.8391 -2.1215  0.8980
 8653SOL    HW237593   1.206   1.254   9.022  2.0793 -1.7474  1.0007
 8654SOL     OW37594   1.436   2.130   8.844 -0.4888 -0.8411 -0.5190
 8654SOL    HW137595   1.528   2.108   8.827 -0.1850  0.8734 -1.1224
 8654SOL    HW237596   1.433   2.200   8.778 -1.8860  0.4848  0.9801
 8655SOL     OW37597   2.991   3.893  14.308  0.4237 -0.1302 -0.1078
 8655SOL    HW137598   2.952   3.848  14.383  1.6227  0.0312  0.6075
 8655SOL    HW237599   2.928   3.869  14.239  0.0165 -1.1458  0.6214
 8656SOL     OW37600   1.855   1.533   5.288  0.8189 -0.0865 -0.0884
 8656SOL    HW137601   1.770   1.561   5.254  1.1719 -0.6325 -1.4048
 8656SOL    HW237602   1.916   1.583   5.235  1.3583  0.1671  0.7748
 8657SOL     OW37603   0.262   3.343  11.321  0.0212  0.4661  0.6693
 8657SOL    HW137604   0.356   3.362  11.314 -0.4082  2.2137 -0.2934
 8657SOL    HW237605   0.265   3.296  11.404 -1.0446 -0.7441  0.0187
 8658SOL     OW37606   2.791   1.460   8.695  0.2315 -0.4569 -0.3374
 8658SOL    HW137607   2.861   1.516   8.727 -0.3473  0.6405 -1.0263
 8658SOL    HW237608   2.781   1.481   8.602 -1.3884 -0.2659 -0.1222
 8659SOL     OW37609   3.163   2.748   3.527 -0.1694 -0.0268 -0.4331
 8659SOL    HW137610   3.209   2.673   3.489 -0.3046 -0.5622  0.4622
 8659SOL    HW237611   3.070   2.727   3.522 -0.1767 -0.5618  1.8039
 8660SOL     OW37612   0.139   1.077   1.885 -0.0235 -0.4591  0.0960
 8660SOL    HW137613   0.190   1.017   1.938 -0.1857 -1.5394 -0.9679
 8660SOL    HW237614   0.210   1.132   1.852  0.0608 -1.3282 -1.1845
 8661SOL     OW37615   2.948   3.295   9.124 -0.1387  0.8155  0.1546
 8661SOL    HW137616   2.932   3.354   9.197 -0.3630  2.6863 -1.4156
 8661SOL    HW237617   2.959   3.215   9.175 -0.1976  0.3352 -0.5758
 8662SOL     OW37618   3.669   2.161  15.395  0.2262 -0.8360 -0.0208
 8662SOL    HW137619   3.575   2.180  15.406  0.1704 -0.1312 -1.7974
 8662SOL    HW237620   3.711   2.236  15.354  1.8468 -2.2570 -0.9568
 8663SOL     OW37621   2.450   4.291   4.338  0.5212  0.4158 -0.9422
 8663SOL    HW137622   2.526   4.326   4.385 -0.5560 -0.4052  1.4359
 8663SOL    HW237623   2.487   4.204   4.327 -1.4668 -0.4722 -0.5424
 8664SOL     OW37624   3.848   0.092   2.827 -0.2972  0.5021  0.2093
 8664SOL    HW137625   3.759   0.098   2.863 -0.7210  2.9892 -1.2048
 8664SOL    HW237626   3.895   0.071   2.908  0.1910  2.2137  0.3707
 8665SOL     OW37627   0.534   2.793   2.623  0.4173 -0.0495 -0.2857
 8665SOL    HW137628   0.440   2.800   2.641  0.1009 -1.7519 -1.2674
 8665SOL    HW237629   0.567   2.848   2.695  1.4280  0.8525 -1.4539
 8666SOL     OW37630   1.809   4.475  10.508  0.0257  0.0812 -0.1595
 8666SOL    HW137631   1.824   4.569  10.522  1.7425  0.0230 -1.4994
 8666SOL    HW237632   1.883   4.450  10.452  0.4763  0.5951  0.2113
 8667SOL     OW37633   0.179   3.416   2.793 -0.2733  0.7843 -0.4910
 8667SOL    HW137634   0.207   3.378   2.709 -1.8973 -1.1221 -0.1607
 8667SOL    HW237635   0.190   3.340   2.849 -0.4673  1.5231  0.5414
 8668SOL     OW37636   2.388   1.081   3.763 -0.4534 -0.1353  0.3421
 8668SOL    HW137637   2.451   1.022   3.721 -1.3580 -2.1248  1.7643
 8668SOL    HW237638   2.309   1.028   3.753 -0.2943 -0.0071 -1.6430
 8669SOL     OW37639   0.692   0.016  16.192  0.1223  0.3287 -0.0739
 8669SOL    HW137640   0.662   0.103  16.219 -1.2326 -0.5083  1.1518
 8669SOL    HW237641   0.766   4.733  16.249  1.7633 -0.0850 -2.3643
 8670SOL     OW37642   4.224   0.641   7.109  0.5038  0.2364  0.0586
 8670SOL    HW137643   4.266   0.605   7.188  0.5499 -1.2323 -0.6291
 8670SOL    HW237644   4.155   0.692   7.150 -0.1172 -0.1170 -0.5620
 8671SOL     OW37645   1.945   2.965   7.246  0.2902  0.3531  0.1774
 8671SOL    HW137646   1.988   2.881   7.232  1.9135  1.2896 -0.4872
 8671SOL    HW237647   2.006   3.024   7.201  1.7198  0.7162  2.5669
 8672SOL     OW37648   1.294   0.256   2.434  0.5160  1.0113 -0.4329
 8672SOL    HW137649   1.257   0.337   2.471  0.4412  0.8350 -0.1200
 8672SOL    HW237650   1.211   0.210   2.419 -0.4727  3.3622 -2.1172
 8673SOL     OW37651   1.789   0.148  12.068 -0.0316  0.0493 -0.6711
 8673SOL    HW137652   1.755   0.210  12.003  0.6147  1.3760  0.2419
 8673SOL    HW237653   1.743   0.068  12.042 -0.4291  0.1390 -0.2505
 8674SOL     OW37654   2.366   3.761  13.713  0.1542 -0.2784  0.7450
 8674SOL    HW137655   2.349   3.855  13.706 -0.2289 -0.6086 -3.0160
 8674SOL    HW237656   2.339   3.736  13.801 -0.5290 -0.4855  0.4792
 8675SOL     OW37657   1.332   0.764  12.710 -0.2850  0.1416  0.3433
 8675SOL    HW137658   1.382   0.700  12.659 -2.0164 -2.0296  1.3748
 8675SOL    HW237659   1.298   0.705  12.778 -4.2087  1.0864 -0.7961
 8676SOL     OW37660   3.247   0.736   6.332 -0.5073  0.1347  0.0185
 8676SOL    HW137661   3.252   0.728   6.427  1.1100  0.0874 -0.0722
 8676SOL    HW237662   3.156   0.708   6.324 -0.7225  0.7326  0.3860
 8677SOL     OW37663   1.406   2.301  11.880  0.0716 -0.5544  0.5155
 8677SOL    HW137664   1.494   2.264  11.871  0.4110 -0.1850  2.2528
 8677SOL    HW237665   1.390   2.336  11.792  2.1260 -2.1705 -0.4865
 8678SOL     OW37666   3.674   1.533   5.346 -0.0838 -0.1908  0.0925
 8678SOL    HW137667   3.604   1.511   5.284  0.1587 -1.2051  0.1737
 8678SOL    HW237668   3.732   1.456   5.344  0.1781 -0.0281  2.0725
 8679SOL     OW37669   4.465   3.046  13.788 -0.2492  0.6953  0.2847
 8679SOL    HW137670   4.384   3.054  13.839 -1.0799  1.2157 -1.1042
 8679SOL    HW237671   4.443   2.963  13.744  1.5790 -0.7712  2.1498
 8680SOL     OW37672   3.393   3.468   7.058 -0.7930  0.4381 -0.0809
 8680SOL    HW137673   3.423   3.554   7.029 -1.1547  0.0562 -1.6122
 8680SOL    HW237674   3.324   3.488   7.122  0.1247 -2.5196  1.8017
 8681SOL     OW37675   1.836   0.548   8.319  0.2323 -0.1029 -0.1919
 8681SOL    HW137676   1.884   0.470   8.343  0.6362  0.4454  0.7713
 8681SOL    HW237677   1.828   0.586   8.406  1.1154  0.1276 -0.2171
 8682SOL     OW37678   1.040   3.994   3.218  0.2946 -0.3030  0.1321
 8682SOL    HW137679   1.086   4.024   3.140 -1.5156  0.0943 -0.7976
 8682SOL    HW237680   0.971   3.936   3.185 -1.5494  1.7184  0.4456
 8683SOL     OW37681   0.749   3.130  16.522 -0.0228  0.4260  0.5467
 8683SOL    HW137682   0.778   3.210  16.479  2.9406 -0.2215  1.3554
 8683SOL    HW237683   0.736   3.167  16.609  2.5505 -1.1956  1.6441
 8684SOL     OW37684   1.718   3.293  11.575  0.3247  0.0168  0.1596
 8684SOL    HW137685   1.794   3.245  11.608 -1.6628 -3.0461  0.2914
 8684SOL    HW237686   1.654   3.297  11.646 -2.4263 -1.2678 -2.2755
 8685SOL     OW37687   1.545   2.840   0.475 -0.0134  0.4152  0.1750
 8685SOL    HW137688   1.537   2.935   0.473  0.2152  0.4536  1.1915
 8685SOL    HW237689   1.497   2.824   0.394  2.0214 -2.1941 -0.5183
 8686SOL     OW37690   4.727   1.835  11.526  0.0982  0.0759 -0.2846
 8686SOL    HW137691   0.063   1.860  11.583  0.0632 -0.6910  0.0899
 8686SOL    HW237692   4.712   1.741  11.539 -2.4844  0.6365  0.8772
 8687SOL     OW37693   3.432   2.106  17.167 -0.5101  0.2561 -0.5978
 8687SOL    HW137694   3.502   2.053  17.206  0.4593  2.1260  0.1863
 8687SOL    HW237695   3.415   2.056  17.087 -0.8511 -0.1007 -0.3049
 8688SOL     OW37696   0.904   0.266   3.962  0.3591 -0.5025 -0.1748
 8688SOL    HW137697   0.884   0.324   3.888 -1.1701  0.9856  1.3909
 8688SOL    HW237698   0.843   0.298   4.029  0.2258 -0.0730 -0.4993
 8689SOL     OW37699   0.076   0.184  14.224  0.3712  0.3313 -0.3025
 8689SOL    HW137700   0.087   0.279  14.223 -2.2429  0.6194 -1.7787
 8689SOL    HW237701   0.164   0.151  14.209  0.8324  2.8169 -3.1207
 8690SOL     OW37702   1.175   1.970   5.723 -0.5936  0.3700  0.2807
 8690SOL    HW137703   1.238   1.993   5.791 -1.0595 -1.3282  1.2821
 8690SOL    HW237704   1.205   2.030   5.654 -1.1442 -1.1829 -1.3129
 8691SOL     OW37705   0.209   1.036   9.759  0.1598 -0.1676  0.1903
 8691SOL    HW137706   0.275   1.091   9.717  1.3223 -1.0100  0.9036
 8691SOL    HW237707   0.260   1.039   9.840 -1.8907  0.8453  1.4390
 8692SOL     OW37708   4.356   4.725  10.165  0.4035  0.3951 -0.1798
 8692SOL    HW137709   4.273   0.030  10.188 -0.1658 -0.4583 -0.6886
 8692SOL    HW237710   4.370   4.675  10.245  3.1721  3.0619  0.9960
 8693SOL     OW37711   3.093   4.464   8.154 -0.6165  0.4986  0.2411
 8693SOL    HW137712   3.038   4.537   8.127  3.2099  2.9932 -0.7308
 8693SOL    HW237713   3.022   4.413   8.193  0.0139  0.0800  0.8287
 8694SOL     OW37714   2.700   3.338   5.695  0.0834  0.4165 -0.1529
 8694SOL    HW137715   2.691   3.269   5.761  2.2775 -0.4610 -0.7612
 8694SOL    HW237716   2.609   3.362   5.680 -0.0707 -1.4350 -2.1828
 8695SOL     OW37717   0.269   4.505   6.277  0.0887  0.1441  1.3471
 8695SOL    HW137718   0.185   4.546   6.301  0.1599  1.6374 -0.9736
 8695SOL    HW237719   0.272   4.483   6.184  0.3400  0.6415  1.2362
 8696SOL     OW37720   2.302   3.139   5.322 -0.1723 -0.3968  0.1147
 8696SOL    HW137721   2.353   3.152   5.242  0.4440 -0.8578  0.4263
 8696SOL    HW237722   2.272   3.230   5.333 -0.4572 -0.1007 -3.2820
 8697SOL     OW37723   3.468   1.176   0.980 -0.9010  0.8343  0.1577
 8697SOL    HW137724   3.469   1.265   1.017 -0.0265  2.4125 -3.7077
 8697SOL    HW237725   3.374   1.159   0.982 -0.3777 -2.2429 -1.1813
 8698SOL     OW37726   2.189   0.381   5.373 -0.2117  0.2515  0.4277
 8698SOL    HW137727   2.126   0.408   5.306 -0.0633 -0.7936 -0.1332
 8698SOL    HW237728   2.274   0.409   5.339 -0.9594  2.3658  0.2908
 8699SOL     OW37729   1.624   1.231   3.574 -0.1337  0.0977 -0.3233
 8699SOL    HW137730   1.660   1.318   3.591 -1.1554  0.9139 -2.3306
 8699SOL    HW237731   1.692   1.174   3.610  0.8433  0.7453 -1.1543
 8700SOL     OW37732   1.954   0.417   0.695  0.4698 -0.6836  0.5150
 8700SOL    HW137733   1.951   0.358   0.620  0.2542 -2.4994  1.9634
 8700SOL    HW237734   2.002   0.491   0.659 -0.7394  0.0570  0.4310
 8701SOL     OW37735   3.005   2.285   3.522 -0.7065  0.1097 -0.0044
 8701SOL    HW137736   3.087   2.237   3.512 -1.0180  0.1641 -2.6874
 8701SOL    HW237737   3.013   2.362   3.467 -2.2405 -0.1701 -0.6234
 8702SOL     OW37738   1.617   0.520   2.449 -0.0890 -0.1765  0.7578
 8702SOL    HW137739   1.706   0.515   2.414 -0.7290  2.0175 -1.1811
 8702SOL    HW237740   1.611   0.466   2.528 -0.3246  1.2284  1.6822
 8703SOL     OW37741   2.136   3.868   5.097 -0.3965  0.1579  0.0287
 8703SOL    HW137742   2.050   3.842   5.063 -0.5391  0.5610  0.0709
 8703SOL    HW237743   2.119   3.959   5.122 -1.5377  0.8716 -3.4278
 8704SOL     OW37744   4.256   1.178   8.309 -0.5730  0.4567 -0.4068
 8704SOL    HW137745   4.347   1.194   8.284  0.1845 -3.0847  0.0872
 8704SOL    HW237746   4.243   1.260   8.356 -1.7725 -0.1266  0.2946
 8705SOL     OW37747   0.783   3.334   6.647  0.0944  0.1374 -0.3681
 8705SOL    HW137748   0.716   3.403   6.647  0.1337  0.1814  1.2335
 8705SOL    HW237749   0.860   3.386   6.623  0.4137 -1.2311 -2.2703
 8706SOL     OW37750   4.158   4.369   0.505  0.7441 -0.9141  0.1530
 8706SOL    HW137751   4.195   4.284   0.485  0.1387 -1.1488  0.0323
 8706SOL    HW237752   4.235   4.408   0.546 -1.1475  0.2047  2.6946
 8707SOL     OW37753   0.363   3.281   8.026 -0.2808 -0.1622 -0.0235
 8707SOL    HW137754   0.458   3.288   8.029 -0.1849 -1.5594  0.1831
 8707SOL    HW237755   0.350   3.189   8.005 -0.2076 -0.5169  1.5487
 8708SOL     OW37756   3.991   3.024   9.260 -0.1778 -0.2122 -0.5187
 8708SOL    HW137757   3.914   2.992   9.307  0.2958  0.8544  0.9768
 8708SOL    HW237758   4.053   2.984   9.320 -2.1211 -1.4892  0.6478
 8709SOL     OW37759   0.699   4.703   2.937  0.5852  0.1772  0.3332
 8709SOL    HW137760   0.738   4.617   2.923  2.1832  1.0756 -0.7200
 8709SOL    HW237761   0.607   4.684   2.916  1.3314  0.7962 -3.4166
 8710SOL     OW37762   1.029   1.620   2.742  0.5517 -0.1631  0.5127
 8710SOL    HW137763   0.989   1.533   2.739  0.3221 -0.0563  0.4970
 8710SOL    HW237764   0.954   1.674   2.766  0.1169  1.2293 -4.0980
 8711SOL     OW37765   0.939   2.526   8.372 -0.0615 -0.7419 -0.2685
 8711SOL    HW137766   0.985   2.609   8.364  1.4682 -1.5543 -0.0009
 8711SOL    HW237767   0.923   2.504   8.280 -1.0889  1.3464 -0.5732
 8712SOL     OW37768   4.666   4.193   7.323  0.8392  0.1737 -0.0854
 8712SOL    HW137769   4.698   4.200   7.413  0.5769  1.5385 -0.0935
 8712SOL    HW237770   4.698   4.105   7.301  0.9666 -0.7713  3.6941
 8713SOL     OW37771   4.594   4.321   6.011  0.8157  0.1658  0.6583
 8713SOL    HW137772   4.574   4.383   5.941 -1.7058 -1.9565 -0.4990
 8713SOL    HW237773   4.676   4.348   6.053  0.9513  1.7181 -0.5738
 8714SOL     OW37774   1.888   0.972   7.513  0.4298  0.6450  0.1698
 8714SOL    HW137775   1.889   0.946   7.421 -0.7968 -1.5623  0.7697
 8714SOL    HW237776   1.854   0.894   7.558  1.7245 -0.1519 -0.2104
 8715SOL     OW37777   0.847   1.695  11.423  0.5422  0.1877  0.0281
 8715SOL    HW137778   0.905   1.658  11.357  0.4531 -0.6912  0.4459
 8715SOL    HW237779   0.893   1.776  11.447 -1.0893  0.9250  0.6676
 8716SOL     OW37780   1.413   2.491   9.315 -0.2240  0.9552  0.2783
 8716SOL    HW137781   1.371   2.423   9.368 -1.0964  0.9404 -0.4356
 8716SOL    HW237782   1.341   2.555   9.311  0.1441  1.3807  0.5016
 8717SOL     OW37783   1.205   1.812   7.357  0.3406  0.4769  0.2928
 8717SOL    HW137784   1.140   1.810   7.288 -0.6475 -2.8830  1.3068
 8717SOL    HW237785   1.176   1.888   7.408 -2.5198  0.4083 -1.2475
 8718SOL     OW37786   3.017   1.028  11.804 -0.0721 -0.0889 -0.2582
 8718SOL    HW137787   3.076   1.064  11.737  1.9094  2.6925  3.0017
 8718SOL    HW237788   2.939   1.053  11.753 -1.3115 -0.1319  1.6187
 8719SOL     OW37789   3.958   3.109   3.302 -0.1090 -0.2212  0.5265
 8719SOL    HW137790   3.972   3.203   3.296 -1.7147 -0.0199 -0.1544
 8719SOL    HW237791   3.863   3.119   3.296  0.3980  2.9198 -1.9561
 8720SOL     OW37792   1.161   1.607   8.721  0.5432 -0.6366  0.4573
 8720SOL    HW137793   1.157   1.655   8.637 -2.7019 -0.9281  0.4316
 8720SOL    HW237794   1.248   1.633   8.750  0.9136  0.3666 -1.5337
 8721SOL     OW37795   1.800   4.645   6.044  0.3368 -0.5892 -0.0649
 8721SOL    HW137796   1.792   4.645   6.140 -1.0307 -3.7189 -0.2029
 8721SOL    HW237797   1.861   4.718   6.032 -0.2052 -0.0667  0.3167
 8722SOL     OW37798   2.618   4.065   1.025 -0.3348 -0.0610 -0.4539
 8722SOL    HW137799   2.532   4.102   1.005  1.2597  3.5949 -0.5294
 8722SOL    HW237800   2.661   4.105   0.950 -0.1679  1.6291  0.5465
 8723SOL     OW37801   4.722   0.045   9.333 -0.3998  0.1395  0.0721
 8723SOL    HW137802   4.696   0.080   9.248 -1.2803  0.1994  0.3582
 8723SOL    HW237803   0.074   0.021   9.308 -0.0469  0.1011  1.3642
 8724SOL     OW37804   0.699   2.612   4.042 -0.1884 -0.0835  0.1464
 8724SOL    HW137805   0.663   2.582   4.125  3.0756 -1.2115  1.1571
 8724SOL    HW237806   0.626   2.597   3.982  0.9279 -0.2641 -1.1654
 8725SOL     OW37807   1.963   4.569   5.579  0.3891  0.9554 -0.0212
 8725SOL    HW137808   1.911   4.554   5.500  2.7975 -1.2037 -1.1721
 8725SOL    HW237809   2.013   4.488   5.574  1.2144  1.4643 -0.0642
 8726SOL     OW37810   2.840   3.153  17.629 -0.3918  0.4244 -0.5288
 8726SOL    HW137811   2.758   3.172  17.582 -0.2739  1.0816 -0.4732
 8726SOL    HW237812   2.808   3.077  17.678  2.9938  1.1693  2.8398
 8727SOL     OW37813   2.790   1.412   7.040 -0.0960  0.0403 -0.4363
 8727SOL    HW137814   2.844   1.370   6.973 -0.3435  0.9723 -1.2273
 8727SOL    HW237815   2.754   1.337   7.088 -0.8211  1.6246  1.5099
 8728SOL     OW37816   2.717   0.591   8.059 -0.4095 -0.4217 -0.2246
 8728SOL    HW137817   2.738   0.547   7.977 -0.6500 -1.2979  0.1887
 8728SOL    HW237818   2.665   0.521   8.099  0.7986 -1.7436 -1.0020
 8729SOL     OW37819   1.217   2.972   6.665 -0.2911 -0.4566  0.6714
 8729SOL    HW137820   1.152   2.907   6.692 -0.3437  0.7818  3.5674
 8729SOL    HW237821   1.290   2.927   6.708 -0.1666 -0.4120  0.5029
 8730SOL     OW37822   0.347   1.491  14.286  0.0601  0.6430 -0.0984
 8730SOL    HW137823   0.431   1.455  14.257 -1.2571 -0.9528 -1.9788
 8730SOL    HW237824   0.346   1.463  14.378  0.9005  1.7092  0.2351
 8731SOL     OW37825   1.458   3.707  12.687  0.3563 -0.2250 -0.0927
 8731SOL    HW137826   1.492   3.797  12.691 -0.8599  0.1578  1.5151
 8731SOL    HW237827   1.378   3.731  12.641 -1.3119 -0.0546  2.9029
 8732SOL     OW37828   4.613   0.803   9.652  0.5549  0.3851  0.6914
 8732SOL    HW137829   4.685   0.779   9.594 -1.1912 -1.5068 -0.6630
 8732SOL    HW237830   4.535   0.769   9.609  0.8778 -1.4285  1.5584
 8733SOL     OW37831   3.502   1.620   6.675  0.1923  0.3674 -0.3941
 8733SOL    HW137832   3.481   1.580   6.591  0.6494 -2.4885  0.8464
 8733SOL    HW237833   3.557   1.545   6.701 -0.8529 -0.6850 -1.2626
 8734SOL     OW37834   4.288   0.429   3.924  0.1230  0.3751 -0.1444
 8734SOL    HW137835   4.299   0.339   3.895 -2.1912 -0.9601  3.2025
 8734SOL    HW237836   4.381   0.445   3.909 -0.4926  2.9455 -1.2488
 8735SOL     OW37837   2.293   2.130  15.766 -0.8472 -0.4385  0.0280
 8735SOL    HW137838   2.229   2.059  15.776 -0.8432 -0.0506  2.9015
 8735SOL    HW237839   2.306   2.158  15.857 -1.0140 -0.1912 -0.0231
 8736SOL     OW37840   3.533   0.825   5.092 -0.0303 -0.1586 -0.1724
 8736SOL    HW137841   3.607   0.873   5.053 -0.1817 -0.8067 -1.2326
 8736SOL    HW237842   3.568   0.823   5.182 -0.0855 -0.7695 -0.1660
 8737SOL     OW37843   2.731   3.072   7.621  0.6190  0.6818 -0.2109
 8737SOL    HW137844   2.777   3.008   7.675 -0.3394  0.1092 -0.0640
 8737SOL    HW237845   2.690   3.023   7.550 -0.3646 -0.3913  1.0765
 8738SOL     OW37846   0.020   0.870   5.539 -0.4077  0.0382  0.1178
 8738SOL    HW137847   0.108   0.867   5.503  1.1341 -0.3006  3.9804
 8738SOL    HW237848   4.726   0.958   5.517 -2.0716 -0.1146  1.8417
 8739SOL     OW37849   1.399   1.821   9.325  0.3290  0.1688  0.2211
 8739SOL    HW137850   1.447   1.901   9.344 -0.0420  1.0841 -2.6449
 8739SOL    HW237851   1.434   1.810   9.236 -0.8147  0.5264 -0.2815
 8740SOL     OW37852   3.960   4.448   4.304  0.7790  0.3408  0.3619
 8740SOL    HW137853   3.875   4.479   4.272  1.7748  1.7610 -0.9068
 8740SOL    HW237854   4.015   4.464   4.227 -0.0222  1.1755 -0.0406
 8741SOL     OW37855   3.670   3.607  13.406  0.6167  0.8269  0.0728
 8741SOL    HW137856   3.673   3.703  13.409 -0.8179  0.8463  1.4395
 8741SOL    HW237857   3.614   3.605  13.484  1.0571  3.0096  0.4487
 8742SOL     OW37858   3.915   4.312   1.251  1.2696 -0.1987  0.1390
 8742SOL    HW137859   3.891   4.396   1.211 -1.4612 -2.1222 -2.1792
 8742SOL    HW237860   3.977   4.276   1.188  0.8680 -0.7335  0.0551
 8743SOL     OW37861   3.901   2.768  14.182  0.8756  0.1426  0.8393
 8743SOL    HW137862   3.991   2.735  14.189  0.6888 -0.8890 -1.6681
 8743SOL    HW237863   3.870   2.764  14.272  0.4898 -1.9556  0.6130
 8744SOL     OW37864   3.907   0.292   8.413  0.3071 -0.7682  0.0913
 8744SOL    HW137865   3.828   0.319   8.460  0.5075 -0.9349  0.5234
 8744SOL    HW237866   3.913   0.197   8.428  1.9235 -0.9624 -1.7467
 8745SOL     OW37867   2.743   0.544   2.892  0.2743 -0.6091  0.1501
 8745SOL    HW137868   2.699   0.594   2.824  0.5511 -0.1018  0.3422
 8745SOL    HW237869   2.821   0.511   2.847  2.4135  2.0619  1.8478
 8746SOL     OW37870   4.255   2.126   1.747  0.4752  0.2236  0.0766
 8746SOL    HW137871   4.184   2.067   1.722  1.4698 -0.4137 -1.1948
 8746SOL    HW237872   4.312   2.090   1.680  2.2229  1.5419  0.8284
 8747SOL     OW37873   1.663   4.308   6.981 -0.0810 -0.1997  0.0241
 8747SOL    HW137874   1.685   4.308   6.888  3.1878 -0.8842  0.8221
 8747SOL    HW237875   1.622   4.395   6.981  0.7851  0.2078 -1.5871
 8748SOL     OW37876   3.723   3.366  17.159 -0.4019 -0.2384  0.0935
 8748SOL    HW137877   3.695   3.295  17.217  0.5496 -1.2834 -0.7189
 8748SOL    HW237878   3.804   3.325  17.128 -0.3378 -1.1580  1.4763
 8749SOL     OW37879   2.978   3.622   1.956  0.1993 -0.0019  0.2241
 8749SOL    HW137880   2.992   3.695   2.015 -0.0892 -1.1171  1.6728
 8749SOL    HW237881   3.034   3.556   1.998  1.4547  0.9673  0.0772
 8750SOL     OW37882   4.223   2.631   4.164 -0.8442 -0.0217  0.1786
 8750SOL    HW137883   4.163   2.588   4.104 -0.0561  1.5121 -1.6897
 8750SOL    HW237884   4.164   2.696   4.203 -0.6336  0.5361 -0.4402
 8751SOL     OW37885   2.660   3.024   7.297 -0.0475  0.0469  0.1733
 8751SOL    HW137886   2.635   3.054   7.209 -0.1180 -2.9923 -0.8428
 8751SOL    HW237887   2.585   2.970   7.321  1.0800 -0.7278  1.9297
 8752SOL     OW37888   3.363   3.998   2.453  0.4009 -0.1165 -0.2721
 8752SOL    HW137889   3.412   4.006   2.371 -1.1248  2.1606 -0.9406
 8752SOL    HW237890   3.433   4.008   2.518  0.0564 -0.1036  0.0974
 8753SOL     OW37891   0.605   1.314   6.684 -0.1039  0.0872  1.1878
 8753SOL    HW137892   0.630   1.345   6.772 -2.3453  0.9530  1.5070
 8753SOL    HW237893   0.689   1.268   6.676  0.6389  1.5589  0.6209
 8754SOL     OW37894   1.832   1.130   7.877  0.0173  0.5830 -0.1099
 8754SOL    HW137895   1.743   1.106   7.849 -1.1485  2.0473  2.3581
 8754SOL    HW237896   1.818   1.144   7.971  0.0200  0.9915 -0.1696
 8755SOL     OW37897   1.734   4.697   3.481 -0.0029 -0.0036  0.2043
 8755SOL    HW137898   1.795   4.673   3.551  0.3421 -0.8873 -0.4098
 8755SOL    HW237899   1.673   0.016   3.529 -1.2974 -1.0152 -0.2618
 8756SOL     OW37900   3.595   4.498   2.604 -0.3424 -0.6191 -0.2771
 8756SOL    HW137901   3.589   4.473   2.512 -1.2873 -1.3951 -0.0110
 8756SOL    HW237902   3.674   4.552   2.605 -0.6411 -0.1412 -2.6268
 8757SOL     OW37903   4.561   4.645   4.516  0.3857  0.2929 -0.3416
 8757SOL    HW137904   4.600   4.568   4.559  0.4584  0.2570 -0.4726
 8757SOL    HW237905   4.480   4.636   4.566  0.2053 -0.1827 -0.7169
 8758SOL     OW37906   4.187   2.366   0.307 -0.2567 -0.3483 -0.5153
 8758SOL    HW137907   4.208   2.420   0.231  1.9130 -1.6140 -0.8101
 8758SOL    HW237908   4.203   2.431   0.375 -0.7214 -1.4741  0.6672
 8759SOL     OW37909   4.423   0.879   9.902 -0.0619 -0.0377 -0.4693
 8759SOL    HW137910   4.444   0.787   9.889 -3.1146 -0.6083 -1.2773
 8759SOL    HW237911   4.450   0.914   9.817 -1.1038  0.1771 -0.7022
 8760SOL     OW37912   3.399   3.558   0.647  0.0640 -0.4012  0.3022
 8760SOL    HW137913   3.445   3.498   0.588 -0.5988 -1.4438  0.8550
 8760SOL    HW237914   3.320   3.560   0.593 -1.2870  0.5162  2.3084
 8761SOL     OW37915   1.265   1.960   8.516 -0.4011 -0.0717 -0.2280
 8761SOL    HW137916   1.301   2.045   8.543 -0.9450 -0.1258  0.6732
 8761SOL    HW237917   1.298   1.963   8.426 -1.8342 -1.5767 -0.8125
 8762SOL     OW37918   1.819   3.119   5.429 -0.4628  0.2558 -0.5839
 8762SOL    HW137919   1.745   3.146   5.483  0.6459 -0.1194  1.1188
 8762SOL    HW237920   1.839   3.206   5.396 -0.2520  0.7294  0.7955
 8763SOL     OW37921   4.508   2.367  14.167 -0.0136 -0.4815 -0.3100
 8763SOL    HW137922   4.575   2.302  14.146  1.3528  0.4412  1.1875
 8763SOL    HW237923   4.429   2.327  14.132  0.1227  0.5422 -1.8000
 8764SOL     OW37924   0.438   2.655  11.245  0.0677 -0.4053 -0.6063
 8764SOL    HW137925   0.415   2.659  11.338  0.5154  2.9339 -0.6092
 8764SOL    HW237926   0.433   2.749  11.225  1.1186 -0.5750 -1.6342
 8765SOL     OW37927   4.477   0.412   3.040 -0.4516 -0.8663  0.1476
 8765SOL    HW137928   4.434   0.496   3.058  0.0412 -0.7330  0.6894
 8765SOL    HW237929   4.557   0.443   2.997  0.5372 -1.6325  1.4538
 8766SOL     OW37930   3.346   4.022  14.283 -0.1244 -0.4313 -0.1790
 8766SOL    HW137931   3.307   4.034  14.369  1.3779 -3.2331  0.8897
 8766SOL    HW237932   3.440   4.023  14.299 -0.3850  2.5315  1.1821
 8767SOL     OW37933   3.622   0.480   7.659  0.3391 -0.4544  0.4541
 8767SOL    HW137934   3.537   0.446   7.688  0.4726  0.1468  1.5415
 8767SOL    HW237935   3.630   0.550   7.724  0.3757  0.3862 -0.4450
 8768SOL     OW37936   3.612   3.311  11.961  0.4377 -0.3079 -0.2532
 8768SOL    HW137937   3.658   3.232  11.937  1.8207  0.3209  0.3322
 8768SOL    HW237938   3.644   3.313  12.051  0.5828 -1.8827 -0.2878
 8769SOL     OW37939   1.834   1.482   2.651  0.2857 -0.4320  0.2269
 8769SOL    HW137940   1.884   1.433   2.586 -0.3044 -0.3430 -0.2940
 8769SOL    HW237941   1.868   1.463   2.739 -0.9982  0.0234  0.8139
 8770SOL     OW37942   1.644   3.160   3.933  0.3243  0.3298 -0.2896
 8770SOL    HW137943   1.580   3.188   3.868 -0.8027 -2.7045 -0.5051
 8770SOL    HW237944   1.625   3.229   3.996  2.3117  0.0677  0.6054
 8771SOL     OW37945   4.633   3.781   4.209 -0.2998 -0.8283 -0.3485
 8771SOL    HW137946   4.544   3.806   4.187  0.3342  1.3666 -0.4065
 8771SOL    HW237947   4.681   3.864   4.203 -0.5876 -0.5535  1.0346
 8772SOL     OW37948   2.536   4.371  12.152 -0.1451  0.3452 -0.4468
 8772SOL    HW137949   2.452   4.415  12.138 -2.1186 -3.8082 -1.6268
 8772SOL    HW237950   2.543   4.383  12.247  0.1320 -2.0715 -0.1625
 8773SOL     OW37951   4.335   1.370   1.820 -0.0032  0.3411 -0.0635
 8773SOL    HW137952   4.299   1.433   1.758 -0.5730  1.4403  1.4074
 8773SOL    HW237953   4.297   1.285   1.798 -1.4858  1.2210 -0.8743
 8774SOL     OW37954   2.777   3.248   4.123  0.1707  0.0345 -0.1842
 8774SOL    HW137955   2.833   3.239   4.201  0.4756  1.1628 -0.2736
 8774SOL    HW237956   2.842   3.263   4.054 -1.0551 -0.6091 -1.4773
 8775SOL     OW37957   1.044   2.095   5.332  0.4710  0.3409  0.2744
 8775SOL    HW137958   1.071   2.121   5.420 -1.4121  0.6761  0.7594
 8775SOL    HW237959   0.950   2.110   5.341 -0.0598 -2.3920 -0.6753
 8776SOL     OW37960   0.102   1.101  12.104 -0.4739  0.1823 -0.3620
 8776SOL    HW137961   0.130   1.192  12.105  0.5608 -0.1443  0.0936
 8776SOL    HW237962   0.105   1.084  12.198 -2.7706  0.6826 -0.1959
 8777SOL     OW37963   4.424   0.018   2.119  0.3365  0.5322  0.1240
 8777SOL    HW137964   4.432   4.662   2.099 -0.1365  0.5772 -0.2985
 8777SOL    HW237965   4.346   0.011   2.174 -1.2403  0.9131 -2.0475
 8778SOL     OW37966   0.415   4.148   7.894  0.6036 -0.1994  0.1737
 8778SOL    HW137967   0.489   4.170   7.952  1.0463 -0.3310 -0.3403
 8778SOL    HW237968   0.444   4.064   7.858 -1.4538 -1.0951  0.6156
 8779SOL     OW37969   0.110   0.164   0.043  0.9413 -0.6683  0.0980
 8779SOL    HW137970   0.136   0.230   0.107  0.0173 -2.0822  1.9193
 8779SOL    HW237971   0.102   0.086   0.097  2.8118 -0.1960  1.0716
 8780SOL     OW37972   0.081   1.674   6.101 -0.2408  0.3386 -0.1430
 8780SOL    HW137973   0.174   1.652   6.102 -0.4902 -0.6768  0.4776
 8780SOL    HW237974   0.060   1.675   6.007 -1.1978  1.1113  0.0760
 8781SOL     OW37975   1.901   3.792   8.463  0.3678 -0.0128 -0.0058
 8781SOL    HW137976   1.936   3.745   8.538 -3.8400 -0.4369  1.6682
 8781SOL    HW237977   1.878   3.880   8.494  0.6409  0.1313 -0.2038
 8782SOL     OW37978   0.584   0.543   3.886 -0.0486  0.4036 -0.1157
 8782SOL    HW137979   0.526   0.599   3.937 -1.0235  1.0665 -1.9687
 8782SOL    HW237980   0.537   0.526   3.805 -0.2760  1.0698 -0.1253
 8783SOL     OW37981   4.123   4.044   7.853  0.5985 -0.1022 -0.3174
 8783SOL    HW137982   4.082   3.962   7.882 -1.3051  0.3791 -1.6874
 8783SOL    HW237983   4.209   4.019   7.887  0.1106  0.4886  1.3577
 8784SOL     OW37984   2.014   0.643   7.756  0.4039 -0.0790  0.0383
 8784SOL    HW137985   2.090   0.666   7.704 -1.3189  0.4304 -2.2685
 8784SOL    HW237986   2.045   0.572   7.812  0.6288  0.6411  0.8393
 8785SOL     OW37987   3.287   2.675   7.418 -0.4995 -0.4350  0.4458
 8785SOL    HW137988   3.316   2.645   7.505  0.2592 -0.0701  0.3066
 8785SOL    HW237989   3.245   2.595   7.384  1.9279 -1.6297  0.2789
 8786SOL     OW37990   1.182   1.479  17.097 -0.4071 -0.1149 -0.5644
 8786SOL    HW137991   1.198   1.385  17.085 -0.4332 -0.0601 -1.0586
 8786SOL    HW237992   1.125   1.479  17.173  0.1501  1.1398 -0.1447
 8787SOL     OW37993   0.963   4.126   7.834 -0.8230  0.2760  0.4415
 8787SOL    HW137994   0.957   4.031   7.824 -2.7609  0.4682 -0.1274
 8787SOL    HW237995   1.018   4.147   7.759 -0.3218 -0.0561  0.7103
 8788SOL     OW37996   0.793   1.121   2.217 -0.5269 -0.4752  0.1832
 8788SOL    HW137997   0.765   1.124   2.125  3.2327  2.9018 -0.8580
 8788SOL    HW237998   0.738   1.187   2.258  0.2391  0.8125 -0.8477
 8789SOL     OW37999   1.053   4.231   2.698 -0.5676 -0.6876  0.6576
 8789SOL    HW138000   1.106   4.263   2.772 -0.3386  0.5088 -0.0211
 8789SOL    HW238001   1.059   4.136   2.694 -1.1750 -0.7414  0.9923
 8790SOL     OW38002   3.967   2.927   2.297 -0.0078  0.7668 -0.0713
 8790SOL    HW138003   3.957   2.926   2.202  0.2388  2.1390 -0.1192
 8790SOL    HW238004   4.063   2.924   2.293 -0.0247 -1.4407  1.0617
 8791SOL     OW38005   1.272   4.560   8.397  0.1054  0.5194  0.2229
 8791SOL    HW138006   1.361   4.536   8.424  0.5345 -0.1631 -1.8008
 8791SOL    HW238007   1.259   4.494   8.329 -0.6871 -0.8947  1.7684
 8792SOL     OW38008   4.493   3.648  14.103  0.3984  0.1797 -0.3591
 8792SOL    HW138009   4.581   3.676  14.128  0.0667  1.4095 -0.5792
 8792SOL    HW238010   4.444   3.683  14.178  1.0388 -0.7486  0.4845
 8793SOL     OW38011   0.253   2.887   8.921 -0.0250  0.3253  0.3599
 8793SOL    HW138012   0.166   2.890   8.961 -0.3002 -0.9166 -0.1386
 8793SOL    HW238013   0.261   2.794   8.900 -0.0969  0.7112 -1.3283
 8794SOL     OW38014   1.200   0.489   4.170  0.2969  1.0606  0.5560
 8794SOL    HW138015   1.263   0.496   4.098  0.0102 -1.9933  0.0005
 8794SOL    HW238016   1.137   0.558   4.152  0.0669  0.1839 -2.0181
 8795SOL     OW38017   1.604   2.126  16.659 -0.1529  0.1454 -0.5046
 8795SOL    HW138018   1.518   2.163  16.640 -0.4509 -0.9078 -1.2655
 8795SOL    HW238019   1.596   2.061  16.589 -0.4675  0.5042 -0.8033
 8796SOL     OW38020   3.566   1.133   5.591 -0.2553  0.2740 -0.1993
 8796SOL    HW138021   3.479   1.167   5.570 -0.8664 -0.7360  0.6239
 8796SOL    HW238022   3.619   1.194   5.642 -1.6229  1.6711 -0.4321
 8797SOL     OW38023   2.021   1.345  12.704  0.7216 -0.0833  0.1958
 8797SOL    HW138024   1.938   1.347  12.657  1.4985  0.6469 -1.1309
 8797SOL    HW238025   2.084   1.354  12.633  1.1298 -2.8608  0.2099
 8798SOL     OW38026   4.326   3.630   7.651 -0.2397 -0.1728 -0.5450
 8798SOL    HW138027   4.325   3.723   7.626  1.0828  0.5002  1.8103
 8798SOL    HW238028   4.281   3.594   7.575 -0.7199 -1.0038  0.1362
 8799SOL     OW38029   2.741   2.731   2.369 -0.3390 -0.0559 -0.4711
 8799SOL    HW138030   2.699   2.680   2.439  0.7742 -0.3518 -0.0173
 8799SOL    HW238031   2.832   2.702   2.362 -0.8598 -1.7389 -0.3548
 8800SOL     OW38032   2.375   0.427   7.507 -0.0196 -0.3215  0.0442
 8800SOL    HW138033   2.431   0.458   7.579 -2.0497  2.6205  0.3490
 8800SOL    HW238034   2.399   0.497   7.447 -0.5066  0.4602  0.7559
 8801SOL     OW38035   3.994   2.965   6.889  0.0615 -0.8098  0.4061
 8801SOL    HW138036   4.065   2.972   6.953  1.6076 -1.9519 -1.1675
 8801SOL    HW238037   3.925   2.979   6.954  0.3892  2.7929 -0.0738
 8802SOL     OW38038   0.148   2.496   3.182 -0.3522  0.3053  0.1402
 8802SOL    HW138039   0.129   2.416   3.230  1.6547 -1.1383 -1.4399
 8802SOL    HW238040   0.130   2.558   3.253 -1.6806 -1.9260  1.7358
 8803SOL     OW38041   1.758   4.713   6.332  0.4248 -0.1924  0.2103
 8803SOL    HW138042   1.726   0.063   6.358 -0.6659 -0.4357 -0.3259
 8803SOL    HW238043   1.837   4.712   6.387  0.8374  0.8492 -0.3656
 8804SOL     OW38044   1.280   3.505   6.676 -0.2106 -0.2571  0.2502
 8804SOL    HW138045   1.351   3.562   6.705  0.2976 -0.1739 -1.1613
 8804SOL    HW238046   1.279   3.441   6.748  2.8058  0.7127  1.1648
 8805SOL     OW38047   3.794   3.523   2.080 -0.5925 -0.0513 -0.1678
 8805SOL    HW138048   3.808   3.526   2.175  0.1758 -0.0653 -0.2879
 8805SOL    HW238049   3.745   3.442   2.065 -0.1123 -0.6069  1.2569
 8806SOL     OW38050   0.951   2.097   9.092 -0.0852 -0.0754  0.0341
 8806SOL    HW138051   0.955   2.044   9.013 -1.3007 -0.9778  0.5778
 8806SOL    HW238052   0.858   2.083   9.112  0.0036  1.2188  1.3528
 8807SOL     OW38053   0.634   3.195   8.966 -0.4261 -0.0300 -0.0455
 8807SOL    HW138054   0.585   3.141   8.903  0.4827 -1.5443  0.5331
 8807SOL    HW238055   0.637   3.139   9.044 -1.8633  3.0675  2.2319
 8808SOL     OW38056   2.710   4.648   0.691 -0.3467 -0.1236  0.0813
 8808SOL    HW138057   2.742   4.628   0.779 -0.0413  1.3178  0.3028
 8808SOL    HW238058   2.636   4.704   0.713 -0.5674 -1.0822  1.7449
 8809SOL     OW38059   1.826   0.677   7.988  0.5147  0.4170 -0.0886
 8809SOL    HW138060   1.842   0.754   8.043  0.4587  0.2968  0.0960
 8809SOL    HW238061   1.906   0.634   8.016 -2.7622 -2.1255  5.4009
 8810SOL     OW38062   3.597   3.856   2.624 -0.2506  0.1796 -0.6966
 8810SOL    HW138063   3.627   3.878   2.712 -0.6366 -0.4006 -0.4193
 8810SOL    HW238064   3.553   3.772   2.636  1.7733 -0.6249  1.1740
 8811SOL     OW38065   0.042   4.341  14.845  0.2680  0.4072  0.1626
 8811SOL    HW138066   4.683   4.337  14.847  0.3541 -1.9549 -0.2914
 8811SOL    HW238067   0.054   4.328  14.751 -1.0734  0.0874  0.0299
 8812SOL     OW38068   4.306   2.793   4.669  0.0209 -0.1721  0.1468
 8812SOL    HW138069   4.290   2.809   4.576 -3.4332 -0.6894  0.6419
 8812SOL    HW238070   4.399   2.813   4.680 -0.0941  0.5407 -0.1831
 8813SOL     OW38071   1.042   4.573   5.760  0.1424  0.0076  0.5750
 8813SOL    HW138072   1.118   4.617   5.799 -0.8236  1.4692  0.8307
 8813SOL    HW238073   1.083   4.489   5.739 -1.3386 -0.6013  0.1115
 8814SOL     OW38074   3.800   3.241   5.470 -0.3384 -0.0713  0.5902
 8814SOL    HW138075   3.740   3.263   5.542 -1.5666  1.6605 -0.9764
 8814SOL    HW238076   3.884   3.275   5.503  0.1520  1.5457 -2.3468
 8815SOL     OW38077   4.430   3.227  16.382  0.1368 -0.6424  0.5995
 8815SOL    HW138078   4.506   3.216  16.325 -1.3530 -0.8614 -1.3305
 8815SOL    HW238079   4.372   3.279  16.327 -0.7892 -1.9764  0.2904
 8816SOL     OW38080   3.729   3.998   2.065  0.1541 -0.1123  0.3995
 8816SOL    HW138081   3.685   3.949   1.996  2.2072 -1.5075  0.0974
 8816SOL    HW238082   3.749   3.925   2.124  2.4550  2.7141  3.1668
 8817SOL     OW38083   2.905   0.617  11.185 -0.4579  0.0167  0.2915
 8817SOL    HW138084   2.866   0.702  11.163 -0.2835  0.1460  0.4839
 8817SOL    HW238085   2.862   0.605  11.270 -3.0741 -0.0962 -1.0472
 8818SOL     OW38086   0.958   4.357   6.374  0.0274  0.6700  0.4736
 8818SOL    HW138087   0.893   4.392   6.434 -0.8626 -2.9374  1.5952
 8818SOL    HW238088   0.994   4.285   6.426 -0.2796  0.1186 -0.0715
 8819SOL     OW38089   0.065   0.323  17.306 -0.2437 -0.3918  0.1894
 8819SOL    HW138090   0.002   0.265  17.263  0.5480  0.1108 -1.6308
 8819SOL    HW238091   0.144   0.277  17.277 -1.3910  0.1787 -3.8241
 8820SOL     OW38092   0.514   4.585  12.312  0.5011  0.1816  0.5954
 8820SOL    HW138093   0.509   4.533  12.392  1.7318  1.1116  1.2833
 8820SOL    HW238094   0.441   4.558  12.256  1.2749 -2.0749  0.6561
 8821SOL     OW38095   0.365   2.003  16.338  0.3869  1.0054 -0.1324
 8821SOL    HW138096   0.304   1.988  16.266 -0.9402  3.6890  0.4345
 8821SOL    HW238097   0.415   1.921  16.332  1.2680  1.4943  0.6083
 8822SOL     OW38098   2.456   0.157   1.724  0.1584  0.0432  0.1741
 8822SOL    HW138099   2.379   0.211   1.739  0.7837  1.2219 -0.8649
 8822SOL    HW238100   2.471   0.143   1.630  1.3230  1.2017  0.1821
 8823SOL     OW38101   1.232   0.691   5.978  0.1101 -0.4143 -0.3376
 8823SOL    HW138102   1.163   0.633   6.012  1.0253 -2.2776 -1.6612
 8823SOL    HW238103   1.198   0.722   5.894 -0.5400  0.7381  0.3507
 8824SOL     OW38104   1.201   3.701   3.459 -0.1903  0.2552  0.3971
 8824SOL    HW138105   1.197   3.786   3.502  2.0617  0.1396  0.7994
 8824SOL    HW238106   1.133   3.651   3.504  0.0964 -0.6530 -0.1811
 8825SOL     OW38107   2.945   2.640  13.497 -0.4228 -0.1146  0.3351
 8825SOL    HW138108   3.030   2.627  13.539 -0.0508  0.0523 -0.3760
 8825SOL    HW238109   2.960   2.618  13.405  0.6424 -0.4013  0.5806
 8826SOL     OW38110   2.766   3.832   5.433 -0.6714 -0.3983 -0.0601
 8826SOL    HW138111   2.677   3.810   5.404 -0.1023 -0.0037 -2.0987
 8826SOL    HW238112   2.815   3.759   5.397 -1.8205 -0.4669 -1.4856
 8827SOL     OW38113   0.762   0.246   9.176  0.0900  0.8367 -0.0354
 8827SOL    HW138114   0.822   0.320   9.165  2.2567 -1.0356 -0.8721
 8827SOL    HW238115   0.771   0.204   9.090 -2.2330  0.5197 -0.1125
 8828SOL     OW38116   2.887   0.383   7.232  0.0284 -0.4469  0.4747
 8828SOL    HW138117   2.794   0.358   7.230  0.4388 -1.7038 -2.1834
 8828SOL    HW238118   2.888   0.457   7.172  0.8664 -2.1710 -1.6529
 8829SOL     OW38119   4.337   3.163   8.095  0.5539 -0.1165  0.0096
 8829SOL    HW138120   4.407   3.221   8.126 -0.5501  1.8026 -1.0585
 8829SOL    HW238121   4.366   3.074   8.115 -1.2972 -0.7521 -0.0528
 8830SOL     OW38122   2.316   0.146   8.377  0.0100 -0.2541 -0.5848
 8830SOL    HW138123   2.237   0.114   8.333  1.0949 -1.9379 -1.3356
 8830SOL    HW238124   2.369   0.155   8.297 -0.5548 -1.7104 -1.1291
 8831SOL     OW38125   2.887   1.862  12.580 -0.8381 -0.2378  0.1754
 8831SOL    HW138126   2.884   1.856  12.675 -0.2560 -1.2907  0.1284
 8831SOL    HW238127   2.931   1.945  12.560 -0.8035 -0.5943 -1.2606
 8832SOL     OW38128   1.850   3.003  13.287  0.1751 -0.1742  0.2910
 8832SOL    HW138129   1.863   2.985  13.380  1.1230 -1.2715 -0.0608
 8832SOL    HW238130   1.936   3.036  13.261 -0.1321 -0.3340 -0.9289
 8833SOL     OW38131   0.870   3.002   6.979  0.0016  0.4634 -0.3363
 8833SOL    HW138132   0.927   2.962   7.045 -2.3847  0.0102  1.4279
 8833SOL    HW238133   0.784   2.969   7.003  0.4740  0.1750  0.9274
 8834SOL     OW38134   3.549   4.013  17.697 -0.2731 -1.0244  0.1011
 8834SOL    HW138135   3.531   3.922  17.720  0.0037 -1.1295 -0.1022
 8834SOL    HW238136   3.644   4.007  17.692 -0.0729  0.8395  1.9294
 8835SOL     OW38137   1.713   0.483   3.688  0.3320 -0.0867 -0.0799
 8835SOL    HW138138   1.734   0.532   3.609  2.1958  1.8864  1.6466
 8835SOL    HW238139   1.619   0.504   3.682  0.6003  1.0090 -0.4204
 8836SOL     OW38140   3.816   2.085   4.634 -0.1353 -0.3517  0.0456
 8836SOL    HW138141   3.804   2.106   4.541  1.3998  0.6037  0.0717
 8836SOL    HW238142   3.846   2.167   4.672 -2.3052  0.0238  0.9838
 8837SOL     OW38143   2.807   2.442   2.712  0.1301  0.3784  0.0007
 8837SOL    HW138144   2.846   2.360   2.682 -3.2914 -1.8019  1.4222
 8837SOL    HW238145   2.770   2.420   2.797  0.5048 -2.0489 -0.4808
 8838SOL     OW38146   4.076   3.396   8.566 -0.2136  0.8725 -0.1957
 8838SOL    HW138147   4.067   3.331   8.496  1.6598 -0.1780  0.5189
 8838SOL    HW238148   4.139   3.448   8.516 -1.0336  1.5714 -0.4829
 8839SOL     OW38149   1.146   3.568   0.880  1.0236  0.2588  0.7103
 8839SOL    HW138150   1.181   3.654   0.903  1.2563  0.1905  0.6049
 8839SOL    HW238151   1.146   3.528   0.967 -0.1064 -2.1084 -0.3870
 8840SOL     OW38152   4.493   4.548   8.601  0.2580 -0.4239  0.6915
 8840SOL    HW138153   4.449   4.503   8.528  2.3528  0.5275 -1.1681
 8840SOL    HW238154   4.493   4.629   8.550  0.6413 -0.6236  0.3694
 8841SOL     OW38155   0.698   2.706   9.289 -0.2188  0.0567 -0.3271
 8841SOL    HW138156   0.660   2.619   9.295  0.7295 -0.0780  3.6170
 8841SOL    HW238157   0.616   2.752   9.273 -0.2851  0.0862  0.0845
 8842SOL     OW38158   4.247   2.970   9.136  0.0607 -0.1488 -0.0878
 8842SOL    HW138159   4.178   2.944   9.076 -1.5277  1.2523  1.1462
 8842SOL    HW238160   4.202   2.991   9.218 -0.5777 -1.4037 -0.1203
 8843SOL     OW38161   0.028   0.581   3.467 -0.4323  0.7958 -0.3854
 8843SOL    HW138162   4.695   0.544   3.413 -1.0102 -1.0183  1.5818
 8843SOL    HW238163   4.705   0.651   3.492  0.8898  1.1001  1.9688
 8844SOL     OW38164   3.403   2.863  15.845 -0.1354 -0.2348 -0.4107
 8844SOL    HW138165   3.456   2.929  15.800  1.2946 -0.3714  1.1035
 8844SOL    HW238166   3.406   2.895  15.935  1.8320 -3.2514  0.6048
 8845SOL     OW38167   2.200   2.299   8.831 -0.6015  0.8041  0.3248
 8845SOL    HW138168   2.176   2.207   8.820 -1.2247  1.1422 -1.1813
 8845SOL    HW238169   2.245   2.300   8.915 -2.1556  1.0356  1.1614
 8846SOL     OW38170   4.370   3.886   8.219 -0.1436 -0.6725 -0.2120
 8846SOL    HW138171   4.345   3.796   8.237 -1.3393  0.0924  1.9016
 8846SOL    HW238172   4.346   3.924   8.303 -0.2423 -1.5368  0.1524
 8847SOL     OW38173   4.226   4.084  16.751 -0.4713 -0.3233 -0.3639
 8847SOL    HW138174   4.199   4.139  16.677 -1.0825  2.2701  1.7887
 8847SOL    HW238175   4.307   4.132  16.767 -1.2400  0.8107  0.1150
 8848SOL     OW38176   2.138   0.642  14.218 -0.3299  0.2330 -0.2217
 8848SOL    HW138177   2.199   0.680  14.282 -1.2657 -1.8208  1.8698
 8848SOL    HW238178   2.082   0.718  14.204 -1.2512 -0.4594 -0.2892
 8849SOL     OW38179   4.296   4.294  14.137  0.0522  0.4794  0.2540
 8849SOL    HW138180   4.357   4.222  14.123 -1.5345 -0.7099 -0.4903
 8849SOL    HW238181   4.244   4.271  14.215 -0.9256  1.4093 -0.1255
 8850SOL     OW38182   3.201   0.183   5.400 -0.0386  0.5828  0.0166
 8850SOL    HW138183   3.169   0.157   5.487 -0.6827  0.3357 -0.2988
 8850SOL    HW238184   3.277   0.230   5.434  1.4007 -1.0088 -0.9872
 8851SOL     OW38185   3.617   1.094  11.690  0.3312  0.4364 -0.5609
 8851SOL    HW138186   3.651   1.163  11.747  0.7031  0.2149 -0.5218
 8851SOL    HW238187   3.584   1.025  11.748  1.9537  0.7705  0.7428
 8852SOL     OW38188   0.651   0.759  14.984  0.5020  0.0681  0.0669
 8852SOL    HW138189   0.701   0.680  15.006 -1.1959 -1.1173 -0.3860
 8852SOL    HW238190   0.657   0.808  15.066 -1.3721  0.7968 -0.2308
 8853SOL     OW38191   1.304   2.991   1.700  0.1805  0.4164 -0.2231
 8853SOL    HW138192   1.351   3.058   1.749  1.4699  0.4489 -1.5065
 8853SOL    HW238193   1.235   3.039   1.653 -1.4625 -1.3721  0.3478
 8854SOL     OW38194   3.002   4.711  11.162  0.1723  0.5285  0.6800
 8854SOL    HW138195   2.979   0.050  11.216 -2.1259  0.1196  0.2771
 8854SOL    HW238196   2.922   4.659  11.169 -0.8119  1.8586 -0.6984
 8855SOL     OW38197   1.207   1.583   1.486 -0.3360  0.0366  0.2427
 8855SOL    HW138198   1.152   1.562   1.410  0.8744 -0.0095 -0.6291
 8855SOL    HW238199   1.148   1.554   1.556  1.4087 -1.0093  1.2827
 8856SOL     OW38200   0.218   2.627   8.879  0.2811  0.3317 -0.2815
 8856SOL    HW138201   0.155   2.623   8.807 -1.8320 -0.0238  1.5915
 8856SOL    HW238202   0.174   2.563   8.936  2.0487  1.4464  2.3185
 8857SOL     OW38203   1.520   2.578  15.769 -0.0314 -0.1662  0.8841
 8857SOL    HW138204   1.549   2.536  15.688 -0.7460 -0.8205  0.9685
 8857SOL    HW238205   1.435   2.537  15.784 -0.6386  0.8177  0.1571
 8858SOL     OW38206   0.002   1.912   6.229 -0.1764  0.7285  0.2866
 8858SOL    HW138207   0.044   1.832   6.199 -1.5416 -0.9770  3.0110
 8858SOL    HW238208   0.053   1.932   6.307 -0.9987  3.2251  0.1940
 8859SOL     OW38209   4.186   3.482   7.078 -0.2612  0.1111  0.0960
 8859SOL    HW138210   4.134   3.542   7.134  1.6678  0.8221  1.1279
 8859SOL    HW238211   4.244   3.441   7.143  1.7337 -0.0546 -1.8169
 8860SOL     OW38212   2.265   0.221   9.849 -0.1282  0.6279 -0.1492
 8860SOL    HW138213   2.265   0.214   9.753 -3.4191 -2.7290  0.1174
 8860SOL    HW238214   2.359   0.213   9.866 -0.1712  0.6138  0.0848
 8861SOL     OW38215   0.724   0.849   6.057 -0.8288  0.0347 -0.4273
 8861SOL    HW138216   0.724   0.764   6.100  1.5575  0.3507  0.1963
 8861SOL    HW238217   0.751   0.906   6.130  0.8580 -2.3672  0.8176
 8862SOL     OW38218   2.493   2.941   4.815  0.5826 -0.7605  0.2859
 8862SOL    HW138219   2.421   2.987   4.858  0.5812  0.6557 -1.2510
 8862SOL    HW238220   2.535   2.907   4.895 -0.5478 -0.6497  0.9232
 8863SOL     OW38221   0.664   4.394   8.465 -0.3544  0.4311 -0.0631
 8863SOL    HW138222   0.663   4.441   8.381  1.5456  1.3172  0.4246
 8863SOL    HW238223   0.676   4.305   8.430  1.6733  1.3027 -1.5207
 8864SOL     OW38224   0.467   4.025   8.655 -0.3543  0.3519 -0.2674
 8864SOL    HW138225   0.478   4.021   8.560 -0.0253  1.1552 -0.2700
 8864SOL    HW238226   0.391   4.081   8.672 -0.8643 -0.1865 -0.7830
 8865SOL     OW38227   4.428   3.240   3.040 -0.5629  0.4809 -0.2128
 8865SOL    HW138228   4.401   3.223   2.950  1.3071  0.8746 -0.8441
 8865SOL    HW238229   4.357   3.189   3.081  1.6288 -4.0976 -2.1230
 8866SOL     OW38230   3.140   2.987   7.990  0.2637 -0.5702  0.0613
 8866SOL    HW138231   3.226   2.949   8.009  0.4416  0.3163  0.9947
 8866SOL    HW238232   3.090   2.918   8.034 -1.4875 -1.2063 -2.9028
 8867SOL     OW38233   3.241   3.207   7.243 -0.0831  0.5841  0.2580
 8867SOL    HW138234   3.266   3.198   7.151  1.5589  0.9184  0.6718
 8867SOL    HW238235   3.214   3.116   7.260  1.6908 -0.3670 -2.0099
 8868SOL     OW38236   1.888   1.208   6.831 -0.0371 -0.0423  0.7258
 8868SOL    HW138237   1.886   1.206   6.926  2.7368 -3.0006  0.7015
 8868SOL    HW238238   1.970   1.160   6.819 -0.6811 -0.6705 -1.1886
 8869SOL     OW38239   4.291   1.540   7.763 -0.1877  0.1265  0.6135
 8869SOL    HW138240   4.273   1.612   7.824 -0.7626  1.3114 -0.9488
 8869SOL    HW238241   4.338   1.477   7.817 -1.9903 -1.1314  0.7261
 8870SOL     OW38242   0.397   1.602   0.499 -0.2080 -0.1412 -0.4134
 8870SOL    HW138243   0.312   1.609   0.543  0.8262 -0.8301  1.7146
 8870SOL    HW238244   0.356   1.632   0.418 -1.1477  2.9310  1.1638
 8871SOL     OW38245   0.153   1.890   2.432  0.3116  0.0277  0.1541
 8871SOL    HW138246   0.089   1.884   2.360 -1.7186 -1.0899  2.0708
 8871SOL    HW238247   0.103   1.956   2.481 -0.1892 -0.9598  0.9681
 8872SOL     OW38248   2.614   2.130   1.963 -0.1880  0.1961 -0.3932
 8872SOL    HW138249   2.541   2.158   2.018 -1.9054 -3.4867 -0.7639
 8872SOL    HW238250   2.667   2.209   1.962  0.9018 -0.5287  0.5437
 8873SOL     OW38251   0.692   3.248   6.357 -0.4085  0.0230 -0.2138
 8873SOL    HW138252   0.765   3.288   6.404 -1.3474  2.1489 -0.5587
 8873SOL    HW238253   0.659   3.320   6.303 -0.0390  0.7274  0.4989
 8874SOL     OW38254   0.689   4.192   8.757 -0.9228 -0.1543  0.4862
 8874SOL    HW138255   0.627   4.119   8.744 -2.6278  1.3136  0.3358
 8874SOL    HW238256   0.667   4.242   8.678 -0.9604 -0.5031  0.2725
 8875SOL     OW38257   2.930   1.277   2.129  0.6059  0.1664  0.4466
 8875SOL    HW138258   2.887   1.228   2.199 -0.7167 -0.7690 -1.0297
 8875SOL    HW238259   2.867   1.258   2.060  1.0817  3.9766 -1.0293
 8876SOL     OW38260   1.799   2.636   9.142 -0.7782 -0.5631  0.0418
 8876SOL    HW138261   1.773   2.547   9.168 -0.0780 -0.8398 -0.1953
 8876SOL    HW238262   1.878   2.611   9.094  0.8579  0.8240  2.0648
 8877SOL     OW38263   1.739   0.984  13.948 -0.0179  0.1206  0.0293
 8877SOL    HW138264   1.750   1.055  14.011  0.2094  0.1739 -0.0714
 8877SOL    HW238265   1.725   0.913  14.011 -1.3041  1.7199  1.5351
 8878SOL     OW38266   2.561   2.164   2.272 -0.1918  0.7672 -0.1896
 8878SOL    HW138267   2.485   2.190   2.325 -0.3031 -1.1837  0.5906
 8878SOL    HW238268   2.562   2.069   2.270  1.1587  0.7826 -0.1744
 8879SOL     OW38269   2.404   1.085  12.492 -0.2190  0.4174  0.5601
 8879SOL    HW138270   2.366   1.126  12.569  3.5060  0.2957  2.4929
 8879SOL    HW238271   2.450   1.017  12.542  0.3449  1.9322  2.0752
 8880SOL     OW38272   0.706   1.745   9.865  0.1615  0.0214 -0.6236
 8880SOL    HW138273   0.765   1.761   9.938  0.0546 -0.4069 -0.4412
 8880SOL    HW238274   0.752   1.749   9.782 -0.3021 -0.8645 -0.9262
 8881SOL     OW38275   3.742   1.625   3.478  0.9487 -0.1967  0.5446
 8881SOL    HW138276   3.659   1.673   3.477  0.5123 -0.9697 -0.5341
 8881SOL    HW238277   3.710   1.538   3.503  1.0242 -0.0317  1.2266
 8882SOL     OW38278   3.237   2.773   6.527 -0.0005 -0.1738  0.1656
 8882SOL    HW138279   3.198   2.833   6.591 -1.6041 -1.2570  0.1841
 8882SOL    HW238280   3.236   2.697   6.586  1.0075 -1.1016 -1.0299
 8883SOL     OW38281   1.316   3.922   0.578  0.0090  0.3892  0.4657
 8883SOL    HW138282   1.230   3.945   0.543 -0.9283 -0.2472  2.3654
 8883SOL    HW238283   1.351   3.891   0.494  0.8898  0.3614  0.8429
 8884SOL     OW38284   2.359   2.877   7.323 -0.1415  0.5125  0.3935
 8884SOL    HW138285   2.325   2.960   7.357  2.1004  0.0665  3.7657
 8884SOL    HW238286   2.364   2.810   7.392 -0.2236 -1.0720 -1.1233
 8885SOL     OW38287   1.814   1.345   3.757 -0.3334  0.3076  0.0772
 8885SOL    HW138288   1.811   1.424   3.703 -1.6570  0.3612  0.2335
 8885SOL    HW238289   1.766   1.379   3.833 -0.6168  1.4917 -0.6211
 8886SOL     OW38290   2.834   4.632   3.584 -0.2100  0.3103  0.1029
 8886SOL    HW138291   2.805   4.561   3.642 -0.0894  0.0300 -0.1783
 8886SOL    HW238292   2.913   4.596   3.542  0.7311 -1.7592  3.6603
 8887SOL     OW38293   1.351   1.368   2.573  0.2636  0.1855  0.1940
 8887SOL    HW138294   1.437   1.370   2.533  0.6020 -0.0077  0.9102
 8887SOL    HW238295   1.354   1.424   2.650  4.3975  1.1937 -0.6909
 8888SOL     OW38296   3.396   3.168   5.374  0.3636 -0.2273 -0.0433
 8888SOL    HW138297   3.375   3.074   5.373 -0.5961 -0.0021 -1.2486
 8888SOL    HW238298   3.389   3.190   5.281  0.4452 -0.0504 -0.0075
 8889SOL     OW38299   4.464   2.171   4.169  0.5224 -0.2455  0.4061
 8889SOL    HW138300   4.390   2.188   4.227  1.4989  0.0576  1.5500
 8889SOL    HW238301   4.534   2.209   4.222 -0.1795 -0.6251  1.5840
 8890SOL     OW38302   0.596   1.895   6.782  0.6719 -0.8380 -0.3240
 8890SOL    HW138303   0.613   1.885   6.688 -0.4872  0.4212 -0.6613
 8890SOL    HW238304   0.515   1.845   6.783 -0.0006  0.2827  0.4518
 8891SOL     OW38305   1.004   4.395  16.641  0.5105  0.1478  0.1954
 8891SOL    HW138306   1.040   4.317  16.683  0.3394  0.0331  0.1248
 8891SOL    HW238307   1.078   4.421  16.586 -2.3119  2.0137 -2.7052
 8892SOL     OW38308   2.197   4.022   3.833 -0.5220 -0.8207 -0.1468
 8892SOL    HW138309   2.275   3.969   3.818 -0.2992  0.1198 -2.3756
 8892SOL    HW238310   2.209   4.037   3.926  0.6286  0.2004 -0.4734
 8893SOL     OW38311   2.284   0.675   2.231 -0.3101  0.7558 -0.3408
 8893SOL    HW138312   2.195   0.665   2.264 -0.9230  1.0784 -1.9431
 8893SOL    HW238313   2.307   0.585   2.205  2.6490  1.4267 -0.0483
 8894SOL     OW38314   2.722   1.987   5.888  0.0525 -0.9923  0.1979
 8894SOL    HW138315   2.632   1.979   5.857 -0.4032 -1.1700  1.5810
 8894SOL    HW238316   2.743   2.051   5.820 -0.2468  1.7167  2.6205
 8895SOL     OW38317   1.128   2.143   7.203  0.2926 -0.2386 -0.2210
 8895SOL    HW138318   1.137   2.222   7.257  2.8110 -0.0488 -0.9164
 8895SOL    HW238319   1.074   2.093   7.264 -0.8696  0.9548 -0.2591
 8896SOL     OW38320   3.259   0.649   2.377  0.4964 -0.2392 -1.3870
 8896SOL    HW138321   3.241   0.694   2.295  0.1526  0.6961 -0.7973
 8896SOL    HW238322   3.346   0.611   2.362  0.6118  0.7659 -3.1533
 8897SOL     OW38323   1.534   3.599  16.282  0.3102 -0.7399  0.6897
 8897SOL    HW138324   1.536   3.629  16.372 -0.4578  1.0463  0.1129
 8897SOL    HW238325   1.515   3.505  16.273  3.5765 -1.1962 -1.4258
 8898SOL     OW38326   3.390   0.237   7.120 -0.2221 -0.3316  0.2645
 8898SOL    HW138327   3.366   0.148   7.094  1.3665 -0.6933  0.0068
 8898SOL    HW238328   3.371   0.237   7.214 -1.1089 -0.3825  0.0862
 8899SOL     OW38329   4.094   4.564   7.422 -0.1806 -0.3885  0.2266
 8899SOL    HW138330   4.029   4.521   7.477 -0.3326 -1.1274 -0.5332
 8899SOL    HW238331   4.139   4.623   7.483  0.3072  0.8657 -1.3390
 8900SOL     OW38332   1.084   1.616   7.759 -0.3542  0.0046  0.2762
 8900SOL    HW138333   1.156   1.573   7.807 -0.2077  2.5337  2.3137
 8900SOL    HW238334   1.103   1.709   7.773  0.6894 -0.2725  0.6853
 8901SOL     OW38335   0.387   2.335  12.543  0.1473  0.0759 -0.5849
 8901SOL    HW138336   0.385   2.274  12.616  0.2639  1.1874  0.3589
 8901SOL    HW238337   0.478   2.364  12.549 -0.2251  1.5723 -2.1359
 8902SOL     OW38338   4.012   4.702   4.962  0.5538 -0.3410 -0.1354
 8902SOL    HW138339   4.001   0.055   4.930  0.6125  0.1680  1.2534
 8902SOL    HW238340   3.963   4.693   5.044  0.1533  1.4808 -0.1664
 8903SOL     OW38341   3.800   0.233   5.186 -0.3069 -0.2023 -0.0781
 8903SOL    HW138342   3.825   0.181   5.261 -1.7038 -0.3934  0.2451
 8903SOL    HW238343   3.881   0.282   5.172 -0.3871  0.1732  0.8279
 8904SOL     OW38344   0.528   2.619  12.602  0.0405  0.0007  0.0739
 8904SOL    HW138345   0.568   2.550  12.550  2.0538 -0.3495  2.0890
 8904SOL    HW238346   0.565   2.611  12.690  0.6963 -1.8586 -0.3746
 8905SOL     OW38347   3.362   2.486   5.317 -0.1720 -0.3620  0.2150
 8905SOL    HW138348   3.277   2.475   5.274 -0.8624  0.0643  1.4824
 8905SOL    HW238349   3.344   2.513   5.407 -0.0068 -1.1901  0.5017
 8906SOL     OW38350   0.641   1.059   8.248 -0.5293  0.1112 -0.1312
 8906SOL    HW138351   0.672   1.071   8.158 -2.2411 -1.3644 -0.9165
 8906SOL    HW238352   0.561   1.008   8.235 -1.4162  1.0762  1.6232
 8907SOL     OW38353   0.314   3.573   7.541  0.3425 -0.2154  0.1595
 8907SOL    HW138354   0.328   3.482   7.566  0.4391  0.0015  0.8835
 8907SOL    HW238355   0.256   3.601   7.612 -2.0726 -0.1323 -1.8283
 8908SOL     OW38356   4.096   0.614  10.410  0.1144  0.0399 -0.2462
 8908SOL    HW138357   4.035   0.648  10.475  0.5154 -1.7709  1.0601
 8908SOL    HW238358   4.038   0.597  10.336  0.7821 -0.0141 -0.7620
 8909SOL     OW38359   3.332   4.541   3.968 -0.5725 -0.4117 -0.1196
 8909SOL    HW138360   3.285   4.497   4.039  0.2683 -3.0334 -1.1746
 8909SOL    HW238361   3.359   4.626   4.001  0.0276 -1.3026  1.6912
 8910SOL     OW38362   2.707   2.353   3.968 -0.5727  0.3448  0.2894
 8910SOL    HW138363   2.686   2.263   3.945  3.3473 -0.2063 -1.1214
 8910SOL    HW238364   2.801   2.364   3.957 -0.6782 -0.8450 -1.7179
 8911SOL     OW38365   0.181   2.351   9.885 -0.1255  0.7977 -0.4380
 8911SOL    HW138366   0.241   2.297   9.936  0.0408  1.6165  0.2200
 8911SOL    HW238367   0.195   2.436   9.926  1.7821 -0.0480  0.6644
 8912SOL     OW38368   3.614   4.490  14.568  0.2612  0.1858  0.3494
 8912SOL    HW138369   3.521   4.512  14.576 -0.0147 -0.6372 -0.6201
 8912SOL    HW238370   3.609   4.395  14.572 -5.3542  0.4248 -0.8836
 8913SOL     OW38371   3.141   1.746   5.674  0.0677  0.2178 -0.0275
 8913SOL    HW138372   3.060   1.780   5.635  0.8761  0.0703 -1.8034
 8913SOL    HW238373   3.177   1.682   5.613 -0.0352 -0.3426  0.4982
 8914SOL     OW38374   1.654   0.047   8.145  0.6209 -0.1633 -0.1388
 8914SOL    HW138375   1.678   0.090   8.063 -2.8413  1.2270 -0.4264
 8914SOL    HW238376   1.605   4.710   8.110 -0.9479  1.1237 -0.6609
 8915SOL     OW38377   1.795   4.572   7.362  0.1527 -0.0321  0.0526
 8915SOL    HW138378   1.709   4.609   7.344  0.8137  1.8120  0.6355
 8915SOL    HW238379   1.850   4.648   7.345 -1.5299  1.2347  0.2970
 8916SOL     OW38380   1.264   1.086   7.488  0.1628 -0.1864  0.1343
 8916SOL    HW138381   1.221   1.002   7.473 -0.9925  0.1955  1.2957
 8916SOL    HW238382   1.356   1.066   7.471  0.2801 -1.3902  2.3054
 8917SOL     OW38383   1.375   0.615   8.526  0.1291 -0.0094 -0.2729
 8917SOL    HW138384   1.338   0.698   8.558  0.0349 -0.6930  1.4184
 8917SOL    HW238385   1.408   0.645   8.442  0.6947 -1.6498 -0.6335
 8918SOL     OW38386   3.587   2.336   5.220 -0.2762  0.1042  0.1007
 8918SOL    HW138387   3.644   2.354   5.295 -0.7030 -1.1117  0.7171
 8918SOL    HW238388   3.512   2.387   5.249 -0.1836 -0.7077  1.7832
 8919SOL     OW38389   1.607   0.522   6.892  0.2084 -0.2009  0.6837
 8919SOL    HW138390   1.511   0.525   6.888  0.1224 -0.7135  2.4928
 8919SOL    HW238391   1.611   0.556   6.981 -1.5811  1.8116 -0.0068
 8920SOL     OW38392   4.015   3.436  15.007  0.7055 -0.1793  0.5564
 8920SOL    HW138393   4.033   3.342  15.003 -0.8143 -0.4031 -1.4680
 8920SOL    HW238394   3.954   3.430  14.933  0.3568  1.5117  0.7170
 8921SOL     OW38395   3.204   4.532   2.019  0.2578  0.2192 -0.0018
 8921SOL    HW138396   3.195   4.590   2.094  0.1669 -1.7495  1.5138
 8921SOL    HW238397   3.118   4.547   1.981  0.1478  0.2617  0.2670
 8922SOL     OW38398   1.640   0.554   4.318  0.0986  0.5365  0.0771
 8922SOL    HW138399   1.573   0.557   4.387  0.0839  1.0170  0.0398
 8922SOL    HW238400   1.722   0.573   4.363 -0.0824  1.9575 -0.2243
 8923SOL     OW38401   1.201   3.438  12.587  0.0067  0.1467 -0.2833
 8923SOL    HW138402   1.226   3.362  12.533  0.6132  0.8289 -0.9654
 8923SOL    HW238403   1.167   3.498  12.521  0.0180 -0.1812 -0.5908
 8924SOL     OW38404   4.473   0.276   3.536  0.2556 -0.1713  0.0056
 8924SOL    HW138405   4.472   0.301   3.443 -0.6249  3.4680  0.9763
 8924SOL    HW238406   4.434   0.360   3.562 -1.3410 -0.9867  0.2044
 8925SOL     OW38407   0.757   0.228  16.553  0.5835 -0.0199 -0.1638
 8925SOL    HW138408   0.837   0.279  16.566  1.0942 -1.1984  1.3918
 8925SOL    HW238409   0.753   0.225  16.458 -1.2319 -1.8378 -0.0342
 8926SOL     OW38410   0.802   1.594   6.256 -0.2354 -0.1284 -0.5145
 8926SOL    HW138411   0.747   1.526   6.295  0.9023 -1.3757 -1.1035
 8926SOL    HW238412   0.890   1.561   6.275 -0.8223 -0.2634  1.9812
 8927SOL     OW38413   1.868   0.376  17.341 -0.2082  0.2907  0.0744
 8927SOL    HW138414   1.883   0.327  17.260 -1.1985 -0.1905  0.1811
 8927SOL    HW238415   1.904   0.459  17.309  0.4068 -0.1621 -0.4220
 8928SOL     OW38416   0.218   1.697   4.689  0.0297  0.6532 -0.0386
 8928SOL    HW138417   0.250   1.648   4.613 -1.2825  2.3922 -1.7087
 8928SOL    HW238418   0.272   1.671   4.763 -0.5888  0.7359  0.4421
 8929SOL     OW38419   4.622   2.322  10.614  0.5235  0.4844 -0.1487
 8929SOL    HW138420   4.644   2.414  10.599  4.1306 -0.5327 -0.9456
 8929SOL    HW238421   4.639   2.308  10.707 -3.0192 -0.6190  0.3442
 8930SOL     OW38422   0.568   2.978   7.674  0.6847  0.0368  0.1853
 8930SOL    HW138423   0.572   2.981   7.769 -1.0016  4.1942  0.1103
 8930SOL    HW238424   0.505   2.906   7.665 -0.6781  1.0149  2.0046
 8931SOL     OW38425   2.515   4.253  15.895  0.5445 -0.1322  0.5432
 8931SOL    HW138426   2.443   4.313  15.914 -1.1787 -2.3036  0.9060
 8931SOL    HW238427   2.520   4.270  15.801  0.8899  2.9307  1.1357
 8932SOL     OW38428   3.193   1.797   2.513 -0.4681 -0.1629  0.0417
 8932SOL    HW138429   3.182   1.721   2.455 -0.5523 -0.4649  0.4501
 8932SOL    HW238430   3.287   1.796   2.529 -0.1950  2.1557 -1.4563
 8933SOL     OW38431   2.532   4.494   2.694 -0.3989 -0.1564 -0.1057
 8933SOL    HW138432   2.485   4.412   2.706 -1.1077 -0.1098 -2.4901
 8933SOL    HW238433   2.624   4.469   2.690 -0.9376 -2.2655  0.7859
 8934SOL     OW38434   1.835   1.184   4.667 -0.2414  0.7893 -0.6011
 8934SOL    HW138435   1.828   1.136   4.584 -0.4670  1.9837 -1.2630
 8934SOL    HW238436   1.883   1.260   4.636  0.2395  1.4499  1.7820
 8935SOL     OW38437   3.955   4.145   2.004 -0.2642  0.0073 -0.4976
 8935SOL    HW138438   3.929   4.180   1.919  1.6032 -1.2425 -1.5867
 8935SOL    HW238439   3.886   4.085   2.032 -0.7850  0.3231 -1.0867
 8936SOL     OW38440   1.905   3.079  15.026 -0.0280 -0.0362  0.1191
 8936SOL    HW138441   1.962   3.104  15.098  5.3813 -0.4363 -4.0345
 8936SOL    HW238442   1.820   3.105  15.062  0.6504  1.5336  0.5790
 8937SOL     OW38443   4.513   3.118   1.344 -0.4566  0.0376 -0.4581
 8937SOL    HW138444   4.563   3.136   1.423  0.6344 -4.0892 -0.2325
 8937SOL    HW238445   4.435   3.170   1.366  1.1760  2.2632  0.1004
 8938SOL     OW38446   0.181   2.956  15.333  0.0454  0.3886  0.1266
 8938SOL    HW138447   0.179   2.898  15.257  1.0180 -1.0318  1.1864
 8938SOL    HW238448   0.133   3.034  15.307  1.7009  1.5054  0.4803
 8939SOL     OW38449   2.616   3.628  12.365  0.1952  0.3511 -0.6681
 8939SOL    HW138450   2.594   3.630  12.458  3.2018 -3.2294  0.1375
 8939SOL    HW238451   2.655   3.716  12.368 -0.3912  0.5811  0.2260
 8940SOL     OW38452   2.146   3.527   7.501 -0.5057 -0.7740 -0.6228
 8940SOL    HW138453   2.086   3.535   7.576 -1.0515  1.1875 -1.2862
 8940SOL    HW238454   2.082   3.530   7.430 -1.9395 -0.0618  0.7032
 8941SOL     OW38455   3.073   1.386   6.396 -0.0054  0.2453  0.6014
 8941SOL    HW138456   2.998   1.445   6.403  0.0399  0.6529 -2.2230
 8941SOL    HW238457   3.142   1.452   6.390 -0.0952  0.0094 -3.1295
 8942SOL     OW38458   3.298   0.484   4.455  1.2640  0.1653  0.4033
 8942SOL    HW138459   3.324   0.568   4.494  1.7316  0.5361 -0.7068
 8942SOL    HW238460   3.281   0.429   4.532 -0.7524 -0.2616 -0.3441
 8943SOL     OW38461   2.529   3.945   4.721  0.5878 -0.6471 -0.8493
 8943SOL    HW138462   2.448   3.925   4.767  1.8202 -0.4599  1.4179
 8943SOL    HW238463   2.507   3.885   4.649  0.9714 -0.4153 -1.1627
 8944SOL     OW38464   0.160   0.008   3.297 -0.1086  0.3365  0.7934
 8944SOL    HW138465   0.128   4.689   3.226 -0.7169  1.2019  0.3838
 8944SOL    HW238466   0.089   4.718   3.356 -2.2612  0.9680 -1.4875
 8945SOL     OW38467   2.412   1.418   5.065  0.1209 -0.2993 -0.1416
 8945SOL    HW138468   2.360   1.379   4.994 -0.2607  1.0977 -0.6134
 8945SOL    HW238469   2.483   1.452   5.011  0.8262 -1.9303 -0.2648
 8946SOL     OW38470   2.141   4.014   2.747  0.0080  0.0566 -0.1630
 8946SOL    HW138471   2.233   3.991   2.744 -0.1540 -0.4162 -1.5426
 8946SOL    HW238472   2.117   4.001   2.655 -0.5083  0.6390 -0.1140
 8947SOL     OW38473   3.637   4.579   6.077 -0.5413  0.3482  0.6145
 8947SOL    HW138474   3.567   4.516   6.094 -0.6732  1.0098  2.5070
 8947SOL    HW238475   3.592   4.635   6.014 -1.1808 -1.3943 -0.4802
 8948SOL     OW38476   3.632   3.510   0.253  0.3334  0.2223 -0.2737
 8948SOL    HW138477   3.636   3.600   0.219 -1.6647  0.2823 -0.3112
 8948SOL    HW238478   3.591   3.459   0.183  0.9230  1.3707 -1.4538
 8949SOL     OW38479   0.223   4.565   3.842 -0.4325 -0.1569 -0.2785
 8949SOL    HW138480   0.251   4.555   3.933  0.6431  3.0862 -0.2662
 8949SOL    HW238481   0.217   4.659   3.826  1.4423  0.0644  0.3212
 8950SOL     OW38482   0.049   1.238   8.631 -0.0470 -0.5889  0.3995
 8950SOL    HW138483   0.052   1.285   8.714  1.6851 -2.3816  1.3535
 8950SOL    HW238484   4.724   1.167   8.649  1.4832 -1.9359  0.3838
 8951SOL     OW38485   3.808   4.170   8.092 -0.0710  0.1728 -0.1776
 8951SOL    HW138486   3.757   4.243   8.127 -0.6978 -0.7982  0.9609
 8951SOL    HW238487   3.846   4.128   8.170 -0.7440 -0.4868 -0.2090
 8952SOL     OW38488   3.726   2.585   2.355  0.1737  0.3131  0.1886
 8952SOL    HW138489   3.632   2.567   2.353  0.1264  0.4247  1.3688
 8952SOL    HW238490   3.731   2.672   2.315 -1.4807 -0.4326 -1.5888
 8953SOL     OW38491   1.368   2.972   3.520 -0.3762  0.6146  0.5406
 8953SOL    HW138492   1.403   2.897   3.473  0.0427  0.4490  1.1191
 8953SOL    HW238493   1.351   2.923   3.600 -0.3247 -3.1165 -1.7375
 8954SOL     OW38494   3.628   2.905   6.652  0.1535  0.5350 -0.0521
 8954SOL    HW138495   3.613   2.830   6.711 -1.2855  0.2841 -0.7527
 8954SOL    HW238496   3.633   2.858   6.569  1.4666 -0.9611  0.8650
 8955SOL     OW38497   1.587   1.834  13.168  0.1891  0.1458 -0.0829
 8955SOL    HW138498   1.604   1.913  13.116 -0.4078  0.1451 -0.2821
 8955SOL    HW238499   1.656   1.771  13.150 -1.4012 -1.9083  1.0154
 8956SOL     OW38500   3.076   1.596   7.698 -0.5440  0.2198  0.0322
 8956SOL    HW138501   2.981   1.589   7.702 -0.5580 -0.1313 -1.1951
 8956SOL    HW238502   3.095   1.507   7.669  2.1930  0.5365  0.7921
 8957SOL     OW38503   0.379   0.180   4.658 -0.0145  0.4734  0.0217
 8957SOL    HW138504   0.386   0.095   4.615  0.9202  0.8892 -0.6549
 8957SOL    HW238505   0.294   0.173   4.701  0.4870 -0.4330  0.8494
 8958SOL     OW38506   1.884   2.304   4.920  0.1424 -0.0469 -0.1669
 8958SOL    HW138507   1.865   2.258   4.838 -2.3071 -1.1661  1.0521
 8958SOL    HW238508   1.917   2.387   4.885 -0.4825  0.7588  1.1708
 8959SOL     OW38509   1.161   1.411   4.756  0.2423 -0.2382  0.4595
 8959SOL    HW138510   1.222   1.353   4.710  0.3895  0.5779 -0.3883
 8959SOL    HW238511   1.193   1.413   4.846  0.6548  0.0957  0.3084
 8960SOL     OW38512   2.455   1.951   5.765  0.1102  0.0067  0.2183
 8960SOL    HW138513   2.413   2.037   5.767 -2.4949 -1.2754  0.3258
 8960SOL    HW238514   2.403   1.902   5.829 -0.5805  0.4708  0.0118
 8961SOL     OW38515   0.539   3.235   7.035  0.2041 -0.0703 -0.4518
 8961SOL    HW138516   0.622   3.284   7.034 -0.1440  0.5309 -0.1293
 8961SOL    HW238517   0.474   3.306   7.037  0.2428 -0.0577  0.2930
 8962SOL     OW38518   4.311   0.786  13.777 -0.7799  0.2390 -0.0027
 8962SOL    HW138519   4.376   0.802  13.845 -0.2942 -0.0739 -0.3906
 8962SOL    HW238520   4.238   0.834  13.816 -1.4740 -1.1260  0.3938
 8963SOL     OW38521   1.996   0.002   0.868  0.3712  0.7619  0.2087
 8963SOL    HW138522   1.922   0.060   0.850  0.7157  1.0756 -0.1806
 8963SOL    HW238523   1.968   4.708   0.955 -1.4155 -0.8222 -0.9159
 8964SOL     OW38524   3.802   4.181  14.444 -0.7094 -0.3473  0.3177
 8964SOL    HW138525   3.811   4.209  14.353 -3.1987 -3.9008 -1.0020
 8964SOL    HW238526   3.708   4.179  14.464 -0.5057  1.8832  1.4491
 8965SOL     OW38527   2.614   3.908   8.558 -0.0017  0.0435  0.3680
 8965SOL    HW138528   2.555   3.983   8.553  0.6426  0.4685 -0.7179
 8965SOL    HW238529   2.546   3.841   8.567 -0.7065  0.4335 -2.1711
 8966SOL     OW38530   1.255   3.275   9.750 -0.0078 -0.1567  0.1417
 8966SOL    HW138531   1.337   3.324   9.758 -0.0951  0.3806 -2.2644
 8966SOL    HW238532   1.190   3.332   9.711  1.4752  1.4704  0.0497
 8967SOL     OW38533   2.035   1.970   3.843 -0.8403  0.3597  0.1786
 8967SOL    HW138534   1.989   2.010   3.769 -0.4124 -0.9859 -0.8133
 8967SOL    HW238535   2.120   1.954   3.802 -2.0786  0.7349 -2.5444
 8968SOL     OW38536   4.001   3.964   4.664 -0.0985 -0.0934 -0.0253
 8968SOL    HW138537   4.079   3.909   4.672 -1.1263 -1.0092  3.4797
 8968SOL    HW238538   3.957   3.946   4.747  2.0797  2.3459  1.6624
 8969SOL     OW38539   3.242   2.294  12.224 -0.1146  0.3556 -0.2694
 8969SOL    HW138540   3.313   2.339  12.178 -0.7467  0.7991 -0.7933
 8969SOL    HW238541   3.173   2.360  12.225 -1.6384 -1.2388  2.1522
 8970SOL     OW38542   0.794   3.923  14.702  0.4693  0.2964  0.5090
 8970SOL    HW138543   0.794   4.015  14.726  5.6715  0.5381 -0.3758
 8970SOL    HW238544   0.830   3.877  14.778 -0.6441  0.5222  1.1692
 8971SOL     OW38545   2.493   0.229   4.354 -0.0993  0.5629  0.3377
 8971SOL    HW138546   2.520   0.303   4.409 -0.6537  0.9386  0.1055
 8971SOL    HW238547   2.528   0.257   4.270  1.1795  0.7393  0.9177
 8972SOL     OW38548   2.382   3.535   6.431 -0.1100  0.2350 -0.2944
 8972SOL    HW138549   2.314   3.592   6.395 -0.6928  0.9401  1.9187
 8972SOL    HW238550   2.348   3.450   6.403  0.7980 -0.0677 -0.4837
 8973SOL     OW38551   0.266   4.368   7.283 -0.1201 -0.6249  0.0121
 8973SOL    HW138552   0.235   4.429   7.349  0.8153  2.1221 -2.0539
 8973SOL    HW238553   0.360   4.363   7.302  0.0445  2.2315 -0.0389
 8974SOL     OW38554   3.015   3.381   8.243 -0.4390  0.2077 -0.3022
 8974SOL    HW138555   3.074   3.308   8.226  0.1174  0.7373 -0.6561
 8974SOL    HW238556   3.054   3.464   8.215 -1.5664 -0.1546 -2.9032
 8975SOL     OW38557   0.753   1.983   8.512  0.2866  0.2871 -0.0408
 8975SOL    HW138558   0.789   1.939   8.435  0.1135 -1.4107  0.8332
 8975SOL    HW238559   0.831   1.984   8.568  1.3482  0.4292 -1.5453
 8976SOL     OW38560   3.279   2.920  16.555  0.2935 -0.1840  0.5929
 8976SOL    HW138561   3.276   2.943  16.648 -0.1071  2.6467 -0.1175
 8976SOL    HW238562   3.255   2.999  16.507  1.0708 -0.1538  0.2623
 8977SOL     OW38563   4.204   4.634   7.665 -0.2338  0.0292  0.0451
 8977SOL    HW138564   4.128   4.691   7.677  0.0530  0.2551  0.8545
 8977SOL    HW238565   4.276   4.697   7.675  0.4876 -0.6985 -0.6618
 8978SOL     OW38566   2.495   3.708   6.923  0.3482 -0.2296  0.3432
 8978SOL    HW138567   2.508   3.793   6.882 -1.4026 -1.0868 -2.0286
 8978SOL    HW238568   2.452   3.652   6.858  2.9212 -2.2539  0.3665
 8979SOL     OW38569   3.102   2.346   5.571  0.4531 -0.7813 -0.1078
 8979SOL    HW138570   3.177   2.402   5.557  0.1398 -0.4145 -0.3283
 8979SOL    HW238571   3.038   2.417   5.564  1.4327 -0.1740 -2.6622
 8980SOL     OW38572   0.385   3.989   9.086  0.0939  0.2444  0.2058
 8980SOL    HW138573   0.333   3.958   9.159  1.9680  0.2680  1.5507
 8980SOL    HW238574   0.407   3.906   9.045  2.1487  1.2989 -0.8302
 8981SOL     OW38575   1.959   0.755   2.634  0.2693 -0.4872  0.4159
 8981SOL    HW138576   1.984   0.669   2.601  1.8978 -0.1697  0.8104
 8981SOL    HW238577   1.869   0.759   2.603 -0.1470 -1.0505  1.5661
 8982SOL     OW38578   2.549   3.784   8.005 -0.0333 -0.5743 -0.1495
 8982SOL    HW138579   2.476   3.798   7.945 -0.6717 -2.6746  0.1395
 8982SOL    HW238580   2.513   3.813   8.089 -1.4438  0.5193 -1.1377
 8983SOL     OW38581   3.179   3.054  14.084  0.2716 -0.8913  0.0513
 8983SOL    HW138582   3.229   3.129  14.051 -1.1387 -0.1705 -0.4224
 8983SOL    HW238583   3.232   2.985  14.043  0.5666 -0.5441 -0.1588
 8984SOL     OW38584   4.104   3.016   5.525 -0.0919  0.6076  0.2782
 8984SOL    HW138585   4.044   3.090   5.520  1.5441  1.9155 -0.2377
 8984SOL    HW238586   4.168   3.042   5.459 -1.4324  0.5796 -1.0190
 8985SOL     OW38587   0.383   0.558  12.046  0.2538  0.1124  0.5695
 8985SOL    HW138588   0.378   0.540  11.952 -1.9340 -0.1277  0.7404
 8985SOL    HW238589   0.472   0.525  12.060  0.2330  0.2550  1.0353
 8986SOL     OW38590   3.310   3.253   0.093  0.1190  0.0801 -0.0110
 8986SOL    HW138591   3.318   3.194   0.168 -0.7356  2.1692  1.7132
 8986SOL    HW238592   3.232   3.218   0.050  0.0922 -4.1003  3.3861
 8987SOL     OW38593   0.456   0.076   7.988  0.3294 -0.1556  0.1672
 8987SOL    HW138594   0.372   0.031   7.987 -0.0337  0.4926  1.6755
 8987SOL    HW238595   0.431   0.159   8.030  1.6040  0.1655  0.2858
 8988SOL     OW38596   2.769   0.890   5.035 -0.0590  0.1210 -0.3898
 8988SOL    HW138597   2.688   0.939   5.023 -0.8673 -0.6454  2.0359
 8988SOL    HW238598   2.828   0.964   5.051 -0.3705  0.3060 -0.0970
 8989SOL     OW38599   0.138   3.288   9.374  0.4461  0.3524  0.1525
 8989SOL    HW138600   0.190   3.211   9.352 -0.6853 -0.2416 -0.4389
 8989SOL    HW238601   0.138   3.289   9.470  0.4969  1.2632  0.1495
 8990SOL     OW38602   0.606   1.155  13.509  0.0407 -0.1052 -0.0069
 8990SOL    HW138603   0.530   1.124  13.558 -0.1405  1.2046  0.5580
 8990SOL    HW238604   0.645   1.205  13.581 -2.5970  1.6073  0.2377
 8991SOL     OW38605   2.246   2.159   6.886 -0.0081  0.2466 -0.5032
 8991SOL    HW138606   2.204   2.076   6.865 -0.3677  0.3017 -0.0123
 8991SOL    HW238607   2.231   2.201   6.801 -2.4938  0.7638  0.1919
 8992SOL     OW38608   0.316   3.158   4.758  0.0076 -0.0450  0.4376
 8992SOL    HW138609   0.281   3.226   4.701  0.0631 -1.2516 -1.0429
 8992SOL    HW238610   0.362   3.101   4.696  0.9601  0.2981  0.8126
 8993SOL     OW38611   4.579   4.026   2.785  0.5855 -0.1859  0.4135
 8993SOL    HW138612   4.587   4.087   2.859 -0.6141 -0.4281  0.7525
 8993SOL    HW238613   4.672   4.005   2.775  0.7984 -0.0106  1.9342
 8994SOL     OW38614   2.945   3.944   8.200 -0.2001  0.3902 -0.0659
 8994SOL    HW138615   2.913   3.990   8.278  1.8272 -2.8333  2.6691
 8994SOL    HW238616   2.861   3.957   8.156 -0.9326  1.5850  1.6610
 8995SOL     OW38617   2.181   3.997   8.911  0.1961 -0.2563 -0.6743
 8995SOL    HW138618   2.268   3.959   8.926 -0.3520 -0.8797  0.9452
 8995SOL    HW238619   2.205   4.089   8.902  0.9898 -0.3173  0.7255
 8996SOL     OW38620   3.682   3.143   0.886  0.2997 -0.0384  0.0852
 8996SOL    HW138621   3.653   3.092   0.810  1.1239 -1.3405  0.6314
 8996SOL    HW238622   3.607   3.200   0.902  1.0319  1.1314 -0.6689
 8997SOL     OW38623   2.142   4.216   2.484 -0.3773  1.0146  0.2895
 8997SOL    HW138624   2.188   4.145   2.439  0.4983  1.6653  0.1619
 8997SOL    HW238625   2.213   4.255   2.535  0.6201  0.0926 -0.3876
 8998SOL     OW38626   2.891   3.211   1.416 -0.4406 -0.1834 -0.8550
 8998SOL    HW138627   2.882   3.258   1.333 -1.3376  2.4051  0.7295
 8998SOL    HW238628   2.943   3.133   1.396  0.6234  0.0458  1.0952
 8999SOL     OW38629   1.144   2.988   8.015 -0.5895  0.5060  0.1995
 8999SOL    HW138630   1.061   3.012   7.974 -0.6954  0.5093  0.4186
 8999SOL    HW238631   1.197   3.047   7.961  0.5874 -2.6751 -2.1374
 9000SOL     OW38632   4.597   4.000   3.171  0.7252 -0.1564 -0.0482
 9000SOL    HW138633   4.564   3.979   3.258 -1.9189 -1.0860 -1.2784
 9000SOL    HW238634   4.642   3.916   3.158 -0.2834 -0.9272  1.3234
 9001SOL     OW38635   3.706   3.175  16.886  0.0909 -0.3478 -0.0403
 9001SOL    HW138636   3.749   3.197  16.804 -0.2989  0.3823 -0.0433
 9001SOL    HW238637   3.781   3.138  16.934 -0.6833  0.1620  1.5696
 9002SOL     OW38638   2.429   1.892   2.538 -0.4433  0.4837  0.4725
 9002SOL    HW138639   2.360   1.854   2.593 -0.3434 -2.8850 -1.7115
 9002SOL    HW238640   2.368   1.922   2.470 -0.0211 -4.2283 -1.9756
 9003SOL     OW38641   2.278   0.976   5.068 -0.5655  0.1825  0.0575
 9003SOL    HW138642   2.291   0.932   5.152 -0.1620 -0.2201 -0.2098
 9003SOL    HW238643   2.236   0.904   5.020 -0.1994 -0.1409  0.2186
 9004SOL     OW38644   2.252   0.175   3.206  0.1493  0.7779 -0.0602
 9004SOL    HW138645   2.277   0.121   3.130  0.8989  0.1536  0.6269
 9004SOL    HW238646   2.307   0.133   3.272 -0.6979 -0.5897 -0.2168
 9005SOL     OW38647   1.610   1.400   2.817 -0.1576  0.1800 -0.2125
 9005SOL    HW138648   1.682   1.426   2.759  1.1538 -0.5276  1.1165
 9005SOL    HW238649   1.623   1.308   2.841  2.0806  1.3819  3.2224
 9006SOL     OW38650   4.576   3.533   9.834  0.1741 -0.3178  0.5630
 9006SOL    HW138651   4.651   3.473   9.829  0.1682 -0.3144  0.4338
 9006SOL    HW238652   4.531   3.530   9.750  0.5205 -0.0130  0.3650
 9007SOL     OW38653   3.395   1.148   8.092  0.0002 -0.1801 -0.1939
 9007SOL    HW138654   3.373   1.082   8.027  2.2171 -0.5409 -0.5823
 9007SOL    HW238655   3.445   1.217   8.048  0.5370  0.1540  0.9276
 9008SOL     OW38656   0.452   0.682   5.081 -0.3048  0.2659 -0.3804
 9008SOL    HW138657   0.363   0.701   5.110  0.4637  2.4062  0.5728
 9008SOL    HW238658   0.446   0.589   5.059 -0.9456  0.0540  0.6875
 9009SOL     OW38659   2.351   4.556   3.545  0.3795  0.0260  0.5858
 9009SOL    HW138660   2.269   4.533   3.501  0.1660  3.5481 -0.8038
 9009SOL    HW238661   2.334   4.560   3.640 -0.2467  1.2039  0.4226
 9010SOL     OW38662   2.056   1.851   5.290 -0.5047 -0.1533 -0.4960
 9010SOL    HW138663   2.054   1.945   5.309  2.1559 -0.5088  1.4842
 9010SOL    HW238664   1.964   1.838   5.266 -0.6987  1.7531 -0.7777
 9011SOL     OW38665   2.204   0.670  15.131  0.7554 -0.6325 -0.6252
 9011SOL    HW138666   2.269   0.620  15.082  0.3677 -0.7266 -1.0435
 9011SOL    HW238667   2.257   0.739  15.171 -0.6465  0.0439  0.0816
 9012SOL     OW38668   0.646   0.041   7.039  0.0591  0.1884 -0.0884
 9012SOL    HW138669   0.728   0.049   6.991 -2.1959 -1.7362 -4.2292
 9012SOL    HW238670   0.668   4.707   7.100 -0.7564 -0.5197 -0.6229
 9013SOL     OW38671   1.616   4.270   9.118  0.0673  0.4799  0.1757
 9013SOL    HW138672   1.549   4.337   9.104  0.0354  0.9716  2.6106
 9013SOL    HW238673   1.687   4.317   9.161  1.5845 -0.5883 -1.1678
 9014SOL     OW38674   1.598   4.102   3.645 -0.2256 -0.2930 -0.3941
 9014SOL    HW138675   1.585   4.110   3.550  0.6904 -0.4457 -0.5318
 9014SOL    HW238676   1.622   4.190   3.674 -1.6754  0.2921 -0.9936
 9015SOL     OW38677   3.822   3.718  10.376 -0.1445 -0.3110  0.0667
 9015SOL    HW138678   3.777   3.794  10.413 -0.5295 -0.1588 -0.7205
 9015SOL    HW238679   3.882   3.760  10.315 -0.8023  0.5063 -0.0116
 9016SOL     OW38680   3.775   4.645   3.993 -0.2935 -0.2629 -0.0175
 9016SOL    HW138681   3.830   4.722   4.003 -1.2886  0.5695 -0.8951
 9016SOL    HW238682   3.809   4.623   3.906 -0.3026  0.2499 -0.1503
 9017SOL     OW38683   2.495   2.490   6.016  0.5405 -0.3790 -0.3128
 9017SOL    HW138684   2.512   2.585   6.014 -1.5605  0.0375  1.6459
 9017SOL    HW238685   2.433   2.483   6.089  1.6635 -2.8297  0.3882
 9018SOL     OW38686   4.012   4.015   5.351 -0.2336 -0.2890  0.1548
 9018SOL    HW138687   3.931   3.966   5.338 -0.1811  0.1843 -1.8685
 9018SOL    HW238688   4.077   3.963   5.304 -0.2919 -0.9697  0.8191
 9019SOL     OW38689   4.529   3.678  10.039 -0.0222 -0.4615 -0.0627
 9019SOL    HW138690   4.537   3.621   9.963  1.4977  1.3977 -1.3118
 9019SOL    HW238691   4.571   3.627  10.108  0.6388  0.0090 -0.1172
 9020SOL     OW38692   0.594   0.849   2.759  0.1428  0.0169  0.4780
 9020SOL    HW138693   0.604   0.924   2.817  0.6922  1.2266 -1.1811
 9020SOL    HW238694   0.592   0.779   2.824 -0.6593 -1.1540 -0.7856
 9021SOL     OW38695   0.888   2.150   7.399  0.3941 -0.0547 -0.4107
 9021SOL    HW138696   0.883   2.170   7.492 -1.8671  2.4182 -1.0564
 9021SOL    HW238697   0.848   2.064   7.386  0.6107 -0.3028  0.5969
 9022SOL     OW38698   2.809   0.477   0.479 -0.0049  0.3820 -0.9137
 9022SOL    HW138699   2.861   0.499   0.401  2.5252  0.8403  0.8854
 9022SOL    HW238700   2.811   0.560   0.526 -1.6579  0.0557 -0.2788
 9023SOL     OW38701   1.882   1.892  13.095 -0.2634  0.0955 -0.3108
 9023SOL    HW138702   1.875   1.801  13.123 -0.4746  1.1435  3.0105
 9023SOL    HW238703   1.914   1.930  13.177 -0.5555  0.8619 -0.5544
 9024SOL     OW38704   1.682   2.897  15.592  0.4912 -0.0437  0.1073
 9024SOL    HW138705   1.658   2.984  15.624 -0.8828  0.0594 -1.2154
 9024SOL    HW238706   1.599   2.867  15.553  0.2646 -0.5214  0.9510
 9025SOL     OW38707   2.043   0.690   5.491  0.1382  0.0405  0.3151
 9025SOL    HW138708   2.083   0.777   5.485  1.1553 -0.4264  0.2017
 9025SOL    HW238709   2.099   0.646   5.427  1.8987  2.8384 -0.0869
 9026SOL     OW38710   1.276   3.726   4.656  0.0316 -0.0500  0.2176
 9026SOL    HW138711   1.319   3.704   4.573 -2.4089 -0.9372 -0.8118
 9026SOL    HW238712   1.195   3.675   4.650  0.0585  0.2985 -3.1340
 9027SOL     OW38713   3.012   2.432  12.258 -0.6463  0.3282 -0.3244
 9027SOL    HW138714   2.990   2.462  12.346  0.8645 -0.8738  0.4487
 9027SOL    HW238715   2.942   2.465  12.201 -1.6184  0.8951  1.1856
 9028SOL     OW38716   3.354   1.362  11.283 -0.4945 -0.1505 -0.2425
 9028SOL    HW138717   3.427   1.375  11.222  1.9457 -0.7153  2.5099
 9028SOL    HW238718   3.394   1.337  11.367 -0.9099 -0.4678 -0.1397
 9029SOL     OW38719   3.651   4.619   2.070  0.1100 -0.2641 -0.9021
 9029SOL    HW138720   3.698   4.640   2.151 -0.9050  1.0383 -0.6531
 9029SOL    HW238721   3.602   4.699   2.056 -1.5626 -1.4689 -1.8779
 9030SOL     OW38722   0.795   1.759   8.789  0.4565  0.1895  0.3907
 9030SOL    HW138723   0.831   1.675   8.820  1.2519  0.5632  0.4952
 9030SOL    HW238724   0.791   1.737   8.696  2.9543  0.5030  0.1970
 9031SOL     OW38725   2.335   3.441  17.362  0.1775 -0.9919  0.0602
 9031SOL    HW138726   2.252   3.409  17.397 -0.1907  1.1929  1.1655
 9031SOL    HW238727   2.331   3.527  17.404 -1.0635 -1.8812  1.7732
 9032SOL     OW38728   0.267   4.041  10.395  0.3475  0.6894  0.2732
 9032SOL    HW138729   0.250   4.059  10.302 -1.4750 -2.3278  0.0073
 9032SOL    HW238730   0.176   4.034  10.425  0.4534 -0.2059  0.3960
 9033SOL     OW38731   2.260   3.647   0.718 -0.0947 -0.0605 -0.9325
 9033SOL    HW138732   2.200   3.706   0.763  0.5827 -0.2272  0.2047
 9033SOL    HW238733   2.310   3.605   0.788 -2.8658 -0.5801  0.7321
 9034SOL     OW38734   2.611   0.012   6.859  0.0571 -0.4664 -0.0739
 9034SOL    HW138735   2.707   0.013   6.869  0.2384 -0.3836 -1.8336
 9034SOL    HW238736   2.599   0.084   6.797  0.6294  1.9391  2.5834
 9035SOL     OW38737   1.873   2.932   2.598  0.1647 -0.9579  0.7217
 9035SOL    HW138738   1.905   2.958   2.512 -1.1663 -1.8460 -0.0513
 9035SOL    HW238739   1.946   2.893   2.647  2.0346  0.9060 -0.6198
 9036SOL     OW38740   0.131   0.443   7.377 -0.0533 -0.0609  0.3066
 9036SOL    HW138741   0.038   0.439   7.401 -0.0406  1.3585  0.5700
 9036SOL    HW238742   0.123   0.428   7.283  0.8595  0.0751  0.2125
 9037SOL     OW38743   4.475   3.533   3.205  0.2494 -0.0144 -0.2972
 9037SOL    HW138744   4.477   3.470   3.276  0.2466  0.8910  0.5086
 9037SOL    HW238745   4.532   3.490   3.142  4.2012  1.1831  2.4664
 9038SOL     OW38746   1.231   0.354  12.632  0.0038  0.1337  0.5722
 9038SOL    HW138747   1.172   0.419  12.593  0.8552  2.4389  3.0815
 9038SOL    HW238748   1.315   0.383  12.597 -0.8211  0.1450 -1.3678
 9039SOL     OW38749   3.952   1.941   8.620 -0.3630  0.0036 -0.2026
 9039SOL    HW138750   3.939   2.034   8.636 -2.8075 -0.1569 -1.3234
 9039SOL    HW238751   3.899   1.929   8.542  3.1052  1.9743 -2.8683
 9040SOL     OW38752   1.333   4.143  14.910  0.4422 -0.1120 -0.2528
 9040SOL    HW138753   1.270   4.118  14.843 -0.2620 -2.2098  1.1816
 9040SOL    HW238754   1.285   4.192  14.976 -0.3523 -0.4362 -0.5927
 9041SOL     OW38755   2.489   1.799  11.613 -0.1045 -0.5190  0.3016
 9041SOL    HW138756   2.426   1.835  11.675 -0.1912 -1.1920  0.6104
 9041SOL    HW238757   2.431   1.780  11.539  0.2887  0.0574 -0.1511
 9042SOL     OW38758   2.835   3.974   3.340  0.0815  0.0885 -0.0088
 9042SOL    HW138759   2.748   4.012   3.334 -0.0734 -0.2605 -0.0004
 9042SOL    HW238760   2.826   3.940   3.429 -0.9345  1.0272  0.2438
 9043SOL     OW38761   2.009   0.367   1.551 -0.2947  0.1664 -0.1159
 9043SOL    HW138762   2.051   0.426   1.489  1.7737  0.8321  1.9006
 9043SOL    HW238763   1.971   0.430   1.612  1.3940  0.9138  0.1549
 9044SOL     OW38764   4.470   0.923   6.819  0.5230  0.8406  0.2234
 9044SOL    HW138765   4.395   0.865   6.814  0.5062  0.9435 -0.7726
 9044SOL    HW238766   4.532   0.853   6.799 -1.9963 -1.3028 -0.0761
 9045SOL     OW38767   2.892   1.583   2.344  0.5143 -0.6046 -0.3569
 9045SOL    HW138768   2.981   1.553   2.329  0.4332 -0.3425 -1.3147
 9045SOL    HW238769   2.874   1.562   2.436  0.2393 -1.1510 -0.5308
 9046SOL     OW38770   0.147   2.441   5.083 -0.3649  0.0079 -0.6775
 9046SOL    HW138771   0.230   2.400   5.059 -1.2421 -1.2021 -1.6586
 9046SOL    HW238772   0.093   2.362   5.085 -0.5363  0.2209  3.9069
 9047SOL     OW38773   2.481   1.930   7.199 -0.0336 -0.0904 -0.5119
 9047SOL    HW138774   2.475   2.010   7.146 -3.8172  0.2381  0.4282
 9047SOL    HW238775   2.575   1.914   7.204  0.1955  1.2848 -0.4846
 9048SOL     OW38776   1.546   2.260  17.286  0.0120  0.3810 -0.4000
 9048SOL    HW138777   1.537   2.293  17.196  2.0861 -0.0536 -0.7663
 9048SOL    HW238778   1.636   2.293  17.295  0.4297 -0.7242 -0.5138
 9049SOL     OW38779   3.261   3.180  16.426  0.0496 -0.7405  0.1515
 9049SOL    HW138780   3.262   3.240  16.501  2.1786  1.3022 -1.4967
 9049SOL    HW238781   3.185   3.218  16.381  0.9368  2.2015  1.1458
 9050SOL     OW38782   2.787   4.214   4.035 -0.0487  0.6885 -0.5816
 9050SOL    HW138783   2.700   4.178   4.053  0.2186 -0.6390 -2.0159
 9050SOL    HW238784   2.761   4.298   3.996 -0.0715  1.5156  1.2000
 9051SOL     OW38785   1.471   0.802  15.473 -0.1125 -0.3964  0.1510
 9051SOL    HW138786   1.404   0.850  15.521  0.4677  0.3405  0.2251
 9051SOL    HW238787   1.418   0.730  15.437 -2.7896  0.5583  2.2253
 9052SOL     OW38788   3.021   4.670   0.129 -0.6620 -0.1570 -0.2061
 9052SOL    HW138789   3.095   4.663   0.069 -0.5786  0.4692 -0.1710
 9052SOL    HW238790   3.058   4.624   0.204 -0.7206 -2.4072 -1.5406
 9053SOL     OW38791   2.701   3.958   3.595  0.0084  0.6486  0.3059
 9053SOL    HW138792   2.618   4.004   3.581  0.2991  0.9160 -0.5248
 9053SOL    HW238793   2.677   3.867   3.613  1.6106  0.5019  1.6927
 9054SOL     OW38794   0.291   3.498   5.496  0.2527  0.4299  0.3284
 9054SOL    HW138795   0.229   3.550   5.548 -0.4481  1.2726 -1.3798
 9054SOL    HW238796   0.328   3.455   5.573 -2.6678  0.3595  1.7254
 9055SOL     OW38797   0.018   1.213   9.552  0.4833 -0.2054 -0.0427
 9055SOL    HW138798   4.665   1.225   9.581 -0.7709 -1.0488 -3.5695
 9055SOL    HW238799   0.071   1.231   9.629 -0.5202 -2.0407  1.0655
 9056SOL     OW38800   3.882   4.656  15.128  0.1923 -0.2741 -0.1485
 9056SOL    HW138801   3.876   4.627  15.037  0.1440  0.6312 -0.4392
 9056SOL    HW238802   3.798   4.696  15.147 -0.0852  0.1472 -2.2557
 9057SOL     OW38803   1.004   0.996   8.944  0.0817 -0.0804 -0.0083
 9057SOL    HW138804   0.982   1.080   8.984  1.1567 -0.7479  1.9548
 9057SOL    HW238805   1.053   0.965   9.020  2.4257  1.5617 -0.8255
 9058SOL     OW38806   2.701   4.285   8.355  0.4363 -0.0079  0.0229
 9058SOL    HW138807   2.771   4.338   8.316  1.0702 -1.1332 -0.3551
 9058SOL    HW238808   2.694   4.208   8.299  2.9900  1.3663 -2.1609
 9059SOL     OW38809   4.631   0.770   2.045  0.6121 -0.2843  0.0712
 9059SOL    HW138810   4.550   0.720   2.056  0.4271 -0.5371 -2.4573
 9059SOL    HW238811   4.612   0.858   2.075  1.3404 -0.5702  1.3837
 9060SOL     OW38812   0.005   3.172   7.134 -0.0252  0.3524  0.1757
 9060SOL    HW138813   4.666   3.216   7.172  0.2323 -0.8913  2.1590
 9060SOL    HW238814   4.692   3.105   7.088  2.6288 -1.8449  0.5106
 9061SOL     OW38815   3.759   1.384   6.936 -0.3461 -0.9813 -0.0685
 9061SOL    HW138816   3.705   1.431   6.999 -0.4191  0.1290 -0.9711
 9061SOL    HW238817   3.707   1.384   6.855  2.1518 -0.5902 -1.6832
 9062SOL     OW38818   2.120   0.444   8.649 -0.1209  0.0677 -0.2911
 9062SOL    HW138819   2.073   0.400   8.579  1.3710 -0.9030 -0.6817
 9062SOL    HW238820   2.111   0.538   8.633  2.3233 -0.1918 -3.3059
 9063SOL     OW38821   1.282   2.052   4.064  0.1030 -0.4817  0.2819
 9063SOL    HW138822   1.368   2.094   4.074 -2.1841  3.9013  1.3603
 9063SOL    HW238823   1.306   1.961   4.046  1.9077  0.1073 -0.2892
 9064SOL     OW38824   1.295   2.451  15.822  0.3461 -0.0159  0.3004
 9064SOL    HW138825   1.248   2.389  15.878 -0.1522 -1.6254 -1.9299
 9064SOL    HW238826   1.243   2.448  15.742  0.4856  0.7391  0.1833
 9065SOL     OW38827   4.316   1.245   2.480  0.9949  0.3862  0.0233
 9065SOL    HW138828   4.277   1.324   2.442  0.8978 -0.6103 -1.9340
 9065SOL    HW238829   4.394   1.248   2.425  1.9568 -2.7237  1.1869
 9066SOL     OW38830   0.527   0.464   5.929  0.7232 -0.7435 -0.6782
 9066SOL    HW138831   0.577   0.432   5.853 -1.0548  0.1200 -2.2005
 9066SOL    HW238832   0.471   0.386   5.928 -0.1895 -0.0828 -1.7038
 9067SOL     OW38833   2.002   2.323   9.410  0.1816 -0.5875 -0.4490
 9067SOL    HW138834   2.051   2.290   9.485  1.0698 -2.2508 -1.7465
 9067SOL    HW238835   2.054   2.401   9.394  0.5041 -0.9338 -1.0908
 9068SOL     OW38836   3.668   2.486   5.455 -0.4244 -0.2742  0.3273
 9068SOL    HW138837   3.677   2.538   5.535  1.2220  0.8679 -0.6008
 9068SOL    HW238838   3.743   2.426   5.462 -0.4098 -0.5518 -2.3290
 9069SOL     OW38839   0.930   0.230   5.639 -0.0458  0.4380 -0.5019
 9069SOL    HW138840   0.927   0.144   5.597  0.9089 -0.8413  1.9816
 9069SOL    HW238841   1.018   0.258   5.613  0.0181 -0.5029 -1.2931
 9070SOL     OW38842   4.604   0.586   5.611  0.0742  0.0523  0.2539
 9070SOL    HW138843   4.647   0.636   5.542  0.9223 -1.6237 -0.4300
 9070SOL    HW238844   4.654   0.594   5.692  1.0164  1.5768 -0.4856
 9071SOL     OW38845   0.864   3.231   4.045  0.5884 -0.2339 -0.2447
 9071SOL    HW138846   0.926   3.194   4.108 -0.0047 -0.0130  0.4635
 9071SOL    HW238847   0.786   3.239   4.099  1.0761 -0.3330  0.4806
 9072SOL     OW38848   1.026   3.814   4.271 -0.1500  0.2975  0.2272
 9072SOL    HW138849   1.091   3.874   4.236  1.1044  0.1755  2.3175
 9072SOL    HW238850   0.992   3.877   4.336 -2.4779 -2.7365  1.9517
 9073SOL     OW38851   2.624   1.907  13.819 -0.5275  0.6163 -0.5400
 9073SOL    HW138852   2.719   1.896  13.820 -0.4744  1.1712  1.3865
 9073SOL    HW238853   2.613   1.991  13.774 -1.5675  0.3972 -0.6894
 9074SOL     OW38854   3.699   3.800  17.206  0.3531  0.7368 -0.4967
 9074SOL    HW138855   3.744   3.725  17.168  0.8276  0.0371  1.4861
 9074SOL    HW238856   3.641   3.828  17.135 -1.2106 -0.0986  0.4369
 9075SOL     OW38857   1.675   3.780   1.132  0.1564 -0.5812 -0.2112
 9075SOL    HW138858   1.616   3.845   1.170  1.5039  0.1530  0.6271
 9075SOL    HW238859   1.749   3.835   1.109 -1.2569  1.2428 -0.3277
 9076SOL     OW38860   0.302   2.826   6.359  0.5982  0.5352 -0.2009
 9076SOL    HW138861   0.372   2.777   6.314  0.0432 -0.8772  0.4626
 9076SOL    HW238862   0.342   2.849   6.443  0.8080  0.9410 -0.4081
 9077SOL     OW38863   1.865   1.029  12.025 -0.6111  0.0145  0.7187
 9077SOL    HW138864   1.953   1.035  11.987  0.7484 -0.1690  3.8896
 9077SOL    HW238865   1.818   1.062  11.948  1.7017 -0.2701 -0.8168
 9078SOL     OW38866   2.941   0.399  14.971 -0.0742  0.6763 -0.2672
 9078SOL    HW138867   2.855   0.429  15.003 -0.4765  0.2515 -0.9648
 9078SOL    HW238868   2.951   0.416  14.878  0.1813  0.2426 -0.3151
 9079SOL     OW38869   0.488   1.458   1.058 -0.3004 -0.2093 -0.2053
 9079SOL    HW138870   0.439   1.536   1.082  0.7332  0.2849  0.2729
 9079SOL    HW238871   0.453   1.436   0.972 -1.3554  2.5142 -0.4554
 9080SOL     OW38872   3.615   3.719   3.294 -0.1234 -0.0937  0.1269
 9080SOL    HW138873   3.566   3.738   3.213 -1.3732 -0.4742  0.7861
 9080SOL    HW238874   3.662   3.638   3.273  0.0445 -0.0316  0.2757
 9081SOL     OW38875   0.846   4.261  12.108 -0.1469 -0.0350 -0.4863
 9081SOL    HW138876   0.931   4.226  12.083  0.6477  0.9698  0.8156
 9081SOL    HW238877   0.869   4.341  12.154  0.5640  0.1696 -1.1912
 9082SOL     OW38878   4.094   4.471  14.086 -0.1693  0.2048 -0.2711
 9082SOL    HW138879   4.086   4.503  14.176  2.0006  0.7844 -0.3002
 9082SOL    HW238880   4.161   4.403  14.097 -0.4209  0.0131  0.1040
 9083SOL     OW38881   1.563   2.309   6.846  0.1522  0.7355  0.3263
 9083SOL    HW138882   1.551   2.214   6.844 -1.0940  0.8971  0.6010
 9083SOL    HW238883   1.657   2.327   6.842  0.3019  0.0214  0.6167
 9084SOL     OW38884   1.650   2.392   7.115  0.0339 -0.0439  0.2644
 9084SOL    HW138885   1.597   2.384   7.035  0.9357  0.3233 -0.3621
 9084SOL    HW238886   1.658   2.298   7.133 -1.4814 -0.1237  0.5808
 9085SOL     OW38887   2.885   0.360   5.402 -0.3359 -0.1641  0.2088
 9085SOL    HW138888   2.976   0.331   5.410 -0.1608  0.1609 -0.5950
 9085SOL    HW238889   2.834   0.285   5.372 -0.2554 -0.1227 -0.0351
 9086SOL     OW38890   1.713   1.819  10.028 -0.2223 -0.2467  0.3965
 9086SOL    HW138891   1.723   1.876  10.103  0.2345  0.5103 -0.2422
 9086SOL    HW238892   1.658   1.748  10.061 -0.0696 -0.7325 -0.3780
 9087SOL     OW38893   1.534   0.751   4.099  0.2183  0.3969  0.5940
 9087SOL    HW138894   1.441   0.730   4.106  0.0372  1.2853  0.9410
 9087SOL    HW238895   1.566   0.673   4.143  2.5309  0.5768 -0.8007
 9088SOL     OW38896   1.852   0.992  15.283  0.1970 -0.6251  0.6218
 9088SOL    HW138897   1.897   0.912  15.259  0.6292 -0.2518  0.1788
 9088SOL    HW238898   1.915   1.054  15.247 -1.5081  0.7421 -0.0252
 9089SOL     OW38899   0.805   3.374  16.427 -0.0113  0.5075  0.3626
 9089SOL    HW138900   0.738   3.408  16.486  1.6419  1.5444  1.6579
 9089SOL    HW238901   0.855   3.452  16.404  2.3348 -1.2411 -0.4465
 9090SOL     OW38902   0.517   2.947   3.212 -0.4588 -0.3133 -0.0627
 9090SOL    HW138903   0.541   3.026   3.261  0.4051  0.0279 -1.0424
 9090SOL    HW238904   0.429   2.926   3.245 -0.9578 -2.0862 -2.5649
 9091SOL     OW38905   4.574   4.140   8.146  0.3634 -0.6411  0.2957
 9091SOL    HW138906   4.638   4.150   8.076 -2.2519  0.3837 -1.9548
 9091SOL    HW238907   4.493   4.111   8.105  0.2696 -0.4961  0.3734
 9092SOL     OW38908   4.617   3.021   2.684  0.0629 -0.0096 -0.6269
 9092SOL    HW138909   4.563   3.016   2.606 -1.1110 -0.0210  0.1861
 9092SOL    HW238910   4.664   3.102   2.668 -0.6188  0.1279 -1.8899
 9093SOL     OW38911   1.748   3.410   6.230 -0.9371  0.5321 -0.0251
 9093SOL    HW138912   1.742   3.336   6.169 -1.6068  1.1743 -0.7403
 9093SOL    HW238913   1.703   3.479   6.182 -0.3991  1.5384  0.9234
 9094SOL     OW38914   1.579   2.869  16.531 -0.2041  0.5147 -0.6505
 9094SOL    HW138915   1.526   2.881  16.610 -0.7221  0.4182 -0.9845
 9094SOL    HW238916   1.556   2.938  16.469 -1.7345 -2.0102 -2.9227
 9095SOL     OW38917   3.412   1.281  16.760 -0.3939  0.2582  0.2978
 9095SOL    HW138918   3.377   1.364  16.726 -2.0159  0.1444  1.6861
 9095SOL    HW238919   3.463   1.312  16.834 -0.1654 -2.3716  1.2411
 9096SOL     OW38920   3.236   0.452   5.692 -0.6954 -0.4025  0.4419
 9096SOL    HW138921   3.278   0.365   5.691 -1.1303 -0.5988 -1.3211
 9096SOL    HW238922   3.313   0.503   5.669 -0.8366 -1.5803 -2.6403
 9097SOL     OW38923   0.860   1.024   9.262 -0.2073  0.3476  0.4083
 9097SOL    HW138924   0.926   0.990   9.323 -2.5541 -1.1572  2.1224
 9097SOL    HW238925   0.791   0.957   9.258  0.3920 -0.3001  1.0022
 9098SOL     OW38926   3.657   4.543   1.102  0.5638 -0.2686 -0.0188
 9098SOL    HW138927   3.749   4.565   1.085  1.0505 -0.3089  2.6402
 9098SOL    HW238928   3.611   4.565   1.021  0.8000  1.0530  0.2065
 9099SOL     OW38929   4.000   2.545   2.880  0.2307  1.0592  0.3251
 9099SOL    HW138930   3.912   2.542   2.917  0.3921  0.9980  0.7109
 9099SOL    HW238931   4.038   2.462   2.909  0.7831  1.1931 -0.0201
 9100SOL     OW38932   2.808   1.492   3.808  0.4325  0.6574  0.2586
 9100SOL    HW138933   2.866   1.564   3.835 -0.2079  0.4670  2.1174
 9100SOL    HW238934   2.846   1.473   3.723 -0.6959  2.6407 -0.6895
 9101SOL     OW38935   2.412   0.843   4.561  0.6674 -0.3287  0.2020
 9101SOL    HW138936   2.385   0.761   4.520  2.9922 -1.3653  0.7490
 9101SOL    HW238937   2.379   0.908   4.498  0.2677  0.3380  1.0882
 9102SOL     OW38938   2.800   4.245   2.429 -0.0779  0.0581 -0.3407
 9102SOL    HW138939   2.728   4.197   2.389  2.2572 -0.8785 -3.4512
 9102SOL    HW238940   2.847   4.270   2.350 -0.9617 -0.7020 -1.0993
 9103SOL     OW38941   3.927   0.080  13.420  0.1982  0.0705 -0.0230
 9103SOL    HW138942   3.914   0.045  13.332 -0.2489 -1.1495  0.5253
 9103SOL    HW238943   3.869   0.026  13.474  1.1529  0.4784  1.4186
 9104SOL     OW38944   1.435   3.246   3.765 -0.1334 -0.2236  0.0286
 9104SOL    HW138945   1.344   3.257   3.793 -1.4332 -0.2065 -4.2405
 9104SOL    HW238946   1.447   3.318   3.702 -0.9136 -0.4657 -0.3969
 9105SOL     OW38947   1.843   0.210   0.835 -0.3649 -0.3009  0.6466
 9105SOL    HW138948   1.886   0.294   0.820  0.5422 -0.6992  1.0159
 9105SOL    HW238949   1.749   0.223   0.820 -0.0556 -0.9594 -1.7503
 9106SOL     OW38950   1.494   0.579   5.877  0.5592 -0.8163 -0.0403
 9106SOL    HW138951   1.405   0.548   5.895  0.4890 -1.5415 -1.6610
 9106SOL    HW238952   1.476   0.657   5.825 -2.3531 -0.9763  0.7581
 9107SOL     OW38953   1.011   4.292   0.553  0.0601 -0.1773 -0.2433
 9107SOL    HW138954   0.992   4.207   0.514 -0.6947  0.7126 -1.8301
 9107SOL    HW238955   0.941   4.295   0.619  0.5067  0.9414  0.1883
 9108SOL     OW38956   0.412   0.649   8.808 -0.0759  0.0541  0.3505
 9108SOL    HW138957   0.340   0.628   8.867  0.3385  0.3647  0.9684
 9108SOL    HW238958   0.433   0.564   8.769  1.5986  0.6769 -0.0971
 9109SOL     OW38959   2.226   3.298   4.839  0.2780 -0.7981  0.3103
 9109SOL    HW138960   2.314   3.287   4.802 -0.5982  0.1163 -2.0357
 9109SOL    HW238961   2.186   3.227   4.788 -0.0306  0.5013 -1.2626
 9110SOL     OW38962   1.070   0.253  15.767  0.5164 -0.0639 -0.2020
 9110SOL    HW138963   1.157   0.290  15.752  0.7704 -0.4682  0.2667
 9110SOL    HW238964   1.044   0.231  15.677  0.2878 -2.3380  0.4089
 9111SOL     OW38965   3.652   4.170   6.489  0.0336  0.0315 -0.8667
 9111SOL    HW138966   3.655   4.167   6.394 -0.5178 -0.5796 -0.8644
 9111SOL    HW238967   3.746   4.161   6.505 -0.0072  0.9903 -0.0795
 9112SOL     OW38968   1.274   3.268  15.039  0.0186 -0.1169 -0.0366
 9112SOL    HW138969   1.341   3.299  15.101 -0.9224 -1.1154  1.4897
 9112SOL    HW238970   1.300   3.307  14.956  0.7917  0.8924  0.6677
 9113SOL     OW38971   4.639   2.792   3.725 -0.0654  0.0085 -0.5953
 9113SOL    HW138972   4.689   2.711   3.741 -0.0455 -0.2831 -2.1223
 9113SOL    HW238973   4.626   2.793   3.631  2.3916 -0.0398 -0.9389
 9114SOL     OW38974   3.574   3.740  17.735  0.3798 -0.0997 -0.0458
 9114SOL    HW138975   3.567   3.727  17.641  1.1881  0.7814 -0.2170
 9114SOL    HW238976   3.669   3.736  17.744  0.5375  1.3211 -1.0761
 9115SOL     OW38977   2.129   1.678   7.508  0.2669 -0.5308  0.2975
 9115SOL    HW138978   2.197   1.722   7.456 -0.6777 -0.3580 -0.7775
 9115SOL    HW238979   2.090   1.756   7.546  2.2300  0.7202 -0.2402
 9116SOL     OW38980   3.321   1.329  15.162 -0.1068  0.2570  0.4791
 9116SOL    HW138981   3.376   1.377  15.224 -0.1372 -0.0854  0.7761
 9116SOL    HW238982   3.359   1.365  15.083 -1.5008 -2.2777 -1.3390
 9117SOL     OW38983   2.077   2.054   0.117  0.1977  0.2497 -0.2640
 9117SOL    HW138984   2.120   2.088   0.038  1.7026 -0.2436  0.3498
 9117SOL    HW238985   2.055   1.964   0.093 -1.1394  1.2061 -2.6844
 9118SOL     OW38986   3.976   0.979   7.751 -0.2109 -0.3117 -0.5474
 9118SOL    HW138987   4.024   1.061   7.739 -1.4199  0.8101  2.2326
 9118SOL    HW238988   3.910   1.003   7.817  1.0700  0.2349  0.5214
 9119SOL     OW38989   3.435   0.035   7.758 -0.0491 -0.1233  0.5728
 9119SOL    HW138990   3.511   0.058   7.811 -0.0051 -0.5004  0.6752
 9119SOL    HW238991   3.434   4.678   7.777 -1.4487  0.1682  1.9513
 9120SOL     OW38992   2.002   1.789   4.634  0.0514 -0.1490  0.2638
 9120SOL    HW138993   1.974   1.793   4.542 -0.5924 -2.0356  0.3831
 9120SOL    HW238994   2.053   1.868   4.649 -0.1437  0.3050 -1.3789
 9121SOL     OW38995   4.059   2.463   4.826 -0.2603 -0.7527  0.3435
 9121SOL    HW138996   4.151   2.440   4.814 -0.3453 -0.0574 -1.6695
 9121SOL    HW238997   4.075   2.551   4.861 -0.4463 -0.3147 -0.6797
 9122SOL     OW38998   0.028   0.544  12.387  0.3384 -0.3867 -0.3060
 9122SOL    HW138999   4.721   0.466  12.422 -1.1321  1.2143  1.3921
 9122SOL    HW239000   4.699   0.589  12.333  2.1393 -0.1309 -2.2752
 9123SOL     OW39001   0.407   3.528   1.907 -0.3599  0.4212  0.3878
 9123SOL    HW139002   0.322   3.484   1.895 -0.8540  2.2577 -2.8903
 9123SOL    HW239003   0.404   3.596   1.839  2.3577  1.7083  1.6024
 9124SOL     OW39004   1.509   1.887   6.034  0.1064 -0.9233  0.0841
 9124SOL    HW139005   1.562   1.966   6.044 -2.2687  0.6184  0.3386
 9124SOL    HW239006   1.427   1.920   5.998  0.6112  1.6598  1.3627
 9125SOL     OW39007   4.447   3.285  15.929 -0.2696 -0.1461  0.3900
 9125SOL    HW139008   4.446   3.193  15.952  0.4679 -0.0895  0.6234
 9125SOL    HW239009   4.511   3.292  15.858 -0.3150 -0.8365  0.2817
 9126SOL     OW39010   4.257   2.374   5.023  0.2035  0.2814 -0.3206
 9126SOL    HW139011   4.225   2.406   5.107 -2.0314 -0.0267 -1.0610
 9126SOL    HW239012   4.316   2.446   5.000  0.7756  0.4279  1.6467
 9127SOL     OW39013   2.047   0.037   7.349  0.3132 -0.0101  0.5543
 9127SOL    HW139014   2.111   0.104   7.324 -2.9957  2.2804 -1.6087
 9127SOL    HW239015   1.963   0.081   7.340  0.5922  0.7929  1.8773
 9128SOL     OW39016   2.415   0.935   5.306  0.0851  0.4913  0.8259
 9128SOL    HW139017   2.472   0.994   5.355 -1.1163  1.3598  1.1807
 9128SOL    HW239018   2.486   0.875   5.282  0.2550 -0.0385  2.6332
 9129SOL     OW39019   4.691   2.411   8.222  0.4100 -0.0603  0.3827
 9129SOL    HW139020   4.701   2.322   8.190  0.5959  0.3402 -0.6741
 9129SOL    HW239021   4.692   2.458   8.139  2.5643 -0.5250  0.1403
 9130SOL     OW39022   3.632   1.568   3.830 -0.3065 -0.1420  0.2876
 9130SOL    HW139023   3.623   1.491   3.774  0.8769 -1.0873  1.4267
 9130SOL    HW239024   3.540   1.584   3.854 -0.4597 -1.2424  0.4050
 9131SOL     OW39025   3.122   4.432   7.697 -0.1583 -0.4666 -0.2038
 9131SOL    HW139026   3.214   4.452   7.715 -0.5447 -0.0438  1.3141
 9131SOL    HW239027   3.126   4.337   7.710  1.4471 -0.7502 -2.8018
 9132SOL     OW39028   3.516   3.098  15.810  0.0117 -0.4412 -0.2913
 9132SOL    HW139029   3.433   3.144  15.822  0.7355  0.4819  1.1929
 9132SOL    HW239030   3.552   3.156  15.743 -0.5777  2.0743  1.5521
 9133SOL     OW39031   2.786   2.567   6.235  0.2596  0.3085 -0.1022
 9133SOL    HW139032   2.695   2.592   6.251  0.2170  0.2698 -0.2829
 9133SOL    HW239033   2.823   2.579   6.323  0.9297  2.4030 -0.6644
 9134SOL     OW39034   3.147   0.166   2.603 -0.2348 -0.7193  0.4494
 9134SOL    HW139035   3.182   0.212   2.526  0.5421 -1.1798  0.5257
 9134SOL    HW239036   3.155   0.239   2.665 -0.1685 -1.4433  1.2890
 9135SOL     OW39037   2.867   0.191   6.345 -0.2565  0.4715  0.3811
 9135SOL    HW139038   2.864   0.217   6.253  1.3048  0.4234  0.3182
 9135SOL    HW239039   2.952   0.147   6.352 -0.2409  0.9672  3.5118
 9136SOL     OW39040   1.561   1.256  14.494  0.6237 -0.2170 -0.5425
 9136SOL    HW139041   1.573   1.282  14.586 -0.2455 -1.5758 -0.0469
 9136SOL    HW239042   1.570   1.344  14.456  1.3006  0.5516  1.3527
 9137SOL     OW39043   3.646   1.911  16.891  0.6049 -0.3638  0.3999
 9137SOL    HW139044   3.615   2.002  16.885 -0.0824 -0.7541 -2.0249
 9137SOL    HW239045   3.558   1.875  16.899  0.1713  0.3369 -1.0752
 9138SOL     OW39046   2.076   2.438   2.012  0.1468 -0.1550 -0.9605
 9138SOL    HW139047   2.128   2.376   1.960  0.6796  1.4623 -2.3431
 9138SOL    HW239048   2.138   2.505   2.038  1.1621 -1.2509 -0.5666
 9139SOL     OW39049   0.729   4.330  16.606  0.2088 -0.1610 -0.2615
 9139SOL    HW139050   0.820   4.337  16.634  0.0454 -0.4920  0.3529
 9139SOL    HW239051   0.684   4.353  16.687  1.8194  0.2396  0.5252
 9140SOL     OW39052   4.078   3.247   7.313 -0.2200 -0.1921  0.2759
 9140SOL    HW139053   4.045   3.283   7.395 -0.8590 -0.0884 -0.0335
 9140SOL    HW239054   3.996   3.213   7.277  0.9277 -0.7013 -1.8665
 9141SOL     OW39055   2.965   4.201   7.918 -0.0848  0.2952 -0.1018
 9141SOL    HW139056   3.018   4.203   7.838 -1.1134  0.6008 -0.7711
 9141SOL    HW239057   2.888   4.166   7.874  1.0253 -2.4435  0.1269
 9142SOL     OW39058   2.350   3.238   8.963 -0.1590  0.7437  0.3521
 9142SOL    HW139059   2.260   3.265   8.949 -0.7601 -1.2357  0.4830
 9142SOL    HW239060   2.385   3.319   9.001  1.1483  0.9491 -1.2813
 9143SOL     OW39061   4.699   3.778  13.176 -0.2774 -0.0128  0.8804
 9143SOL    HW139062   4.658   3.697  13.149 -1.3031  1.1157 -0.9551
 9143SOL    HW239063   0.044   3.767  13.128 -1.2582  1.3557 -1.1219
 9144SOL     OW39064   3.589   2.188   7.772  0.1791  0.6692  0.0852
 9144SOL    HW139065   3.616   2.279   7.758  0.8049  0.0508 -2.6947
 9144SOL    HW239066   3.672   2.140   7.775 -0.9883 -1.2645  1.8429
 9145SOL     OW39067   1.037   3.417  15.075  0.3221 -0.1583  0.6125
 9145SOL    HW139068   0.956   3.374  15.101 -0.0437 -0.3155 -0.7867
 9145SOL    HW239069   1.097   3.343  15.070  2.8100  1.9726 -1.2765
 9146SOL     OW39070   3.801   0.711   7.217  0.8789 -0.2522  0.8585
 9146SOL    HW139071   3.786   0.660   7.297 -1.6890 -2.0088 -0.7439
 9146SOL    HW239072   3.888   0.749   7.233  1.2316 -0.1972 -1.2500
 9147SOL     OW39073   1.667   4.161  13.128 -0.0902  0.3097  0.0173
 9147SOL    HW139074   1.640   4.253  13.131  3.3971  1.3123  0.4975
 9147SOL    HW239075   1.759   4.177  13.107  0.6648 -3.3236  0.5771
 9148SOL     OW39076   2.532   1.018   3.199  0.3980 -0.2559  0.4587
 9148SOL    HW139077   2.481   1.081   3.248  0.3067  0.2375 -0.2636
 9148SOL    HW239078   2.514   1.071   3.121  0.1535 -2.7271 -1.1949
 9149SOL     OW39079   4.155   3.041   7.918  0.8231  0.2179 -0.3543
 9149SOL    HW139080   4.115   2.985   7.985  1.6061 -1.0554 -0.9335
 9149SOL    HW239081   4.215   3.091   7.971  0.4875  0.2577 -0.0158
 9150SOL     OW39082   0.678   0.430   0.402 -0.4656  0.2424 -0.4411
 9150SOL    HW139083   0.638   0.494   0.344 -0.6842 -0.7039 -1.3155
 9150SOL    HW239084   0.619   0.427   0.477 -0.7328  4.9035 -0.4300
 9151SOL     OW39085   0.866   0.486  12.397  0.2231  0.0313  0.1731
 9151SOL    HW139086   0.771   0.494  12.402  0.3433  0.0370  2.6882
 9151SOL    HW239087   0.898   0.560  12.450 -0.3672  0.8062 -0.5448
 9152SOL     OW39088   3.116   3.531   5.523  0.4494 -0.3992 -0.2583
 9152SOL    HW139089   3.201   3.573   5.540 -1.0379  2.4241  0.1307
 9152SOL    HW239090   3.096   3.474   5.597 -2.6242  0.0793 -0.7465
 9153SOL     OW39091   0.110   0.964   8.441  0.1689  0.4944  0.4569
 9153SOL    HW139092   0.197   0.929   8.460 -0.7223 -0.9334  1.9375
 9153SOL    HW239093   0.110   1.053   8.476 -0.7421  0.1948  1.2164
 9154SOL     OW39094   2.982   3.012   8.965  0.0786  0.3065 -0.2254
 9154SOL    HW139095   3.075   3.010   8.943 -0.2385 -1.3190 -1.4888
 9154SOL    HW239096   2.980   3.030   9.058 -1.5717 -0.0057 -0.1899
 9155SOL     OW39097   0.588   1.255   2.342  0.2719  0.7314  0.5832
 9155SOL    HW139098   0.527   1.202   2.393  0.2445  0.5069  0.3202
 9155SOL    HW239099   0.535   1.273   2.264 -1.0686 -0.5790  1.1820
 9156SOL     OW39100   2.502   3.227   6.498 -0.4696 -0.1057  0.2793
 9156SOL    HW139101   2.581   3.190   6.459 -0.6188  0.1252 -0.2451
 9156SOL    HW239102   2.458   3.265   6.422  0.6408 -1.8738 -1.2504
 9157SOL     OW39103   0.884   1.360   1.141 -0.0232 -0.1803  0.4709
 9157SOL    HW139104   0.921   1.447   1.131  0.4460 -0.3922  0.3768
 9157SOL    HW239105   0.949   1.304   1.099 -1.4786 -2.0304  0.6552
 9158SOL     OW39106   0.318   0.596  16.450 -0.4448  0.6404 -0.5215
 9158SOL    HW139107   0.241   0.617  16.502  0.1184 -1.2259  1.0764
 9158SOL    HW239108   0.287   0.648  16.376  0.9541 -0.9881 -2.2703
 9159SOL     OW39109   1.240   4.302   5.479  0.2933 -0.0146 -0.1673
 9159SOL    HW139110   1.276   4.374   5.530  2.5967 -1.2619 -0.0368
 9159SOL    HW239111   1.253   4.340   5.392  0.6857  1.0670  0.3712
 9160SOL     OW39112   1.498   4.107  15.235 -0.1422  0.5499 -0.3261
 9160SOL    HW139113   1.425   4.131  15.292  0.2752  3.9398 -1.2157
 9160SOL    HW239114   1.521   4.189  15.191  1.4825  0.0278 -0.4457
 9161SOL     OW39115   4.707   2.946   4.169  0.0786 -0.2027 -0.5408
 9161SOL    HW139116   4.661   2.939   4.085  2.2211 -2.0648 -1.5771
 9161SOL    HW239117   0.054   2.905   4.148  0.5419  0.1774  0.5882
 9162SOL     OW39118   2.730   3.852   1.174  0.1611  0.7174  0.4439
 9162SOL    HW139119   2.690   3.927   1.131  0.8724  0.5891 -0.4310
 9162SOL    HW239120   2.785   3.825   1.101 -0.0663 -1.2065  0.9647
 9163SOL     OW39121   1.209   3.996   6.188  0.5365  0.4376  0.1433
 9163SOL    HW139122   1.179   4.087   6.177  0.7765  0.2747 -1.8704
 9163SOL    HW239123   1.276   3.989   6.120  0.5655 -0.1344  0.2300
 9164SOL     OW39124   0.824   4.524  12.545 -0.2446  0.4637 -0.3870
 9164SOL    HW139125   0.800   4.473  12.622 -1.7499 -0.3412 -1.3981
 9164SOL    HW239126   0.757   4.592  12.551  0.0882  0.7849 -0.2480
 9165SOL     OW39127   0.968   2.183   6.974 -0.1611  0.2427  0.5243
 9165SOL    HW139128   1.035   2.206   7.038 -0.9422  2.8648  0.3922
 9165SOL    HW239129   1.007   2.099   6.950 -1.3581  0.4374 -2.1266
 9166SOL     OW39130   1.540   3.142   5.576 -0.5573 -0.7199  0.8537
 9166SOL    HW139131   1.485   3.217   5.555  0.4460 -0.8535 -2.1446
 9166SOL    HW239132   1.527   3.076   5.508 -0.6130  1.4884 -1.2725
 9167SOL     OW39133   1.381   3.705   9.554  0.2944 -0.4816  0.2309
 9167SOL    HW139134   1.475   3.719   9.538 -0.5841  3.7305 -1.1539
 9167SOL    HW239135   1.352   3.781   9.503 -0.8748 -0.5495  0.7975
 9168SOL     OW39136   0.419   1.215   9.547  0.7637 -0.0813 -0.3017
 9168SOL    HW139137   0.379   1.301   9.558  2.6961  0.9930 -1.6981
 9168SOL    HW239138   0.487   1.216   9.614  0.5854  2.1709 -0.1677
 9169SOL     OW39139   3.090   0.907   8.377 -0.2968 -0.3146 -0.2434
 9169SOL    HW139140   3.069   0.954   8.297 -3.7649 -2.9213 -0.8406
 9169SOL    HW239141   3.010   0.919   8.429 -0.0823 -1.1725  0.2850
 9170SOL     OW39142   1.541   4.100   6.214  0.5358  0.0751  0.2675
 9170SOL    HW139143   1.490   4.111   6.134  0.4629  2.0557  0.5950
 9170SOL    HW239144   1.481   4.143   6.275 -0.6131 -2.4484  0.9439
 9171SOL     OW39145   4.062   0.576   7.504  0.4808  0.0293  0.2668
 9171SOL    HW139146   4.039   0.493   7.464  0.4183  0.1479  0.0572
 9171SOL    HW239147   3.970   0.601   7.510  0.2904 -0.8954  1.1165
 9172SOL     OW39148   2.915   0.584   0.260 -0.1689  0.0786  0.6267
 9172SOL    HW139149   2.955   0.529   0.193 -1.7671  0.5646 -0.7419
 9172SOL    HW239150   2.929   0.669   0.220  0.0578 -0.0602  0.4143
 9173SOL     OW39151   1.708   1.210  11.396 -0.4474  0.6363  0.0153
 9173SOL    HW139152   1.615   1.225  11.408 -0.8900 -0.0631 -2.5087
 9173SOL    HW239153   1.700   1.130  11.343 -0.0032  0.3753  0.3397
 9174SOL     OW39154   0.418   1.876   7.853  0.2394 -0.4043  0.2227
 9174SOL    HW139155   0.329   1.864   7.820 -0.2947  2.6769  0.5378
 9174SOL    HW239156   0.397   1.921   7.935  0.6643  0.5552 -0.1978
 9175SOL     OW39157   4.626   0.111   7.928  0.4029 -0.4727 -0.0143
 9175SOL    HW139158   4.646   0.105   8.021  0.2865  0.6194  0.0737
 9175SOL    HW239159   4.565   0.184   7.932  0.8399 -0.1860  1.3882
 9176SOL     OW39160   1.292   4.671   2.443 -0.0587 -0.0782  0.0962
 9176SOL    HW139161   1.382   4.693   2.419 -0.7078  3.4626  0.9295
 9176SOL    HW239162   1.289   4.584   2.403  0.7617 -0.5245  1.0262
 9177SOL     OW39163   3.032   4.712   4.710 -0.4410 -0.0144 -0.2393
 9177SOL    HW139164   3.054   0.052   4.764 -4.5295  0.8190  0.1940
 9177SOL    HW239165   2.938   4.730   4.704 -0.1163  1.2308 -1.5338
 9178SOL     OW39166   4.316   4.155   5.778  0.1838  0.3169 -0.1852
 9178SOL    HW139167   4.403   4.117   5.792 -0.7545 -1.2322  1.3724
 9178SOL    HW239168   4.288   4.164   5.868  0.4989  1.4652 -0.2022
 9179SOL     OW39169   0.050   4.589   1.995  0.4861 -0.2466 -0.0148
 9179SOL    HW139170   0.093   4.503   2.002  0.1453 -0.4561 -0.4519
 9179SOL    HW239171   0.016   4.584   2.084  1.6917  0.0886  0.4647
 9180SOL     OW39172   3.161   3.831  15.879  0.5268 -0.4971 -0.7398
 9180SOL    HW139173   3.069   3.851  15.867  0.8167  1.3562  0.0947
 9180SOL    HW239174   3.200   3.903  15.830 -0.1183  1.6114  1.7974
 9181SOL     OW39175   1.746   1.108  10.202  0.3414  0.3397 -0.0600
 9181SOL    HW139176   1.757   1.096  10.107  0.4554  0.1208 -0.0200
 9181SOL    HW239177   1.840   1.106  10.219  0.5687  0.5516 -1.2661
 9182SOL     OW39178   0.872   0.617  14.897  0.2701  0.3601  0.2226
 9182SOL    HW139179   0.867   0.700  14.849  0.9810 -0.3863 -1.1490
 9182SOL    HW239180   0.952   0.583  14.857  0.5422 -1.7885  2.6424
 9183SOL     OW39181   1.579   1.417   2.461 -0.4336 -0.0856 -0.1893
 9183SOL    HW139182   1.587   1.471   2.383 -1.8425  1.6647  0.8772
 9183SOL    HW239183   1.668   1.392   2.486  0.5133  2.5760 -0.9628
 9184SOL     OW39184   1.130   0.221  13.117  0.5940  0.3839 -0.4746
 9184SOL    HW139185   1.043   0.207  13.080  0.8220  0.5055 -1.0578
 9184SOL    HW239186   1.158   0.134  13.147  2.3036  1.4556  1.0060
 9185SOL     OW39187   0.348   2.432   9.592 -0.1232  0.2908 -0.0468
 9185SOL    HW139188   0.411   2.407   9.659  0.1916  0.7776 -0.1627
 9185SOL    HW239189   0.292   2.355   9.593  0.9694 -0.4587  2.1561
 9186SOL     OW39190   4.211   2.979   2.653  0.6213  0.0975 -0.3745
 9186SOL    HW139191   4.269   2.923   2.602 -1.2668 -2.3397  0.0821
 9186SOL    HW239192   4.144   2.915   2.681 -0.2740  0.7983 -0.9199
 9187SOL     OW39193   2.207   3.126   3.752  0.0768  0.0671 -0.1311
 9187SOL    HW139194   2.224   3.211   3.712  1.1472  0.1769  0.5414
 9187SOL    HW239195   2.174   3.066   3.685  1.2239 -3.4248  2.3757
 9188SOL     OW39196   4.552   2.579   8.038  0.2376  0.4753  0.0574
 9188SOL    HW139197   4.520   2.531   7.962 -0.3494  1.0051 -0.0294
 9188SOL    HW239198   4.643   2.592   8.012  0.3244 -0.2329  0.0222
 9189SOL     OW39199   0.950   4.403   6.802 -0.0104 -0.1489 -0.1997
 9189SOL    HW139200   0.910   4.331   6.753  0.9033 -1.7533  1.3947
 9189SOL    HW239201   0.960   4.470   6.735 -1.9249 -0.2663 -0.5978
 9190SOL     OW39202   3.553   4.100  15.214 -0.2928  0.2759  0.2419
 9190SOL    HW139203   3.535   4.063  15.301 -0.8202 -1.8466 -0.7567
 9190SOL    HW239204   3.495   4.050  15.156 -0.5152 -1.1434  1.6717
 9191SOL     OW39205   0.829   3.068   6.718  0.1370  0.2733  0.3251
 9191SOL    HW139206   0.780   3.149   6.730  1.0299  1.1270 -1.9446
 9191SOL    HW239207   0.856   3.061   6.810  2.4974 -3.0811 -0.6121
 9192SOL     OW39208   0.427   3.181   5.682 -0.1955 -0.2967 -0.2030
 9192SOL    HW139209   0.403   3.124   5.609 -0.1387  0.2262 -0.6314
 9192SOL    HW239210   0.519   3.156   5.687 -0.5080 -1.2035  0.9967
 9193SOL     OW39211   2.875   0.720  17.603  0.0419  0.1459  0.2254
 9193SOL    HW139212   2.912   0.791  17.656 -1.1058 -0.6191  2.0557
 9193SOL    HW239213   2.811   0.682  17.663  1.0476  0.1533  1.3023
 9194SOL     OW39214   3.471   3.547   2.084  0.1461  0.5385 -0.4895
 9194SOL    HW139215   3.521   3.557   2.164  1.5595 -1.2220 -1.1553
 9194SOL    HW239216   3.530   3.597   2.029 -0.4755  1.3829 -0.3883
 9195SOL     OW39217   0.359   2.287  17.278  0.0843 -0.0201 -0.3835
 9195SOL    HW139218   0.416   2.272  17.354  0.0382  2.4884  0.1316
 9195SOL    HW239219   0.338   2.379  17.292  0.2927  0.5053 -3.4658
 9196SOL     OW39220   4.119   3.755   1.506  0.0315  0.1764 -0.5759
 9196SOL    HW139221   4.209   3.723   1.497  0.6017  2.0814 -1.6447
 9196SOL    HW239222   4.103   3.788   1.418  0.3247  1.1674 -0.2695
 9197SOL     OW39223   1.564   0.359   4.560  0.3811  0.4594 -0.0707
 9197SOL    HW139224   1.570   0.453   4.579  1.0913  0.1258  1.3643
 9197SOL    HW239225   1.497   0.331   4.623  1.1299  1.2426  1.0778
 9198SOL     OW39226   2.581   2.953  13.487 -0.1235 -0.5379 -0.2097
 9198SOL    HW139227   2.585   2.861  13.513 -1.9246 -0.3598  0.7275
 9198SOL    HW239228   2.645   2.974  13.419 -0.2437 -1.1500 -0.5135
 9199SOL     OW39229   0.114   0.366  13.976  0.7856 -0.4846  0.6000
 9199SOL    HW139230   0.126   0.399  14.065  0.3255  2.0258 -0.2630
 9199SOL    HW239231   0.021   0.346  13.966  0.6234  0.4672  0.1668
 9200SOL     OW39232   0.223   2.343   6.653 -0.6492  0.9916 -0.4936
 9200SOL    HW139233   0.171   2.268   6.683 -1.2650  1.4629 -0.3829
 9200SOL    HW239234   0.157   2.407   6.677 -1.7428 -0.2870 -0.0764
 9201SOL     OW39235   1.600   0.907   8.244  0.1201 -0.9403  0.4838
 9201SOL    HW139236   1.620   0.997   8.218  0.1397 -1.0436  0.1401
 9201SOL    HW239237   1.683   0.863   8.228  1.0065  0.3227  1.7095
 9202SOL     OW39238   4.575   3.518   5.755 -0.3458 -0.1621 -0.3671
 9202SOL    HW139239   4.586   3.453   5.686 -0.1953  1.2957 -1.7315
 9202SOL    HW239240   4.623   3.595   5.722 -1.9024 -0.1141 -2.5321
 9203SOL     OW39241   1.078   3.035   2.711 -0.8962 -0.2105  0.2203
 9203SOL    HW139242   1.069   3.119   2.665 -1.4880 -0.6164 -0.3984
 9203SOL    HW239243   1.167   3.044   2.745 -0.1127 -0.0726 -1.8581
 9204SOL     OW39244   3.943   3.347   7.522  0.5804  0.0577 -0.0737
 9204SOL    HW139245   3.847   3.344   7.520  0.6459 -2.7302  0.9113
 9204SOL    HW239246   3.957   3.355   7.616  1.9128 -0.5991 -0.2192
 9205SOL     OW39247   0.831   4.729   7.303  0.0217 -0.0448 -1.1908
 9205SOL    HW139248   0.882   0.032   7.373 -0.4967 -2.8975  0.8194
 9205SOL    HW239249   0.785   0.070   7.270  1.3944  0.5318 -1.7291
 9206SOL     OW39250   1.330   1.021   7.754  0.4275  0.3426  0.8026
 9206SOL    HW139251   1.422   0.994   7.760 -0.3218 -1.9042  1.9489
 9206SOL    HW239252   1.318   1.069   7.672  0.5666 -1.0053  0.0042
 9207SOL     OW39253   2.441   0.153   3.392 -0.1982  1.0682 -0.1830
 9207SOL    HW139254   2.531   0.122   3.403 -0.1364  0.7936 -1.4745
 9207SOL    HW239255   2.465   0.241   3.421  1.4886  0.4188  0.4055
 9208SOL     OW39256   2.613   1.440   6.369 -0.0914 -0.2694 -0.3219
 9208SOL    HW139257   2.583   1.371   6.428  0.3903  0.5249  0.8604
 9208SOL    HW239258   2.659   1.406   6.292 -1.8084 -3.9789  0.2730
 9209SOL     OW39259   0.725   2.021   7.628 -0.3021 -0.2397 -0.0228
 9209SOL    HW139260   0.796   1.965   7.661  0.0158 -0.2444 -0.7221
 9209SOL    HW239261   0.696   2.058   7.711  1.1885  0.6507  0.1044
 9210SOL     OW39262   3.119   4.711  17.228  0.5305 -0.1093  0.0420
 9210SOL    HW139263   3.140   4.627  17.187  1.4229 -0.9712  2.2248
 9210SOL    HW239264   3.197   0.023  17.204 -0.5782  0.8387 -1.6235
 9211SOL     OW39265   1.207   0.362   3.703 -0.0943  0.3434  0.2525
 9211SOL    HW139266   1.197   0.319   3.788  0.2562  0.4776  0.3635
 9211SOL    HW239267   1.119   0.353   3.667 -0.7371 -0.5480  2.0704
 9212SOL     OW39268   4.555   3.388   4.755 -0.6812  0.3727  0.3952
 9212SOL    HW139269   4.638   3.432   4.742  0.0792 -0.5387  2.1358
 9212SOL    HW239270   4.568   3.315   4.695 -2.0315  0.7805 -0.3918
 9213SOL     OW39271   2.216   4.487   4.371 -1.0308 -0.1458  0.2892
 9213SOL    HW139272   2.293   4.430   4.377 -1.3319 -0.4728  0.9235
 9213SOL    HW239273   2.256   4.573   4.386  0.2523 -1.1464  2.5095
 9214SOL     OW39274   3.781   4.685  16.074 -0.1234 -0.5032  0.1188
 9214SOL    HW139275   3.869   4.694  16.110 -0.2479 -2.2531  0.8159
 9214SOL    HW239276   3.730   4.725  16.144 -2.1752 -1.1890 -0.9877
 9215SOL     OW39277   3.729   1.857   3.078 -0.1582  0.1933 -0.2373
 9215SOL    HW139278   3.765   1.910   3.149 -2.8109  1.5209  0.1344
 9215SOL    HW239279   3.647   1.832   3.120 -0.0103  0.3249  0.1378
 9216SOL     OW39280   1.807   0.672  10.683 -0.0184  0.1946  0.0305
 9216SOL    HW139281   1.766   0.674  10.597 -1.3137  0.9618  0.6769
 9216SOL    HW239282   1.808   0.767  10.686  0.4659  0.2308 -1.3370
 9217SOL     OW39283   2.914   2.956   5.802 -0.1073  0.2865  0.6900
 9217SOL    HW139284   2.953   3.040   5.821  0.0667  0.3151  0.2028
 9217SOL    HW239285   2.846   2.978   5.738  1.0462 -3.7586 -1.9574
 9218SOL     OW39286   1.381   2.142  12.276 -0.7134 -0.0597  0.2297
 9218SOL    HW139287   1.357   2.231  12.301 -0.5059  0.0912 -0.0998
 9218SOL    HW239288   1.347   2.093  12.351  1.3757  1.6689  2.3422
 9219SOL     OW39289   2.229   0.281   1.728 -0.1693  0.5971 -0.2841
 9219SOL    HW139290   2.220   0.362   1.778 -2.4073  0.1336  0.0587
 9219SOL    HW239291   2.160   0.294   1.663  1.0583 -0.2096 -1.7433
 9220SOL     OW39292   3.589   0.184  17.316 -0.3456 -0.1385  0.5444
 9220SOL    HW139293   3.612   0.265  17.270  1.7163 -2.5179 -2.5606
 9220SOL    HW239294   3.606   0.208  17.408 -0.9611 -2.1034  1.1694
 9221SOL     OW39295   2.927   1.623  14.956 -0.1511  0.0291 -0.0318
 9221SOL    HW139296   2.849   1.569  14.967 -1.2605  1.6706  0.0939
 9221SOL    HW239297   2.900   1.714  14.948  0.2537  0.2786  1.4565
 9222SOL     OW39298   4.587   3.173  11.537  0.3270 -0.3572  0.6122
 9222SOL    HW139299   4.549   3.232  11.472  0.8645  0.4743  1.0504
 9222SOL    HW239300   4.516   3.109  11.546 -0.4629  0.2218 -1.6313
 9223SOL     OW39301   4.716   1.176   2.195  0.5564 -0.0351  0.3332
 9223SOL    HW139302   4.727   1.120   2.272  2.2670  0.8964  0.7708
 9223SOL    HW239303   0.065   1.220   2.193  0.8010 -0.5507 -0.5967
 9224SOL     OW39304   1.148   4.276   5.179  0.8165 -0.1449  0.3282
 9224SOL    HW139305   1.166   4.189   5.217 -0.6436  0.1030  1.5793
 9224SOL    HW239306   1.067   4.291   5.227  0.8944 -1.3367  0.8490
 9225SOL     OW39307   1.925   2.503   0.829  0.4477 -0.1038  0.3308
 9225SOL    HW139308   1.984   2.437   0.864 -0.2954 -1.6060 -1.2066
 9225SOL    HW239309   1.931   2.579   0.886 -5.2853 -0.1329  1.0119
 9226SOL     OW39310   4.116   0.615   8.301 -0.0852 -0.1465  0.2402
 9226SOL    HW139311   4.176   0.688   8.288 -0.4451  0.4721  2.0891
 9226SOL    HW239312   4.101   0.633   8.393 -0.1735  0.2989  0.1367
 9227SOL     OW39313   2.728   3.194  17.165 -0.4561  0.2792 -0.3968
 9227SOL    HW139314   2.804   3.137  17.152  0.6690  1.6067  0.4444
 9227SOL    HW239315   2.682   3.184  17.081  0.9367  0.3975 -1.1778
 9228SOL     OW39316   1.599   3.616  12.908 -0.2898  0.5891  0.3861
 9228SOL    HW139317   1.598   3.695  12.964  0.1328 -0.4034  1.7940
 9228SOL    HW239318   1.566   3.642  12.822  0.0806  1.4470  0.5059
 9229SOL     OW39319   1.515   2.704   9.495 -0.0035  0.1083 -0.1412
 9229SOL    HW139320   1.437   2.740   9.538 -1.9350  0.3753 -3.8087
 9229SOL    HW239321   1.488   2.619   9.459  0.0040  0.3072 -0.6100
 9230SOL     OW39322   3.910   0.749   6.414 -0.1097  0.0453 -0.0541
 9230SOL    HW139323   3.867   0.765   6.329 -1.5663  0.1131  0.6930
 9230SOL    HW239324   3.914   0.828   6.468 -2.1406  0.9949 -1.2763
 9231SOL     OW39325   4.628   3.975  16.701  0.5692  0.3905 -0.8319
 9231SOL    HW139326   4.682   3.939  16.631  0.4397 -0.5802 -0.4254
 9231SOL    HW239327   4.678   3.947  16.777 -0.6118  1.5829  0.3936
 9232SOL     OW39328   2.593   1.872   3.811  0.1128 -0.5642  0.8132
 9232SOL    HW139329   2.581   1.779   3.827  2.6578 -1.4633 -2.6582
 9232SOL    HW239330   2.511   1.906   3.849 -0.4035 -0.1328 -0.6850
 9233SOL     OW39331   2.235   2.226   3.087  0.6958 -0.1942  0.3607
 9233SOL    HW139332   2.169   2.183   3.032  1.6958 -0.9897 -0.2248
 9233SOL    HW239333   2.273   2.146   3.124  1.0753  0.1543  0.7341
 9234SOL     OW39334   1.651   2.525   7.741  0.0803 -0.3910  0.4624
 9234SOL    HW139335   1.685   2.442   7.774  0.5899  0.3718  1.8647
 9234SOL    HW239336   1.654   2.514   7.646  1.8317  3.1755  0.0864
 9235SOL     OW39337   1.066   3.753   6.847  0.2739  0.5822 -0.0229
 9235SOL    HW139338   1.057   3.811   6.772  0.7451  1.0752  0.2999
 9235SOL    HW239339   1.001   3.787   6.910  0.1565 -0.0679  0.2054
 9236SOL     OW39340   0.047   0.021  17.311 -0.1587 -0.1815 -0.4329
 9236SOL    HW139341   4.735   0.050  17.234 -0.0504  2.0364  0.3278
 9236SOL    HW239342   4.723   4.706  17.364  0.1005  1.8279  1.8425
 9237SOL     OW39343   4.671   3.407   6.377  0.0698  0.0242 -0.1036
 9237SOL    HW139344   0.024   3.422   6.407  0.3166  2.7295 -2.2039
 9237SOL    HW239345   4.653   3.334   6.438  1.3475 -1.6004 -1.6754
 9238SOL     OW39346   4.342   4.723   3.177  0.3383  0.2017  0.0966
 9238SOL    HW139347   4.409   4.683   3.232  0.5303  0.5919  0.1444
 9238SOL    HW239348   4.267   4.675   3.213 -1.5237  2.0776 -1.2704
 9239SOL     OW39349   3.498   3.601   2.606  0.4631 -0.4726  0.2544
 9239SOL    HW139350   3.547   3.531   2.650 -1.0090 -0.3984  2.0238
 9239SOL    HW239351   3.408   3.579   2.631 -0.4386  0.7263 -1.9166
 9240SOL     OW39352   0.967   2.776   9.291 -0.3274 -0.5678 -0.0885
 9240SOL    HW139353   0.947   2.862   9.327  2.9275  0.8507 -1.6718
 9240SOL    HW239354   0.876   2.752   9.278 -1.6394  2.3995  3.5473
 9241SOL     OW39355   0.910   2.527   9.864 -0.0015 -0.1113 -0.3626
 9241SOL    HW139356   0.833   2.562   9.910  0.0487  2.1910 -1.9994
 9241SOL    HW239357   0.913   2.587   9.789  0.9510 -0.6385 -0.7402
 9242SOL     OW39358   4.393   1.348   7.913  0.0344 -0.5213  0.1362
 9242SOL    HW139359   4.400   1.391   7.998  0.9127  1.6673 -1.0512
 9242SOL    HW239360   4.382   1.256   7.936  1.3942 -0.4318  1.1355
 9243SOL     OW39361   2.460   0.182   0.228  0.9642 -0.2165 -0.0610
 9243SOL    HW139362   2.540   0.139   0.259  1.7031  0.9490 -0.3327
 9243SOL    HW239363   2.449   0.151   0.138 -1.6342 -1.1495  0.5836
 9244SOL     OW39364   0.532   1.475  16.536 -0.3179  0.5143  0.4692
 9244SOL    HW139365   0.552   1.398  16.483 -0.1722 -1.5093  3.5084
 9244SOL    HW239366   0.476   1.518  16.472 -0.9958  0.8057  1.2581
 9245SOL     OW39367   0.196   4.603  13.361 -0.1830  0.0126 -0.4149
 9245SOL    HW139368   0.213   4.522  13.312  0.2219 -0.3177  0.2759
 9245SOL    HW239369   0.279   4.605  13.408 -0.9763  0.5659  0.9424
 9246SOL     OW39370   1.360   1.089   3.862 -0.0357  0.2100 -0.0422
 9246SOL    HW139371   1.397   1.051   3.783  0.2100 -0.1714  0.2592
 9246SOL    HW239372   1.425   1.076   3.930  0.9110  1.2533 -0.7418
 9247SOL     OW39373   0.497   4.717   3.427 -0.0251 -0.0991 -0.5657
 9247SOL    HW139374   0.434   4.647   3.442  0.0731 -0.2086 -0.6760
 9247SOL    HW239375   0.464   0.054   3.480  0.9585  0.4117 -0.6664
 9248SOL     OW39376   0.944   0.947   6.953  0.0144  0.1664 -0.7143
 9248SOL    HW139377   0.926   0.927   7.045  1.4977  1.6602 -0.1073
 9248SOL    HW239378   0.886   0.880   6.916 -0.8414  0.9177 -0.7384
 9249SOL     OW39379   4.384   1.796  17.542  0.0636 -0.1153  0.5072
 9249SOL    HW139380   4.437   1.737  17.596  1.4762  0.6344 -0.0808
 9249SOL    HW239381   4.339   1.855  17.602 -0.8428  0.3807 -0.6537
 9250SOL     OW39382   2.004   0.881  14.119 -0.5894 -0.4550  0.5391
 9250SOL    HW139383   1.919   0.911  14.151 -1.2336 -2.5913  0.8294
 9250SOL    HW239384   1.980   0.820  14.049  0.9261  1.2569 -1.4832
 9251SOL     OW39385   1.019   2.915   3.783 -0.3269 -0.2875 -0.2299
 9251SOL    HW139386   0.954   2.892   3.850 -1.4711 -0.6286 -1.4506
 9251SOL    HW239387   0.981   3.000   3.760 -0.1792 -0.3256 -0.5990
 9252SOL     OW39388   0.063   3.759   1.902 -0.2444 -0.1831 -0.1956
 9252SOL    HW139389   0.102   3.751   1.990  1.7299 -1.6012 -1.1888
 9252SOL    HW239390   0.068   3.852   1.879 -1.1080 -0.0049  0.3355
 9253SOL     OW39391   4.502   0.818   6.466  0.6440  0.7282 -0.6846
 9253SOL    HW139392   4.539   0.896   6.508 -1.5353  0.3414  1.9101
 9253SOL    HW239393   4.513   0.757   6.538 -1.0880 -0.2701 -1.2756
 9254SOL     OW39394   1.165   3.265   3.816 -0.0117 -0.3943 -0.0789
 9254SOL    HW139395   1.085   3.226   3.779  0.2102  0.0387 -1.0295
 9254SOL    HW239396   1.137   3.298   3.901  1.3699  0.9044 -0.1390
 9255SOL     OW39397   4.531   2.392  16.205  0.2330  0.0344  0.7891
 9255SOL    HW139398   4.550   2.318  16.263  1.8974  0.3656  0.6724
 9255SOL    HW239399   4.618   2.429  16.194 -0.1486  0.3241 -1.2772
 9256SOL     OW39400   0.995   2.727   3.581 -0.0571 -0.2051  0.4304
 9256SOL    HW139401   1.002   2.786   3.655 -0.2230 -2.0122  1.8790
 9256SOL    HW239402   0.911   2.685   3.602  0.2425 -1.2399 -0.3965
 9257SOL     OW39403   1.960   0.800   8.987  0.6013 -0.1876  0.1287
 9257SOL    HW139404   2.048   0.763   8.980  0.4728 -0.2963 -0.9124
 9257SOL    HW239405   1.979   0.866   9.054 -0.7360  0.9033 -0.5665
 9258SOL     OW39406   2.692   2.714   3.314  0.1225  0.1282 -0.2702
 9258SOL    HW139407   2.689   2.754   3.401  2.5380  1.9483 -1.0173
 9258SOL    HW239408   2.616   2.760   3.280 -0.2449 -2.7913 -3.3958
 9259SOL     OW39409   1.795   3.773   7.896  0.2085 -0.6931  0.0276
 9259SOL    HW139410   1.734   3.821   7.840  0.5370  0.8460  0.9908
 9259SOL    HW239411   1.770   3.804   7.983 -0.0941 -0.5655 -0.1055
 9260SOL     OW39412   4.632   2.686  11.482  0.5683 -0.2577 -0.4087
 9260SOL    HW139413   4.547   2.705  11.522  0.8601 -1.2645  0.6854
 9260SOL    HW239414   4.694   2.733  11.538 -0.0226  1.8579 -1.5538
 9261SOL     OW39415   2.296   1.289  15.843 -0.3869 -0.7313 -0.1299
 9261SOL    HW139416   2.300   1.258  15.933 -0.6577  0.6221  0.3573
 9261SOL    HW239417   2.359   1.232  15.798 -0.9348 -0.1050 -1.7037
 9262SOL     OW39418   0.856   2.003   9.440  0.2082  0.4382 -0.3444
 9262SOL    HW139419   0.931   2.063   9.441  0.4109  0.1702  0.4263
 9262SOL    HW239420   0.780   2.060   9.435 -0.1458  0.1969  2.4165
 9263SOL     OW39421   0.591   1.296   4.517 -0.6547  0.5180 -0.0412
 9263SOL    HW139422   0.556   1.208   4.508  0.4135  0.0591  0.3496
 9263SOL    HW239423   0.652   1.288   4.590 -1.8657  2.3093  1.1970
 9264SOL     OW39424   0.961   1.553  15.333  0.6904 -0.1082 -0.2546
 9264SOL    HW139425   0.878   1.582  15.295  1.5567  0.6099 -1.5821
 9264SOL    HW239426   0.985   1.617  15.400  3.4539 -0.3270 -1.0522
 9265SOL     OW39427   0.157   4.254  11.285  0.1742  0.0473 -0.2281
 9265SOL    HW139428   0.240   4.241  11.331 -0.4135  1.3983  1.1989
 9265SOL    HW239429   0.143   4.348  11.272  0.9603  0.2011  0.0683
 9266SOL     OW39430   2.672   0.507   5.530 -0.9799  0.0327 -0.1026
 9266SOL    HW139431   2.725   0.581   5.561  1.3466 -0.0251 -4.0569
 9266SOL    HW239432   2.742   0.469   5.478 -0.0694 -1.8544  2.4888
 9267SOL     OW39433   3.410   2.964  16.096 -0.2182  0.0474 -0.1903
 9267SOL    HW139434   3.330   2.936  16.141 -0.5428  1.5278  0.1563
 9267SOL    HW239435   3.463   2.961  16.176  1.6490 -1.0821 -1.4715
 9268SOL     OW39436   1.919   4.256   5.410 -0.9768 -0.3997  0.5582
 9268SOL    HW139437   1.980   4.282   5.479 -0.4270 -0.0278 -0.0769
 9268SOL    HW239438   1.897   4.338   5.366  1.0058 -0.7759 -1.1133
 9269SOL     OW39439   4.262   3.639  10.147  0.3189 -0.9957  0.2483
 9269SOL    HW139440   4.239   3.551  10.117 -2.4297  0.6053 -2.4233
 9269SOL    HW239441   4.354   3.648  10.122  0.1260 -0.0602 -0.1274
 9270SOL     OW39442   4.104   1.423   2.393 -0.7628 -0.6944  0.3858
 9270SOL    HW139443   4.050   1.439   2.315  1.0977  2.0560 -0.3250
 9270SOL    HW239444   4.077   1.491   2.454 -1.1198  0.5377 -1.1408
 9271SOL     OW39445   0.977   3.682   8.850  0.2294 -0.0531 -0.7066
 9271SOL    HW139446   0.938   3.647   8.770  0.1977  1.5602 -1.4006
 9271SOL    HW239447   0.910   3.661   8.914  1.1746  0.4946  0.4690
 9272SOL     OW39448   0.980   0.590   2.892 -0.8056  0.1968  0.1020
 9272SOL    HW139449   1.050   0.524   2.893  0.1184  1.1911  2.3198
 9272SOL    HW239450   0.919   0.549   2.831 -0.8824  0.7719 -0.2076
 9273SOL     OW39451   3.072   3.587  14.685 -0.2262 -0.5596  0.0480
 9273SOL    HW139452   3.081   3.496  14.658  2.3133 -0.7693  1.5359
 9273SOL    HW239453   3.006   3.614  14.621  0.1126 -1.3909 -0.6528
 9274SOL     OW39454   2.199   4.700  11.505 -0.1522 -0.0952  0.1610
 9274SOL    HW139455   2.186   4.704  11.410 -4.6062 -2.4889  0.6316
 9274SOL    HW239456   2.153   4.622  11.537  0.1267  0.3073  1.5228
 9275SOL     OW39457   4.038   0.015   7.237 -0.6005 -0.1325 -0.2495
 9275SOL    HW139458   4.070   4.689   7.301  2.1070 -0.5374 -1.9995
 9275SOL    HW239459   3.948   0.034   7.263 -0.1544  1.0580  0.4607
 9276SOL     OW39460   1.615   1.018   7.750  0.0347  0.0211 -0.5712
 9276SOL    HW139461   1.589   1.036   7.660 -1.3377 -0.1247 -0.2074
 9276SOL    HW239462   1.670   0.940   7.745 -1.1680 -1.0104  1.9212
 9277SOL     OW39463   2.841   3.935   9.367  0.0429  0.1053 -0.3024
 9277SOL    HW139464   2.750   3.927   9.398  0.8988 -0.1372  2.1391
 9277SOL    HW239465   2.832   3.863   9.305 -0.0396  0.1875 -0.3859
 9278SOL     OW39466   3.309   4.293  14.406  0.6960 -0.3127 -0.1625
 9278SOL    HW139467   3.218   4.267  14.388  0.4351  0.8646 -0.5415
 9278SOL    HW239468   3.349   4.284  14.320  3.7387  0.0114  1.2261
 9279SOL     OW39469   4.375   2.353   2.290 -0.3574 -0.9521  0.2322
 9279SOL    HW139470   4.285   2.323   2.279 -1.8080  2.9253  1.9036
 9279SOL    HW239471   4.421   2.287   2.238  1.6810  0.1286  0.6676
 9280SOL     OW39472   2.522   2.331  15.647  0.3119 -0.7107  0.0679
 9280SOL    HW139473   2.604   2.282  15.646 -0.3099 -1.7621 -0.6878
 9280SOL    HW239474   2.462   2.278  15.700 -0.1375  0.5306  0.7799
 9281SOL     OW39475   3.235   1.936   7.506  0.6409  0.7243 -0.3218
 9281SOL    HW139476   3.284   1.861   7.538 -0.3715  1.1397  2.2447
 9281SOL    HW239477   3.293   1.999   7.464  1.0322 -0.3484 -1.3750
 9282SOL     OW39478   2.903   3.151   8.403  0.1857  0.0180  0.0168
 9282SOL    HW139479   2.924   3.238   8.369 -0.0695  0.7619  1.7226
 9282SOL    HW239480   2.961   3.143   8.479 -2.9276 -0.4561  2.3789
 9283SOL     OW39481   2.505   1.404  12.758  0.5115 -0.0753  0.2567
 9283SOL    HW139482   2.584   1.380  12.807  0.1286  1.4341  1.6008
 9283SOL    HW239483   2.448   1.330  12.738 -0.9362  0.4793  2.3199
 9284SOL     OW39484   2.282   2.766   7.584 -0.8487 -0.4319  0.1610
 9284SOL    HW139485   2.208   2.823   7.607  0.3563  0.0586  2.8401
 9284SOL    HW239486   2.254   2.679   7.615  1.6966 -2.8597 -4.3586
 9285SOL     OW39487   3.886   1.730  16.447  0.3906 -0.7422  0.7609
 9285SOL    HW139488   3.875   1.759  16.538  2.5459  0.9242  0.4984
 9285SOL    HW239489   3.806   1.770  16.414  0.6948 -0.2041  0.6636
 9286SOL     OW39490   0.723   2.181  17.020 -0.4608  0.3036 -0.1365
 9286SOL    HW139491   0.813   2.148  17.020 -1.9543 -3.8688 -0.9093
 9286SOL    HW239492   0.741   2.263  17.065  0.4360  0.3149 -0.5271
 9287SOL     OW39493   3.024   0.133   5.614  0.0531  0.4126 -0.5997
 9287SOL    HW139494   3.024   0.200   5.682 -0.0505 -0.9306  0.7219
 9287SOL    HW239495   2.934   0.099   5.612  0.1707  0.0761  0.0078
 9288SOL     OW39496   3.057   0.168   7.262 -0.3652 -0.5761  0.0112
 9288SOL    HW139497   2.995   0.236   7.237 -1.6542 -1.8983 -0.3411
 9288SOL    HW239498   3.012   0.101   7.211 -0.5187 -0.3538 -0.1433
 9289SOL     OW39499   3.244   3.307   9.602 -0.3137  0.1395  0.0883
 9289SOL    HW139500   3.252   3.301   9.697 -2.5870  1.6555  0.3556
 9289SOL    HW239501   3.320   3.356   9.569  0.7047 -0.2509  1.8316
 9290SOL     OW39502   0.999   0.234  14.036  0.2301 -0.2987 -0.1617
 9290SOL    HW139503   1.091   0.206  14.030  0.8065  1.2190  1.7774
 9290SOL    HW239504   1.004   0.327  14.058 -2.4123 -0.3651  0.6657
 9291SOL     OW39505   4.522   0.398   2.050 -0.0369 -0.1102  0.4243
 9291SOL    HW139506   4.548   0.367   1.963 -0.1712 -0.9552  0.6856
 9291SOL    HW239507   4.433   0.427   2.034  0.4383  0.3812 -1.3111
 9292SOL     OW39508   1.497   1.482   3.736  0.1019  0.0561 -0.1216
 9292SOL    HW139509   1.513   1.485   3.641 -0.8340 -0.0068 -0.2802
 9292SOL    HW239510   1.403   1.466   3.737 -0.0643  1.0017 -0.0947
 9293SOL     OW39511   2.546   3.288   6.752 -0.4008  0.0162  0.0442
 9293SOL    HW139512   2.525   3.253   6.665 -1.3438 -0.0395  0.2979
 9293SOL    HW239513   2.524   3.377   6.726  1.6589  0.3203 -0.6693
 9294SOL     OW39514   4.278   2.116   3.325  0.0213 -0.9003  0.7565
 9294SOL    HW139515   4.253   2.069   3.404  1.2333 -1.1886  0.9589
 9294SOL    HW239516   4.286   2.203   3.364  0.5523 -0.2926 -0.6852
 9295SOL     OW39517   4.013   0.369   5.586  0.3442  0.3124  0.4915
 9295SOL    HW139518   4.017   0.394   5.679  1.1899 -0.6424  0.7161
 9295SOL    HW239519   3.924   0.392   5.560 -0.2331 -2.4325  0.0015
 9296SOL     OW39520   3.174   4.124  17.484 -0.8757  0.2323  0.3243
 9296SOL    HW139521   3.103   4.113  17.548  0.8058  0.7301  2.2878
 9296SOL    HW239522   3.158   4.206  17.437  0.6393  0.0614 -0.4697
 9297SOL     OW39523   2.458   3.693  12.132  0.3306  0.0222  0.0913
 9297SOL    HW139524   2.479   3.610  12.173  0.0125  0.5843  1.3918
 9297SOL    HW239525   2.394   3.731  12.191  0.7908  2.7001 -1.1280
 9298SOL     OW39526   4.096   4.036   1.406  0.4176  0.1764 -0.1726
 9298SOL    HW139527   4.083   3.967   1.341  1.4361 -1.2735  1.1752
 9298SOL    HW239528   4.099   3.977   1.481 -1.3939  2.6076  1.8166
 9299SOL     OW39529   0.877   4.245   5.946 -0.6046  0.1893  0.5331
 9299SOL    HW139530   0.804   4.295   5.909 -0.7126 -0.4842 -0.1612
 9299SOL    HW239531   0.887   4.295   6.027  0.2793  0.5000  0.2387
 9300SOL     OW39532   3.509   1.824   3.287 -0.4871  0.0406 -0.2165
 9300SOL    HW139533   3.503   1.761   3.360  2.1225 -0.2730 -0.2621
 9300SOL    HW239534   3.480   1.902   3.334  0.0793 -0.2089  0.5552
 9301SOL     OW39535   0.954   1.666   6.827  0.3319  0.0412  0.4317
 9301SOL    HW139536   0.890   1.672   6.757 -0.3349 -2.9273  0.7810
 9301SOL    HW239537   1.025   1.614   6.789  0.3770 -0.3542  1.0641
 9302SOL     OW39538   2.268   0.185   9.581 -0.0620  0.0671  0.3607
 9302SOL    HW139539   2.348   0.180   9.530 -1.2740  0.0794 -1.5353
 9302SOL    HW239540   2.201   0.217   9.521  0.3600  1.8942  0.8844
 9303SOL     OW39541   4.565   3.284   6.157  0.2261  0.3821 -0.1587
 9303SOL    HW139542   4.524   3.357   6.110  2.4875  1.1272 -0.9622
 9303SOL    HW239543   4.592   3.329   6.237 -3.3221  0.1178  1.1640
 9304SOL     OW39544   2.933   4.452   8.816  0.4160 -0.3201 -0.8167
 9304SOL    HW139545   2.916   4.545   8.803  1.5447  0.1548  1.1110
 9304SOL    HW239546   2.985   4.438   8.737  1.4850  1.4820 -0.4292
 9305SOL     OW39547   1.890   4.005   1.049  0.0183 -0.8559 -0.2904
 9305SOL    HW139548   1.972   3.980   1.005  0.9465 -1.5597  1.8056
 9305SOL    HW239549   1.830   4.055   0.994 -0.3655  0.5786  1.4159
 9306SOL     OW39550   0.598   1.260   8.609  0.2346 -0.0377  0.1911
 9306SOL    HW139551   0.593   1.169   8.581  0.5571  0.2366 -0.7518
 9306SOL    HW239552   0.671   1.248   8.670  0.4021  0.6545  0.1298
 9307SOL     OW39553   4.668   1.057   9.317 -0.1649  0.4362 -0.6264
 9307SOL    HW139554   4.633   0.976   9.279 -3.1479  0.2580  2.5665
 9307SOL    HW239555   4.610   1.082   9.388 -0.5378 -1.2189 -0.3396
 9308SOL     OW39556   3.435   4.173   5.844 -0.0803  0.2595  0.1365
 9308SOL    HW139557   3.468   4.247   5.894  0.6443 -0.3185  0.5226
 9308SOL    HW239558   3.453   4.199   5.754 -0.1441 -0.7036 -0.1591
 9309SOL     OW39559   1.358   0.209   9.347  0.0253 -0.1114 -0.0018
 9309SOL    HW139560   1.442   0.233   9.385 -0.0457 -1.4292  1.0175
 9309SOL    HW239561   1.384   0.208   9.255 -0.3455 -0.2224 -0.1078
 9310SOL     OW39562   1.119   2.049  17.744  0.2883  0.1805  0.2808
 9310SOL    HW139563   1.138   1.977  17.684  1.1564 -1.2525  2.2460
 9310SOL    HW239564   1.181   2.035   0.071  0.3666 -2.8221 -0.3543
 9311SOL     OW39565   4.597   1.810   2.104  0.1552 -0.1944 -0.3311
 9311SOL    HW139566   4.601   1.862   2.185  1.6953  4.2555 -3.2937
 9311SOL    HW239567   4.689   1.805   2.079  0.7504 -0.2508  1.8567
 9312SOL     OW39568   0.099   0.755   9.507 -0.3621 -0.3119  0.1776
 9312SOL    HW139569   0.156   0.728   9.436 -1.7108  0.3513 -1.1492
 9312SOL    HW239570   0.109   0.850   9.501 -0.2810 -0.3482 -0.2198
 9313SOL     OW39571   2.991   0.136   1.971  0.2252 -0.5172 -0.6361
 9313SOL    HW139572   2.963   0.045   1.979 -0.6807 -0.3091 -1.3023
 9313SOL    HW239573   3.029   0.146   1.883 -1.1515  0.5918 -1.1065
 9314SOL     OW39574   0.545   1.581  10.031 -0.2794  0.0415 -0.0460
 9314SOL    HW139575   0.451   1.561  10.024  0.1314 -0.9190 -2.5420
 9314SOL    HW239576   0.570   1.597   9.940  0.7526 -1.0597  0.0449
 9315SOL     OW39577   2.218   1.222  10.994 -0.0811 -0.0409 -0.0103
 9315SOL    HW139578   2.251   1.222  11.084 -0.4498 -2.0473  0.1219
 9315SOL    HW239579   2.276   1.153  10.963 -0.5247 -0.2019 -0.4888
 9316SOL     OW39580   1.160   4.356   0.244  0.8535  0.1743 -0.5741
 9316SOL    HW139581   1.152   4.405   0.162  0.0675  1.5457  0.3366
 9316SOL    HW239582   1.227   4.289   0.232  0.6245 -0.0997 -0.3210
 9317SOL     OW39583   2.332   0.118   5.695 -0.3951  0.1297  0.1834
 9317SOL    HW139584   2.264   0.183   5.679  0.0178  1.2599  3.1565
 9317SOL    HW239585   2.273   0.049   5.725  1.5448 -1.6524 -0.0291
 9318SOL     OW39586   0.239   1.574   7.458 -0.0167  0.0344 -0.0321
 9318SOL    HW139587   0.144   1.572   7.458 -0.0599  2.0187  1.2350
 9318SOL    HW239588   0.233   1.670   7.463 -2.7579 -0.2213  1.4841
 9319SOL     OW39589   0.692   4.482   8.194  0.3128  0.1583  0.5564
 9319SOL    HW139590   0.601   4.499   8.170  0.5149  0.3195 -0.1068
 9319SOL    HW239591   0.735   4.458   8.112  1.9647 -1.1946  1.8128
 9320SOL     OW39592   4.245   2.501  13.192  0.8074 -0.2526  0.2957
 9320SOL    HW139593   4.178   2.520  13.127  0.7829 -2.0330 -0.1971
 9320SOL    HW239594   4.326   2.522  13.145 -0.0777 -0.2133 -1.1942
 9321SOL     OW39595   0.707   1.348   3.410 -0.7418  0.3264 -0.3473
 9321SOL    HW139596   0.655   1.347   3.491 -0.3286  2.1018 -0.0578
 9321SOL    HW239597   0.634   1.338   3.350 -1.6625  0.5462  0.7330
 9322SOL     OW39598   4.178   0.988  11.791  0.0177  0.0058  0.7058
 9322SOL    HW139599   4.225   0.959  11.713 -0.6447 -1.0258  0.6875
 9322SOL    HW239600   4.097   1.032  11.764  0.7709  0.3718 -0.9469
 9323SOL     OW39601   3.361   1.204   0.019  0.2323 -0.1317  0.3668
 9323SOL    HW139602   3.356   1.289   0.062  0.3717 -0.4389  0.9818
 9323SOL    HW239603   3.316   1.220  17.682  1.9676  1.0417 -0.3650
 9324SOL     OW39604   4.024   1.677  16.808 -0.8760 -0.1082  0.7982
 9324SOL    HW139605   4.110   1.672  16.849 -2.7377 -1.0604  4.5046
 9324SOL    HW239606   4.011   1.772  16.801 -0.9830 -0.3882 -2.9887
 9325SOL     OW39607   1.904   3.839   5.739 -0.3232 -0.1254  0.4377
 9325SOL    HW139608   1.911   3.851   5.644 -1.3326 -0.7240  0.2840
 9325SOL    HW239609   1.987   3.876   5.767 -0.9140  0.4219  1.4659
 9326SOL     OW39610   3.230   3.181   3.832 -0.7886  0.3036  0.2026
 9326SOL    HW139611   3.217   3.110   3.769 -1.3925  0.3535  0.2776
 9326SOL    HW239612   3.229   3.133   3.915  0.6095  0.8625  0.5572
 9327SOL     OW39613   0.608   3.615   5.788  0.5734 -0.5011 -0.0080
 9327SOL    HW139614   0.577   3.705   5.784 -0.2600 -0.8881 -2.0633
 9327SOL    HW239615   0.587   3.596   5.880  0.3373 -0.0887  0.0227
 9328SOL     OW39616   4.321   2.404   6.821 -0.3701 -0.7923  0.0664
 9328SOL    HW139617   4.288   2.444   6.901 -0.9812 -1.9895  0.4057
 9328SOL    HW239618   4.308   2.312   6.843  1.3137 -0.4023  2.6504
 9329SOL     OW39619   1.799   1.636   7.663  0.2287 -0.3766 -0.2265
 9329SOL    HW139620   1.773   1.556   7.618 -2.5780  0.8332 -0.7351
 9329SOL    HW239621   1.860   1.601   7.727  0.3148  0.8190  0.3505
 9330SOL     OW39622   0.428   4.247   5.024 -0.0460 -0.1749  0.0165
 9330SOL    HW139623   0.351   4.207   5.064 -1.8000  1.3575 -1.7970
 9330SOL    HW239624   0.481   4.176   4.987 -1.0859  0.1180 -2.0483
 9331SOL     OW39625   2.523   2.666   2.933 -0.1180 -0.5860  0.0368
 9331SOL    HW139626   2.615   2.674   2.960  0.2468 -1.4290 -0.9707
 9331SOL    HW239627   2.504   2.736   2.871  0.5368  0.3855  0.9202
 9332SOL     OW39628   4.635   3.373   2.821 -0.2584 -0.1615  0.0623
 9332SOL    HW139629   4.564   3.335   2.770 -1.2376 -0.5260  1.7071
 9332SOL    HW239630   4.667   3.437   2.757  0.5236 -0.9874 -0.3776
 9333SOL     OW39631   2.413   3.823  15.016  0.5762 -0.1315  0.5485
 9333SOL    HW139632   2.489   3.773  14.985 -0.1635 -0.7907 -0.2237
 9333SOL    HW239633   2.454   3.861  15.094  1.4212 -0.0654  0.0827
 9334SOL     OW39634   3.920   3.450   8.802  0.0418 -0.3634  0.6972
 9334SOL    HW139635   3.964   3.447   8.717  1.4031  0.5616  1.3696
 9334SOL    HW239636   3.873   3.367   8.810 -0.4245 -0.0037  1.7392
 9335SOL     OW39637   0.336   0.616   6.073 -0.2558  0.2899 -0.2969
 9335SOL    HW139638   0.413   0.574   6.034  0.7646  0.6132  1.3664
 9335SOL    HW239639   0.357   0.591   6.163 -0.7811  0.2728 -0.1803
 9336SOL     OW39640   4.665   0.300   4.500 -0.6574 -0.1007 -0.0631
 9336SOL    HW139641   4.706   0.213   4.502 -1.1950 -0.3492  0.1374
 9336SOL    HW239642   4.726   0.357   4.546 -1.4681  0.8643 -0.1927
 9337SOL     OW39643   0.401   2.111   7.201  0.3164  0.6969 -0.1994
 9337SOL    HW139644   0.464   2.058   7.151 -0.2490 -0.6302  0.4867
 9337SOL    HW239645   0.435   2.087   7.287 -1.8855 -1.7537 -0.0171
 9338SOL     OW39646   0.918   4.719   9.287  0.3725 -0.2734 -0.4753
 9338SOL    HW139647   0.952   0.070   9.269 -1.4059  0.6992  0.8985
 9338SOL    HW239648   0.841   4.725   9.230  0.7047  1.5093 -0.7292
 9339SOL     OW39649   2.912   3.822   0.059  0.6383  0.0307 -0.4370
 9339SOL    HW139650   2.864   3.751   0.017  0.9421 -0.4976  0.1096
 9339SOL    HW239651   2.855   3.892   0.026 -0.6981 -0.0177  1.7932
 9340SOL     OW39652   2.545   3.403  10.310  0.3186 -0.4594 -0.5878
 9340SOL    HW139653   2.618   3.464  10.312  1.3578 -1.7822  2.1146
 9340SOL    HW239654   2.503   3.409  10.224 -1.0247 -1.9144 -0.0484
 9341SOL     OW39655   1.735   1.914  17.005  0.2094 -0.0923  0.1347
 9341SOL    HW139656   1.701   1.930  17.093 -1.7394  1.8950 -0.9969
 9341SOL    HW239657   1.686   1.982  16.959  2.1620  0.7220 -0.7254
 9342SOL     OW39658   4.315   4.491  11.676 -0.0621  0.4682 -0.2099
 9342SOL    HW139659   4.367   4.419  11.641  2.0305  1.3856  1.0348
 9342SOL    HW239660   4.278   4.440  11.748  0.5075 -0.8929 -0.8818
 9343SOL     OW39661   3.711   2.139  12.064  0.2859 -0.2355  0.1560
 9343SOL    HW139662   3.704   2.053  12.107  0.4004 -0.1829  0.2818
 9343SOL    HW239663   3.784   2.112  12.008  1.4298 -2.9453  2.9501
 9344SOL     OW39664   1.406   2.052   8.269 -0.1824  0.2762 -0.6428
 9344SOL    HW139665   1.412   2.127   8.328 -0.3915 -0.4289  0.2676
 9344SOL    HW239666   1.494   2.034   8.236 -0.1030  1.5129 -1.1404
 9345SOL     OW39667   2.607   1.264   8.276 -0.4760  0.0491  0.2649
 9345SOL    HW139668   2.543   1.329   8.306  0.0594  0.1016  1.3177
 9345SOL    HW239669   2.626   1.215   8.356 -1.0874  0.7563  0.8407
 9346SOL     OW39670   1.853   1.193   7.103 -0.3639 -0.0356  0.5968
 9346SOL    HW139671   1.826   1.284   7.095  1.9352  0.5776 -0.2378
 9346SOL    HW239672   1.917   1.190   7.174 -0.1830  1.4651  0.4995
 9347SOL     OW39673   4.234   2.757   0.336  0.2229  0.0699  0.5314
 9347SOL    HW139674   4.234   2.687   0.271  1.6963  0.0341  0.5613
 9347SOL    HW239675   4.246   2.704   0.415  2.7971  0.5804  0.4834
 9348SOL     OW39676   0.661   2.881   8.075  0.1436  0.3225 -0.3055
 9348SOL    HW139677   0.572   2.886   8.109  0.7688 -0.7430  1.5139
 9348SOL    HW239678   0.715   2.891   8.154  1.4761  0.4354 -1.2354
 9349SOL     OW39679   2.640   0.296   4.147 -0.5725  0.1643  0.6260
 9349SOL    HW139680   2.647   0.391   4.137  0.9258  0.1032  1.1494
 9349SOL    HW239681   2.583   0.282   4.072 -0.7781 -0.3346  0.8718
 9350SOL     OW39682   1.670   1.848   7.187  0.0072 -0.3526  0.2374
 9350SOL    HW139683   1.711   1.864   7.272 -1.7013 -1.7807  1.3344
 9350SOL    HW239684   1.626   1.764   7.203  0.3761 -0.1373  2.3098
 9351SOL     OW39685   0.595   4.084   5.966  0.4446  0.0027 -0.0696
 9351SOL    HW139686   0.615   4.177   5.952 -0.5015  0.0395 -1.1188
 9351SOL    HW239687   0.600   4.073   6.061  0.6704 -1.6644 -0.2751
 9352SOL     OW39688   2.725   2.159   3.641 -0.1216 -1.1596 -0.7194
 9352SOL    HW139689   2.727   2.206   3.557 -0.0372  0.7357  0.3530
 9352SOL    HW239690   2.635   2.127   3.630 -1.1605  1.3642  0.5916
 9353SOL     OW39691   4.618   0.007   2.437  0.3655 -0.2165  0.4872
 9353SOL    HW139692   4.652   4.654   2.435 -0.1662 -0.4030 -0.0113
 9353SOL    HW239693   4.693   0.057   2.469 -1.6238  1.9097  1.8558
 9354SOL     OW39694   3.472   2.731   7.000  0.7489  0.0584 -0.3051
 9354SOL    HW139695   3.511   2.688   6.924  1.8255 -0.0750  0.3285
 9354SOL    HW239696   3.555   2.759   7.038  0.1328 -0.1939  1.2431
 9355SOL     OW39697   1.746   0.944  13.446 -0.0881  0.4000  0.6601
 9355SOL    HW139698   1.705   1.030  13.452  1.6521  1.2024  1.3251
 9355SOL    HW239699   1.784   0.932  13.534 -0.5519 -1.4636  0.5923
 9356SOL     OW39700   4.129   4.111   6.799 -0.2939  0.3658 -0.2867
 9356SOL    HW139701   4.054   4.083   6.852 -0.7547 -0.1507 -1.2045
 9356SOL    HW239702   4.111   4.205   6.807  1.7209  0.5908  1.4440
 9357SOL     OW39703   0.094   3.891   6.569 -0.9344  0.3398  0.1013
 9357SOL    HW139704   0.176   3.937   6.586 -1.0494  0.5028  0.2211
 9357SOL    HW239705   0.120   3.867   6.480  1.1126  0.7627  0.5911
 9358SOL     OW39706   2.721   0.406   6.882 -0.1278 -0.4097 -0.1347
 9358SOL    HW139707   2.690   0.399   6.792  0.4553 -2.3597 -0.1789
 9358SOL    HW239708   2.648   0.459   6.914  0.2650 -0.0140  0.1076
 9359SOL     OW39709   3.909   4.417  12.366 -0.0984 -0.6142 -0.2131
 9359SOL    HW139710   3.904   4.329  12.330  1.6514 -0.2996 -1.1983
 9359SOL    HW239711   3.938   4.393  12.454  0.2902 -1.3577 -0.5443
 9360SOL     OW39712   1.974   1.914   3.145 -0.5976 -0.2852  0.0182
 9360SOL    HW139713   1.935   1.854   3.082 -1.7838  1.0601 -0.5072
 9360SOL    HW239714   1.981   1.999   3.103 -0.0214  0.2697  1.2374
 9361SOL     OW39715   2.023   0.310   8.885  0.1867  0.1506  0.5028
 9361SOL    HW139716   1.958   0.357   8.937  0.0078 -0.6866  1.0389
 9361SOL    HW239717   2.009   0.350   8.800 -1.1152  0.4426  0.8611
 9362SOL     OW39718   1.766   0.986   6.502 -0.6886  0.6176  0.7890
 9362SOL    HW139719   1.815   0.937   6.568 -1.1897 -0.8610  0.0704
 9362SOL    HW239720   1.824   0.961   6.429 -0.4064 -1.0590  1.5702
 9363SOL     OW39721   1.060   0.241  11.082  0.0391  0.5380  0.4468
 9363SOL    HW139722   0.996   0.171  11.067  0.4472  0.2369  0.1088
 9363SOL    HW239723   1.060   0.234  11.178 -0.2258 -2.5463  0.2259
 9364SOL     OW39724   0.420   2.435   3.100 -0.4042 -0.3230  0.2781
 9364SOL    HW139725   0.461   2.521   3.110  0.3082 -0.8857  2.0852
 9364SOL    HW239726   0.333   2.450   3.137 -0.7952  0.6090 -0.9947
 9365SOL     OW39727   1.618   2.734   5.409 -0.4083 -0.1755 -0.0900
 9365SOL    HW139728   1.678   2.742   5.334 -0.7536  0.0634 -0.3426
 9365SOL    HW239729   1.686   2.766   5.468 -0.3777 -1.3564  0.4992
 9366SOL     OW39730   0.663   0.431   1.537 -0.1591  0.2587 -0.2442
 9366SOL    HW139731   0.575   0.401   1.513  0.0072  0.2685 -0.8815
 9366SOL    HW239732   0.666   0.403   1.628  0.1578  1.6681  0.1794
 9367SOL     OW39733   2.987   4.556  17.607 -0.4514  0.4769  0.8567
 9367SOL    HW139734   2.949   4.641  17.587  0.1800  0.5249 -0.1043
 9367SOL    HW239735   2.911   4.504  17.634 -1.0879  1.3651  0.7581
 9368SOL     OW39736   1.550   1.010   7.487  0.3875  0.2461 -1.0703
 9368SOL    HW139737   1.586   0.923   7.473  1.3415  0.3967  0.4626
 9368SOL    HW239738   1.560   1.049   7.399 -2.5115  0.8131 -1.1599
 9369SOL     OW39739   2.444   2.816   6.086 -0.0238  0.1081  0.1534
 9369SOL    HW139740   2.528   2.860   6.076  1.5530 -2.6148  1.3417
 9369SOL    HW239741   2.417   2.804   5.995  0.1265 -0.2583  0.1583
 9370SOL     OW39742   1.959   0.172  14.065  0.1132 -0.4596 -0.1614
 9370SOL    HW139743   2.029   0.143  14.124  0.5645  0.6379 -0.1494
 9370SOL    HW239744   1.972   0.267  14.070  1.6582 -0.5570 -2.2498
 9371SOL     OW39745   4.207   4.164   2.168  0.4066 -0.2858  0.1246
 9371SOL    HW139746   4.200   4.117   2.251  0.1808 -1.4368 -0.5517
 9371SOL    HW239747   4.138   4.126   2.114  2.4067 -0.0331 -2.6017
 9372SOL     OW39748   0.189   2.699   8.168  0.1706  0.1878 -0.4817
 9372SOL    HW139749   0.124   2.671   8.104  0.7369 -0.1414 -0.9030
 9372SOL    HW239750   0.244   2.621   8.167  1.3505  0.9949  0.5829
 9373SOL     OW39751   1.008   0.638   5.470  0.0634  0.2534 -0.0392
 9373SOL    HW139752   1.038   0.728   5.483 -1.0471  0.8240 -1.4623
 9373SOL    HW239753   0.918   0.637   5.503 -0.2446 -0.4462 -0.8927
 9374SOL     OW39754   1.213   2.529  10.798  0.5547  0.4348  0.2404
 9374SOL    HW139755   1.223   2.465  10.728  1.6687 -0.5343  1.2911
 9374SOL    HW239756   1.123   2.520  10.828  0.3144 -0.1901 -0.6734
 9375SOL     OW39757   3.820   4.428   2.963 -0.7386  0.0640 -0.6017
 9375SOL    HW139758   3.729   4.458   2.957 -0.3531  1.2628 -0.5633
 9375SOL    HW239759   3.853   4.484   2.892 -0.9661 -0.0730 -0.8158
 9376SOL     OW39760   1.909   2.684  12.280  0.6017 -0.1692 -0.0433
 9376SOL    HW139761   1.924   2.683  12.375  1.1379  0.7422 -0.1188
 9376SOL    HW239762   1.956   2.762  12.250  0.3796 -0.6722 -1.7135
 9377SOL     OW39763   0.879   3.034   7.947  0.7009 -0.2648 -0.1215
 9377SOL    HW139764   0.873   3.118   7.992  0.6652  0.0715 -0.7482
 9377SOL    HW239765   0.800   2.994   7.981  0.6305 -0.0919 -0.0801
 9378SOL     OW39766   2.741   4.637   6.302 -0.0004 -0.2913  0.5726
 9378SOL    HW139767   2.746   4.724   6.343 -0.1821  1.0194 -2.1519
 9378SOL    HW239768   2.822   4.631   6.252 -1.1485  0.3881 -1.3725
 9379SOL     OW39769   2.427   4.401   4.068  0.3489 -0.4677 -0.1530
 9379SOL    HW139770   2.331   4.397   4.064  0.3189  1.7707 -1.4744
 9379SOL    HW239771   2.432   4.380   4.161 -1.3429 -0.5990 -0.0965
 9380SOL     OW39772   1.710   2.819   5.125  0.1291 -1.0178 -1.3483
 9380SOL    HW139773   1.767   2.767   5.069  1.6094 -0.9480  0.0774
 9380SOL    HW239774   1.753   2.905   5.127 -4.8007  1.3652  2.8429
 9381SOL     OW39775   3.694   0.222   0.992 -0.3535  0.0967  0.4967
 9381SOL    HW139776   3.670   0.281   0.920  2.2843 -0.2026 -0.6501
 9381SOL    HW239777   3.769   0.270   1.029 -1.2200  1.6857  0.2067
 9382SOL     OW39778   0.967   4.101   4.286  0.0018 -0.3180  0.2267
 9382SOL    HW139779   0.978   4.184   4.333  1.1746  0.1372 -0.8579
 9382SOL    HW239780   0.877   4.099   4.255 -0.1445 -0.8091  0.6791
 9383SOL     OW39781   0.583   3.786   7.593 -0.3218  0.2147  1.0506
 9383SOL    HW139782   0.549   3.727   7.525  0.8037 -0.4834  1.1009
 9383SOL    HW239783   0.619   3.858   7.541 -1.4185  1.0750  1.4785
 9384SOL     OW39784   0.370   2.276   3.550  0.2156  0.2607 -0.3217
 9384SOL    HW139785   0.441   2.237   3.499 -1.3450 -1.0198 -1.4920
 9384SOL    HW239786   0.407   2.272   3.638 -0.9552  0.7147  0.1938
 9385SOL     OW39787   3.526   2.299   3.394  0.2492  0.2697 -0.4952
 9385SOL    HW139788   3.527   2.203   3.400  1.2229  0.1796 -2.1188
 9385SOL    HW239789   3.563   2.322   3.479  2.5292  1.3402 -1.7653
 9386SOL     OW39790   1.468   3.173   7.948 -0.7902 -0.0161 -1.3051
 9386SOL    HW139791   1.414   3.233   7.895  0.9800  1.6154 -1.2446
 9386SOL    HW239792   1.434   3.091   7.913 -0.2432 -0.5471 -0.5843
 9387SOL     OW39793   0.558   0.906   7.907 -0.2212  0.0410  0.1850
 9387SOL    HW139794   0.595   0.973   7.964  1.4545  0.0724 -0.9475
 9387SOL    HW239795   0.533   0.952   7.826  0.4944  3.3158  1.8277
 9388SOL     OW39796   3.762   0.939  12.886  0.2152 -1.0175  0.8937
 9388SOL    HW139797   3.723   0.888  12.815  2.7532 -1.2435 -0.3375
 9388SOL    HW239798   3.751   0.872  12.954  3.8376 -2.1978  0.3440
 9389SOL     OW39799   2.683   4.521   5.282  0.2345 -0.3182  0.8771
 9389SOL    HW139800   2.640   4.438   5.302  3.7951 -2.1760  0.9272
 9389SOL    HW239801   2.760   4.510   5.338  1.4789  0.0304 -0.7571
 9390SOL     OW39802   3.575   0.795   7.953  0.0351 -0.2177 -0.8386
 9390SOL    HW139803   3.620   0.721   7.994 -0.1569  0.9892  1.5078
 9390SOL    HW239804   3.592   0.775   7.861 -0.9318  0.9598 -1.2757
 9391SOL     OW39805   0.429   1.854   8.123 -0.1940  0.2162 -0.4033
 9391SOL    HW139806   0.434   1.841   8.218  1.2055 -2.3044 -0.8183
 9391SOL    HW239807   0.517   1.885   8.100  0.8712 -1.5824  1.2855
 9392SOL     OW39808   1.400   1.855  17.118  0.0147 -0.4972 -0.7736
 9392SOL    HW139809   1.474   1.889  17.168  0.7587 -1.0975 -1.4840
 9392SOL    HW239810   1.364   1.941  17.094 -1.5097 -1.4591 -1.9410
 9393SOL     OW39811   1.871   2.701   7.661  0.0918 -0.5098 -0.3705
 9393SOL    HW139812   1.826   2.667   7.739 -1.5464 -1.1058 -1.5825
 9393SOL    HW239813   1.865   2.626   7.602 -1.3430 -0.9620  0.3400
 9394SOL     OW39814   2.659   3.289   1.764  0.3011  0.3569  0.3543
 9394SOL    HW139815   2.616   3.205   1.747  0.4802  0.1640  0.8464
 9394SOL    HW239816   2.611   3.324   1.839 -0.5650 -2.1358  0.9703
 9395SOL     OW39817   3.298   0.625  13.395  0.2843 -0.3247  0.3985
 9395SOL    HW139818   3.347   0.565  13.451 -0.4353  0.6739  2.1019
 9395SOL    HW239819   3.330   0.711  13.422 -0.2470  0.7438 -2.4246
 9396SOL     OW39820   4.040   4.248   8.469 -0.0872 -0.1652 -0.8263
 9396SOL    HW139821   4.067   4.255   8.560 -0.0584 -1.4136 -0.7501
 9396SOL    HW239822   3.984   4.171   8.468 -0.5680  0.1903 -1.3770
 9397SOL     OW39823   0.506   1.454  10.754 -0.3163 -0.4340  0.4972
 9397SOL    HW139824   0.583   1.437  10.699  1.8540 -1.1750  3.7573
 9397SOL    HW239825   0.452   1.516  10.705  2.4600  1.8045  0.2822
 9398SOL     OW39826   3.801   4.406   7.367 -0.8920  0.4568  0.3514
 9398SOL    HW139827   3.770   4.315   7.363 -1.3527  0.4896  2.9763
 9398SOL    HW239828   3.859   4.400   7.442 -0.1931 -0.1587 -0.2359
 9399SOL     OW39829   3.490   4.359  12.050 -0.5164  0.3662 -0.4542
 9399SOL    HW139830   3.444   4.373  12.133  1.4865  2.3204  0.3487
 9399SOL    HW239831   3.411   4.373  11.999  0.7761 -1.7025 -2.9996
 9400SOL     OW39832   0.058   1.608   8.394 -0.6231  0.0300  0.0715
 9400SOL    HW139833   0.048   1.590   8.300  0.9568  2.6163 -0.6006
 9400SOL    HW239834   0.119   1.536   8.405  1.0980  1.5720  0.6581
 9401SOL     OW39835   0.161   4.373   4.313  0.8905  0.2440  0.3204
 9401SOL    HW139836   0.249   4.339   4.299  0.4028 -0.7631 -0.3059
 9401SOL    HW239837   0.189   4.461   4.339  0.4188  1.1155 -2.1024
 9402SOL     OW39838   0.680   2.497   5.923 -0.0011 -0.1066 -0.0683
 9402SOL    HW139839   0.758   2.551   5.907 -1.5655  1.7714 -1.4565
 9402SOL    HW239840   0.687   2.485   6.017 -1.4897 -0.2107  0.0249
 9403SOL     OW39841   4.174   4.424   7.825  0.1494  0.1037 -0.6481
 9403SOL    HW139842   4.091   4.380   7.843  0.1351  0.2124 -0.4394
 9403SOL    HW239843   4.149   4.477   7.749  0.1116  1.7085  0.4720
 9404SOL     OW39844   1.236   4.059  13.369 -0.1840  0.1908  0.4229
 9404SOL    HW139845   1.320   4.024  13.338 -0.5575 -0.6702  0.3757
 9404SOL    HW239846   1.180   3.983  13.353 -0.8270  0.6476  0.5298
 9405SOL     OW39847   1.281   1.500   4.088 -0.3056  0.0404  0.2366
 9405SOL    HW139848   1.322   1.429   4.138 -2.7055 -1.5777 -0.0873
 9405SOL    HW239849   1.203   1.518   4.141 -1.7024  1.2073 -2.2155
 9406SOL     OW39850   3.310   2.515   5.589  0.5538  0.0037  0.2654
 9406SOL    HW139851   3.288   2.582   5.654 -2.5611  0.0777 -0.8237
 9406SOL    HW239852   3.405   2.509   5.597  0.4896 -0.3064  0.8164
 9407SOL     OW39853   2.240   2.466   5.262  0.2611  0.1620  0.5023
 9407SOL    HW139854   2.168   2.495   5.318  0.9064  2.5019  0.0807
 9407SOL    HW239855   2.265   2.550   5.225 -1.7570 -0.0297 -1.3026
 9408SOL     OW39856   0.223   3.752   2.150 -0.3781 -0.2790 -0.7016
 9408SOL    HW139857   0.250   3.663   2.170  0.0639  0.1108  0.4176
 9408SOL    HW239858   0.255   3.799   2.226  0.2163 -1.3314 -0.3012
 9409SOL     OW39859   2.773   3.447   4.604 -0.0753  0.1513  0.1666
 9409SOL    HW139860   2.742   3.392   4.532 -0.0258 -1.7707  1.6363
 9409SOL    HW239861   2.788   3.385   4.675 -1.0311  1.8696  1.8472
 9410SOL     OW39862   0.764   2.975   5.431 -0.1997  0.1189  0.6713
 9410SOL    HW139863   0.751   3.069   5.447  1.5436  0.9894 -2.9492
 9410SOL    HW239864   0.842   2.950   5.482  0.1482 -0.8489 -0.3400
 9411SOL     OW39865   1.496   3.072   6.822 -0.5446 -0.3897 -0.1684
 9411SOL    HW139866   1.527   3.095   6.734  0.7785 -1.7305 -0.0569
 9411SOL    HW239867   1.475   2.979   6.816  0.1222 -0.5919  0.6293
 9412SOL     OW39868   4.133   3.534   4.989 -0.2297  0.3848 -0.2139
 9412SOL    HW139869   4.065   3.542   5.056  0.8119  1.3445  0.7383
 9412SOL    HW239870   4.152   3.441   5.004 -2.1346 -0.0293 -0.4548
 9413SOL     OW39871   4.289   2.915   7.700 -0.1624 -0.5184  0.1271
 9413SOL    HW139872   4.209   2.870   7.675 -0.5105  0.1263  0.0755
 9413SOL    HW239873   4.259   2.960   7.779  0.8907  0.0187  0.2298
 9414SOL     OW39874   4.422   2.396  11.178  0.2938 -0.3117  0.7054
 9414SOL    HW139875   4.505   2.363  11.142 -0.0487  0.4222 -0.7451
 9414SOL    HW239876   4.449   2.483  11.208 -1.2229 -0.6651  3.0949
 9415SOL     OW39877   1.496   3.784   5.350  0.4818  0.0903  0.3711
 9415SOL    HW139878   1.587   3.781   5.381  0.6035 -1.9023 -0.1563
 9415SOL    HW239879   1.463   3.840   5.419 -0.6901  1.2354 -1.1141
 9416SOL     OW39880   3.137   0.521   7.098 -0.0923  0.2251 -0.1877
 9416SOL    HW139881   3.046   0.550   7.106 -0.6024 -1.2337 -0.6709
 9416SOL    HW239882   3.152   0.488   7.187  0.7272  2.5973  0.5476
 9417SOL     OW39883   1.551   3.909  12.936  0.2376 -0.2299 -0.3076
 9417SOL    HW139884   1.570   3.953  12.853 -1.6847  2.7088  0.8185
 9417SOL    HW239885   1.568   3.980  12.998 -1.6684  2.5572 -2.9481
 9418SOL     OW39886   3.542   2.239   9.302  0.2679  0.1294 -0.5129
 9418SOL    HW139887   3.636   2.226   9.289  0.5506  2.2100 -0.5937
 9418SOL    HW239888   3.517   2.156   9.342  1.7202 -0.5027 -0.9271
 9419SOL     OW39889   0.296   3.812   4.078 -0.6262 -0.2010  0.4652
 9419SOL    HW139890   0.203   3.805   4.057 -0.7195  0.9966  0.4973
 9419SOL    HW239891   0.298   3.731   4.129 -1.5274  0.2511  1.2253
 9420SOL     OW39892   0.052   1.723   8.659 -0.6933 -0.1973 -0.0727
 9420SOL    HW139893   0.037   1.690   8.570 -1.1280 -1.5007  0.4869
 9420SOL    HW239894   4.704   1.709   8.700 -1.2080 -0.2002 -1.1233
 9421SOL     OW39895   3.973   3.264   2.322 -0.2271  0.1480 -0.1478
 9421SOL    HW139896   4.048   3.223   2.366  1.1516  1.7534 -1.0516
 9421SOL    HW239897   4.001   3.250   2.232 -0.4918 -2.1700  0.1154
 9422SOL     OW39898   1.068   0.340   2.783 -0.3574 -0.2888 -0.4270
 9422SOL    HW139899   1.119   0.373   2.709  2.1014 -1.1969  0.8764
 9422SOL    HW239900   1.005   0.286   2.735 -0.2609  0.4251 -1.3650
 9423SOL     OW39901   2.846   4.729  17.205  0.1281  0.1800  0.1785
 9423SOL    HW139902   2.941   4.716  17.214  0.1954  0.0466 -0.7059
 9423SOL    HW239903   2.846   0.033  17.118 -0.2559 -0.1338  0.0346
 9424SOL     OW39904   2.397   2.909   9.140  0.0057 -0.3498  0.6757
 9424SOL    HW139905   2.404   2.827   9.091  1.9414  0.0935  0.2011
 9424SOL    HW239906   2.310   2.943   9.118  0.3352 -0.7465 -1.2717
 9425SOL     OW39907   1.078   2.439   3.566  0.2123  0.2806  0.3113
 9425SOL    HW139908   1.117   2.525   3.582 -1.2799  0.1706  4.2467
 9425SOL    HW239909   0.999   2.465   3.519  0.6448 -2.2922 -1.8629
 9426SOL     OW39910   4.018   0.805   4.773 -0.2602 -0.3743 -0.4800
 9426SOL    HW139911   3.970   0.808   4.691 -1.0409  0.9695  0.0167
 9426SOL    HW239912   4.076   0.729   4.768  0.7473  0.3702 -0.1248
 9427SOL     OW39913   0.686   1.183   5.938 -0.0900 -0.3659 -0.6730
 9427SOL    HW139914   0.641   1.246   5.883  0.9305  0.3560 -0.6797
 9427SOL    HW239915   0.615   1.165   6.001 -1.5888  1.0810 -1.9590
 9428SOL     OW39916   3.189   1.661   3.611  0.3072 -0.1416 -0.3412
 9428SOL    HW139917   3.110   1.611   3.590  0.4373 -0.4798 -0.0267
 9428SOL    HW239918   3.163   1.742   3.655 -0.8864 -0.2514 -0.8491
 9429SOL     OW39919   0.946   3.064   1.794 -0.6963 -0.4138  0.1301
 9429SOL    HW139920   0.882   3.122   1.754 -0.9903 -0.4068  0.6087
 9429SOL    HW239921   0.896   2.986   1.818 -0.2321 -1.1062 -1.1800
 9430SOL     OW39922   0.508   0.257   3.128  0.0160 -0.1444  0.2307
 9430SOL    HW139923   0.559   0.244   3.049  1.5798 -0.4782  1.3031
 9430SOL    HW239924   0.577   0.241   3.193 -1.0897  0.7467  1.6493
 9431SOL     OW39925   1.654   3.380   9.648  0.2469  0.1369  0.1292
 9431SOL    HW139926   1.570   3.406   9.686  0.0102 -0.0569 -0.2609
 9431SOL    HW239927   1.629   3.400   9.558 -1.2987  1.2567  0.7966
 9432SOL     OW39928   2.866   1.553   6.438 -0.4124  0.5380 -0.7469
 9432SOL    HW139929   2.783   1.507   6.420 -1.3438  1.5061  1.1249
 9432SOL    HW239930   2.831   1.594   6.517  0.7114  0.1971 -0.0809
 9433SOL     OW39931   2.699   1.325   4.423  0.3078 -0.0100 -0.0462
 9433SOL    HW139932   2.692   1.303   4.330  0.2418 -0.1523 -0.0078
 9433SOL    HW239933   2.628   1.389   4.416  0.4385  0.2570  1.0738
 9434SOL     OW39934   1.213   1.057  11.717 -0.6638  1.0420  0.6786
 9434SOL    HW139935   1.259   1.013  11.645 -1.2807  2.5559 -0.6465
 9434SOL    HW239936   1.135   1.003  11.724 -1.5508  2.3583  0.8706
 9435SOL     OW39937   4.261   0.777   6.830 -0.1462  0.3280  0.0805
 9435SOL    HW139938   4.276   0.749   6.921  0.3129 -2.5879 -0.9097
 9435SOL    HW239939   4.221   0.699   6.792  1.5934 -0.5346  0.0444
 9436SOL     OW39940   3.586   3.070   9.222  0.6816  0.0689  0.0386
 9436SOL    HW139941   3.663   3.018   9.246 -0.1437 -1.0120  0.3264
 9436SOL    HW239942   3.514   3.027   9.268 -1.3378  0.1685 -3.0669
 9437SOL     OW39943   0.409   0.897   8.202 -0.3523 -0.2211 -0.1241
 9437SOL    HW139944   0.430   0.813   8.162  0.0774 -0.9136  1.5643
 9437SOL    HW239945   0.313   0.894   8.206 -0.4706  1.8276 -0.9428
 9438SOL     OW39946   0.639   4.445   6.223  0.5564  0.2844 -0.2688
 9438SOL    HW139947   0.658   4.392   6.300 -0.1138 -1.7268 -1.4830
 9438SOL    HW239948   0.641   4.381   6.151 -2.2338 -0.5866  0.4142
 9439SOL     OW39949   1.961   2.978   0.801 -0.5638 -0.4503 -0.1439
 9439SOL    HW139950   2.038   2.969   0.744  0.1941 -1.1955  0.9925
 9439SOL    HW239951   1.945   3.072   0.812  0.6472 -0.3320  0.5883
 9440SOL     OW39952   0.790   0.138  10.827  0.6395 -0.3751 -0.3710
 9440SOL    HW139953   0.710   0.095  10.797  0.3662  0.9315 -1.5523
 9440SOL    HW239954   0.815   0.186  10.748 -0.4324  0.8652  0.0496
 9441SOL     OW39955   2.309   2.738  11.156 -0.3350  0.5314  0.3768
 9441SOL    HW139956   2.217   2.719  11.173 -0.6232  0.7372 -1.0062
 9441SOL    HW239957   2.314   2.831  11.180  3.1333  0.1078  1.3472
 9442SOL     OW39958   1.270   1.120  10.937  0.0570  0.4531  0.0331
 9442SOL    HW139959   1.322   1.152  11.011 -1.0151 -1.1284  1.4840
 9442SOL    HW239960   1.185   1.116  10.981 -0.5481 -0.7696 -1.2695
 9443SOL     OW39961   2.572   1.605   3.803 -0.4061 -0.0800  0.6868
 9443SOL    HW139962   2.531   1.526   3.770  0.5997 -0.7396  1.0132
 9443SOL    HW239963   2.661   1.570   3.801 -0.3961  0.1804 -2.9926
 9444SOL     OW39964   3.514   2.769   6.411  0.0480 -0.2285 -0.1893
 9444SOL    HW139965   3.492   2.840   6.350 -0.1537 -2.3879 -2.6699
 9444SOL    HW239966   3.432   2.765   6.460 -0.2072 -0.8173 -0.6494
 9445SOL     OW39967   3.487   3.255   7.951 -0.7300 -0.1259 -0.2238
 9445SOL    HW139968   3.456   3.290   8.034  1.5967  1.3975  0.0045
 9445SOL    HW239969   3.405   3.231   7.906 -1.2965  0.9669  0.2284
 9446SOL     OW39970   3.847   1.274   6.012  0.4155  0.5007 -0.6737
 9446SOL    HW139971   3.784   1.315   6.071  0.9789  1.5555 -0.7994
 9446SOL    HW239972   3.877   1.207   6.073  0.5077  1.4000  0.2598
 9447SOL     OW39973   3.883   3.956   3.836  0.2491 -0.3672 -0.3777
 9447SOL    HW139974   3.800   3.911   3.851 -0.5133  0.6631 -1.4367
 9447SOL    HW239975   3.906   3.996   3.920  0.8385 -0.9667 -0.2535
 9448SOL     OW39976   0.488   4.692   8.862  0.4643 -0.5823  0.2528
 9448SOL    HW139977   0.452   4.735   8.940 -0.7687  1.5369 -1.4919
 9448SOL    HW239978   0.439   4.610   8.859  1.0908 -0.9530  0.0623
 9449SOL     OW39979   4.048   1.185  17.646 -0.2491 -0.2576  0.4050
 9449SOL    HW139980   4.052   1.129  17.724  0.3959 -0.2465  0.3845
 9449SOL    HW239981   4.058   1.271  17.686  0.7436 -0.1178 -0.1204
 9450SOL     OW39982   2.717   3.407   5.424 -0.0802  0.3830  0.1034
 9450SOL    HW139983   2.728   3.391   5.518  0.1736 -1.2984 -0.2233
 9450SOL    HW239984   2.735   3.325   5.380 -0.4471  0.4767 -0.2213
 9451SOL     OW39985   4.435   1.217   3.632  0.1214 -0.1679  0.2343
 9451SOL    HW139986   4.451   1.290   3.573 -1.0993 -1.3784 -1.6219
 9451SOL    HW239987   4.386   1.269   3.696 -1.3976 -0.9858 -0.2736
 9452SOL     OW39988   2.207   1.258   3.577  0.2959 -0.2195  0.3790
 9452SOL    HW139989   2.249   1.231   3.659  0.0480 -3.5947 -0.6362
 9452SOL    HW239990   2.120   1.250   3.615 -0.5541  0.3000 -1.4498
 9453SOL     OW39991   2.599   2.858  12.153 -0.3123 -0.0182 -0.3798
 9453SOL    HW139992   2.633   2.844  12.241 -0.6916 -0.2124 -0.2669
 9453SOL    HW239993   2.529   2.920  12.173 -0.2540  0.4680 -1.6564
 9454SOL     OW39994   1.436   3.870  13.642 -0.6841 -0.0206 -0.2220
 9454SOL    HW139995   1.444   3.793  13.585  1.3818 -0.1954  0.3166
 9454SOL    HW239996   1.493   3.927  13.591 -0.9965 -0.5691 -1.1934
 9455SOL     OW39997   2.127   2.930   5.673  0.3987 -0.0114  0.1245
 9455SOL    HW139998   2.162   2.910   5.586 -1.7639  0.3543 -0.8462
 9455SOL    HW239999   2.032   2.921   5.666  0.4006 -0.1602  0.2935
 9456SOL     OW40000   2.599   0.919  12.873  0.6002  0.1224  0.1201
 9456SOL    HW140001   2.617   0.841  12.925 -0.5938 -0.9840 -1.1362
 9456SOL    HW240002   2.625   0.985  12.938  0.7477  0.9328 -0.7602
 9457SOL     OW40003   2.211   0.216   7.229 -0.2271 -0.0932 -0.0933
 9457SOL    HW140004   2.297   0.193   7.266 -0.5769  0.5262  1.1212
 9457SOL    HW240005   2.230   0.310   7.223 -1.7327  0.1242 -1.4372
 9458SOL     OW40006   2.300   4.510   1.608  0.1305 -0.3714  0.0315
 9458SOL    HW140007   2.310   4.500   1.703 -0.0430  2.3112  0.3476
 9458SOL    HW240008   2.390   4.514   1.577 -0.0362  0.5389 -0.3486
 9459SOL     OW40009   1.610   2.564  12.269  0.0289  0.1376 -0.4185
 9459SOL    HW140010   1.705   2.561  12.261 -0.0099 -0.4514 -0.6362
 9459SOL    HW240011   1.594   2.658  12.280 -2.2534 -0.4718  1.4361
 9460SOL     OW40012   4.617   1.443   6.706  0.2939 -0.4192  0.6086
 9460SOL    HW140013   4.617   1.441   6.610  2.1915  0.7227  0.5926
 9460SOL    HW240014   4.537   1.494   6.718  1.1055  1.5911 -2.6271
 9461SOL     OW40015   2.479   0.611   8.977  0.1102 -0.1735 -0.1082
 9461SOL    HW140016   2.448   0.524   9.002 -0.7547 -0.0265 -0.6823
 9461SOL    HW240017   2.501   0.652   9.060 -0.4256 -1.2504  0.5601
 9462SOL     OW40018   4.493   4.382  14.856 -0.7578  0.0617 -0.2879
 9462SOL    HW140019   4.437   4.348  14.927 -0.0902  1.6266  0.9824
 9462SOL    HW240020   4.460   4.471  14.867 -0.0354  0.2291  0.4761
 9463SOL     OW40021   2.594   2.454   7.220 -0.8239  0.6454 -0.5631
 9463SOL    HW140022   2.627   2.539   7.190  3.4108 -0.9280 -0.4175
 9463SOL    HW240023   2.555   2.485   7.302 -0.6439 -1.9532  0.5193
 9464SOL     OW40024   3.549   1.191  15.704 -0.4050  0.7144  0.3900
 9464SOL    HW140025   3.582   1.166  15.617 -1.5282 -1.5109  0.6016
 9464SOL    HW240026   3.483   1.123  15.721 -0.1855  0.7941  1.5619
 9465SOL     OW40027   0.395   4.229   3.706  0.5530 -0.2163 -0.0400
 9465SOL    HW140028   0.343   4.194   3.778 -1.0424  0.9298 -0.6375
 9465SOL    HW240029   0.321   4.270   3.660  0.8718  0.1145 -0.2601
 9466SOL     OW40030   3.542   3.281  13.995 -0.3090  0.2196 -0.1114
 9466SOL    HW140031   3.544   3.185  13.991 -0.0025  0.2266 -0.1672
 9466SOL    HW240032   3.453   3.310  14.014 -0.7030 -0.7000 -0.4960
 9467SOL     OW40033   1.739   1.575  14.986  0.2251  0.4208 -0.1576
 9467SOL    HW140034   1.773   1.486  14.991  1.2176  0.9271  2.2836
 9467SOL    HW240035   1.816   1.622  15.018  0.2657 -1.4616  2.5666
 9468SOL     OW40036   3.911   0.634   2.305 -0.0609  0.0448 -0.2050
 9468SOL    HW140037   3.935   0.583   2.382 -1.8190 -1.7015 -0.8004
 9468SOL    HW240038   3.984   0.620   2.245 -0.5641  2.8175 -1.4940
 9469SOL     OW40039   3.055   4.402  11.038 -0.1041  0.2466 -0.0792
 9469SOL    HW140040   3.108   4.365  11.108 -1.5275 -1.4553  0.1004
 9469SOL    HW240041   2.988   4.453  11.083  0.9860  0.2695  1.5283
 9470SOL     OW40042   3.524   1.236   7.393  0.6483  0.0719 -0.1893
 9470SOL    HW140043   3.537   1.173   7.323  1.0655 -1.3622  1.1765
 9470SOL    HW240044   3.518   1.174   7.466  0.9672 -0.7185 -0.8416
 9471SOL     OW40045   4.663   4.477   1.637  0.1121  0.6389 -0.1807
 9471SOL    HW140046   4.603   4.545   1.667  0.4112  1.2467 -0.9486
 9471SOL    HW240047   4.675   4.424   1.715  2.2732  2.3410  0.6511
 9472SOL     OW40048   4.615   4.529   5.809 -0.6854 -0.1504 -0.9065
 9472SOL    HW140049   4.590   4.483   5.729 -2.0357  1.3611 -1.3542
 9472SOL    HW240050   4.556   4.604   5.795  0.2401  0.5449 -1.0604
 9473SOL     OW40051   3.911   1.969   9.564 -0.5323  0.4138 -0.1054
 9473SOL    HW140052   3.977   2.025   9.523 -0.7581  0.6254 -0.1744
 9473SOL    HW240053   3.836   1.985   9.507 -0.9449 -2.1160 -0.3029
 9474SOL     OW40054   3.442   0.142  16.561 -0.6601 -0.2392  0.2165
 9474SOL    HW140055   3.463   0.162  16.653 -0.7738 -0.5616  0.3109
 9474SOL    HW240056   3.444   0.047  16.573  0.8361 -0.1742  0.4715
 9475SOL     OW40057   4.571   0.679   6.098 -0.1519  0.4850  0.3868
 9475SOL    HW140058   4.504   0.668   6.166 -0.2014  2.8601  0.7285
 9475SOL    HW240059   4.539   0.753   6.046  0.7085  0.6497  0.1005
 9476SOL     OW40060   1.645   0.208   6.420 -0.0655 -0.6712 -0.1011
 9476SOL    HW140061   1.659   0.302   6.408 -0.8768 -0.1992  2.5438
 9476SOL    HW240062   1.631   0.205   6.515 -0.3979 -0.2154 -0.1355
 9477SOL     OW40063   2.373   3.728   8.594 -0.0466 -0.1240  0.5123
 9477SOL    HW140064   2.284   3.762   8.601 -0.5238 -0.9724 -1.3429
 9477SOL    HW240065   2.382   3.687   8.680 -1.0238  2.1708  1.7179
 9478SOL     OW40066   0.597   2.096   9.425  0.2687  0.0558  0.4895
 9478SOL    HW140067   0.520   2.040   9.412 -0.9588  1.5565  1.3869
 9478SOL    HW240068   0.563   2.184   9.412  0.4782  0.0715  0.0344
 9479SOL     OW40069   3.452   4.144   1.989 -0.2315 -0.8245  0.3122
 9479SOL    HW140070   3.542   4.144   1.957 -0.5493  3.2842 -0.6247
 9479SOL    HW240071   3.406   4.104   1.915 -2.4073 -0.8046  1.6637
 9480SOL     OW40072   4.623   2.523   7.708 -0.2833  0.8049 -0.7161
 9480SOL    HW140073   4.686   2.595   7.713 -1.5575  1.9879 -1.4740
 9480SOL    HW240074   4.684   2.452   7.690 -1.6382 -0.3322 -0.8448
 9481SOL     OW40075   0.907   0.739   6.310  0.2635  0.6688 -0.1912
 9481SOL    HW140076   0.880   0.722   6.400  1.9617  1.0738  0.3978
 9481SOL    HW240077   0.963   0.664   6.289 -1.2777 -0.3280 -0.7179
 9482SOL     OW40078   1.057   1.658   2.437  0.4194 -0.6093  0.1683
 9482SOL    HW140079   1.057   1.662   2.533  0.8536  2.2230  0.0619
 9482SOL    HW240080   0.963   1.646   2.423  0.4080 -0.6757  0.3084
 9483SOL     OW40081   2.954   3.297   3.912  0.0581 -0.2669  1.0248
 9483SOL    HW140082   2.978   3.389   3.916  1.5965 -0.6375  0.3665
 9483SOL    HW240083   3.034   3.260   3.875  0.1970  0.4088  0.6478
 9484SOL     OW40084   3.355   0.301   6.410  0.3199  0.3983  0.5154
 9484SOL    HW140085   3.266   0.292   6.377  0.7195 -1.3415 -0.1156
 9484SOL    HW240086   3.357   0.372   6.474  2.3367 -0.5432  1.5224
 9485SOL     OW40087   3.189   1.874   3.818  0.4100 -0.0733 -0.4237
 9485SOL    HW140088   3.126   1.940   3.788  0.0096 -1.1661 -1.9290
 9485SOL    HW240089   3.271   1.916   3.792 -0.1778  0.5200 -1.3032
 9486SOL     OW40090   3.221   3.873   4.357  0.1098  0.3665  0.0538
 9486SOL    HW140091   3.303   3.873   4.408  0.3528  1.0100 -0.3317
 9486SOL    HW240092   3.207   3.967   4.345  1.2394  0.6786  1.1639
 9487SOL     OW40093   1.127   2.744   4.998  0.2475 -0.1515 -0.4365
 9487SOL    HW140094   1.104   2.705   4.913  0.8524 -1.1344 -0.1495
 9487SOL    HW240095   1.218   2.765   4.977 -0.0158  1.2696 -0.1099
 9488SOL     OW40096   4.116   2.471   1.609  0.1184 -0.5885 -0.0932
 9488SOL    HW140097   4.199   2.515   1.626 -0.5030  0.0388  1.3174
 9488SOL    HW240098   4.107   2.429   1.694 -3.0530 -0.7115 -0.4699
 9489SOL     OW40099   4.305   0.092   3.441 -0.5657  0.0007  0.3299
 9489SOL    HW140100   4.346   0.149   3.506  1.6302 -1.5019  0.2474
 9489SOL    HW240101   4.223   0.139   3.428  0.2285  1.6252  1.1922
 9490SOL     OW40102   4.276   2.838   4.401 -0.2425  0.7780  0.0092
 9490SOL    HW140103   4.207   2.866   4.341  0.4173  0.9012 -0.6994
 9490SOL    HW240104   4.299   2.753   4.363 -1.0060  1.3713 -1.7815
 9491SOL     OW40105   3.379   4.268  16.081 -0.1481  0.0599  0.2884
 9491SOL    HW140106   3.391   4.180  16.045 -0.7511  0.3277 -0.5573
 9491SOL    HW240107   3.296   4.259  16.128 -0.7290  0.3759 -0.6696
 9492SOL     OW40108   4.074   3.834  10.244  0.2600  0.6630 -1.2214
 9492SOL    HW140109   4.123   3.754  10.227 -0.5471  0.4443 -2.4757
 9492SOL    HW240110   4.117   3.886  10.176  0.8042  0.6648 -0.8764
 9493SOL     OW40111   1.172   4.478   8.764  0.5386 -0.5831 -0.3589
 9493SOL    HW140112   1.080   4.457   8.781  0.9940 -0.5454  2.1938
 9493SOL    HW240113   1.196   4.530   8.841  0.9528 -0.5487 -0.5136
 9494SOL     OW40114   2.559   3.106  13.148 -0.0298 -0.3577 -0.1042
 9494SOL    HW140115   2.627   3.076  13.210 -0.7786  0.7199  1.2380
 9494SOL    HW240116   2.553   3.039  13.081  2.8818 -0.3366 -0.3990
 9495SOL     OW40117   3.800   2.872   3.440  0.2345 -0.5162 -0.3509
 9495SOL    HW140118   3.767   2.782   3.448  0.7429 -0.9672 -3.2086
 9495SOL    HW240119   3.891   2.853   3.462  1.0890  0.9427 -2.6703
 9496SOL     OW40120   4.214   3.737   3.414  0.2895  0.5764  0.3513
 9496SOL    HW140121   4.167   3.654   3.411 -1.9386  1.8377  1.2842
 9496SOL    HW240122   4.173   3.786   3.484 -1.0343 -0.5399  0.3536
 9497SOL     OW40123   0.289   1.375   7.213 -0.2619 -0.1917 -0.1652
 9497SOL    HW140124   0.370   1.350   7.258 -0.9508  1.9504  2.2790
 9497SOL    HW240125   0.230   1.301   7.230  0.8919 -0.7413  1.4633
 9498SOL     OW40126   2.909   3.868  15.871 -0.2649 -0.7361  0.1027
 9498SOL    HW140127   2.848   3.928  15.828 -0.7373 -2.2123 -1.2684
 9498SOL    HW240128   2.842   3.821  15.921  0.4787 -0.2875  1.5316
 9499SOL     OW40129   1.291   2.260   9.435  0.4176  0.0425 -0.6940
 9499SOL    HW140130   1.214   2.217   9.473  1.0127 -0.2608  0.1635
 9499SOL    HW240131   1.348   2.186   9.414 -0.0810 -0.7582  0.7464
 9500SOL     OW40132   2.695   4.433  14.011  0.2506  0.2775 -0.1961
 9500SOL    HW140133   2.760   4.448  14.080  0.0879 -2.0969  0.4446
 9500SOL    HW240134   2.611   4.431  14.056  0.4045  1.5701  0.1529
 9501SOL     OW40135   0.479   2.586   6.933  0.0608  0.0018  0.1189
 9501SOL    HW140136   0.445   2.540   7.009  1.8953  0.5044  1.2441
 9501SOL    HW240137   0.464   2.520   6.865  0.6456 -0.0356  0.0256
 9502SOL     OW40138   1.632   4.057  12.371  0.0220 -0.4369  0.4874
 9502SOL    HW140139   1.688   4.027  12.299  1.0239 -0.5640  1.3222
 9502SOL    HW240140   1.553   4.037  12.321  0.1863 -0.2287  0.1376
 9503SOL     OW40141   2.835   2.168   2.676 -0.3379 -0.3029  0.1531
 9503SOL    HW140142   2.866   2.084   2.641  1.7465 -0.5564  2.6076
 9503SOL    HW240143   2.761   2.147   2.732 -0.1761 -1.6437 -0.1355
 9504SOL     OW40144   4.593   3.468  16.097 -0.0001 -0.0938 -0.1435
 9504SOL    HW140145   4.508   3.435  16.067  1.5375 -3.2396 -0.9931
 9504SOL    HW240146   4.570   3.540  16.156  1.8777 -1.3260  2.0792
 9505SOL     OW40147   0.788   1.404   2.823 -0.4091 -0.2104 -0.6873
 9505SOL    HW140148   0.821   1.472   2.883 -0.2262 -3.4802  2.9270
 9505SOL    HW240149   0.742   1.347   2.884 -0.8008 -1.4022 -2.0992
 9506SOL     OW40150   1.893   0.143   1.401 -0.7919  0.0059  0.3313
 9506SOL    HW140151   1.882   0.222   1.454  0.8736  1.2590 -1.1972
 9506SOL    HW240152   1.949   0.089   1.457  2.7068  0.5663 -2.6560
 9507SOL     OW40153   2.379   1.187   3.354  0.1206  0.3461  0.4372
 9507SOL    HW140154   2.324   1.184   3.433  1.5130  0.5786  1.4026
 9507SOL    HW240155   2.313   1.226   3.297  1.3615  0.4409 -0.9204
 9508SOL     OW40156   3.610   2.205   4.111 -0.0937  0.0904 -0.5086
 9508SOL    HW140157   3.539   2.142   4.121 -1.7031  1.7250 -1.7662
 9508SOL    HW240158   3.661   2.166   4.040 -0.9213  0.7918 -1.4754
 9509SOL     OW40159   2.801   4.338   6.464  0.1142  0.0021 -0.0100
 9509SOL    HW140160   2.855   4.382   6.398 -1.5991 -1.9914 -2.7161
 9509SOL    HW240161   2.763   4.411   6.513  0.3203  0.4321 -0.4990
 9510SOL     OW40162   1.451   0.087   3.058  0.1935  0.0560  0.5268
 9510SOL    HW140163   1.471   0.085   3.151 -0.6266  0.5443  0.7186
 9510SOL    HW240164   1.531   0.048   3.024 -0.9683 -0.6468 -1.4172
 9511SOL     OW40165   2.193   3.246   8.668 -0.1290 -0.0353  0.2778
 9511SOL    HW140166   2.195   3.164   8.717 -0.8026  0.4109  1.0622
 9511SOL    HW240167   2.273   3.290   8.698  1.1141 -2.1905  0.1101
 9512SOL     OW40168   0.100   3.789   8.081 -0.4527  0.2753 -0.0712
 9512SOL    HW140169   0.188   3.754   8.093 -1.4144 -2.2217 -0.1475
 9512SOL    HW240170   0.074   3.817   8.169 -0.2908 -2.1902  0.7859
 9513SOL     OW40171   3.711   2.504  13.656 -0.2481 -0.0054  0.1003
 9513SOL    HW140172   3.728   2.518  13.563  1.8363  0.0388  0.4825
 9513SOL    HW240173   3.733   2.412  13.666 -2.5014 -0.6534 -0.9941
 9514SOL     OW40174   3.215   3.614   0.444 -0.2809 -0.3044 -0.3215
 9514SOL    HW140175   3.128   3.637   0.412 -0.4159  0.2178  0.4232
 9514SOL    HW240176   3.257   3.661   0.372  1.1040 -0.1746  0.5586
 9515SOL     OW40177   0.819   0.124   8.938  0.2486  0.1460  0.2529
 9515SOL    HW140178   0.914   0.130   8.952 -0.0000  2.3191  1.0448
 9515SOL    HW240179   0.818   0.121   8.843 -1.5146  0.4436  0.2766
 9516SOL     OW40180   1.108   1.613   6.393  0.1694 -0.0787  0.5058
 9516SOL    HW140181   1.140   1.686   6.340 -4.7566  2.1969  0.6019
 9516SOL    HW240182   1.099   1.553   6.319 -0.1968 -2.6162  2.6162
 9517SOL     OW40183   1.912   0.383  16.004 -0.5578  0.5952  0.0191
 9517SOL    HW140184   1.849   0.337  15.949  1.1640  0.1797 -1.6139
 9517SOL    HW240185   1.879   0.353  16.088  0.5921  2.3589  1.0969
 9518SOL     OW40186   1.576   3.424   9.389  0.6528 -0.0783 -0.0849
 9518SOL    HW140187   1.544   3.495   9.333  1.7694  0.2922 -0.2626
 9518SOL    HW240188   1.570   3.351   9.327 -2.6071 -0.4727  0.7126
 9519SOL     OW40189   0.697   3.006   6.191  0.3324  0.5190  0.4963
 9519SOL    HW140190   0.653   2.922   6.204  3.3746 -1.2016 -0.4164
 9519SOL    HW240191   0.693   3.043   6.279 -1.0368 -2.6671  1.7714
 9520SOL     OW40192   2.026   2.944   7.533  0.1359  0.4946 -0.0466
 9520SOL    HW140193   1.958   2.886   7.566  0.2979 -1.6573 -3.4448
 9520SOL    HW240194   1.989   2.962   7.447 -2.3779 -0.0519  0.9405
 9521SOL     OW40195   0.086   2.904  16.191 -0.0439  0.2871  0.3297
 9521SOL    HW140196   0.041   2.989  16.197  0.7482  0.6640  0.9341
 9521SOL    HW240197   0.159   2.921  16.250  2.1741 -0.2530 -2.2765
 9522SOL     OW40198   0.298   3.105   2.459  1.0509 -0.4535 -0.4580
 9522SOL    HW140199   0.356   3.145   2.524  0.9516 -0.7177 -0.2073
 9522SOL    HW240200   0.357   3.094   2.384  1.2307  2.7964 -0.8094
 9523SOL     OW40201   3.925   4.592   1.241 -0.5224  0.4088  0.2590
 9523SOL    HW140202   3.933   4.640   1.159  0.4508 -1.2223 -0.6185
 9523SOL    HW240203   4.009   4.546   1.253  1.2869  3.6351  0.0059
 9524SOL     OW40204   4.416   1.860   6.712 -0.8476 -0.0149  0.5476
 9524SOL    HW140205   4.432   1.916   6.636 -0.5704  0.1343  0.7169
 9524SOL    HW240206   4.483   1.901   6.767  0.6462 -2.3230  0.4323
 9525SOL     OW40207   3.954   0.507  11.100 -0.2548 -0.1142  0.7842
 9525SOL    HW140208   3.989   0.571  11.037 -1.5086 -1.5809 -1.3896
 9525SOL    HW240209   3.953   0.565  11.176  0.3612 -0.2501  0.8920
 9526SOL     OW40210   3.431   4.554   8.395 -0.3292  0.1281 -0.4141
 9526SOL    HW140211   3.406   4.555   8.302 -1.5317  0.3802 -0.0924
 9526SOL    HW240212   3.371   4.484   8.419  0.8974 -1.5224 -2.1963
 9527SOL     OW40213   4.021   4.676  11.763  0.6124  0.2623 -0.9617
 9527SOL    HW140214   4.007   0.034  11.768 -3.1594 -0.2676 -2.1419
 9527SOL    HW240215   4.060   4.681  11.676  1.5825 -0.3469 -0.5644
 9528SOL     OW40216   4.659   0.431   2.286 -0.0436 -0.1387 -0.3565
 9528SOL    HW140217   4.614   0.407   2.205 -1.5593  1.6734 -0.0652
 9528SOL    HW240218   4.589   0.487   2.319 -0.3594 -0.1849 -0.9469
 9529SOL     OW40219   3.646   3.132  13.700  0.3731  0.3196 -0.3503
 9529SOL    HW140220   3.690   3.050  13.722 -0.3489 -0.0584 -0.3108
 9529SOL    HW240221   3.716   3.174  13.650  0.5363  0.7172  0.1999
 9530SOL     OW40222   4.015   0.318   3.966 -0.3296 -0.3887 -0.4090
 9530SOL    HW140223   4.061   0.351   3.890  2.4951 -1.0732  0.9984
 9530SOL    HW240224   4.057   0.366   4.037 -0.2082 -1.4197  0.2262
 9531SOL     OW40225   0.111   2.473   8.449 -0.1612  0.3562  0.3136
 9531SOL    HW140226   0.056   2.438   8.379  1.4715 -1.4256 -0.0924
 9531SOL    HW240227   0.202   2.470   8.419  0.0960  1.7787  0.9507
 9532SOL     OW40228   3.908   0.981   2.890 -0.4004  0.0183  0.0105
 9532SOL    HW140229   4.003   0.980   2.876 -0.2169  0.6496  1.1621
 9532SOL    HW240230   3.885   0.911   2.951  1.5072 -2.2171 -1.7952
 9533SOL     OW40231   1.652   0.835   6.067 -0.1734 -0.2871 -0.5459
 9533SOL    HW140232   1.580   0.898   6.074 -1.0057 -1.2850 -0.1767
 9533SOL    HW240233   1.620   0.787   5.990 -0.3309 -0.7298 -0.2052
 9534SOL     OW40234   2.403   2.234   7.305 -0.3201 -0.2162  0.0907
 9534SOL    HW140235   2.448   2.314   7.332  0.6044 -0.1088 -1.8027
 9534SOL    HW240236   2.449   2.214   7.224 -0.5322 -2.0487  0.4193
 9535SOL     OW40237   2.305   2.126   6.087 -0.8344 -0.3328  0.1969
 9535SOL    HW140238   2.219   2.155   6.057 -1.0180 -0.0837  0.9535
 9535SOL    HW240239   2.316   2.038   6.051  0.4010 -0.8773  1.9229
 9536SOL     OW40240   2.067   4.666   3.194 -0.6041  0.6614 -0.3571
 9536SOL    HW140241   2.147   4.617   3.176 -0.6912  0.2507  0.3685
 9536SOL    HW240242   1.997   4.623   3.144  0.9114 -1.3849 -0.6733
 9537SOL     OW40243   0.998   4.539   2.939 -0.4202  0.3970 -0.3697
 9537SOL    HW140244   1.072   4.491   2.902  0.6175  0.5690  1.4485
 9537SOL    HW240245   0.998   4.615   2.882  0.7860 -0.3960 -1.4200
 9538SOL     OW40246   0.759   0.456  14.106  0.1389  0.1182 -0.0405
 9538SOL    HW140247   0.783   0.375  14.151 -2.1381 -0.5487  0.0138
 9538SOL    HW240248   0.848   0.491  14.111 -0.4797  1.4719  1.5441
 9539SOL     OW40249   0.298   3.671  11.911  0.4939 -0.3664  0.5839
 9539SOL    HW140250   0.202   3.669  11.915  0.4718 -0.5807 -0.0281
 9539SOL    HW240251   0.327   3.739  11.971 -1.4146 -0.1621  1.2712
 9540SOL     OW40252   3.808   0.409   3.075 -0.3211  0.1756 -0.3197
 9540SOL    HW140253   3.895   0.419   3.037 -0.2058  1.4491  0.2870
 9540SOL    HW240254   3.815   0.329   3.128  2.1302  0.7460  0.2058
 9541SOL     OW40255   1.676   1.688   4.722 -0.7585  0.3206  0.1277
 9541SOL    HW140256   1.679   1.765   4.665  1.4306 -0.4103 -0.7605
 9541SOL    HW240257   1.703   1.715   4.810  0.3719 -2.5566  0.6930
 9542SOL     OW40258   2.891   0.675  10.864  0.0036  0.2117 -0.2529
 9542SOL    HW140259   2.973   0.725  10.863 -0.0843  0.3962  0.8598
 9542SOL    HW240260   2.916   0.591  10.903 -2.1736  0.5370  1.8840
 9543SOL     OW40261   1.276   3.818  12.937  0.1748  0.0492  0.4737
 9543SOL    HW140262   1.262   3.723  12.936 -0.0360  0.0660  1.3203
 9543SOL    HW240263   1.370   3.832  12.928  0.0831  0.7224  0.6143
 9544SOL     OW40264   0.172   2.481   2.227  0.1352 -0.3097 -0.1461
 9544SOL    HW140265   0.113   2.485   2.151 -1.0617  2.7099  0.9640
 9544SOL    HW240266   0.155   2.396   2.268  0.7322 -0.1864  0.3535
 9545SOL     OW40267   1.604   1.732  16.597 -0.2235  0.1058 -0.3726
 9545SOL    HW140268   1.546   1.657  16.583 -0.9858  0.8285 -1.0254
 9545SOL    HW240269   1.583   1.792  16.525 -1.2159 -0.8923 -0.9079
 9546SOL     OW40270   4.256   4.130   0.451  0.0695 -0.0205 -0.3617
 9546SOL    HW140271   4.241   4.079   0.531  0.9405 -0.0240 -0.2063
 9546SOL    HW240272   4.216   4.072   0.386 -1.8152 -0.5747  1.2858
 9547SOL     OW40273   4.346   1.897   8.421 -0.4214  0.7622 -0.2710
 9547SOL    HW140274   4.370   1.975   8.370 -0.6930  1.2902  0.4043
 9547SOL    HW240275   4.366   1.923   8.511  0.5835 -2.9469  0.5787
 9548SOL     OW40276   1.851   4.551  11.054  0.4917  0.0608 -0.5823
 9548SOL    HW140277   1.843   4.518  10.965 -0.5440  1.9570 -1.1873
 9548SOL    HW240278   1.914   4.486  11.085 -0.9284  0.7165  3.6158
 9549SOL     OW40279   4.101   0.658  12.543  0.7633 -0.0149  0.1555
 9549SOL    HW140280   4.185   0.685  12.504  0.8166  0.8861  0.8919
 9549SOL    HW240281   4.070   0.603  12.471 -0.2261  0.7698 -0.0157
 9550SOL     OW40282   2.170   0.953  17.298  0.0282 -0.3750  0.7228
 9550SOL    HW140283   2.264   0.938  17.303  0.2703  1.3495  1.2984
 9550SOL    HW240284   2.143   0.874  17.250 -1.8375  0.4885  0.3397
 9551SOL     OW40285   2.617   4.466   6.586 -0.1740  0.6291 -0.3410
 9551SOL    HW140286   2.570   4.548   6.604  0.5717  0.9510  0.1421
 9551SOL    HW240287   2.547   4.406   6.562  0.8083 -0.2042 -1.1462
 9552SOL     OW40288   3.151   2.146   2.726  0.3552  0.5501  0.1682
 9552SOL    HW140289   3.070   2.105   2.694  0.6453  1.0893 -1.2585
 9552SOL    HW240290   3.109   2.226   2.758 -1.3896 -0.5491  0.6308
 9553SOL     OW40291   0.748   1.954   7.297 -0.7107 -0.1533  0.4263
 9553SOL    HW140292   0.659   1.923   7.308 -0.2436 -0.9526  1.9041
 9553SOL    HW240293   0.746   2.010   7.219 -2.0685  1.6621  1.7595
 9554SOL     OW40294   3.688   4.386  15.293  0.1067 -0.1552  0.1720
 9554SOL    HW140295   3.755   4.400  15.360 -0.6408  0.5708  0.7786
 9554SOL    HW240296   3.643   4.469  15.309 -0.8379 -0.4974 -0.7413
 9555SOL     OW40297   0.764   2.218   8.364 -0.2675  0.2860  0.3900
 9555SOL    HW140298   0.740   2.306   8.393 -0.6609  0.6437 -1.0446
 9555SOL    HW240299   0.744   2.162   8.439  0.8591  1.0465  1.2606
 9556SOL     OW40300   2.738   4.692   8.292 -0.4453  0.0595  0.1392
 9556SOL    HW140301   2.759   4.641   8.214  2.6155 -0.0200  1.0175
 9556SOL    HW240302   2.686   4.632   8.345 -1.0355  0.4843  0.0404
 9557SOL     OW40303   2.608   3.554  10.731  0.4936  0.1770 -0.0134
 9557SOL    HW140304   2.584   3.484  10.671 -2.3231  0.3297  0.9223
 9557SOL    HW240305   2.699   3.569  10.704  0.7308 -1.4210 -0.1167
 9558SOL     OW40306   4.040   4.412  15.230  0.1074 -0.4834 -0.2955
 9558SOL    HW140307   3.970   4.354  15.201  0.2757 -0.3255 -1.0116
 9558SOL    HW240308   4.016   4.416  15.322 -2.0421  0.9675 -0.9124
 9559SOL     OW40309   0.224   0.466   1.650 -0.0827  0.1567 -0.0682
 9559SOL    HW140310   0.136   0.493   1.677  0.7562  2.6210  0.2462
 9559SOL    HW240311   0.267   0.551   1.657  0.3207  0.2435 -3.6865
 9560SOL     OW40312   4.533   4.245  15.161 -0.1306  0.4919 -0.6995
 9560SOL    HW140313   4.448   4.272  15.127  0.2940  1.1138 -1.2637
 9560SOL    HW240314   4.547   4.313  15.226  0.3580 -0.3740  0.1043
 9561SOL     OW40315   0.165   2.716   7.030  0.0167  0.0300 -0.2837
 9561SOL    HW140316   0.181   2.782   6.963  1.1093 -0.1417 -0.1843
 9561SOL    HW240317   0.217   2.744   7.105 -1.3495 -2.2420  1.5208
 9562SOL     OW40318   3.419   2.994   7.052 -0.4199 -0.4465 -0.0554
 9562SOL    HW140319   3.404   2.955   7.138 -0.3288  4.0754  2.0082
 9562SOL    HW240320   3.411   2.920   6.993 -2.0245  0.2206 -0.6643
 9563SOL     OW40321   2.620   2.426   3.184  0.0598 -0.1967  0.1311
 9563SOL    HW140322   2.639   2.365   3.255 -0.0824 -0.3952 -0.0025
 9563SOL    HW240323   2.635   2.513   3.223 -0.6406 -1.1211  2.4428
 9564SOL     OW40324   1.888   0.763   9.909 -0.0502  0.0845 -0.5709
 9564SOL    HW140325   1.851   0.813   9.837 -2.6768  2.7723  2.6704
 9564SOL    HW240326   1.939   0.834   9.948  0.5518 -0.9151  0.4672
 9565SOL     OW40327   1.935   4.416   3.951  0.2210  0.1007  0.7228
 9565SOL    HW140328   1.881   4.463   4.014  2.1007  0.0712  2.3397
 9565SOL    HW240329   1.928   4.471   3.873 -0.8762  0.7875  1.3002
 9566SOL     OW40330   1.910   3.518  10.935  0.0927  0.3643 -0.7595
 9566SOL    HW140331   1.911   3.610  10.961  0.8453  0.9735 -2.9190
 9566SOL    HW240332   1.995   3.516  10.892 -0.0712  2.7851 -1.1988
 9567SOL     OW40333   3.747   4.279   3.385  0.1233 -0.2477 -1.1638
 9567SOL    HW140334   3.789   4.289   3.300  0.4493  0.8243 -0.8825
 9567SOL    HW240335   3.811   4.333   3.433  0.3389 -1.8864  0.3932
 9568SOL     OW40336   3.187   1.091   2.081  0.2550  0.0147  0.1645
 9568SOL    HW140337   3.106   1.132   2.051  0.8078 -0.1842 -1.5972
 9568SOL    HW240338   3.215   1.044   2.003 -1.1277 -3.7807  1.9698
 9569SOL     OW40339   3.939   1.239   9.013 -0.6270  0.2472 -0.5318
 9569SOL    HW140340   3.935   1.241   8.917  1.6327 -1.7763 -0.6671
 9569SOL    HW240341   3.999   1.313   9.026 -0.1265  0.3065 -3.1773
 9570SOL     OW40342   2.709   3.425   3.347  0.0614  0.4587 -0.3242
 9570SOL    HW140343   2.647   3.376   3.400 -2.2475  0.8453 -2.6723
 9570SOL    HW240344   2.780   3.361   3.340  1.3009  1.7870  0.0850
 9571SOL     OW40345   4.485   0.892  14.115 -0.5615 -0.0714 -0.1812
 9571SOL    HW140346   4.483   0.796  14.108 -0.4843 -0.0847 -0.0252
 9571SOL    HW240347   4.516   0.925  14.031 -0.4382 -1.4323 -0.6716
   4.73676   4.73676  17.74544
